<event>
 7    1  0.4096326E-006  0.1651584E+03  0.7561462E-02  0.1182993E+00
         -1   -1    0    0    0  501 -0.00000000000E+00  0.00000000000E+00  0.23660527430E+03  0.23660527430E+03  0.00000000000E+00 0.  1.
          1   -1    0    0  501    0  0.00000000000E+00 -0.00000000000E+00 -0.14854156191E+03  0.14854156191E+03  0.00000000000E+00 0. -1.
         23    2    1    2    0    0 -0.13115928320E+03  0.61209681722E+02 -0.98433711681E+01  0.17024641468E+03  0.89093024694E+02 0.  0.
          5    1    1    2  502    0  0.90381668187E+02  0.14056458562E+02  0.90719378094E+02  0.12889494922E+03  0.41800000000E+01 0. -1.
         -5    1    1    2    0  502  0.40777615015E+02 -0.75266140285E+02  0.71877054648E+01  0.86005472323E+02  0.41800000000E+01 0. -1.
        -11    1    3    3    0    0 -0.95004816013E+02  0.17977095841E+02  0.29987504406E+02  0.10123409238E+03  0.00000000000E+00 0.  1.
         11    1    3    3    0    0 -0.36154467189E+02  0.43232585881E+02 -0.39830875574E+02  0.69012322296E+02  0.00000000000E+00 0. -1.
</event>
<event>
 7    1  0.4096326E-006  0.1238545E+03  0.7561462E-02  0.1236870E+00
          2   -1    0    0  501    0  0.00000000000E+00  0.00000000000E+00  0.18212428649E+02  0.18212428649E+02  0.00000000000E+00 0.  1.
         -2   -1    0    0    0  501 -0.00000000000E+00 -0.00000000000E+00 -0.15162754441E+04  0.15162754441E+04  0.00000000000E+00 0. -1.
         23    2    1    2    0    0  0.43079857258E+02 -0.10834312953E+03 -0.45793951046E+03  0.48040150349E+03  0.86503765798E+02 0.  0.
          5    1    1    2  502    0  0.88791505797E+01  0.54766570060E+02 -0.13689316192E+03  0.14776815181E+03  0.41800000000E+01 0. -1.
         -5    1    1    2    0  502 -0.51959007837E+02  0.53576559471E+02 -0.90323034307E+03  0.90631821744E+03  0.41800000000E+01 0. -1.
        -11    1    3    3    0    0  0.17546701121E+02 -0.61681625398E+02 -0.38399730549E+03  0.38931534809E+03  0.00000000000E+00 0. -1.
         11    1    3    3    0    0  0.25533156136E+02 -0.46661504132E+02 -0.73942204962E+02  0.91086155396E+02  0.00000000000E+00 0.  1.
</event>
<event>
 7    1  0.4096326E-006  0.1073349E+03  0.7561462E-02  0.1265586E+00
          1   -1    0    0  501    0  0.00000000000E+00  0.00000000000E+00  0.13923379896E+03  0.13923379896E+03  0.00000000000E+00 0. -1.
         -1   -1    0    0    0  501 -0.00000000000E+00 -0.00000000000E+00 -0.13994899371E+03  0.13994899371E+03  0.00000000000E+00 0.  1.
         23    2    1    2    0    0 -0.39532722972E+01  0.39937220008E+02  0.65715046350E+02  0.12586256439E+03  0.99560573991E+02 0.  0.
          5    1    1    2  502    0 -0.51070584194E+02 -0.23415479407E+02  0.10404727632E+02  0.57290662440E+02  0.41800000000E+01 0. -1.
         -5    1    1    2    0  502  0.55023856491E+02 -0.16521740601E+02 -0.76834968734E+02  0.96029565843E+02  0.41800000000E+01 0.  1.
        -11    1    3    3    0    0  0.43378283553E+02  0.28912415565E+02  0.12132767076E+02  0.53523894615E+02  0.00000000000E+00 0.  1.
         11    1    3    3    0    0 -0.47331555850E+02  0.11024804443E+02  0.53582279274E+02  0.72338669772E+02  0.00000000000E+00 0. -1.
</event>
<event>
 7    1  0.4096326E-006  0.2750969E+03  0.7561462E-02  0.1098397E+00
         -1   -1    0    0    0  501 -0.00000000000E+00  0.00000000000E+00  0.15205860034E+03  0.15205860034E+03  0.00000000000E+00 0.  1.
          1   -1    0    0  501    0  0.00000000000E+00 -0.00000000000E+00 -0.10963899856E+04  0.10963899856E+04  0.00000000000E+00 0. -1.
         23    2    1    2    0    0  0.21616942357E+03 -0.13392085086E+03 -0.92608192924E+03  0.96446990716E+03  0.88940700259E+02 0.  0.
          5    1    1    2  502    0 -0.18081305575E+03  0.15760660125E+03 -0.22786644769E+02  0.24097698120E+03  0.41800000000E+01 0. -1.
         -5    1    1    2    0  502 -0.35356367822E+02 -0.23685750384E+02  0.45371887200E+01  0.43001697621E+02  0.41800000000E+01 0. -1.
        -11    1    3    3    0    0  0.91411889395E+02 -0.10447734648E+02 -0.37428103657E+03  0.38542390043E+03  0.00000000000E+00 0.  1.
         11    1    3    3    0    0  0.12475753418E+03 -0.12347311621E+03 -0.55180089267E+03  0.57904600673E+03  0.00000000000E+00 0. -1.
</event>
<event>
 7    1  0.4096326E-006  0.1050015E+03  0.7561462E-02  0.1270117E+00
         -1   -1    0    0    0  501 -0.00000000000E+00  0.00000000000E+00  0.10173792755E+03  0.10173792755E+03  0.00000000000E+00 0.  1.
          1   -1    0    0  501    0  0.00000000000E+00 -0.00000000000E+00 -0.13655561667E+03  0.13655561667E+03  0.00000000000E+00 0. -1.
         23    2    1    2    0    0  0.16884814326E+02 -0.26096081740E+02 -0.22963382851E+02  0.10885503403E+03  0.10176442918E+03 0.  0.
          5    1    1    2  502    0  0.54033625085E+01  0.62409685750E+02  0.29986108998E+02  0.69575889033E+02  0.41800000000E+01 0. -1.
         -5    1    1    2    0  502 -0.22288176835E+02 -0.36313604011E+02 -0.41840415264E+02  0.59862621161E+02  0.41800000000E+01 0. -1.
        -11    1    3    3    0    0 -0.11780836232E+01 -0.63163157409E+02 -0.24075209875E+02  0.67606124467E+02  0.00000000000E+00 0.  1.
         11    1    3    3    0    0  0.18062897949E+02  0.37067075670E+02  0.11118270249E+01  0.41248909566E+02  0.00000000000E+00 0. -1.
</event>
<event>
 7    1  0.4096326E-006  0.1056991E+03  0.7561462E-02  0.1268748E+00
          1   -1    0    0  501    0  0.00000000000E+00  0.00000000000E+00  0.21830348596E+03  0.21830348596E+03  0.00000000000E+00 0. -1.
         -1   -1    0    0    0  501 -0.00000000000E+00 -0.00000000000E+00 -0.61600777070E+02  0.61600777070E+02  0.00000000000E+00 0.  1.
         23    2    1    2    0    0  0.38300666557E+02  0.12850640964E+02  0.75613170593E+02  0.12545199496E+03  0.91590236600E+02 0.  0.
          5    1    1    2  502    0 -0.71030702595E+02  0.12885179263E+02  0.11456210350E+02  0.73212742820E+02  0.41800000000E+01 0. -1.
         -5    1    1    2    0  502  0.32730036037E+02 -0.25735820227E+02  0.69633327946E+02  0.81239525249E+02  0.41800000000E+01 0. -1.
        -11    1    3    3    0    0 -0.23439957640E+02 -0.16712840155E+02  0.95803887279E+01  0.30340311277E+02  0.00000000000E+00 0.  1.
         11    1    3    3    0    0  0.61740624198E+02  0.29563481119E+02  0.66032781865E+02  0.95111683683E+02  0.00000000000E+00 0. -1.
</event>
<event>
 7    1  0.4096326E-006  0.9746326E+02  0.7561462E-02  0.1285723E+00
         -1   -1    0    0    0  501 -0.00000000000E+00  0.00000000000E+00  0.13368955773E+04  0.13368955773E+04  0.00000000000E+00 0.  1.
          1   -1    0    0  501    0  0.00000000000E+00 -0.00000000000E+00 -0.11915502171E+02  0.11915502171E+02  0.00000000000E+00 0. -1.
         23    2    1    2    0    0 -0.47660490464E+02 -0.41687484950E+02  0.54657569614E+03  0.55788066473E+03  0.92067777842E+02 0.  0.
          5    1    1    2  502    0 -0.27437271233E+01  0.36716610756E+02  0.58592425805E+02  0.69326634893E+02  0.41800000000E+01 0.  1.
         -5    1    1    2    0  502  0.50404217588E+02  0.49708741946E+01  0.71981195314E+03  0.72160377980E+03  0.41800000000E+01 0.  1.
        -11    1    3    3    0    0 -0.49826699851E+02 -0.65969252090E+02  0.47809659944E+03  0.48519171534E+03  0.00000000000E+00 0.  1.
         11    1    3    3    0    0  0.21662093867E+01  0.24281767140E+02  0.68479096698E+02  0.72688949388E+02  0.00000000000E+00 0. -1.
</event>
<event>
 7    1  0.4096326E-006  0.1529075E+03  0.7561462E-02  0.1196945E+00
         -1   -1    0    0    0  501 -0.00000000000E+00  0.00000000000E+00  0.46260420664E+02  0.46260420664E+02  0.00000000000E+00 0.  1.
          1   -1    0    0  501    0  0.00000000000E+00 -0.00000000000E+00 -0.55908720653E+03  0.55908720653E+03  0.00000000000E+00 0. -1.
         23    2    1    2    0    0 -0.21532613597E+00  0.11562225683E+03 -0.27879381138E+03  0.31588756453E+03  0.93222376715E+02 0.  0.
          5    1    1    2  502    0  0.59762462672E+02 -0.74825146536E+02 -0.15586529548E+03  0.18298037391E+03  0.41800000000E+01 0.  1.
         -5    1    1    2    0  502 -0.59547136536E+02 -0.40797110293E+02 -0.78167679011E+02  0.10647968877E+03  0.41800000000E+01 0.  1.
        -11    1    3    3    0    0 -0.29838118780E+02  0.99614521245E+02 -0.14833565424E+03  0.18115416775E+03  0.00000000000E+00 0.  1.
         11    1    3    3    0    0  0.29622792644E+02  0.16007735584E+02 -0.13045815714E+03  0.13473339677E+03  0.00000000000E+00 0. -1.
</event>
<event>
 7    1  0.4096326E-006  0.2016508E+03  0.7561462E-02  0.1148354E+00
          2   -1    0    0  501    0  0.00000000000E+00  0.00000000000E+00  0.71109567790E+03  0.71109567790E+03  0.00000000000E+00 0. -1.
         -2   -1    0    0    0  501 -0.00000000000E+00 -0.00000000000E+00 -0.58373272750E+02  0.58373272750E+02  0.00000000000E+00 0.  1.
         23    2    1    2    0    0  0.13254579605E+03  0.11024352813E+03  0.33728990360E+03  0.38885591155E+03  0.87877285646E+02 0.  0.
          5    1    1    2  502    0 -0.68181542767E+02  0.16834932969E+02  0.11070525768E+03  0.13116883860E+03  0.41800000000E+01 0. -1.
         -5    1    1    2    0  502 -0.64364253288E+02 -0.12707846110E+03  0.20472724387E+03  0.24944420049E+03  0.41800000000E+01 0. -1.
        -11    1    3    3    0    0  0.11792375734E+02 -0.13236817055E+02  0.56363161205E+02  0.59085356834E+02  0.00000000000E+00 0. -1.
         11    1    3    3    0    0  0.12075342032E+03  0.12348034519E+03  0.28092674239E+03  0.32977055472E+03  0.00000000000E+00 0.  1.
</event>
<event>
 7    1  0.4096326E-006  0.1598300E+03  0.7561462E-02  0.1188889E+00
          1   -1    0    0  501    0  0.00000000000E+00  0.00000000000E+00  0.14399629275E+03  0.14399629275E+03  0.00000000000E+00 0. -1.
         -1   -1    0    0    0  501 -0.00000000000E+00 -0.00000000000E+00 -0.30491138424E+03  0.30491138424E+03  0.00000000000E+00 0.  1.
         23    2    1    2    0    0 -0.41595168894E+00 -0.13199654630E+03  0.42890950498E+02  0.16641751082E+03  0.91825339761E+02 0.  0.
          5    1    1    2  502    0  0.29653577061E+02  0.14557925808E+03 -0.11500650372E+03  0.18792717556E+03  0.41800000000E+01 0. -1.
         -5    1    1    2    0  502 -0.29237625372E+02 -0.13582711774E+02 -0.88799538271E+02  0.94562990613E+02  0.41800000000E+01 0.  1.
        -11    1    3    3    0    0 -0.14463578144E+02 -0.15563113283E+02  0.44299829975E+02  0.49131258112E+02  0.00000000000E+00 0.  1.
         11    1    3    3    0    0  0.14047626455E+02 -0.11643343302E+03 -0.14088794767E+01  0.11728625271E+03  0.00000000000E+00 0. -1.
</event>
<event>
 7    1  0.4096326E-006  0.1243971E+03  0.7561462E-02  0.1236015E+00
          3   -1    0    0  501    0  0.00000000000E+00  0.00000000000E+00  0.14634207152E+03  0.14634207152E+03  0.00000000000E+00 0. -1.
         -3   -1    0    0    0  501 -0.00000000000E+00 -0.00000000000E+00 -0.12705960532E+03  0.12705960532E+03  0.00000000000E+00 0.  1.
         23    2    1    2    0    0 -0.29215046733E+02  0.77619213426E+02  0.21115199491E+02  0.12330580679E+03  0.88770541787E+02 0.  0.
          5    1    1    2  502    0 -0.34525038719E+02 -0.41556200326E+02  0.38417112354E+02  0.66424716828E+02  0.41800000000E+01 0.  1.
         -5    1    1    2    0  502  0.63740085452E+02 -0.36063013100E+02 -0.40249845647E+02  0.83671153224E+02  0.41800000000E+01 0.  1.
        -11    1    3    3    0    0 -0.11893446920E+02  0.95569619381E+02  0.13661516637E+02  0.97270978534E+02  0.00000000000E+00 0. -1.
         11    1    3    3    0    0 -0.17321599813E+02 -0.17950405955E+02  0.74536828543E+01  0.26034828252E+02  0.00000000000E+00 0.  1.
</event>
<event>
 7    1  0.4096326E-006  0.9100060E+02  0.7561462E-02  0.1300447E+00
          1   -1    0    0  501    0  0.00000000000E+00  0.00000000000E+00  0.21386362180E+03  0.21386362180E+03  0.00000000000E+00 0. -1.
         -1   -1    0    0    0  501 -0.00000000000E+00 -0.00000000000E+00 -0.65896048343E+02  0.65896048343E+02  0.00000000000E+00 0.  1.
         23    2    1    2    0    0 -0.18705361557E+02  0.35638526537E+02  0.94396422809E+02  0.13785467320E+03  0.92050155668E+02 0.  0.
          5    1    1    2  502    0  0.31453044179E+02 -0.77461441470E+02  0.18571280662E+02  0.85743418221E+02  0.41800000000E+01 0.  1.
         -5    1    1    2    0  502 -0.12747682622E+02  0.41822914933E+02  0.34999869986E+02  0.56161578724E+02  0.41800000000E+01 0.  1.
        -11    1    3    3    0    0 -0.17025904056E+01  0.37253103103E+02 -0.44382378535E+01  0.37555165558E+02  0.00000000000E+00 0.  1.
         11    1    3    3    0    0 -0.17002771151E+02 -0.16145765652E+01  0.98834660663E+02  0.10029950764E+03  0.00000000000E+00 0. -1.
</event>
<event>
 7    1  0.4096326E-006  0.1233757E+03  0.7561462E-02  0.1237630E+00
          4   -1    0    0  501    0  0.00000000000E+00  0.00000000000E+00  0.39907434508E+02  0.39907434508E+02  0.00000000000E+00 0. -1.
         -4   -1    0    0    0  501 -0.00000000000E+00 -0.00000000000E+00 -0.41786779170E+03  0.41786779170E+03  0.00000000000E+00 0.  1.
         23    2    1    2    0    0  0.21863243728E+02 -0.65344169281E+02 -0.12737498680E+03  0.16935101091E+03  0.87792458385E+02 0.  0.
          5    1    1    2  502    0  0.40190963440E+02 -0.13193084555E+02 -0.69230022597E+02  0.81238164991E+02  0.41800000000E+01 0.  1.
         -5    1    1    2    0  502 -0.62054207168E+02  0.78537253836E+02 -0.18135534780E+03  0.20718605031E+03  0.41800000000E+01 0.  1.
        -11    1    3    3    0    0  0.49505493787E+02 -0.25826992848E+02 -0.98263290765E+02  0.11301991765E+03  0.00000000000E+00 0.  1.
         11    1    3    3    0    0 -0.27642250058E+02 -0.39517176433E+02 -0.29111696032E+02  0.56331093256E+02  0.00000000000E+00 0. -1.
</event>
<event>
 7    1  0.4096326E-006  0.9647360E+02  0.7561462E-02  0.1287891E+00
         -1   -1    0    0    0  501 -0.00000000000E+00  0.00000000000E+00  0.83184913594E+03  0.83184913594E+03  0.00000000000E+00 0.  1.
          1   -1    0    0  501    0  0.00000000000E+00 -0.00000000000E+00 -0.17223322708E+02  0.17223322708E+02  0.00000000000E+00 0. -1.
         23    2    1    2    0    0  0.26722535669E+02 -0.24808946281E+02  0.19752007625E+03  0.22105405974E+03  0.92310016130E+02 0.  0.
          5    1    1    2  502    0 -0.39810604653E+02  0.54742639555E+02  0.53903745351E+03  0.54328674705E+03  0.41800000000E+01 0. -1.
         -5    1    1    2    0  502  0.13088068984E+02 -0.29933693273E+02  0.78068283467E+02  0.84731651856E+02  0.41800000000E+01 0.  1.
        -11    1    3    3    0    0 -0.16534350700E+02 -0.42390390950E+02  0.56729672440E+02  0.72722663133E+02  0.00000000000E+00 0. -1.
         11    1    3    3    0    0  0.43256886369E+02  0.17581444668E+02  0.14079040381E+03  0.14833139661E+03  0.00000000000E+00 0.  1.
</event>
<event>
 7    1  0.4096326E-006  0.1109919E+03  0.7561462E-02  0.1258744E+00
          4   -1    0    0  501    0  0.00000000000E+00  0.00000000000E+00  0.12174236840E+03  0.12174236840E+03  0.00000000000E+00 0. -1.
         -4   -1    0    0    0  501 -0.00000000000E+00 -0.00000000000E+00 -0.13031003811E+03  0.13031003811E+03  0.00000000000E+00 0.  1.
         23    2    1    2    0    0 -0.19744871231E+02  0.41665106964E+02  0.44867129040E+02  0.10842526485E+03  0.87276215039E+02 0.  0.
          5    1    1    2  502    0  0.72059189264E+02 -0.34063239641E+02 -0.26137530236E+02  0.83984962577E+02  0.41800000000E+01 0.  1.
         -5    1    1    2    0  502 -0.52314318033E+02 -0.76018673231E+01 -0.27297268515E+02  0.59642179089E+02  0.41800000000E+01 0.  1.
        -11    1    3    3    0    0  0.29423451504E+02  0.18794091057E+02  0.41300989976E+02  0.54080764881E+02  0.00000000000E+00 0. -1.
         11    1    3    3    0    0 -0.49168322735E+02  0.22871015907E+02  0.35661390633E+01  0.54344499970E+02  0.00000000000E+00 0.  1.
</event>
<event>
 7    1  0.4096326E-006  0.2227221E+03  0.7561462E-02  0.1131870E+00
         -1   -1    0    0    0  501 -0.00000000000E+00  0.00000000000E+00  0.26237334164E+03  0.26237334164E+03  0.00000000000E+00 0.  1.
          1   -1    0    0  501    0  0.00000000000E+00 -0.00000000000E+00 -0.20441752923E+03  0.20441752923E+03  0.00000000000E+00 0. -1.
         23    2    1    2    0    0  0.20099054772E+03 -0.25857568954E+02  0.52185062561E+02  0.22857465116E+03  0.91963450642E+02 0.  0.
          5    1    1    2  502    0 -0.19650471331E+03  0.58390912601E+02  0.47277119238E+01  0.20509369734E+03  0.41800000000E+01 0. -1.
         -5    1    1    2    0  502 -0.44858344104E+01 -0.32533343647E+02  0.10430379253E+01  0.33122522358E+02  0.41800000000E+01 0. -1.
        -11    1    3    3    0    0  0.12612292904E+03 -0.37389729664E+02 -0.80498923661E+01  0.13179448350E+03  0.00000000000E+00 0. -1.
         11    1    3    3    0    0  0.74867618683E+02  0.11532160711E+02  0.60234954927E+02  0.96780167663E+02  0.00000000000E+00 0.  1.
</event>
<event>
 7    1  0.4096326E-006  0.8844354E+02  0.7561462E-02  0.1306665E+00
         -2   -1    0    0    0  501 -0.00000000000E+00  0.00000000000E+00  0.28634648172E+02  0.28634648172E+02  0.00000000000E+00 0.  1.
          2   -1    0    0  501    0  0.00000000000E+00 -0.00000000000E+00 -0.50857650581E+03  0.50857650581E+03  0.00000000000E+00 0. -1.
         23    2    1    2    0    0 -0.49818626370E+01 -0.11974856397E+02 -0.31991609938E+03  0.33368248514E+03  0.93965281376E+02 0.  0.
          5    1    1    2  502    0 -0.29516430856E+02  0.30946841505E+02 -0.15815927951E+03  0.16389251595E+03  0.41800000000E+01 0.  1.
         -5    1    1    2    0  502  0.34498293493E+02 -0.18971985108E+02 -0.18664787430E+01  0.39636152888E+02  0.41800000000E+01 0.  1.
        -11    1    3    3    0    0  0.31983708192E+02  0.26082364894E+02 -0.12270487672E+03  0.12945939177E+03  0.00000000000E+00 0. -1.
         11    1    3    3    0    0 -0.36965570829E+02 -0.38057221291E+02 -0.19721122266E+03  0.20422309337E+03  0.00000000000E+00 0.  1.
</event>
<event>
 7    1  0.4096326E-006  0.1118556E+03  0.7561462E-02  0.1257172E+00
         -2   -1    0    0    0  501 -0.00000000000E+00  0.00000000000E+00  0.18545087727E+03  0.18545087727E+03  0.00000000000E+00 0.  1.
          2   -1    0    0  501    0  0.00000000000E+00 -0.00000000000E+00 -0.99022431599E+02  0.99022431599E+02  0.00000000000E+00 0. -1.
         23    2    1    2    0    0  0.30753641009E+02  0.76798754327E+02  0.26922257995E+02  0.12312358769E+03  0.87125052471E+02 0.  0.
          5    1    1    2  502    0 -0.30367049527E+00  0.18516211464E+02 -0.24247869201E+02  0.30795679300E+02  0.41800000000E+01 0. -1.
         -5    1    1    2    0  502 -0.30449970513E+02 -0.95314965792E+02  0.83754056874E+02  0.13055404188E+03  0.41800000000E+01 0. -1.
        -11    1    3    3    0    0  0.42031255347E+02  0.82011237542E+02  0.43907061492E+02  0.10207986852E+03  0.00000000000E+00 0.  1.
         11    1    3    3    0    0 -0.11277614338E+02 -0.52124832144E+01 -0.16984803496E+02  0.21043719164E+02  0.00000000000E+00 0. -1.
</event>
<event>
 7    1  0.4096326E-006  0.1802416E+03  0.7561462E-02  0.1167569E+00
         -1   -1    0    0    0  501 -0.00000000000E+00  0.00000000000E+00  0.15216317791E+03  0.15216317791E+03  0.00000000000E+00 0.  1.
          1   -1    0    0  501    0  0.00000000000E+00 -0.00000000000E+00 -0.26269596411E+03  0.26269596411E+03  0.00000000000E+00 0. -1.
         23    2    1    2    0    0 -0.67069664739E+02  0.20513627549E+02 -0.49647531364E+02  0.12240746628E+03  0.87175464364E+02 0.  0.
          5    1    1    2  502    0  0.13243158762E+03  0.66371784788E+02 -0.97799507229E+02  0.17755437260E+03  0.41800000000E+01 0. -1.
         -5    1    1    2    0  502 -0.65361922879E+02 -0.86885412337E+02  0.36914252392E+02  0.11489730314E+03  0.41800000000E+01 0.  1.
        -11    1    3    3    0    0 -0.69944408509E+02 -0.11895764755E+02 -0.10851517892E+02  0.71773845803E+02  0.00000000000E+00 0. -1.
         11    1    3    3    0    0  0.28747437706E+01  0.32409392304E+02 -0.38796013471E+02  0.50633620476E+02  0.00000000000E+00 0.  1.
</event>
<event>
 7    1  0.4096326E-006  0.9594872E+02  0.7561462E-02  0.1289054E+00
          1   -1    0    0  501    0  0.00000000000E+00  0.00000000000E+00  0.32452133011E+03  0.32452133011E+03  0.00000000000E+00 0. -1.
         -1   -1    0    0    0  501 -0.00000000000E+00 -0.00000000000E+00 -0.50960560491E+02  0.50960560491E+02  0.00000000000E+00 0.  1.
         23    2    1    2    0    0 -0.54388580602E+01 -0.38908201417E+02  0.20390560915E+03  0.22701921479E+03  0.91743103969E+02 0.  0.
          5    1    1    2  502    0  0.53669886962E+01  0.65573831568E+02  0.92165382233E+02  0.11331664501E+03  0.41800000000E+01 0. -1.
         -5    1    1    2    0  502  0.71869363992E-01 -0.26665630150E+02 -0.22510221771E+02  0.35146030796E+02  0.41800000000E+01 0. -1.
        -11    1    3    3    0    0 -0.28189966983E+02  0.20833634691E+02  0.86603484695E+02  0.93428465331E+02  0.00000000000E+00 0.  1.
         11    1    3    3    0    0  0.22751108923E+02 -0.59741836108E+02  0.11730212446E+03  0.13359074946E+03  0.00000000000E+00 0. -1.
</event>
<event>
 7    1  0.4096326E-006  0.1060494E+03  0.7561462E-02  0.1268066E+00
          1   -1    0    0  501    0  0.00000000000E+00  0.00000000000E+00  0.47114256056E+02  0.47114256056E+02  0.00000000000E+00 0. -1.
         -1   -1    0    0    0  501 -0.00000000000E+00 -0.00000000000E+00 -0.29198082460E+03  0.29198082460E+03  0.00000000000E+00 0.  1.
         23    2    1    2    0    0  0.26530674553E+02 -0.33780055950E+02 -0.79870640167E+02  0.12763216453E+03  0.89809138674E+02 0.  0.
          5    1    1    2  502    0 -0.62754390511E+02  0.58093802022E+02 -0.12859958763E+03  0.15449378531E+03  0.41800000000E+01 0.  1.
         -5    1    1    2    0  502  0.36223715958E+02 -0.24313746072E+02 -0.36396340749E+02  0.56969130815E+02  0.41800000000E+01 0.  1.
        -11    1    3    3    0    0  0.22079709426E+02 -0.55893611804E+02 -0.85382375689E+02  0.10441149116E+03  0.00000000000E+00 0.  1.
         11    1    3    3    0    0  0.44509651272E+01  0.22113555853E+02  0.55117355222E+01  0.23220673365E+02  0.00000000000E+00 0. -1.
</event>
<event>
 7    1  0.4096326E-006  0.1286675E+03  0.7561462E-02  0.1229446E+00
          2   -1    0    0  501    0  0.00000000000E+00  0.00000000000E+00  0.13613762456E+03  0.13613762456E+03  0.00000000000E+00 0. -1.
         -2   -1    0    0    0  501 -0.00000000000E+00 -0.00000000000E+00 -0.22914057759E+03  0.22914057759E+03  0.00000000000E+00 0.  1.
         23    2    1    2    0    0  0.10044898897E+03  0.69339429377E+02  0.24405206098E+02  0.15472794845E+03  0.91908476740E+02 0.  0.
          5    1    1    2  502    0 -0.14981201389E+02 -0.43029806869E+02 -0.11185932527E+03  0.12085520975E+03  0.41800000000E+01 0. -1.
         -5    1    1    2    0  502 -0.85467787582E+02 -0.26309622509E+02 -0.55488338540E+01  0.89695043943E+02  0.41800000000E+01 0. -1.
        -11    1    3    3    0    0  0.65056411137E+02  0.45024267376E+02 -0.30702693657E+02  0.84865638986E+02  0.00000000000E+00 0.  1.
         11    1    3    3    0    0  0.35392577835E+02  0.24315162002E+02  0.55107899755E+02  0.69862309469E+02  0.00000000000E+00 0. -1.
</event>
<event>
 7    1  0.4096326E-006  0.8913276E+02  0.7561462E-02  0.1304966E+00
          2   -1    0    0  501    0  0.00000000000E+00  0.00000000000E+00  0.51895295554E+02  0.51895295554E+02  0.00000000000E+00 0. -1.
         -2   -1    0    0    0  501 -0.00000000000E+00 -0.00000000000E+00 -0.38004005308E+03  0.38004005308E+03  0.00000000000E+00 0.  1.
         23    2    1    2    0    0 -0.24744518611E+02  0.79557063425E+02 -0.11527588207E+03  0.17135460389E+03  0.95562826160E+02 0.  0.
          5    1    1    2  502    0  0.30526284394E+02 -0.81847128705E+02 -0.56687499278E+02  0.10421972697E+03  0.41800000000E+01 0.  1.
         -5    1    1    2    0  502 -0.57817657833E+01  0.22900652803E+01 -0.15618137618E+03  0.15636101777E+03  0.41800000000E+01 0.  1.
        -11    1    3    3    0    0 -0.10980934436E+02  0.34422532590E+02 -0.11866767498E+03  0.12404639760E+03  0.00000000000E+00 0.  1.
         11    1    3    3    0    0 -0.13763584175E+02  0.45134530835E+02  0.33917929131E+01  0.47308206288E+02  0.00000000000E+00 0. -1.
</event>
<event>
 7    1  0.4096326E-006  0.1149577E+03  0.7561462E-02  0.1251655E+00
          1   -1    0    0  501    0  0.00000000000E+00  0.00000000000E+00  0.38485240098E+03  0.38485240098E+03  0.00000000000E+00 0. -1.
         -1   -1    0    0    0  501 -0.00000000000E+00 -0.00000000000E+00 -0.39445430352E+02  0.39445430352E+02  0.00000000000E+00 0.  1.
         23    2    1    2    0    0 -0.35328405381E+02  0.28428767190E+02  0.21552264493E+03  0.23834762865E+03  0.91122393375E+02 0.  0.
          5    1    1    2  502    0 -0.46569061469E+02 -0.24088146260E+01  0.50921615378E+02  0.69173428328E+02  0.41800000000E+01 0. -1.
         -5    1    1    2    0  502  0.81897466849E+02 -0.26019952564E+02  0.78962710321E+02  0.11677677436E+03  0.41800000000E+01 0. -1.
        -11    1    3    3    0    0 -0.61481235112E+02  0.34097973192E+02  0.18414148245E+03  0.19710580815E+03  0.00000000000E+00 0. -1.
         11    1    3    3    0    0  0.26152829732E+02 -0.56692060022E+01  0.31381162482E+02  0.41241820503E+02  0.00000000000E+00 0.  1.
</event>
<event>
 7    1  0.4096326E-006  0.1310665E+03  0.7561462E-02  0.1225882E+00
         -1   -1    0    0    0  501 -0.00000000000E+00  0.00000000000E+00  0.10398499803E+03  0.10398499803E+03  0.00000000000E+00 0.  1.
          1   -1    0    0  501    0  0.00000000000E+00 -0.00000000000E+00 -0.21273183466E+03  0.21273183466E+03  0.00000000000E+00 0. -1.
         23    2    1    2    0    0 -0.54597098653E+02 -0.83428767460E+02 -0.30240729155E+02  0.13852435986E+03  0.91286878323E+02 0.  0.
          5    1    1    2  502    0  0.40109924035E+02 -0.79220348723E+01  0.17631691077E+02  0.44720393254E+02  0.41800000000E+01 0.  1.
         -5    1    1    2    0  502  0.14487174618E+02  0.91350802333E+02 -0.96137798553E+02  0.13347207957E+03  0.41800000000E+01 0.  1.
        -11    1    3    3    0    0  0.19412365071E+02 -0.34935513590E+02 -0.30115399546E+02  0.50042654978E+02  0.00000000000E+00 0. -1.
         11    1    3    3    0    0 -0.74009463724E+02 -0.48493253871E+02 -0.12532960930E+00  0.88481704884E+02  0.00000000000E+00 0.  1.
</event>
<event>
 7    1  0.4096326E-006  0.6903322E+02  0.7561462E-02  0.1363412E+00
          2   -1    0    0  501    0  0.00000000000E+00  0.00000000000E+00  0.37287490016E+03  0.37287490016E+03  0.00000000000E+00 0. -1.
         -2   -1    0    0    0  501 -0.00000000000E+00 -0.00000000000E+00 -0.36108013361E+02  0.36108013361E+02  0.00000000000E+00 0.  1.
         23    2    1    2    0    0  0.39201417882E+02  0.45181443945E+01  0.16453867533E+03  0.19249514975E+03  0.91783670683E+02 0.  0.
          5    1    1    2  502    0 -0.54109500262E+02 -0.33073934531E+02  0.29423541816E+02  0.70035279517E+02  0.41800000000E+01 0.  1.
         -5    1    1    2    0  502  0.14908082381E+02  0.28555790136E+02  0.14280466965E+03  0.14645248426E+03  0.41800000000E+01 0.  1.
        -11    1    3    3    0    0  0.87124838046E+01 -0.50541464061E+01 -0.10507815291E+02  0.14555615828E+02  0.00000000000E+00 0.  1.
         11    1    3    3    0    0  0.30488934077E+02  0.95722908006E+01  0.17504649062E+03  0.17793953392E+03  0.00000000000E+00 0. -1.
</event>
<event>
 7    1  0.4096326E-006  0.1158575E+03  0.7561462E-02  0.1250092E+00
         -1   -1    0    0    0  501 -0.00000000000E+00  0.00000000000E+00  0.28686310539E+03  0.28686310539E+03  0.00000000000E+00 0.  1.
          1   -1    0    0  501    0  0.00000000000E+00 -0.00000000000E+00 -0.51741457372E+02  0.51741457372E+02  0.00000000000E+00 0. -1.
         23    2    1    2    0    0  0.42132422303E+02 -0.23235312800E+02  0.14479882150E+03  0.17698406485E+03  0.89675190181E+02 0.  0.
          5    1    1    2  502    0 -0.11828247748E+02  0.73771221741E+02  0.47041356992E+02  0.88388134212E+02  0.41800000000E+01 0.  1.
         -5    1    1    2    0  502 -0.30304174556E+02 -0.50535908941E+02  0.43281469521E+02  0.73232363692E+02  0.41800000000E+01 0.  1.
        -11    1    3    3    0    0 -0.12708192630E+02 -0.38780643969E+02  0.85452036167E+02  0.94696816164E+02  0.00000000000E+00 0. -1.
         11    1    3    3    0    0  0.54840614933E+02  0.15545331169E+02  0.59346785335E+02  0.82287248690E+02  0.00000000000E+00 0.  1.
</event>
<event>
 7    1  0.4096326E-006  0.1957597E+03  0.7561462E-02  0.1153367E+00
          1   -1    0    0  501    0  0.00000000000E+00  0.00000000000E+00  0.24148480258E+03  0.24148480258E+03  0.00000000000E+00 0. -1.
         -1   -1    0    0    0  501 -0.00000000000E+00 -0.00000000000E+00 -0.35564301964E+03  0.35564301964E+03  0.00000000000E+00 0.  1.
         23    2    1    2    0    0 -0.12075460967E+03 -0.13335735223E+03  0.15219286162E+03  0.25222868441E+03  0.89948779644E+02 0.  0.
          5    1    1    2  502    0  0.31822856695E+02  0.10193700476E+03 -0.72093153120E+02  0.12891370088E+03  0.41800000000E+01 0. -1.
         -5    1    1    2    0  502  0.88931752974E+02  0.31420347472E+02 -0.19425792556E+03  0.21598543692E+03  0.41800000000E+01 0. -1.
        -11    1    3    3    0    0 -0.84160505723E+02 -0.12809189755E+03  0.84294536310E+02  0.17491739134E+03  0.00000000000E+00 0.  1.
         11    1    3    3    0    0 -0.36594103947E+02 -0.52654546875E+01  0.67898325305E+02  0.77311293069E+02  0.00000000000E+00 0. -1.
</event>
<event>
 7    1  0.4096326E-006  0.1128553E+03  0.7561462E-02  0.1255372E+00
          1   -1    0    0  501    0  0.00000000000E+00  0.00000000000E+00  0.14792306411E+03  0.14792306411E+03  0.00000000000E+00 0. -1.
         -1   -1    0    0    0  501 -0.00000000000E+00 -0.00000000000E+00 -0.91815295223E+02  0.91815295223E+02  0.00000000000E+00 0.  1.
         23    2    1    2    0    0 -0.51525184065E+02  0.11203235640E+02  0.38046459923E+02  0.11288619850E+03  0.92278944607E+02 0.  0.
          5    1    1    2  502    0 -0.32931067453E+02 -0.11027360926E+02 -0.12192685363E+02  0.37043108251E+02  0.41800000000E+01 0. -1.
         -5    1    1    2    0  502  0.84456251518E+02 -0.17587471387E+00  0.30253994323E+02  0.89809052577E+02  0.41800000000E+01 0.  1.
        -11    1    3    3    0    0  0.25971097876E+02 -0.62980646927E+01  0.73690738728E+01  0.27721233622E+02  0.00000000000E+00 0.  1.
         11    1    3    3    0    0 -0.77496281942E+02  0.17501300332E+02  0.30677386051E+02  0.85164964880E+02  0.00000000000E+00 0. -1.
</event>
<event>
 7    1  0.4096326E-006  0.1667608E+03  0.7561462E-02  0.1181268E+00
          2   -1    0    0  501    0  0.00000000000E+00  0.00000000000E+00  0.25696457060E+02  0.25696457060E+02  0.00000000000E+00 0. -1.
         -2   -1    0    0    0  501 -0.00000000000E+00 -0.00000000000E+00 -0.18058026138E+04  0.18058026138E+04  0.00000000000E+00 0.  1.
         23    2    1    2    0    0 -0.12434484067E+02  0.16134964012E+03 -0.46859256626E+03  0.50413118710E+03  0.91547462473E+02 0.  0.
          5    1    1    2  502    0  0.29927755609E+02 -0.64930621205E+02 -0.21796317996E+03  0.22942771486E+03  0.41800000000E+01 0. -1.
         -5    1    1    2    0  502 -0.17493271542E+02 -0.96419018918E+02 -0.10935504106E+04  0.10979401689E+04  0.41800000000E+01 0. -1.
        -11    1    3    3    0    0 -0.16279429717E+02  0.53938696422E+02 -0.62906099434E+02  0.84448683528E+02  0.00000000000E+00 0. -1.
         11    1    3    3    0    0  0.38449456502E+01  0.10741094370E+03 -0.40568646683E+03  0.41968250357E+03  0.00000000000E+00 0.  1.
</event>
<event>
 7    1  0.4096326E-006  0.1139288E+03  0.7561462E-02  0.1253463E+00
         -2   -1    0    0    0  501 -0.00000000000E+00  0.00000000000E+00  0.17683005089E+03  0.17683005089E+03  0.00000000000E+00 0.  1.
          2   -1    0    0  501    0  0.00000000000E+00 -0.00000000000E+00 -0.10641261053E+03  0.10641261053E+03  0.00000000000E+00 0. -1.
         23    2    1    2    0    0  0.29397890354E+02 -0.72211173954E+02  0.25604570478E+01  0.12097204752E+03  0.92460752424E+02 0.  0.
          5    1    1    2  502    0  0.37168030940E+02  0.66218858218E+02  0.16354447036E+02  0.77790359592E+02  0.41800000000E+01 0.  1.
         -5    1    1    2    0  502 -0.66565921294E+02  0.59923157358E+01  0.51502536282E+02  0.84480254314E+02  0.41800000000E+01 0.  1.
        -11    1    3    3    0    0  0.21864076990E+02 -0.13604069576E+02 -0.40405080961E+02  0.47913245967E+02  0.00000000000E+00 0. -1.
         11    1    3    3    0    0  0.75338133642E+01 -0.58607104378E+02  0.42965538009E+02  0.73058801549E+02  0.00000000000E+00 0.  1.
</event>
<event>
 7    1  0.4096326E-006  0.1019759E+03  0.7561462E-02  0.1276195E+00
          1   -1    0    0  501    0  0.00000000000E+00  0.00000000000E+00  0.73702721341E+03  0.73702721341E+03  0.00000000000E+00 0. -1.
         -1   -1    0    0    0  501 -0.00000000000E+00 -0.00000000000E+00 -0.16328493230E+02  0.16328493230E+02  0.00000000000E+00 0.  1.
         23    2    1    2    0    0  0.62765762217E+01  0.12200818789E+02  0.40885791646E+03  0.41945394586E+03  0.92674491963E+02 0.  0.
          5    1    1    2  502    0 -0.52252192097E+02  0.21402993793E+02  0.20601386433E+03  0.21365290641E+03  0.41800000000E+01 0. -1.
         -5    1    1    2    0  502  0.45975615875E+02 -0.33603812583E+02  0.10582693939E+03  0.12024885437E+03  0.41800000000E+01 0.  1.
        -11    1    3    3    0    0  0.23093786060E+02 -0.33979358626E+02  0.13127532029E+03  0.13755409658E+03  0.00000000000E+00 0.  1.
         11    1    3    3    0    0 -0.16817209838E+02  0.46180177416E+02  0.27758259617E+03  0.28189984929E+03  0.00000000000E+00 0. -1.
</event>
<event>
 7    1  0.4096326E-006  0.1450763E+03  0.7561462E-02  0.1206657E+00
          4   -1    0    0  501    0  0.00000000000E+00  0.00000000000E+00  0.86241969289E+02  0.86241969289E+02  0.00000000000E+00 0. -1.
         -4   -1    0    0    0  501 -0.00000000000E+00 -0.00000000000E+00 -0.27245458006E+03  0.27245458006E+03  0.00000000000E+00 0.  1.
         23    2    1    2    0    0  0.10863286433E+03 -0.52112315033E+01 -0.10778097488E+03  0.17531504792E+03  0.85383671356E+02 0.  0.
          5    1    1    2  502    0 -0.36650081264E+02 -0.52436935103E+02 -0.62811357792E+02  0.89752992638E+02  0.41800000000E+01 0. -1.
         -5    1    1    2    0  502 -0.71982783068E+02  0.57648166607E+02 -0.15620278103E+02  0.93628508796E+02  0.41800000000E+01 0. -1.
        -11    1    3    3    0    0  0.79128813369E+02  0.32756475472E+02 -0.89500499883E+02  0.12387370694E+03  0.00000000000E+00 0.  1.
         11    1    3    3    0    0  0.29504050963E+02 -0.37967706975E+02 -0.18280474995E+02  0.51441340984E+02  0.00000000000E+00 0. -1.
</event>
<event>
 7    1  0.4096326E-006  0.1700839E+03  0.7561462E-02  0.1177760E+00
          1   -1    0    0  501    0  0.00000000000E+00  0.00000000000E+00  0.64053566392E+03  0.64053566392E+03  0.00000000000E+00 0. -1.
         -1   -1    0    0    0  501 -0.00000000000E+00 -0.00000000000E+00 -0.61701205014E+02  0.61701205014E+02  0.00000000000E+00 0.  1.
         23    2    1    2    0    0  0.74829120992E+02 -0.14583475181E+03  0.32411519907E+03  0.37452211462E+03  0.91372752425E+02 0.  0.
          5    1    1    2  502    0  0.11476875998E+02  0.21675778158E+02  0.12796567607E+03  0.13036197564E+03  0.41800000000E+01 0. -1.
         -5    1    1    2    0  502 -0.86305996990E+02  0.12415897365E+03  0.12675358377E+03  0.19735277868E+03  0.41800000000E+01 0. -1.
        -11    1    3    3    0    0  0.68882868489E+02 -0.13030723121E+03  0.32601606844E+03  0.35778666962E+03  0.00000000000E+00 0. -1.
         11    1    3    3    0    0  0.59462525033E+01 -0.15527520598E+02 -0.19008693735E+01  0.16735444993E+02  0.00000000000E+00 0.  1.
</event>
<event>
 7    1  0.4096326E-006  0.1338111E+03  0.7561462E-02  0.1221908E+00
         -3   -1    0    0    0  501 -0.00000000000E+00  0.00000000000E+00  0.75450250049E+02  0.75450250049E+02  0.00000000000E+00 0.  1.
          3   -1    0    0  501    0  0.00000000000E+00 -0.00000000000E+00 -0.31803995792E+03  0.31803995792E+03  0.00000000000E+00 0. -1.
         23    2    1    2    0    0  0.91118933278E+00  0.10721993547E+03 -0.14736076932E+03  0.20332053300E+03  0.90150418606E+02 0.  0.
          5    1    1    2  502    0 -0.41400202798E+02 -0.76934927986E+02 -0.10688651128E+03  0.13811284745E+03  0.41800000000E+01 0.  1.
         -5    1    1    2    0  502  0.40489013465E+02 -0.30285007488E+02  0.11657572730E+02  0.52056827524E+02  0.41800000000E+01 0.  1.
        -11    1    3    3    0    0 -0.35249528003E+02  0.41860755046E+02 -0.10248565202E+03  0.11618158592E+03  0.00000000000E+00 0. -1.
         11    1    3    3    0    0  0.36160717336E+02  0.65359180428E+02 -0.44875117294E+02  0.87138947070E+02  0.00000000000E+00 0.  1.
</event>
<event>
 7    1  0.4096326E-006  0.9791389E+02  0.7561462E-02  0.1284745E+00
         -2   -1    0    0    0  501 -0.00000000000E+00  0.00000000000E+00  0.90648395654E+01  0.90648395654E+01  0.00000000000E+00 0.  1.
          2   -1    0    0  501    0  0.00000000000E+00 -0.00000000000E+00 -0.15911421682E+04  0.15911421682E+04  0.00000000000E+00 0. -1.
         23    2    1    2    0    0  0.25696431785E+02 -0.12229767476E+02 -0.37104939679E+03  0.38241297849E+03  0.88046336919E+02 0.  0.
          5    1    1    2  502    0 -0.22177364745E+02  0.56221684954E+02 -0.10154285486E+04  0.10172341536E+04  0.41800000000E+01 0.  1.
         -5    1    1    2    0  502 -0.35190670395E+01 -0.43991917478E+02 -0.19559938318E+03  0.20055987569E+03  0.41800000000E+01 0.  1.
        -11    1    3    3    0    0  0.38768938545E+02  0.28514369517E+02 -0.16052280046E+03  0.16758182877E+03  0.00000000000E+00 0. -1.
         11    1    3    3    0    0 -0.13072506760E+02 -0.40744136993E+02 -0.21052659632E+03  0.21483114972E+03  0.00000000000E+00 0.  1.
</event>
<event>
 7    1  0.4096326E-006  0.1539204E+03  0.7561462E-02  0.1195737E+00
         -4   -1    0    0    0  501 -0.00000000000E+00  0.00000000000E+00  0.79072482209E+02  0.79072482209E+02  0.00000000000E+00 0.  1.
          4   -1    0    0  501    0  0.00000000000E+00 -0.00000000000E+00 -0.32089944730E+03  0.32089944730E+03  0.00000000000E+00 0. -1.
         23    2    1    2    0    0  0.57582880838E+02  0.97300039906E+02 -0.14756267018E+03  0.20679870634E+03  0.90597336509E+02 0.  0.
          5    1    1    2  502    0 -0.81609704136E+02 -0.18025799683E+02 -0.62133616778E+02  0.10422634982E+03  0.41800000000E+01 0. -1.
         -5    1    1    2    0  502  0.24026823298E+02 -0.79274240224E+02 -0.32130678134E+02  0.88946873347E+02  0.41800000000E+01 0. -1.
        -11    1    3    3    0    0  0.46016528565E+01  0.87153333780E+02 -0.11281195265E+03  0.14263034551E+03  0.00000000000E+00 0.  1.
         11    1    3    3    0    0  0.52981227981E+02  0.10146706127E+02 -0.34750717527E+02  0.64168360835E+02  0.00000000000E+00 0. -1.
</event>
<event>
 7    1  0.4096326E-006  0.6370355E+02  0.7561462E-02  0.1382916E+00
          1   -1    0    0  501    0  0.00000000000E+00  0.00000000000E+00  0.62251669258E+02  0.62251669258E+02  0.00000000000E+00 0. -1.
         -1   -1    0    0    0  501 -0.00000000000E+00 -0.00000000000E+00 -0.21250710347E+03  0.21250710347E+03  0.00000000000E+00 0.  1.
         23    2    1    2    0    0 -0.11610541217E+02 -0.27870428008E+02 -0.49324651285E+02  0.11121907158E+03  0.95001027545E+02 0.  0.
          5    1    1    2  502    0  0.14866788992E+02  0.36015449253E+02  0.18766489930E+02  0.43448677127E+02  0.41800000000E+01 0.  1.
         -5    1    1    2    0  502 -0.32562477750E+01 -0.81450212453E+01 -0.11969727285E+03  0.12009102402E+03  0.41800000000E+01 0.  1.
        -11    1    3    3    0    0  0.24781457607E+02  0.93140556112E+01  0.13442497253E+02  0.29691295113E+02  0.00000000000E+00 0. -1.
         11    1    3    3    0    0 -0.36391998824E+02 -0.37184483619E+02 -0.62767148539E+02  0.81527776470E+02  0.00000000000E+00 0.  1.
</event>
<event>
 7    1  0.4096326E-006  0.9667814E+02  0.7561462E-02  0.1287441E+00
          1   -1    0    0  501    0  0.00000000000E+00  0.00000000000E+00  0.12646910738E+03  0.12646910738E+03  0.00000000000E+00 0. -1.
         -1   -1    0    0    0  501 -0.00000000000E+00 -0.00000000000E+00 -0.31207317900E+03  0.31207317900E+03  0.00000000000E+00 0.  1.
         23    2    1    2    0    0  0.13139842762E+02  0.70042587749E+02  0.77674919468E+02  0.13847195992E+03  0.89791263521E+02 0.  0.
          5    1    1    2  502    0  0.42886858082E+02 -0.33992906749E+02 -0.20245320399E+03  0.20976075064E+03  0.41800000000E+01 0.  1.
         -5    1    1    2    0  502 -0.56026700844E+02 -0.36049681000E+02 -0.60825787101E+02  0.90309575816E+02  0.41800000000E+01 0.  1.
        -11    1    3    3    0    0  0.97992994421E+01  0.30510906129E+02 -0.16671933976E+02  0.36123331032E+02  0.00000000000E+00 0.  1.
         11    1    3    3    0    0  0.33405433199E+01  0.39531681620E+02  0.94346853444E+02  0.10234862889E+03  0.00000000000E+00 0. -1.
</event>
<event>
 7    1  0.4096326E-006  0.1468738E+03  0.7561462E-02  0.1204368E+00
          1   -1    0    0  501    0  0.00000000000E+00  0.00000000000E+00  0.58932516452E+03  0.58932516452E+03  0.00000000000E+00 0. -1.
         -1   -1    0    0    0  501 -0.00000000000E+00 -0.00000000000E+00 -0.39559675423E+02  0.39559675423E+02  0.00000000000E+00 0.  1.
         23    2    1    2    0    0  0.73951704434E+02 -0.31317434982E+02  0.35607329760E+03  0.38470788992E+03  0.12150033326E+03 0.  0.
          5    1    1    2  502    0 -0.74982540604E+02 -0.34235955820E+02  0.98343640164E+02  0.12838779548E+03  0.41800000000E+01 0.  1.
         -5    1    1    2    0  502  0.10308361696E+01  0.65553390803E+02  0.95348551336E+02  0.11578915455E+03  0.41800000000E+01 0.  1.
        -11    1    3    3    0    0  0.91441711288E+02 -0.61805422057E+02  0.26308779497E+03  0.28530104210E+03  0.00000000000E+00 0.  1.
         11    1    3    3    0    0 -0.17490006854E+02  0.30487987075E+02  0.92985502628E+02  0.99406847826E+02  0.00000000000E+00 0. -1.
</event>
<event>
 7    1  0.4096326E-006  0.1520555E+03  0.7561462E-02  0.1197970E+00
          2   -1    0    0  501    0  0.00000000000E+00  0.00000000000E+00  0.25395756186E+03  0.25395756186E+03  0.00000000000E+00 0. -1.
         -2   -1    0    0    0  501 -0.00000000000E+00 -0.00000000000E+00 -0.24719785356E+03  0.24719785356E+03  0.00000000000E+00 0.  1.
         23    2    1    2    0    0 -0.10070648626E+03  0.75488965496E+02  0.17967558795E+03  0.23812103383E+03  0.92617112670E+02 0.  0.
          5    1    1    2  502    0 -0.26338547148E+01  0.12734218738E+02  0.21700325164E+02  0.25641256400E+02  0.41800000000E+01 0. -1.
         -5    1    1    2    0  502  0.10334034098E+03 -0.88223184234E+02 -0.19461620481E+03  0.23739312519E+03  0.41800000000E+01 0.  1.
        -11    1    3    3    0    0  0.16504466275E+02  0.32340565599E+01  0.98549986392E+01  0.19493012262E+02  0.00000000000E+00 0.  1.
         11    1    3    3    0    0 -0.11721095254E+03  0.72254908936E+02  0.16982058931E+03  0.21862802157E+03  0.00000000000E+00 0. -1.
</event>
<event>
 7    1  0.4096326E-006  0.1181585E+03  0.7561462E-02  0.1246166E+00
         -1   -1    0    0    0  501 -0.00000000000E+00  0.00000000000E+00  0.80277552869E+03  0.80277552869E+03  0.00000000000E+00 0.  1.
          1   -1    0    0  501    0  0.00000000000E+00 -0.00000000000E+00 -0.18019738945E+02  0.18019738945E+02  0.00000000000E+00 0. -1.
         23    2    1    2    0    0 -0.46108924791E+02  0.29075824260E+02  0.43730587452E+03  0.45082318233E+03  0.95045659230E+02 0.  0.
          5    1    1    2  502    0  0.77501558729E+02  0.80589830303E+01  0.20170471090E+03  0.21627228581E+03  0.41800000000E+01 0. -1.
         -5    1    1    2    0  502 -0.31392633938E+02 -0.37134807290E+02  0.14574520433E+03  0.15369979949E+03  0.41800000000E+01 0.  1.
        -11    1    3    3    0    0 -0.28295077215E+02 -0.33828581856E+02  0.16737991218E+03  0.17309251672E+03  0.00000000000E+00 0.  1.
         11    1    3    3    0    0 -0.17813847576E+02  0.62904406116E+02  0.26992596234E+03  0.27773066561E+03  0.00000000000E+00 0. -1.
</event>
<event>
 7    1  0.4096326E-006  0.1339173E+03  0.7561462E-02  0.1221756E+00
          1   -1    0    0  501    0  0.00000000000E+00  0.00000000000E+00  0.21364264951E+03  0.21364264951E+03  0.00000000000E+00 0. -1.
         -1   -1    0    0    0  501 -0.00000000000E+00 -0.00000000000E+00 -0.11901583214E+03  0.11901583214E+03  0.00000000000E+00 0.  1.
         23    2    1    2    0    0  0.68649155978E+02  0.60481901761E+02  0.11800471265E+03  0.17592336744E+03  0.93022319607E+02 0.  0.
          5    1    1    2  502    0 -0.81201929895E+02 -0.86183345235E+02  0.16530534658E+01  0.11849695102E+03  0.41800000000E+01 0.  1.
         -5    1    1    2    0  502  0.12552773918E+02  0.25701443475E+02 -0.25030948745E+02  0.38238163198E+02  0.41800000000E+01 0.  1.
        -11    1    3    3    0    0  0.64424588199E+02  0.48030122817E+01  0.96410848111E+02  0.11605450498E+03  0.00000000000E+00 0. -1.
         11    1    3    3    0    0  0.42245677784E+01  0.55678889479E+02  0.21593864540E+02  0.59868862460E+02  0.00000000000E+00 0.  1.
</event>
<event>
 7    1  0.4096326E-006  0.1482576E+03  0.7561462E-02  0.1202630E+00
         -2   -1    0    0    0  501 -0.00000000000E+00  0.00000000000E+00  0.26666577328E+03  0.26666577328E+03  0.00000000000E+00 0.  1.
          2   -1    0    0  501    0  0.00000000000E+00 -0.00000000000E+00 -0.10360475546E+03  0.10360475546E+03  0.00000000000E+00 0. -1.
         23    2    1    2    0    0  0.52405595616E+01  0.12411897943E+03  0.95509325750E+02  0.18146599100E+03  0.91514425440E+02 0.  0.
          5    1    1    2  502    0 -0.81764800331E+01 -0.14778116687E+03  0.71248532598E+02  0.16431662699E+03  0.41800000000E+01 0.  1.
         -5    1    1    2    0  502  0.29359204715E+01  0.23662187440E+02 -0.36968405212E+01  0.24487910758E+02  0.41800000000E+01 0.  1.
        -11    1    3    3    0    0  0.29599605419E+01  0.88791568003E+02  0.11154642488E+03  0.14260192432E+03  0.00000000000E+00 0.  1.
         11    1    3    3    0    0  0.22805990197E+01  0.35327411426E+02 -0.16037099135E+02  0.38864066676E+02  0.00000000000E+00 0. -1.
</event>
<event>
 7    1  0.4096326E-006  0.1036803E+03  0.7561462E-02  0.1272742E+00
          2   -1    0    0  501    0  0.00000000000E+00  0.00000000000E+00  0.73101466504E+02  0.73101466504E+02  0.00000000000E+00 0.  1.
         -2   -1    0    0    0  501 -0.00000000000E+00 -0.00000000000E+00 -0.20257600401E+03  0.20257600401E+03  0.00000000000E+00 0. -1.
         23    2    1    2    0    0 -0.33018026768E+02  0.55173599699E+00 -0.76076116849E+01  0.97943822260E+02  0.91894624757E+02 0.  0.
          5    1    1    2  502    0  0.45619915829E+01  0.55297547621E+02 -0.22172549088E+02  0.59897619929E+02  0.41800000000E+01 0.  1.
         -5    1    1    2    0  502  0.28456035185E+02 -0.55849283618E+02 -0.99694376729E+02  0.11783602832E+03  0.41800000000E+01 0.  1.
        -11    1    3    3    0    0  0.27692012942E+02 -0.41710650192E+01  0.16440702205E+02  0.32473713264E+02  0.00000000000E+00 0.  1.
         11    1    3    3    0    0 -0.60710039710E+02  0.47228010162E+01 -0.24048313890E+02  0.65470108996E+02  0.00000000000E+00 0. -1.
</event>
<event>
 7    1  0.4096326E-006  0.5179235E+02  0.7561462E-02  0.1435907E+00
          1   -1    0    0  501    0  0.00000000000E+00  0.00000000000E+00  0.51722466830E+02  0.51722466830E+02  0.00000000000E+00 0. -1.
         -1   -1    0    0    0  501 -0.00000000000E+00 -0.00000000000E+00 -0.20702068531E+03  0.20702068531E+03  0.00000000000E+00 0.  1.
         23    2    1    2    0    0  0.53148152818E+01 -0.90612618390E+00 -0.62164969989E+02  0.10269809626E+03  0.81568052298E+02 0.  0.
          5    1    1    2  502    0 -0.62756884497E+01 -0.94981031051E+01  0.30020879520E+02  0.32377829378E+02  0.41800000000E+01 0.  1.
         -5    1    1    2    0  502  0.96087316792E+00  0.10404229289E+02 -0.12315412801E+03  0.12366722650E+03  0.41800000000E+01 0.  1.
        -11    1    3    3    0    0  0.35294801386E+02  0.22769956179E+02 -0.42416887496E+02  0.59694105690E+02  0.00000000000E+00 0.  1.
         11    1    3    3    0    0 -0.29979986104E+02 -0.23676082363E+02 -0.19748082494E+02  0.43003990571E+02  0.00000000000E+00 0. -1.
</event>
<event>
 7    1  0.4096326E-006  0.1019963E+03  0.7561462E-02  0.1276153E+00
          2   -1    0    0  501    0  0.00000000000E+00  0.00000000000E+00  0.23404673267E+03  0.23404673267E+03  0.00000000000E+00 0. -1.
         -2   -1    0    0    0  501 -0.00000000000E+00 -0.00000000000E+00 -0.89518188547E+02  0.89518188547E+02  0.00000000000E+00 0.  1.
         23    2    1    2    0    0 -0.85221534197E+02 -0.24680934263E+02  0.92844563277E+02  0.16173151216E+03  0.98311294824E+02 0.  0.
          5    1    1    2  502    0  0.67815738177E+02  0.25617294312E+02  0.92299122757E+02  0.11743858214E+03  0.41800000000E+01 0.  1.
         -5    1    1    2    0  502  0.17405796021E+02 -0.93636004898E+00 -0.40615141907E+02  0.44394826921E+02  0.41800000000E+01 0.  1.
        -11    1    3    3    0    0 -0.97958473381E+02 -0.20840414618E+02  0.41018483561E+02  0.10822523450E+03  0.00000000000E+00 0.  1.
         11    1    3    3    0    0  0.12736939184E+02 -0.38405196456E+01  0.51826079717E+02  0.53506277666E+02  0.00000000000E+00 0. -1.
</event>
<event>
 7    1  0.4096326E-006  0.1122816E+03  0.7561462E-02  0.1256402E+00
         -3   -1    0    0    0  501 -0.00000000000E+00  0.00000000000E+00  0.54282272666E+02  0.54282272666E+02  0.00000000000E+00 0.  1.
          3   -1    0    0  501    0  0.00000000000E+00 -0.00000000000E+00 -0.35913062272E+03  0.35913062272E+03  0.00000000000E+00 0. -1.
         23    2    1    2    0    0 -0.72748915635E+02 -0.38083951597E+02 -0.18107440249E+03  0.21924837497E+03  0.92407351407E+02 0.  0.
          5    1    1    2  502    0  0.24029168648E+02  0.68359418505E+02 -0.19617794946E+02  0.75184714689E+02  0.41800000000E+01 0. -1.
         -5    1    1    2    0  502  0.48719746987E+02 -0.30275466908E+02 -0.10415615262E+03  0.11897980573E+03  0.41800000000E+01 0. -1.
        -11    1    3    3    0    0 -0.42213898370E+02 -0.46493605972E+02 -0.17638561119E+03  0.18723128063E+03  0.00000000000E+00 0. -1.
         11    1    3    3    0    0 -0.30535017265E+02  0.84096543746E+01 -0.46887913022E+01  0.32017094340E+02  0.00000000000E+00 0.  1.
</event>
<event>
 7    1  0.4096326E-006  0.1552064E+03  0.7561462E-02  0.1194218E+00
         -1   -1    0    0    0  501 -0.00000000000E+00  0.00000000000E+00  0.95435944341E+02  0.95435944341E+02  0.00000000000E+00 0.  1.
          1   -1    0    0  501    0  0.00000000000E+00 -0.00000000000E+00 -0.36513551468E+03  0.36513551468E+03  0.00000000000E+00 0. -1.
         23    2    1    2    0    0  0.14167532368E+03 -0.53948602937E+02 -0.11707583163E+03  0.21172666871E+03  0.90216865359E+02 0.  0.
          5    1    1    2  502    0 -0.14382351475E+02 -0.75076251612E+01 -0.94464174693E+02  0.95938361305E+02  0.41800000000E+01 0. -1.
         -5    1    1    2    0  502 -0.12729297220E+03  0.61456228098E+02 -0.58159564019E+02  0.15290642900E+03  0.41800000000E+01 0. -1.
        -11    1    3    3    0    0  0.12921406228E+03 -0.53274715458E+02 -0.57958489749E+02  0.15130649600E+03  0.00000000000E+00 0.  1.
         11    1    3    3    0    0  0.12461261400E+02 -0.67388747842E+00 -0.59117341880E+02  0.60420172716E+02  0.00000000000E+00 0. -1.
</event>
<event>
 7    1  0.4096326E-006  0.9924521E+02  0.7561462E-02  0.1281891E+00
         -2   -1    0    0    0  501 -0.00000000000E+00  0.00000000000E+00  0.36889179756E+02  0.36889179756E+02  0.00000000000E+00 0.  1.
          2   -1    0    0  501    0  0.00000000000E+00 -0.00000000000E+00 -0.34427354646E+03  0.34427354646E+03  0.00000000000E+00 0. -1.
         23    2    1    2    0    0  0.14836859670E+02 -0.17570679001E+02 -0.94692317936E+02  0.13334604857E+03  0.91025669061E+02 0.  0.
          5    1    1    2  502    0 -0.65229217261E+02 -0.13496104864E+01 -0.72687976414E+02  0.97763421320E+02  0.41800000000E+01 0. -1.
         -5    1    1    2    0  502  0.50392357591E+02  0.18920289487E+02 -0.14000407236E+03  0.15005325633E+03  0.41800000000E+01 0. -1.
        -11    1    3    3    0    0 -0.56828921229E+01 -0.44727285302E+02 -0.16403474445E+02  0.47978112585E+02  0.00000000000E+00 0.  1.
         11    1    3    3    0    0  0.20519751793E+02  0.27156606301E+02 -0.78288843490E+02  0.85367935986E+02  0.00000000000E+00 0. -1.
</event>
<event>
 7    1  0.4096326E-006  0.1429455E+03  0.7561462E-02  0.1209420E+00
         -1   -1    0    0    0  501 -0.00000000000E+00  0.00000000000E+00  0.28150109104E+03  0.28150109104E+03  0.00000000000E+00 0.  1.
          1   -1    0    0  501    0  0.00000000000E+00 -0.00000000000E+00 -0.98066969701E+02  0.98066969701E+02  0.00000000000E+00 0. -1.
         23    2    1    2    0    0 -0.83670019735E+02  0.93314969361E+02  0.10068232927E+03  0.18411214081E+03  0.89732899524E+02 0.  0.
          5    1    1    2  502    0  0.92468443666E+02 -0.84322478781E+02  0.10902600927E+03  0.16602661413E+03  0.41800000000E+01 0.  1.
         -5    1    1    2    0  502 -0.87984239311E+01 -0.89924905801E+01 -0.26274217202E+02  0.29429305804E+02  0.41800000000E+01 0.  1.
        -11    1    3    3    0    0 -0.30852570179E+02  0.89267998745E+02  0.89193780424E+02  0.12990837984E+03  0.00000000000E+00 0.  1.
         11    1    3    3    0    0 -0.52817449555E+02  0.40469706157E+01  0.11488548851E+02  0.54203760971E+02  0.00000000000E+00 0. -1.
</event>
<event>
 7    1  0.4096326E-006  0.1032666E+03  0.7561462E-02  0.1273573E+00
          2   -1    0    0  501    0  0.00000000000E+00  0.00000000000E+00  0.45106494664E+02  0.45106494664E+02  0.00000000000E+00 0. -1.
         -2   -1    0    0    0  501 -0.00000000000E+00 -0.00000000000E+00 -0.33417871752E+03  0.33417871752E+03  0.00000000000E+00 0.  1.
         23    2    1    2    0    0  0.43231994049E+02  0.44711261022E+01 -0.85968986172E+02  0.13682059551E+03  0.97160755933E+02 0.  0.
          5    1    1    2  502    0 -0.86413692472E+02  0.43075065929E+01 -0.15115976354E+03  0.17422005445E+03  0.41800000000E+01 0.  1.
         -5    1    1    2    0  502  0.43181698423E+02 -0.87786326951E+01 -0.51943473137E+02  0.68244562217E+02  0.41800000000E+01 0.  1.
        -11    1    3    3    0    0 -0.14402106258E+02 -0.82912137980E+01  0.13327855942E+02  0.21302503021E+02  0.00000000000E+00 0. -1.
         11    1    3    3    0    0  0.57634100308E+02  0.12762339900E+02 -0.99296842114E+02  0.11551809249E+03  0.00000000000E+00 0.  1.
</event>
<event>
 7    1  0.4096326E-006  0.1655034E+03  0.7561462E-02  0.1182620E+00
         -1   -1    0    0    0  501 -0.00000000000E+00  0.00000000000E+00  0.22338749048E+03  0.22338749048E+03  0.00000000000E+00 0.  1.
          1   -1    0    0  501    0  0.00000000000E+00 -0.00000000000E+00 -0.17315413477E+03  0.17315413477E+03  0.00000000000E+00 0. -1.
         23    2    1    2    0    0  0.16327441290E+03  0.89383264623E+00  0.34209167165E+02  0.19022944139E+03  0.91420131309E+02 0.  0.
          5    1    1    2  502    0 -0.15401863247E+03  0.49943122389E+01  0.56487952713E+02  0.16417991200E+03  0.41800000000E+01 0. -1.
         -5    1    1    2    0  502 -0.92557804225E+01 -0.58881448851E+01 -0.40463764165E+02  0.42132271856E+02  0.41800000000E+01 0. -1.
        -11    1    3    3    0    0  0.98272496997E+02  0.12555826326E+02  0.63827532000E+02  0.11785196766E+03  0.00000000000E+00 0.  1.
         11    1    3    3    0    0  0.65001915899E+02 -0.11661993680E+02 -0.29618364835E+02  0.72377473723E+02  0.00000000000E+00 0. -1.
</event>
<event>
 7    1  0.4096326E-006  0.9630947E+02  0.7561462E-02  0.1288254E+00
          1   -1    0    0  501    0  0.00000000000E+00  0.00000000000E+00  0.25348057272E+03  0.25348057272E+03  0.00000000000E+00 0. -1.
         -1   -1    0    0    0  501 -0.00000000000E+00 -0.00000000000E+00 -0.60374068920E+02  0.60374068920E+02  0.00000000000E+00 0.  1.
         23    2    1    2    0    0 -0.47985984043E+02  0.14255502056E+02  0.12957910874E+03  0.16489195135E+03  0.88841072673E+02 0.  0.
          5    1    1    2  502    0 -0.39745901519E+02  0.23185155011E+01  0.39878437256E+02  0.56505525037E+02  0.41800000000E+01 0.  1.
         -5    1    1    2    0  502  0.87731885562E+02 -0.16574017558E+02  0.23648957805E+02  0.92457165258E+02  0.41800000000E+01 0.  1.
        -11    1    3    3    0    0 -0.17917139466E+02 -0.13383114197E+02 -0.61151697799E+01  0.23184627098E+02  0.00000000000E+00 0.  1.
         11    1    3    3    0    0 -0.30068844577E+02  0.27638616254E+02  0.13569427852E+03  0.14170732425E+03  0.00000000000E+00 0. -1.
</event>
<event>
 7    1  0.4096326E-006  0.8875528E+02  0.7561462E-02  0.1305894E+00
         -1   -1    0    0    0  501 -0.00000000000E+00  0.00000000000E+00  0.63271550650E+03  0.63271550650E+03  0.00000000000E+00 0.  1.
          1   -1    0    0  501    0  0.00000000000E+00 -0.00000000000E+00 -0.21572025923E+02  0.21572025923E+02  0.00000000000E+00 0. -1.
         23    2    1    2    0    0 -0.27042498018E+02 -0.21883287652E+02  0.12911447246E+03  0.15507784131E+03  0.78539256994E+02 0.  0.
          5    1    1    2  502    0 -0.29922813144E+02  0.50184895870E+02  0.14835121293E+03  0.15949750248E+03  0.41800000000E+01 0.  1.
         -5    1    1    2    0  502  0.56965311163E+02 -0.28301608218E+02  0.33367779519E+03  0.33971218863E+03  0.41800000000E+01 0.  1.
        -11    1    3    3    0    0 -0.15825156410E+02  0.11764322602E+02 -0.14591159423E+01  0.19772806604E+02  0.00000000000E+00 0. -1.
         11    1    3    3    0    0 -0.11217341609E+02 -0.33647610254E+02  0.13057358840E+03  0.13530503470E+03  0.00000000000E+00 0.  1.
</event>
<event>
 7    1  0.4096326E-006  0.1691117E+03  0.7561462E-02  0.1178777E+00
          1   -1    0    0  501    0  0.00000000000E+00  0.00000000000E+00  0.65918698823E+03  0.65918698823E+03  0.00000000000E+00 0. -1.
         -1   -1    0    0    0  501 -0.00000000000E+00 -0.00000000000E+00 -0.62282987813E+02  0.62282987813E+02  0.00000000000E+00 0.  1.
         23    2    1    2    0    0 -0.10934186365E+03  0.90298967073E+02  0.45477717112E+03  0.48491765980E+03  0.90627340283E+02 0.  0.
          5    1    1    2  502    0 -0.12919680056E+02  0.63500684352E+01  0.56964198581E+02  0.58903597698E+02  0.41800000000E+01 0.  1.
         -5    1    1    2    0  502  0.12226154370E+03 -0.96649035508E+02  0.85162630718E+02  0.17764871855E+03  0.41800000000E+01 0.  1.
        -11    1    3    3    0    0 -0.10681010237E+03  0.35623839898E+02  0.28075731493E+03  0.30249318310E+03  0.00000000000E+00 0.  1.
         11    1    3    3    0    0 -0.25317612748E+01  0.54675127174E+02  0.17401985619E+03  0.18242447669E+03  0.00000000000E+00 0. -1.
</event>
<event>
 7    1  0.4096326E-006  0.1311464E+03  0.7561462E-02  0.1225764E+00
          1   -1    0    0  501    0  0.00000000000E+00  0.00000000000E+00  0.91259972870E+02  0.91259972870E+02  0.00000000000E+00 0. -1.
         -1   -1    0    0    0  501 -0.00000000000E+00 -0.00000000000E+00 -0.19514892706E+03  0.19514892706E+03  0.00000000000E+00 0.  1.
         23    2    1    2    0    0  0.65227649504E+02 -0.36884252833E+02 -0.61107672284E+02  0.13444593438E+03  0.93415562365E+02 0.  0.
          5    1    1    2  502    0 -0.46669055358E+02  0.82691745982E+02 -0.37138276802E+02  0.10204239112E+03  0.41800000000E+01 0.  1.
         -5    1    1    2    0  502 -0.18558594146E+02 -0.45807493149E+02 -0.56430051059E+01  0.49920574435E+02  0.41800000000E+01 0.  1.
        -11    1    3    3    0    0  0.14072348546E+01 -0.52034935048E+02 -0.39637492588E+02  0.65427407055E+02  0.00000000000E+00 0.  1.
         11    1    3    3    0    0  0.63820414650E+02  0.15150682215E+02 -0.21470179697E+02  0.69018527323E+02  0.00000000000E+00 0. -1.
</event>
<event>
 7    1  0.7631409E-006  0.1459761E+03  0.7561462E-02  0.1205507E+00
          2   -1    0    0  501    0  0.00000000000E+00  0.00000000000E+00  0.14371411102E+03  0.14371411102E+03  0.00000000000E+00 0. -1.
         -2   -1    0    0    0  501 -0.00000000000E+00 -0.00000000000E+00 -0.17732636195E+03  0.17732636195E+03  0.00000000000E+00 0.  1.
         23    2    1    2    0    0  0.83366004296E+02 -0.80246413081E+02 -0.35638893406E+01  0.14800872504E+03  0.92219867140E+02 0.  0.
          5    1    1    2  502    0 -0.37626433785E+02  0.10940891048E+03 -0.24554764685E+02  0.11834892091E+03  0.41800000000E+01 0. -1.
         -5    1    1    2    0  502 -0.45739570511E+02 -0.29162497395E+02 -0.54935969017E+01  0.54682827028E+02  0.41800000000E+01 0. -1.
        -11    1    3    3    0    0  0.90481007967E+01 -0.31790429487E+02 -0.40181767931E+02  0.52029549384E+02  0.00000000000E+00 0.  1.
         11    1    3    3    0    0  0.74317903499E+02 -0.48455983594E+02  0.36617878591E+02  0.95979175653E+02  0.00000000000E+00 0. -1.
</event>
<event>
 7    1  0.4096326E-006  0.2722533E+03  0.7561462E-02  0.1099997E+00
          3   -1    0    0  501    0  0.00000000000E+00  0.00000000000E+00  0.12896559861E+03  0.12896559861E+03  0.00000000000E+00 0. -1.
         -3   -1    0    0    0  501 -0.00000000000E+00 -0.00000000000E+00 -0.67161199328E+03  0.67161199328E+03  0.00000000000E+00 0.  1.
         23    2    1    2    0    0  0.24905775630E+03  0.85429927305E+02 -0.16827665987E+03  0.32610168104E+03  0.93258960257E+02 0.  0.
          5    1    1    2  502    0 -0.19413040394E+03 -0.84791957438E+02 -0.35970053115E+03  0.41746644690E+03  0.41800000000E+01 0. -1.
         -5    1    1    2    0  502 -0.54927352362E+02 -0.63796986782E+00 -0.14669203654E+02  0.57009463941E+02  0.41800000000E+01 0. -1.
        -11    1    3    3    0    0  0.16229411429E+03  0.98419479294E+02 -0.97508927050E+02  0.21338642012E+03  0.00000000000E+00 0.  1.
         11    1    3    3    0    0  0.86763642016E+02 -0.12989551989E+02 -0.70767732821E+02  0.11271526093E+03  0.00000000000E+00 0. -1.
</event>
<event>
 7    1  0.4096326E-006  0.1431574E+03  0.7561462E-02  0.1209143E+00
         -1   -1    0    0    0  501 -0.00000000000E+00  0.00000000000E+00  0.17257398765E+03  0.17257398765E+03  0.00000000000E+00 0.  1.
          1   -1    0    0  501    0  0.00000000000E+00 -0.00000000000E+00 -0.16282692678E+03  0.16282692678E+03  0.00000000000E+00 0. -1.
         23    2    1    2    0    0 -0.99877358150E+02 -0.56727171568E+02 -0.51840133273E+02  0.15475347492E+03  0.89820821181E+02 0.  0.
          5    1    1    2  502    0  0.12224212624E+01  0.40664371879E+02 -0.25344064294E+02  0.48113194126E+02  0.41800000000E+01 0.  1.
         -5    1    1    2    0  502  0.98654936888E+02  0.16062799689E+02  0.86931258436E+02  0.13253424538E+03  0.41800000000E+01 0.  1.
        -11    1    3    3    0    0 -0.85220214502E+02  0.16006485303E+01 -0.24478337896E+02  0.88680528086E+02  0.00000000000E+00 0. -1.
         11    1    3    3    0    0 -0.14657143648E+02 -0.58327820098E+02 -0.27361795378E+02  0.66072946836E+02  0.00000000000E+00 0.  1.
</event>
<event>
 7    1  0.4096326E-006  0.1103371E+03  0.7561462E-02  0.1259947E+00
         -1   -1    0    0    0  501 -0.00000000000E+00  0.00000000000E+00  0.19735215493E+02  0.19735215493E+02  0.00000000000E+00 0.  1.
          1   -1    0    0  501    0  0.00000000000E+00 -0.00000000000E+00 -0.70332764669E+03  0.70332764669E+03  0.00000000000E+00 0. -1.
         23    2    1    2    0    0  0.26607993391E+02 -0.30113957446E+02 -0.37005776639E+03  0.38311218970E+03  0.90649675606E+02 0.  0.
          5    1    1    2  502    0 -0.73360401733E+02  0.32256178681E+02 -0.23620741275E+03  0.24946667882E+03  0.41800000000E+01 0. -1.
         -5    1    1    2    0  502  0.46752408342E+02 -0.21422212348E+01 -0.77327252060E+02  0.90483993660E+02  0.41800000000E+01 0. -1.
        -11    1    3    3    0    0  0.56790539440E+02 -0.11393948907E+02 -0.16197281749E+03  0.17201796722E+03  0.00000000000E+00 0.  1.
         11    1    3    3    0    0 -0.30182546049E+02 -0.18720008538E+02 -0.20808494890E+03  0.21109422248E+03  0.00000000000E+00 0. -1.
</event>
<event>
 6    1  0.4096326E-006  0.1255221E+03  0.7561462E-02  0.1234256E+00
         -2   -1    0    0    0  501 -0.00000000000E+00  0.00000000000E+00  0.70671448639E+02  0.70671448639E+02  0.00000000000E+00 0.  1.
          2   -1    0    0  501    0  0.00000000000E+00 -0.00000000000E+00 -0.33500453244E+03  0.33500453244E+03  0.00000000000E+00 0. -1.
          5    1    1    2  502    0 -0.19071026871E+02 -0.20548493589E+02 -0.40384040536E+02  0.49338502052E+02  0.41800000000E+01 0. -1.
         -5    1    1    2    0  502  0.11494233264E+03 -0.15444577363E+02 -0.10945517260E+02  0.11656565339E+03  0.41800000000E+01 0.  1.
        -11    1    1    2    0    0 -0.36018459306E+02 -0.14525259113E+01 -0.45879381841E+02  0.58346867272E+02  0.00000000000E+00 0. -1.
         11    1    1    2    0    0 -0.59852846464E+02  0.37445596863E+02 -0.16712414417E+03  0.18142495836E+03  0.00000000000E+00 0.  1.
</event>
<event>
 7    1  0.4096326E-006  0.7879337E+02  0.7561462E-02  0.1332511E+00
          4   -1    0    0  501    0  0.00000000000E+00  0.00000000000E+00  0.11935375519E+03  0.11935375519E+03  0.00000000000E+00 0. -1.
         -4   -1    0    0    0  501 -0.00000000000E+00 -0.00000000000E+00 -0.13627692450E+03  0.13627692450E+03  0.00000000000E+00 0.  1.
         23    2    1    2    0    0 -0.10535726734E+02 -0.33752135617E+02  0.48395112446E+02  0.11015088097E+03  0.92417105954E+02 0.  0.
          5    1    1    2  502    0 -0.38625771546E+02 -0.13929485510E+02  0.11138564866E+02  0.42749512528E+02  0.41800000000E+01 0.  1.
         -5    1    1    2    0  502  0.49161498281E+02  0.47681621127E+02 -0.76456846625E+02  0.10273028620E+03  0.41800000000E+01 0.  1.
        -11    1    3    3    0    0 -0.17574246785E+02 -0.52500776175E+01  0.70852557911E+02  0.73188130374E+02  0.00000000000E+00 0. -1.
         11    1    3    3    0    0  0.70385200511E+01 -0.28502057999E+02 -0.22457445465E+02  0.36962750594E+02  0.00000000000E+00 0.  1.
</event>
<event>
 7    1  0.4096326E-006  0.4169028E+03  0.7561462E-02  0.1038079E+00
         -2   -1    0    0    0  501 -0.00000000000E+00  0.00000000000E+00  0.15937684121E+03  0.15937684121E+03  0.00000000000E+00 0. -1.
          2   -1    0    0  501    0  0.00000000000E+00 -0.00000000000E+00 -0.11928850452E+04  0.11928850452E+04  0.00000000000E+00 0.  1.
         23    2    1    2    0    0 -0.25998396279E+03 -0.31957794838E+03 -0.65401807976E+03  0.77834466041E+03  0.91427762355E+02 0.  0.
          5    1    1    2  502    0  0.14979162186E+03  0.17847214600E+03 -0.13011952463E+03  0.26690522656E+03  0.41800000000E+01 0.  1.
         -5    1    1    2    0  502  0.11019234093E+03  0.14110580238E+03 -0.24937059963E+03  0.30701199948E+03  0.41800000000E+01 0.  1.
        -11    1    3    3    0    0 -0.22052537470E+03 -0.20725743936E+03 -0.45567739802E+03  0.54701826123E+03  0.00000000000E+00 0. -1.
         11    1    3    3    0    0 -0.39458588089E+02 -0.11232050902E+03 -0.19834068174E+03  0.23132639917E+03  0.00000000000E+00 0.  1.
</event>
<event>
 7    1  0.4096326E-006  0.1325255E+03  0.7561462E-02  0.1223756E+00
         -3   -1    0    0    0  501 -0.00000000000E+00  0.00000000000E+00  0.22138603275E+03  0.22138603275E+03  0.00000000000E+00 0.  1.
          3   -1    0    0  501    0  0.00000000000E+00 -0.00000000000E+00 -0.85311147272E+02  0.85311147272E+02  0.00000000000E+00 0. -1.
         23    2    1    2    0    0 -0.42751386234E+02 -0.71333297138E+02  0.48153156733E+02  0.13263980408E+03  0.91424672910E+02 0.  0.
          5    1    1    2  502    0  0.81996601083E+02  0.63852531561E+02  0.39779649664E+02  0.11135744835E+03  0.41800000000E+01 0.  1.
         -5    1    1    2    0  502 -0.39245214849E+02  0.74807655773E+01  0.48142079084E+02  0.62699927597E+02  0.41800000000E+01 0.  1.
        -11    1    3    3    0    0 -0.32161462360E+02  0.13861051170E+02  0.27003384690E+02  0.44222971241E+02  0.00000000000E+00 0.  1.
         11    1    3    3    0    0 -0.10589923875E+02 -0.85194348308E+02  0.21149772043E+02  0.88416832836E+02  0.00000000000E+00 0. -1.
</event>
<event>
 7    1  0.4096326E-006  0.1317332E+03  0.7561462E-02  0.1224906E+00
         -2   -1    0    0    0  501 -0.00000000000E+00  0.00000000000E+00  0.46820870931E+02  0.46820870931E+02  0.00000000000E+00 0.  1.
          2   -1    0    0  501    0  0.00000000000E+00 -0.00000000000E+00 -0.43920500371E+03  0.43920500371E+03  0.00000000000E+00 0. -1.
         23    2    1    2    0    0  0.89166009829E+02  0.19772151369E+02 -0.20913946516E+03  0.24609420450E+03  0.92095202495E+02 0.  0.
          5    1    1    2  502    0 -0.68307458718E+02  0.36733649749E+02 -0.15479209340E+03  0.17318583810E+03  0.41800000000E+01 0.  1.
         -5    1    1    2    0  502 -0.20858551111E+02 -0.56505801118E+02 -0.28452574215E+02  0.66745832034E+02  0.41800000000E+01 0.  1.
        -11    1    3    3    0    0  0.86066966484E+02  0.46966396016E+02 -0.13336597163E+03  0.16552899281E+03  0.00000000000E+00 0.  1.
         11    1    3    3    0    0  0.30990433450E+01 -0.27194244647E+02 -0.75773493534E+02  0.80565211685E+02  0.00000000000E+00 0. -1.
</event>
<event>
 7    1  0.4096326E-006  0.9478016E+02  0.7561462E-02  0.1291672E+00
          1   -1    0    0  501    0  0.00000000000E+00  0.00000000000E+00  0.17507807849E+03  0.17507807849E+03  0.00000000000E+00 0. -1.
         -1   -1    0    0    0  501 -0.00000000000E+00 -0.00000000000E+00 -0.98157061929E+02  0.98157061929E+02  0.00000000000E+00 0.  1.
         23    2    1    2    0    0  0.65918412817E+02  0.19659350840E+02  0.60763458838E+02  0.12957056408E+03  0.91458219541E+02 0.  0.
          5    1    1    2  502    0 -0.39580108787E+01  0.34642682954E+02 -0.32534449109E+02  0.47872164263E+02  0.41800000000E+01 0.  1.
         -5    1    1    2    0  502 -0.61960401938E+02 -0.54302033795E+02  0.48692006833E+02  0.95792412079E+02  0.41800000000E+01 0.  1.
        -11    1    3    3    0    0  0.38344783313E+02  0.22116172841E+02  0.82997722537E+02  0.94064177320E+02  0.00000000000E+00 0. -1.
         11    1    3    3    0    0  0.27573629504E+02 -0.24568220007E+01 -0.22234263699E+02  0.35506386758E+02  0.00000000000E+00 0.  1.
</event>
<event>
 7    1  0.4096326E-006  0.1034456E+03  0.7561462E-02  0.1273213E+00
         -2   -1    0    0    0  501 -0.00000000000E+00  0.00000000000E+00  0.10870697821E+02  0.10870697821E+02  0.00000000000E+00 0. -1.
          2   -1    0    0  501    0  0.00000000000E+00 -0.00000000000E+00 -0.12317190852E+04  0.12317190852E+04  0.00000000000E+00 0.  1.
         23    2    1    2    0    0  0.17479299129E+02  0.40875244651E+02 -0.51390131125E+03  0.52426828575E+03  0.93735618748E+02 0.  0.
          5    1    1    2  502    0  0.36373601530E+02 -0.35811469962E+02 -0.14533004423E+03  0.15409021522E+03  0.41800000000E+01 0. -1.
         -5    1    1    2    0  502 -0.53852900660E+02 -0.50637746892E+01 -0.56161703194E+03  0.56423128209E+03  0.41800000000E+01 0.  1.
        -11    1    3    3    0    0 -0.13996728763E+02  0.61971561884E+02 -0.37244155968E+03  0.37782151643E+03  0.00000000000E+00 0.  1.
         11    1    3    3    0    0  0.31476027893E+02 -0.21096317233E+02 -0.14145975156E+03  0.14644676932E+03  0.00000000000E+00 0. -1.
</event>
<event>
 7    1  0.4096326E-006  0.1929118E+03  0.7561462E-02  0.1155861E+00
          1   -1    0    0  501    0  0.00000000000E+00  0.00000000000E+00  0.73623140807E+03  0.73623140807E+03  0.00000000000E+00 0. -1.
         -1   -1    0    0    0  501 -0.00000000000E+00 -0.00000000000E+00 -0.67866787596E+02  0.67866787596E+02  0.00000000000E+00 0.  1.
         23    2    1    2    0    0  0.12327382865E+03 -0.12847320436E+03  0.46315118413E+03  0.50499824688E+03  0.93874431691E+02 0.  0.
          5    1    1    2  502    0 -0.88969237820E+02  0.14355124808E+03  0.12400152199E+03  0.20956224841E+03  0.41800000000E+01 0.  1.
         -5    1    1    2    0  502 -0.34304590830E+02 -0.15078043723E+02  0.81211914350E+02  0.89537700366E+02  0.41800000000E+01 0.  1.
        -11    1    3    3    0    0  0.62029766674E+02 -0.50215030744E+02  0.97051543670E+02  0.12565127693E+03  0.00000000000E+00 0.  1.
         11    1    3    3    0    0  0.61244061976E+02 -0.78258173616E+02  0.36609964046E+03  0.37934696995E+03  0.00000000000E+00 0. -1.
</event>
<event>
 7    1  0.4096326E-006  0.1174233E+03  0.7561462E-02  0.1247409E+00
         -1   -1    0    0    0  501 -0.00000000000E+00  0.00000000000E+00  0.51242519927E+02  0.51242519927E+02  0.00000000000E+00 0.  1.
          1   -1    0    0  501    0  0.00000000000E+00 -0.00000000000E+00 -0.35958463101E+03  0.35958463101E+03  0.00000000000E+00 0. -1.
         23    2    1    2    0    0  0.64574037229E+02 -0.31041624150E+02 -0.19753347733E+03  0.22902626508E+03  0.91105250760E+02 0.  0.
          5    1    1    2  502    0 -0.14362556700E+02  0.75466228090E+02 -0.60705079337E+02  0.98000069767E+02  0.41800000000E+01 0. -1.
         -5    1    1    2    0  502 -0.50211480529E+02 -0.44424603940E+02 -0.50103554415E+02  0.83800816089E+02  0.41800000000E+01 0. -1.
        -11    1    3    3    0    0  0.15595565769E+00  0.12810578204E+02  0.36136998848E+01  0.13311426030E+02  0.00000000000E+00 0.  1.
         11    1    3    3    0    0  0.64418081572E+02 -0.43852202354E+02 -0.20114717722E+03  0.21571483905E+03  0.00000000000E+00 0. -1.
</event>
<event>
 7    1  0.4096326E-006  0.1129238E+03  0.7561462E-02  0.1255249E+00
          2   -1    0    0  501    0  0.00000000000E+00  0.00000000000E+00  0.21130528338E+03  0.21130528338E+03  0.00000000000E+00 0.  1.
         -2   -1    0    0    0  501 -0.00000000000E+00 -0.00000000000E+00 -0.11115255424E+03  0.11115255424E+03  0.00000000000E+00 0. -1.
         23    2    1    2    0    0 -0.58588047127E+02  0.79280384414E+02  0.85790797698E+02  0.16254618442E+03  0.96660552860E+02 0.  0.
          5    1    1    2  502    0  0.52701365324E+02 -0.72995680477E+02 -0.44332207602E+02  0.10044212416E+03  0.41800000000E+01 0. -1.
         -5    1    1    2    0  502  0.58866818036E+01 -0.62847039378E+01  0.58694139040E+02  0.59469529037E+02  0.41800000000E+01 0. -1.
        -11    1    3    3    0    0  0.18148785018E+02  0.29634598101E+02  0.56936594543E+02  0.66703550134E+02  0.00000000000E+00 0.  1.
         11    1    3    3    0    0 -0.76736832145E+02  0.49645786313E+02  0.28854203155E+02  0.95842634282E+02  0.00000000000E+00 0. -1.
</event>
<event>
 7    1  0.4096326E-006  0.1109290E+03  0.7561462E-02  0.1258859E+00
          1   -1    0    0  501    0  0.00000000000E+00  0.00000000000E+00  0.61159489369E+02  0.61159489369E+02  0.00000000000E+00 0. -1.
         -1   -1    0    0    0  501 -0.00000000000E+00 -0.00000000000E+00 -0.40943644244E+03  0.40943644244E+03  0.00000000000E+00 0.  1.
         23    2    1    2    0    0 -0.28906494490E+02  0.28476378078E+02 -0.19053493023E+01  0.10009938510E+03  0.91486430738E+02 0.  0.
          5    1    1    2  502    0 -0.36029048510E+02  0.26220372223E+02 -0.14954072213E+03  0.15609452339E+03  0.41800000000E+01 0. -1.
         -5    1    1    2    0  502  0.64935543001E+02 -0.54696750301E+02 -0.19683088164E+03  0.21440202332E+03  0.41800000000E+01 0. -1.
        -11    1    3    3    0    0 -0.30081861675E+02  0.56521237026E+02  0.17013140205E+02  0.66249645859E+02  0.00000000000E+00 0. -1.
         11    1    3    3    0    0  0.11753671844E+01 -0.28044858948E+02 -0.18918489508E+02  0.33849739241E+02  0.00000000000E+00 0.  1.
</event>
<event>
 7    1  0.4096326E-006  0.1028375E+03  0.7561462E-02  0.1274440E+00
          2   -1    0    0  501    0  0.00000000000E+00  0.00000000000E+00  0.63512702080E+03  0.63512702080E+03  0.00000000000E+00 0.  1.
         -2   -1    0    0    0  501 -0.00000000000E+00 -0.00000000000E+00 -0.19967095041E+02  0.19967095041E+02  0.00000000000E+00 0. -1.
         23    2    1    2    0    0 -0.44908268901E+01  0.31060429625E+02  0.25789682099E+03  0.27526221548E+03  0.90959327075E+02 0.  0.
          5    1    1    2  502    0  0.45911686255E+02 -0.46097698532E+02  0.30235571927E+03  0.30930459763E+03  0.41800000000E+01 0.  1.
         -5    1    1    2    0  502 -0.41420859365E+02  0.15037268907E+02  0.54907385512E+02  0.70527302730E+02  0.41800000000E+01 0.  1.
        -11    1    3    3    0    0  0.31048265478E+02 -0.17807262724E+02  0.97250896597E+02  0.10362832761E+03  0.00000000000E+00 0. -1.
         11    1    3    3    0    0 -0.35539092368E+02  0.48867692349E+02  0.16064592439E+03  0.17163388787E+03  0.00000000000E+00 0.  1.
</event>
<event>
 7    1  0.4096326E-006  0.8674539E+02  0.7561462E-02  0.1310930E+00
         -1   -1    0    0    0  501 -0.00000000000E+00  0.00000000000E+00  0.31952502395E+02  0.31952502395E+02  0.00000000000E+00 0. -1.
          1   -1    0    0  501    0  0.00000000000E+00 -0.00000000000E+00 -0.43735034777E+03  0.43735034777E+03  0.00000000000E+00 0.  1.
         23    2    1    2    0    0  0.26013921666E+02  0.96336211722E+01 -0.22227897483E+03  0.24580954938E+03  0.10121690143E+03 0.  0.
          5    1    1    2  502    0  0.27372357921E+02 -0.12262810431E+01 -0.16352146650E+03  0.16585382766E+03  0.41800000000E+01 0.  1.
         -5    1    1    2    0  502 -0.53386279587E+02 -0.84073401291E+01 -0.19597404033E+02  0.57639473116E+02  0.41800000000E+01 0.  1.
        -11    1    3    3    0    0 -0.25727595332E+02  0.26706390677E+02 -0.15428203429E+03  0.15867604284E+03  0.00000000000E+00 0.  1.
         11    1    3    3    0    0  0.51741516998E+02 -0.17072769504E+02 -0.67996940543E+02  0.87133506546E+02  0.00000000000E+00 0. -1.
</event>
<event>
 7    1  0.4096326E-006  0.1428219E+03  0.7561462E-02  0.1209582E+00
         -2   -1    0    0    0  501 -0.00000000000E+00  0.00000000000E+00  0.73788907915E+02  0.73788907915E+02  0.00000000000E+00 0.  1.
          2   -1    0    0  501    0  0.00000000000E+00 -0.00000000000E+00 -0.96136962581E+03  0.96136962581E+03  0.00000000000E+00 0. -1.
         23    2    1    2    0    0 -0.11463107050E+02  0.11729656833E+03 -0.85009628356E+03  0.86308030974E+03  0.91400448474E+02 0.  0.
          5    1    1    2  502    0 -0.89502658165E+01  0.60562026335E+01 -0.45276369930E+02  0.46735499597E+02  0.41800000000E+01 0. -1.
         -5    1    1    2    0  502  0.20413372867E+02 -0.12335277096E+03  0.77919355937E+01  0.12534272438E+03  0.41800000000E+01 0.  1.
        -11    1    3    3    0    0 -0.23428100448E+02 -0.67131108041E+01 -0.12378229792E+03  0.12615862644E+03  0.00000000000E+00 0.  1.
         11    1    3    3    0    0  0.11964993398E+02  0.12400967913E+03 -0.72631398564E+03  0.73692168330E+03  0.00000000000E+00 0. -1.
</event>
<event>
 7    1  0.4096326E-006  0.1483201E+03  0.7561462E-02  0.1202553E+00
         -2   -1    0    0    0  501 -0.00000000000E+00  0.00000000000E+00  0.22296008022E+03  0.22296008022E+03  0.00000000000E+00 0. -1.
          2   -1    0    0  501    0  0.00000000000E+00 -0.00000000000E+00 -0.11152698690E+03  0.11152698690E+03  0.00000000000E+00 0.  1.
         23    2    1    2    0    0 -0.74481760147E+02 -0.72837673241E+02 -0.54224188689E+01  0.13410696462E+03  0.84275833406E+02 0.  0.
          5    1    1    2  502    0  0.74739440313E+02 -0.13733891206E+02  0.54407275728E+02  0.93553341779E+02  0.41800000000E+01 0.  1.
         -5    1    1    2    0  502 -0.25768016586E+00  0.86571564447E+02  0.62448236453E+02  0.10682676072E+03  0.41800000000E+01 0.  1.
        -11    1    3    3    0    0 -0.36618962451E+02 -0.86243470044E+02 -0.10284227686E+01  0.93701345719E+02  0.00000000000E+00 0. -1.
         11    1    3    3    0    0 -0.37862797696E+02  0.13405796803E+02 -0.43939961004E+01  0.40405618904E+02  0.00000000000E+00 0.  1.
</event>
<event>
 7    1  0.4096326E-006  0.1036341E+03  0.7561462E-02  0.1272834E+00
         -2   -1    0    0    0  501 -0.00000000000E+00  0.00000000000E+00  0.11170434027E+03  0.11170434027E+03  0.00000000000E+00 0. -1.
          2   -1    0    0  501    0  0.00000000000E+00 -0.00000000000E+00 -0.13766147239E+03  0.13766147239E+03  0.00000000000E+00 0.  1.
         23    2    1    2    0    0  0.21053364930E+02  0.55348243266E+02 -0.72306651456E+01  0.10969914020E+03  0.92059473357E+02 0.  0.
          5    1    1    2  502    0  0.40196747265E+01 -0.69282382277E+02 -0.58216174136E+02  0.90679664809E+02  0.41800000000E+01 0.  1.
         -5    1    1    2    0  502 -0.25073039656E+02  0.13934139011E+02  0.39489707161E+02  0.48987007658E+02  0.41800000000E+01 0.  1.
        -11    1    3    3    0    0 -0.18582043569E+02 -0.17690091286E+02  0.35596701318E+01  0.25901793844E+02  0.00000000000E+00 0.  1.
         11    1    3    3    0    0  0.39635408498E+02  0.73038334552E+02 -0.10790335277E+02  0.83797346356E+02  0.00000000000E+00 0. -1.
</event>
<event>
 7    1  0.4096326E-006  0.1376522E+03  0.7561462E-02  0.1216523E+00
          1   -1    0    0  501    0  0.00000000000E+00  0.00000000000E+00  0.14978927872E+03  0.14978927872E+03  0.00000000000E+00 0. -1.
         -1   -1    0    0    0  501 -0.00000000000E+00 -0.00000000000E+00 -0.13932901377E+03  0.13932901377E+03  0.00000000000E+00 0.  1.
         23    2    1    2    0    0  0.17478163093E+02 -0.90005319750E+02  0.26457082289E+02  0.13320171620E+03  0.92931567446E+02 0.  0.
          5    1    1    2  502    0 -0.66144655351E+02  0.78787899321E+02 -0.22477996044E+02  0.10538207256E+03  0.41800000000E+01 0.  1.
         -5    1    1    2    0  502  0.48666492257E+02  0.11217420429E+02  0.64811787056E+01  0.50534503729E+02  0.41800000000E+01 0.  1.
        -11    1    3    3    0    0  0.47099860237E+02 -0.76125433378E+02 -0.24437037638E+01  0.89551382622E+02  0.00000000000E+00 0.  1.
         11    1    3    3    0    0 -0.29621697144E+02 -0.13879886372E+02  0.28900786053E+02  0.43650333582E+02  0.00000000000E+00 0. -1.
</event>
<event>
 7    1  0.4096326E-006  0.7504629E+02  0.7561462E-02  0.1343728E+00
         -1   -1    0    0    0  501 -0.00000000000E+00  0.00000000000E+00  0.25212684467E+03  0.25212684467E+03  0.00000000000E+00 0.  1.
          1   -1    0    0  501    0  0.00000000000E+00 -0.00000000000E+00 -0.55890882472E+02  0.55890882472E+02  0.00000000000E+00 0. -1.
         23    2    1    2    0    0 -0.42163362411E+02 -0.32643073025E+01  0.10115960707E+03  0.14530789774E+03  0.95355724589E+02 0.  0.
          5    1    1    2  502    0  0.31290750829E+02  0.93025840915E+01 -0.25367929724E+02  0.41553019346E+02  0.41800000000E+01 0.  1.
         -5    1    1    2    0  502  0.10872611582E+02 -0.60382767890E+01  0.12044428485E+03  0.12115681005E+03  0.41800000000E+01 0.  1.
        -11    1    3    3    0    0 -0.72730277298E+02 -0.78485657427E+01  0.66405541898E+02  0.98797718672E+02  0.00000000000E+00 0. -1.
         11    1    3    3    0    0  0.30566914887E+02  0.45842584401E+01  0.34754065174E+02  0.46510179072E+02  0.00000000000E+00 0.  1.
</event>
<event>
 7    1  0.4096326E-006  0.7892448E+02  0.7561462E-02  0.1332132E+00
         -4   -1    0    0    0  501 -0.00000000000E+00  0.00000000000E+00  0.20734652640E+02  0.20734652640E+02  0.00000000000E+00 0.  1.
          4   -1    0    0  501    0  0.00000000000E+00 -0.00000000000E+00 -0.64469397438E+03  0.64469397438E+03  0.00000000000E+00 0. -1.
         23    2    1    2    0    0  0.36470404668E+02  0.93851645807E+01 -0.27214286566E+03  0.29014192477E+03  0.93286791386E+02 0.  0.
          5    1    1    2  502    0  0.25210738914E+02  0.19645135111E+02 -0.23369348108E+02  0.39813459045E+02  0.41800000000E+01 0.  1.
         -5    1    1    2    0  502 -0.61681143582E+02 -0.29030299692E+02 -0.32844710797E+03  0.33547324321E+03  0.41800000000E+01 0.  1.
        -11    1    3    3    0    0 -0.51230945335E+01 -0.10145546256E+02  0.25367557452E+01  0.11645313914E+02  0.00000000000E+00 0.  1.
         11    1    3    3    0    0  0.41593499202E+02  0.19530710837E+02 -0.27467962140E+03  0.27849661085E+03  0.00000000000E+00 0. -1.
</event>
<event>
 7    1  0.4096326E-006  0.1705873E+03  0.7561462E-02  0.1177237E+00
          1   -1    0    0  501    0  0.00000000000E+00  0.00000000000E+00  0.15443910964E+04  0.15443910964E+04  0.00000000000E+00 0. -1.
         -1   -1    0    0    0  501 -0.00000000000E+00 -0.00000000000E+00 -0.23760411245E+02  0.23760411245E+02  0.00000000000E+00 0.  1.
         23    2    1    2    0    0 -0.11362282790E+03 -0.10897464636E+03  0.78656904817E+03  0.80704780789E+03  0.88598397963E+02 0.  0.
          5    1    1    2  502    0  0.10971965060E+03  0.10960015392E+03  0.73800107923E+03  0.75413106341E+03  0.41800000000E+01 0. -1.
         -5    1    1    2    0  502  0.39031772963E+01 -0.62550755513E+00 -0.39394422220E+01  0.69726363542E+01  0.41800000000E+01 0. -1.
        -11    1    3    3    0    0 -0.32418597255E+02 -0.91699255909E+02  0.39849331361E+03  0.41019097988E+03  0.00000000000E+00 0. -1.
         11    1    3    3    0    0 -0.81204230642E+02 -0.17275390453E+02  0.38807573455E+03  0.39685682801E+03  0.00000000000E+00 0.  1.
</event>
<event>
 7    1  0.4096326E-006  0.1373810E+03  0.7561462E-02  0.1216897E+00
          3   -1    0    0  501    0  0.00000000000E+00  0.00000000000E+00  0.99838152643E+02  0.99838152643E+02  0.00000000000E+00 0. -1.
         -3   -1    0    0    0  501 -0.00000000000E+00 -0.00000000000E+00 -0.22109592897E+03  0.22109592897E+03  0.00000000000E+00 0.  1.
         23    2    1    2    0    0  0.55420519093E+02 -0.72885089946E+02  0.28816772310E+01  0.12233463285E+03  0.81078900208E+02 0.  0.
          5    1    1    2  502    0 -0.68837332157E+02 -0.88556164156E+01 -0.38920897998E+02  0.79682551048E+02  0.41800000000E+01 0. -1.
         -5    1    1    2    0  502  0.13416813064E+02  0.81740706361E+02 -0.85218555555E+02  0.11891689771E+03  0.41800000000E+01 0. -1.
        -11    1    3    3    0    0  0.64554243929E+02 -0.18511092194E+02  0.84329969036E+00  0.67161165102E+02  0.00000000000E+00 0. -1.
         11    1    3    3    0    0 -0.91337248354E+01 -0.54373997751E+02  0.20383775406E+01  0.55173467753E+02  0.00000000000E+00 0.  1.
</event>
<event>
 7    1  0.4096326E-006  0.6883882E+02  0.7561462E-02  0.1364087E+00
         -4   -1    0    0    0  501 -0.00000000000E+00  0.00000000000E+00  0.56755096762E+02  0.56755096762E+02  0.00000000000E+00 0.  1.
          4   -1    0    0  501    0  0.00000000000E+00 -0.00000000000E+00 -0.23072092439E+03  0.23072092439E+03  0.00000000000E+00 0. -1.
         23    2    1    2    0    0  0.23637311705E+02  0.23283327845E+02 -0.89835104660E+02  0.13311790555E+03  0.92461856396E+02 0.  0.
          5    1    1    2  502    0 -0.21718977467E+02 -0.48209298207E+02 -0.10750583041E+03  0.11987838166E+03  0.41800000000E+01 0.  1.
         -5    1    1    2    0  502 -0.19183342379E+01  0.24925970362E+02  0.23375107447E+02  0.34479733945E+02  0.41800000000E+01 0.  1.
        -11    1    3    3    0    0 -0.11799554919E+02 -0.60752532902E+01  0.14153097762E+02  0.19402277575E+02  0.00000000000E+00 0.  1.
         11    1    3    3    0    0  0.35436866624E+02  0.29358581135E+02 -0.10398820242E+03  0.11371562797E+03  0.00000000000E+00 0. -1.
</event>
<event>
 7    1  0.4096326E-006  0.9357072E+02  0.7561462E-02  0.1294428E+00
          1   -1    0    0  501    0  0.00000000000E+00  0.00000000000E+00  0.22205630288E+02  0.22205630288E+02  0.00000000000E+00 0. -1.
         -1   -1    0    0    0  501 -0.00000000000E+00 -0.00000000000E+00 -0.57699084236E+03  0.57699084236E+03  0.00000000000E+00 0.  1.
         23    2    1    2    0    0 -0.21632008972E+02  0.10015222896E+02 -0.15997224930E+03  0.18435538317E+03  0.88473375977E+02 0.  0.
          5    1    1    2  502    0 -0.45137894313E+02 -0.14374193878E+02 -0.80841618940E+02  0.93791719813E+02  0.41800000000E+01 0.  1.
         -5    1    1    2    0  502  0.66769903285E+02  0.43589709817E+01 -0.31397134384E+03  0.32104936967E+03  0.41800000000E+01 0.  1.
        -11    1    3    3    0    0  0.14472761108E+02 -0.20620582198E+02 -0.11931150806E+03  0.12194222066E+03  0.00000000000E+00 0.  1.
         11    1    3    3    0    0 -0.36104770079E+02  0.30635805094E+02 -0.40660741233E+02  0.62413162505E+02  0.00000000000E+00 0. -1.
</event>
<event>
 7    1  0.4096326E-006  0.2119694E+03  0.7561462E-02  0.1140016E+00
         -2   -1    0    0    0  501 -0.00000000000E+00  0.00000000000E+00  0.98318027760E+02  0.98318027760E+02  0.00000000000E+00 0.  1.
          2   -1    0    0  501    0  0.00000000000E+00 -0.00000000000E+00 -0.51835942161E+03  0.51835942161E+03  0.00000000000E+00 0. -1.
         23    2    1    2    0    0 -0.82268128833E+02 -0.17608632511E+03 -0.25049414955E+03  0.33003262081E+03  0.91650275097E+02 0.  0.
          5    1    1    2  502    0 -0.11729273728E+02 -0.13198452040E+02 -0.51524574475E+01  0.18862534724E+02  0.41800000000E+01 0.  1.
         -5    1    1    2    0  502  0.93997402561E+02  0.18928477715E+03 -0.16439478685E+03  0.26778229384E+03  0.41800000000E+01 0.  1.
        -11    1    3    3    0    0 -0.73177275812E+02 -0.15292853957E+03 -0.14955375941E+03  0.22607162331E+03  0.00000000000E+00 0.  1.
         11    1    3    3    0    0 -0.90908530212E+01 -0.23157785540E+02 -0.10094039014E+03  0.10396099750E+03  0.00000000000E+00 0. -1.
</event>
<event>
 7    1  0.4096326E-006  0.7645460E+02  0.7561462E-02  0.1339425E+00
          2   -1    0    0  501    0  0.00000000000E+00  0.00000000000E+00  0.31840625162E+03  0.31840625162E+03  0.00000000000E+00 0. -1.
         -2   -1    0    0    0  501 -0.00000000000E+00 -0.00000000000E+00 -0.40330469780E+02  0.40330469780E+02  0.00000000000E+00 0.  1.
         23    2    1    2    0    0 -0.26866394953E+02  0.24330299016E+02  0.15163087180E+03  0.17721338065E+03  0.84254936756E+02 0.  0.
          5    1    1    2  502    0 -0.23005673759E+02  0.23963049381E+02 -0.39775161150E+01  0.33716194851E+02  0.41800000000E+01 0.  1.
         -5    1    1    2    0  502  0.49872068712E+02 -0.48293348398E+02  0.13042242615E+03  0.14780714590E+03  0.41800000000E+01 0.  1.
        -11    1    3    3    0    0 -0.24070019475E+02 -0.12931463198E+01  0.71830976107E+00  0.24115431446E+02  0.00000000000E+00 0.  1.
         11    1    3    3    0    0 -0.27963754779E+01  0.25623445336E+02  0.15091256204E+03  0.15309794920E+03  0.00000000000E+00 0. -1.
</event>
<event>
 7    1  0.4096326E-006  0.1367203E+03  0.7561462E-02  0.1217811E+00
         -1   -1    0    0    0  501 -0.00000000000E+00  0.00000000000E+00  0.57046802023E+02  0.57046802023E+02  0.00000000000E+00 0.  1.
          1   -1    0    0  501    0  0.00000000000E+00 -0.00000000000E+00 -0.47091659043E+03  0.47091659043E+03  0.00000000000E+00 0. -1.
         23    2    1    2    0    0 -0.10934477955E+03 -0.37083210791E+00 -0.28380806366E+03  0.31696902546E+03  0.89252046309E+02 0.  0.
          5    1    1    2  502    0  0.13467290360E+03  0.12812416138E+02 -0.11957635625E+03  0.18060156795E+03  0.41800000000E+01 0. -1.
         -5    1    1    2    0  502 -0.25328124054E+02 -0.12441584030E+02 -0.10485368492E+02  0.30392799043E+02  0.41800000000E+01 0. -1.
        -11    1    3    3    0    0 -0.25928710730E+02  0.28850664245E+01 -0.58375261091E+01  0.26733842961E+02  0.00000000000E+00 0.  1.
         11    1    3    3    0    0 -0.83416068816E+02 -0.32558985324E+01 -0.27797053755E+03  0.29023518250E+03  0.00000000000E+00 0. -1.
</event>
<event>
 7    1  0.4096326E-006  0.1901961E+03  0.7561462E-02  0.1158285E+00
         -1   -1    0    0    0  501 -0.00000000000E+00  0.00000000000E+00  0.39069225366E+02  0.39069225366E+02  0.00000000000E+00 0. -1.
          1   -1    0    0  501    0  0.00000000000E+00 -0.00000000000E+00 -0.10505368001E+04  0.10505368001E+04  0.00000000000E+00 0.  1.
         23    2    1    2    0    0  0.14531959391E+03 -0.60029589605E+02 -0.66172744626E+03  0.68626171445E+03  0.91381571323E+02 0.  0.
          5    1    1    2  502    0  0.21842802971E+02  0.12782825299E+02 -0.63585994720E+02  0.68565004111E+02  0.41800000000E+01 0. -1.
         -5    1    1    2    0  502 -0.16716239688E+03  0.47246764306E+02 -0.28615413374E+03  0.33477930689E+03  0.41800000000E+01 0. -1.
        -11    1    3    3    0    0  0.11243318556E+03  0.11274389629E+00 -0.37765800902E+03  0.39403909159E+03  0.00000000000E+00 0.  1.
         11    1    3    3    0    0  0.32886408352E+02 -0.60142333501E+02 -0.28406943725E+03  0.29222262286E+03  0.00000000000E+00 0. -1.
</event>
<event>
 7    1  0.4096326E-006  0.1229234E+03  0.7561462E-02  0.1238351E+00
          2   -1    0    0  501    0  0.00000000000E+00  0.00000000000E+00  0.43666808276E+03  0.43666808276E+03  0.00000000000E+00 0. -1.
         -2   -1    0    0    0  501 -0.00000000000E+00 -0.00000000000E+00 -0.66341550025E+02  0.66341550025E+02  0.00000000000E+00 0.  1.
         23    2    1    2    0    0  0.38162926668E+02  0.10470404373E+03  0.27441713734E+03  0.30996636250E+03  0.91405879853E+02 0.  0.
          5    1    1    2  502    0 -0.74329993204E+01 -0.15057429342E+02  0.96643959675E+02  0.98180970656E+02  0.41800000000E+01 0.  1.
         -5    1    1    2    0  502 -0.30729927348E+02 -0.89646614387E+02 -0.73456428103E+00  0.94862299627E+02  0.41800000000E+01 0.  1.
        -11    1    3    3    0    0  0.45413881547E+02  0.21645781590E+02  0.16440690930E+03  0.17193194096E+03  0.00000000000E+00 0. -1.
         11    1    3    3    0    0 -0.72509548795E+01  0.83058262139E+02  0.11001022804E+03  0.13803442154E+03  0.00000000000E+00 0.  1.
</event>
<event>
 7    1  0.4096326E-006  0.1396398E+03  0.7561462E-02  0.1213814E+00
          1   -1    0    0  501    0  0.00000000000E+00  0.00000000000E+00  0.19185387690E+03  0.19185387690E+03  0.00000000000E+00 0. -1.
         -1   -1    0    0    0  501 -0.00000000000E+00 -0.00000000000E+00 -0.14541897479E+03  0.14541897479E+03  0.00000000000E+00 0.  1.
         23    2    1    2    0    0 -0.65690010275E+02  0.89661363026E+02  0.79794833348E+02  0.16664314655E+03  0.95123001396E+02 0.  0.
          5    1    1    2  502    0  0.13712273049E+02 -0.11027411327E+03 -0.19961662617E+02  0.11297940903E+03  0.41800000000E+01 0. -1.
         -5    1    1    2    0  502  0.51977737226E+02  0.20612750243E+02 -0.13398268626E+02  0.57650296113E+02  0.41800000000E+01 0. -1.
        -11    1    3    3    0    0 -0.19922311598E+02  0.38579777747E+02  0.87445434887E+02  0.97631971367E+02  0.00000000000E+00 0. -1.
         11    1    3    3    0    0 -0.45767698677E+02  0.51081585279E+02 -0.76506015383E+01  0.69011175187E+02  0.00000000000E+00 0.  1.
</event>
<event>
 7    1  0.4096326E-006  0.1641698E+03  0.7561462E-02  0.1184068E+00
          1   -1    0    0  501    0  0.00000000000E+00  0.00000000000E+00  0.56891161374E+02  0.56891161374E+02  0.00000000000E+00 0. -1.
         -1   -1    0    0    0  501 -0.00000000000E+00 -0.00000000000E+00 -0.53890171309E+03  0.53890171309E+03  0.00000000000E+00 0.  1.
         23    2    1    2    0    0  0.11352324449E+03 -0.69702086177E+02 -0.16922209405E+03  0.23353518209E+03  0.90314208752E+02 0.  0.
          5    1    1    2  502    0 -0.57613191068E+02  0.93901745110E+02 -0.25657422976E+03  0.27925727439E+03  0.41800000000E+01 0.  1.
         -5    1    1    2    0  502 -0.55910053426E+02 -0.24199658933E+02 -0.56214227902E+02  0.83000417982E+02  0.41800000000E+01 0.  1.
        -11    1    3    3    0    0  0.86960016137E+02 -0.50218758801E+01 -0.11887802742E+03  0.14737451966E+03  0.00000000000E+00 0.  1.
         11    1    3    3    0    0  0.26563228357E+02 -0.64680210297E+02 -0.50344066629E+02  0.86160662425E+02  0.00000000000E+00 0. -1.
</event>
<event>
 7    1  0.4096326E-006  0.1284722E+03  0.7561462E-02  0.1229740E+00
         -2   -1    0    0    0  501 -0.00000000000E+00  0.00000000000E+00  0.63031280645E+03  0.63031280645E+03  0.00000000000E+00 0.  1.
          2   -1    0    0  501    0  0.00000000000E+00 -0.00000000000E+00 -0.29266463811E+02  0.29266463811E+02  0.00000000000E+00 0. -1.
         23    2    1    2    0    0 -0.14364412058E+02 -0.79133120487E+02  0.23407541500E+03  0.26361868893E+03  0.90747595847E+02 0.  0.
          5    1    1    2  502    0  0.59759650146E+02  0.12814776982E+02  0.10144592356E+03  0.11850815204E+03  0.41800000000E+01 0.  1.
         -5    1    1    2    0  502 -0.45395238087E+02  0.66318343506E+02  0.26552500409E+03  0.27745242929E+03  0.41800000000E+01 0.  1.
        -11    1    3    3    0    0  0.27397773870E+02 -0.65949568042E+02  0.18240128330E+03  0.19588315825E+03  0.00000000000E+00 0.  1.
         11    1    3    3    0    0 -0.41762185928E+02 -0.13183552445E+02  0.51674131698E+02  0.67735530671E+02  0.00000000000E+00 0. -1.
</event>
<event>
 7    1  0.4096326E-006  0.9468449E+02  0.7561462E-02  0.1291888E+00
         -2   -1    0    0    0  501 -0.00000000000E+00  0.00000000000E+00  0.34202078479E+02  0.34202078479E+02  0.00000000000E+00 0.  1.
          2   -1    0    0  501    0  0.00000000000E+00 -0.00000000000E+00 -0.36539002363E+03  0.36539002363E+03  0.00000000000E+00 0. -1.
         23    2    1    2    0    0 -0.45270681756E+01  0.73753375556E+01 -0.19760460218E+03  0.21637927085E+03  0.87735512206E+02 0.  0.
          5    1    1    2  502    0  0.51026638550E+02  0.35027969140E+02 -0.72429875451E+02  0.95363702328E+02  0.41800000000E+01 0.  1.
         -5    1    1    2    0  502 -0.46499570374E+02 -0.42403306696E+02 -0.61153467518E+02  0.87849128927E+02  0.41800000000E+01 0.  1.
        -11    1    3    3    0    0 -0.30265339623E+01  0.35737039354E+02 -0.17869531236E+03  0.18225891076E+03  0.00000000000E+00 0. -1.
         11    1    3    3    0    0 -0.15005342133E+01 -0.28361701798E+02 -0.18909289819E+02  0.34120360099E+02  0.00000000000E+00 0.  1.
</event>
<event>
 7    1  0.4096326E-006  0.1051847E+03  0.7561462E-02  0.1269756E+00
         -1   -1    0    0    0  501 -0.00000000000E+00  0.00000000000E+00  0.45844817972E+02  0.45844817972E+02  0.00000000000E+00 0.  1.
          1   -1    0    0  501    0  0.00000000000E+00 -0.00000000000E+00 -0.32954793603E+03  0.32954793603E+03  0.00000000000E+00 0. -1.
         23    2    1    2    0    0 -0.22275226302E+02 -0.63872307136E+02 -0.11059100921E+03  0.15843830170E+03  0.91084942783E+02 0.  0.
          5    1    1    2  502    0 -0.29404506870E+02 -0.91952712023E+01 -0.13457147683E+02  0.33878389284E+02  0.41800000000E+01 0. -1.
         -5    1    1    2    0  502  0.51679733172E+02  0.73067578338E+02 -0.15965496117E+03  0.18307606302E+03  0.41800000000E+01 0.  1.
        -11    1    3    3    0    0 -0.42565419340E+02 -0.40839561581E+02 -0.11318424701E+03  0.12763368867E+03  0.00000000000E+00 0. -1.
         11    1    3    3    0    0  0.20290193038E+02 -0.23032745555E+02  0.25932378001E+01  0.30804613025E+02  0.00000000000E+00 0.  1.
</event>
<event>
 7    1  0.4096326E-006  0.1371798E+03  0.7561462E-02  0.1217175E+00
          2   -1    0    0  501    0  0.00000000000E+00  0.00000000000E+00  0.69489938179E+03  0.69489938179E+03  0.00000000000E+00 0. -1.
         -2   -1    0    0    0  501 -0.00000000000E+00 -0.00000000000E+00 -0.29518789120E+02  0.29518789120E+02  0.00000000000E+00 0.  1.
         23    2    1    2    0    0 -0.50712300978E+02  0.71090995554E+02  0.38424447989E+03  0.40455988477E+03  0.91647219928E+02 0.  0.
          5    1    1    2  502    0  0.10810525041E+02 -0.10017853793E+03  0.21235775406E+03  0.23508699458E+03  0.41800000000E+01 0.  1.
         -5    1    1    2    0  502  0.39901775937E+02  0.29087542371E+02  0.68778358723E+02  0.84771291560E+02  0.41800000000E+01 0.  1.
        -11    1    3    3    0    0 -0.27650039617E+02  0.89989225756E+02  0.32305769549E+03  0.33649496290E+03  0.00000000000E+00 0. -1.
         11    1    3    3    0    0 -0.23062261360E+02 -0.18898230202E+02  0.61186784401E+02  0.68064921869E+02  0.00000000000E+00 0.  1.
</event>
<event>
 7    1  0.4096326E-006  0.8648604E+02  0.7561462E-02  0.1311592E+00
          1   -1    0    0  501    0  0.00000000000E+00  0.00000000000E+00  0.44067323546E+02  0.44067323546E+02  0.00000000000E+00 0. -1.
         -1   -1    0    0    0  501 -0.00000000000E+00 -0.00000000000E+00 -0.30273488138E+03  0.30273488138E+03  0.00000000000E+00 0.  1.
         23    2    1    2    0    0  0.16939422226E+02  0.77080459671E+01 -0.56254976413E+02  0.10812870765E+03  0.90447979789E+02 0.  0.
          5    1    1    2  502    0 -0.51008228523E+02 -0.34960484925E+02 -0.48668865228E+02  0.78804858516E+02  0.41800000000E+01 0. -1.
         -5    1    1    2    0  502  0.34068806297E+02  0.27252438958E+02 -0.15374371619E+03  0.15986863876E+03  0.41800000000E+01 0. -1.
        -11    1    3    3    0    0 -0.52309653805E+01  0.33068310896E+02 -0.65185213176E+02  0.73280203337E+02  0.00000000000E+00 0.  1.
         11    1    3    3    0    0  0.22170387607E+02 -0.25360264929E+02  0.89302367629E+01  0.34848504309E+02  0.00000000000E+00 0. -1.
</event>
<event>
 7    1  0.4096326E-006  0.9469467E+02  0.7561462E-02  0.1291865E+00
         -1   -1    0    0    0  501 -0.00000000000E+00  0.00000000000E+00  0.44624025976E+02  0.44624025976E+02  0.00000000000E+00 0.  1.
          1   -1    0    0  501    0  0.00000000000E+00 -0.00000000000E+00 -0.33480741843E+03  0.33480741843E+03  0.00000000000E+00 0. -1.
         23    2    1    2    0    0  0.33027447900E+02 -0.42362649340E+02 -0.15801226595E+03  0.18968862377E+03  0.90158146724E+02 0.  0.
          5    1    1    2  502    0 -0.57929383097E+02  0.26036360158E+02 -0.14399346853E+03  0.15743346803E+03  0.41800000000E+01 0.  1.
         -5    1    1    2    0  502  0.24901935196E+02  0.16326289182E+02  0.11822342031E+02  0.32309352610E+02  0.41800000000E+01 0.  1.
        -11    1    3    3    0    0  0.59010262001E+02 -0.23289018696E+02 -0.63202374343E+02  0.89549592606E+02  0.00000000000E+00 0.  1.
         11    1    3    3    0    0 -0.25982814101E+02 -0.19073630644E+02 -0.94809891610E+02  0.10013903116E+03  0.00000000000E+00 0. -1.
</event>
<event>
 7    1  0.4096326E-006  0.9525228E+02  0.7561462E-02  0.1290609E+00
          3   -1    0    0  501    0  0.00000000000E+00  0.00000000000E+00  0.28428510149E+03  0.28428510149E+03  0.00000000000E+00 0. -1.
         -3   -1    0    0    0  501 -0.00000000000E+00 -0.00000000000E+00 -0.47805644765E+02  0.47805644765E+02  0.00000000000E+00 0.  1.
         23    2    1    2    0    0 -0.89296555125E+01 -0.12602215881E+02  0.15686505875E+03  0.18300703402E+03  0.92985876626E+02 0.  0.
          5    1    1    2  502    0  0.45719755393E+02  0.45197328662E+02  0.75984856014E+02  0.99620606778E+02  0.41800000000E+01 0.  1.
         -5    1    1    2    0  502 -0.36790099881E+02 -0.32595112781E+02  0.36295419613E+01  0.49463105455E+02  0.41800000000E+01 0.  1.
        -11    1    3    3    0    0  0.19538210481E+02 -0.35296400816E+02  0.28025226667E+02  0.49122203831E+02  0.00000000000E+00 0.  1.
         11    1    3    3    0    0 -0.28467865994E+02  0.22694184935E+02  0.12883983208E+03  0.13388483019E+03  0.00000000000E+00 0. -1.
</event>
<event>
 7    1  0.4096326E-006  0.1001514E+03  0.7561462E-02  0.1279978E+00
          1   -1    0    0  501    0  0.00000000000E+00  0.00000000000E+00  0.13632736387E+03  0.13632736387E+03  0.00000000000E+00 0. -1.
         -1   -1    0    0    0  501 -0.00000000000E+00 -0.00000000000E+00 -0.12340294040E+03  0.12340294040E+03  0.00000000000E+00 0.  1.
         23    2    1    2    0    0  0.46646406821E+02 -0.79311352143E+01  0.57351166119E+02  0.11880319800E+03  0.92662038748E+02 0.  0.
          5    1    1    2  502    0 -0.87879001657E+01  0.62925164138E+02 -0.64398998425E+01  0.63998032634E+02  0.41800000000E+01 0.  1.
         -5    1    1    2    0  502 -0.37858506655E+02 -0.54994028924E+02 -0.37986842802E+02  0.76929073629E+02  0.41800000000E+01 0.  1.
        -11    1    3    3    0    0  0.54984196945E+01  0.19513178307E+02 -0.19030642201E+02  0.27805792371E+02  0.00000000000E+00 0.  1.
         11    1    3    3    0    0  0.41147987126E+02 -0.27444313521E+02  0.76381808320E+02  0.90997405630E+02  0.00000000000E+00 0. -1.
</event>
<event>
 7    1  0.4096326E-006  0.9606815E+02  0.7561462E-02  0.1288788E+00
          2   -1    0    0  501    0  0.00000000000E+00  0.00000000000E+00  0.30972527643E+03  0.30972527643E+03  0.00000000000E+00 0.  1.
         -2   -1    0    0    0  501 -0.00000000000E+00 -0.00000000000E+00 -0.48098731372E+02  0.48098731372E+02  0.00000000000E+00 0. -1.
         23    2    1    2    0    0  0.26643149517E+02 -0.18574146794E+00  0.18352187609E+03  0.20796625940E+03  0.94126479438E+02 0.  0.
          5    1    1    2  502    0  0.32579222237E+02 -0.10693804633E+02  0.82399173279E+02  0.89346848496E+02  0.41800000000E+01 0.  1.
         -5    1    1    2    0  502 -0.59222371754E+02  0.10879546101E+02 -0.42945043116E+01  0.60510899901E+02  0.41800000000E+01 0.  1.
        -11    1    3    3    0    0 -0.26498269295E+02  0.26753491846E+02  0.82432763274E+02  0.90625978960E+02  0.00000000000E+00 0. -1.
         11    1    3    3    0    0  0.53141418812E+02 -0.26939233314E+02  0.10108911282E+03  0.11734028044E+03  0.00000000000E+00 0.  1.
</event>
<event>
 7    1  0.4096326E-006  0.8247223E+02  0.7561462E-02  0.1322178E+00
         -1   -1    0    0    0  501 -0.00000000000E+00  0.00000000000E+00  0.80391510931E+02  0.80391510931E+02  0.00000000000E+00 0.  1.
          1   -1    0    0  501    0  0.00000000000E+00 -0.00000000000E+00 -0.26114297350E+03  0.26114297350E+03  0.00000000000E+00 0. -1.
         23    2    1    2    0    0  0.24374609901E+02 -0.45119914997E+02 -0.17755809433E+03  0.20630243563E+03  0.91672731757E+02 0.  0.
          5    1    1    2  502    0 -0.64402051191E+01 -0.45971227067E+01 -0.58170874474E+02  0.58855185126E+02  0.41800000000E+01 0. -1.
         -5    1    1    2    0  502 -0.17934404782E+02  0.49717037704E+02  0.54977506236E+02  0.76376863675E+02  0.41800000000E+01 0. -1.
        -11    1    3    3    0    0 -0.34091169656E+02 -0.17341783504E+02 -0.86530018251E+02  0.94606497463E+02  0.00000000000E+00 0. -1.
         11    1    3    3    0    0  0.58465779557E+02 -0.27778131493E+02 -0.91028076080E+02  0.11169593817E+03  0.00000000000E+00 0.  1.
</event>
<event>
 7    1  0.4096326E-006  0.1197449E+03  0.7561462E-02  0.1243518E+00
          1   -1    0    0  501    0  0.00000000000E+00  0.00000000000E+00  0.47045489244E+03  0.47045489244E+03  0.00000000000E+00 0. -1.
         -1   -1    0    0    0  501 -0.00000000000E+00 -0.00000000000E+00 -0.40227117178E+02  0.40227117178E+02  0.00000000000E+00 0.  1.
         23    2    1    2    0    0 -0.19816027259E+02 -0.53987467252E+02  0.30849051649E+03  0.32690296547E+03  0.91606923955E+02 0.  0.
          5    1    1    2  502    0 -0.49984614735E+02  0.34431067171E+02  0.78339733178E+02  0.99189446471E+02  0.41800000000E+01 0.  1.
         -5    1    1    2    0  502  0.69800641994E+02  0.19556400081E+02  0.43397525600E+02  0.84589597677E+02  0.41800000000E+01 0.  1.
        -11    1    3    3    0    0 -0.54043734690E+02 -0.19505230782E+02  0.19874945803E+03  0.20688771436E+03  0.00000000000E+00 0.  1.
         11    1    3    3    0    0  0.34227707430E+02 -0.34482236471E+02  0.10974105845E+03  0.12001525111E+03  0.00000000000E+00 0. -1.
</event>
<event>
 7    1  0.4096326E-006  0.1205184E+03  0.7561462E-02  0.1242244E+00
          2   -1    0    0  501    0  0.00000000000E+00  0.00000000000E+00  0.65016737582E+02  0.65016737582E+02  0.00000000000E+00 0. -1.
         -2   -1    0    0    0  501 -0.00000000000E+00 -0.00000000000E+00 -0.32573348253E+03  0.32573348253E+03  0.00000000000E+00 0.  1.
         23    2    1    2    0    0 -0.24851270886E+02 -0.80941314854E+02 -0.55430025647E+02  0.13587830217E+03  0.90671622592E+02 0.  0.
          5    1    1    2  502    0  0.63130970292E+02  0.60407861644E+02 -0.18905357032E+03  0.20831071506E+03  0.41800000000E+01 0.  1.
         -5    1    1    2    0  502 -0.38279699406E+02  0.20533453210E+02 -0.16233148977E+02  0.46561202874E+02  0.41800000000E+01 0.  1.
        -11    1    3    3    0    0 -0.29534457678E+01 -0.87118267649E+02 -0.13547580766E+02  0.88214807967E+02  0.00000000000E+00 0. -1.
         11    1    3    3    0    0 -0.21897825118E+02  0.61769527952E+01 -0.41882444881E+02  0.47663494206E+02  0.00000000000E+00 0.  1.
</event>
<event>
 7    1  0.4096326E-006  0.1104032E+03  0.7561462E-02  0.1259825E+00
          1   -1    0    0  501    0  0.00000000000E+00  0.00000000000E+00  0.11081952421E+03  0.11081952421E+03  0.00000000000E+00 0. -1.
         -1   -1    0    0    0  501 -0.00000000000E+00 -0.00000000000E+00 -0.11257207908E+03  0.11257207908E+03  0.00000000000E+00 0.  1.
         23    2    1    2    0    0  0.62387990724E+01 -0.24384742552E+02  0.12342380440E+02  0.95019790683E+02  0.90790351818E+02 0.  0.
          5    1    1    2  502    0  0.16734439198E+02 -0.48114794424E+02 -0.10090227069E+02  0.52099519960E+02  0.41800000000E+01 0.  1.
         -5    1    1    2    0  502 -0.22973238270E+02  0.72499536977E+02 -0.40047082441E+01  0.76272292653E+02  0.41800000000E+01 0.  1.
        -11    1    3    3    0    0 -0.30442346291E+02 -0.42768173177E+02  0.12257007496E+01  0.52510526821E+02  0.00000000000E+00 0.  1.
         11    1    3    3    0    0  0.36681145364E+02  0.18383430625E+02  0.11116679690E+02  0.42509263862E+02  0.00000000000E+00 0. -1.
</event>
<event>
 7    1  0.4096326E-006  0.8567753E+02  0.7561462E-02  0.1313670E+00
          1   -1    0    0  501    0  0.00000000000E+00  0.00000000000E+00  0.34397010924E+03  0.34397010924E+03  0.00000000000E+00 0. -1.
         -1   -1    0    0    0  501 -0.00000000000E+00 -0.00000000000E+00 -0.39318198301E+02  0.39318198301E+02  0.00000000000E+00 0.  1.
         23    2    1    2    0    0  0.65598210403E-02 -0.19762577329E+02  0.19117998182E+03  0.21324729190E+03  0.92379989975E+02 0.  0.
          5    1    1    2  502    0  0.46903229503E+01 -0.39948172028E+02  0.10089444714E+03  0.10869690631E+03  0.41800000000E+01 0.  1.
         -5    1    1    2    0  502 -0.46968827713E+01  0.59710749358E+02  0.12577481976E+02  0.61344109330E+02  0.41800000000E+01 0.  1.
        -11    1    3    3    0    0  0.76277303461E+01 -0.44418196488E+02  0.17922757304E+03  0.18480714647E+03  0.00000000000E+00 0.  1.
         11    1    3    3    0    0 -0.76211705250E+01  0.24655619159E+02  0.11952408782E+02  0.28440145428E+02  0.00000000000E+00 0. -1.
</event>
<event>
 7    1  0.4096326E-006  0.1183298E+03  0.7561462E-02  0.1245878E+00
          4   -1    0    0  501    0  0.00000000000E+00  0.00000000000E+00  0.11012120383E+03  0.11012120383E+03  0.00000000000E+00 0. -1.
         -4   -1    0    0    0  501 -0.00000000000E+00 -0.00000000000E+00 -0.23252389299E+03  0.23252389299E+03  0.00000000000E+00 0.  1.
         23    2    1    2    0    0 -0.83412619416E+02  0.56353725583E+02  0.79402361267E+01  0.13583803042E+03  0.90859868439E+02 0.  0.
          5    1    1    2  502    0  0.85650967163E+02 -0.10434735752E+02 -0.13514461969E+03  0.16039486438E+03  0.41800000000E+01 0. -1.
         -5    1    1    2    0  502 -0.22383477474E+01 -0.45918989832E+02  0.48016944153E+01  0.46412202028E+02  0.41800000000E+01 0. -1.
        -11    1    3    3    0    0 -0.42978792752E+02  0.44747399404E+02 -0.38625237216E+02  0.73084987034E+02  0.00000000000E+00 0.  1.
         11    1    3    3    0    0 -0.40433826664E+02  0.11606326179E+02  0.46565473343E+02  0.62753043382E+02  0.00000000000E+00 0. -1.
</event>
<event>
 7    1  0.4096326E-006  0.2061742E+03  0.7561462E-02  0.1144632E+00
         -1   -1    0    0    0  501 -0.00000000000E+00  0.00000000000E+00  0.82837033161E+02  0.82837033161E+02  0.00000000000E+00 0.  1.
          1   -1    0    0  501    0  0.00000000000E+00 -0.00000000000E+00 -0.79765235514E+03  0.79765235514E+03  0.00000000000E+00 0. -1.
         23    2    1    2    0    0 -0.14608427860E+03  0.11534430113E+03 -0.58038045440E+03  0.61615554367E+03  0.90339680553E+02 0.  0.
          5    1    1    2  502    0  0.82694112541E+02  0.92169938908E+01 -0.76069803242E+02  0.11281558665E+03  0.41800000000E+01 0. -1.
         -5    1    1    2    0  502  0.63390166056E+02 -0.12456129502E+03 -0.58365064335E+02  0.15151825799E+03  0.41800000000E+01 0.  1.
        -11    1    3    3    0    0 -0.15188164331E+02  0.69357129595E+00 -0.66081061637E+01  0.16577950536E+02  0.00000000000E+00 0.  1.
         11    1    3    3    0    0 -0.13089611427E+03  0.11465072983E+03 -0.57377234824E+03  0.59957759313E+03  0.00000000000E+00 0. -1.
</event>
<event>
 7    1  0.4096326E-006  0.2042089E+03  0.7561462E-02  0.1146236E+00
          1   -1    0    0  501    0  0.00000000000E+00  0.00000000000E+00  0.22123590197E+03  0.22123590197E+03  0.00000000000E+00 0. -1.
         -1   -1    0    0    0  501 -0.00000000000E+00 -0.00000000000E+00 -0.20650116130E+03  0.20650116130E+03  0.00000000000E+00 0.  1.
         23    2    1    2    0    0  0.17953926599E+03  0.14719553247E+02  0.42376489858E+02  0.20669086034E+03  0.92056132757E+02 0.  0.
          5    1    1    2  502    0 -0.16960437884E+03  0.30816391932E+02 -0.19213808845E+02  0.17349910139E+03  0.41800000000E+01 0.  1.
         -5    1    1    2    0  502 -0.99348871452E+01 -0.45535945179E+02 -0.84279403477E+01  0.47547101535E+02  0.41800000000E+01 0.  1.
        -11    1    3    3    0    0  0.17230807522E+03 -0.53613062745E+00  0.59837165424E+02  0.18240297856E+03  0.00000000000E+00 0. -1.
         11    1    3    3    0    0  0.72311907714E+01  0.15255683874E+02 -0.17460675567E+02  0.24287881787E+02  0.00000000000E+00 0.  1.
</event>
<event>
 7    1  0.4096326E-006  0.1052996E+03  0.7561462E-02  0.1269530E+00
         -1   -1    0    0    0  501 -0.00000000000E+00  0.00000000000E+00  0.36917271555E+03  0.36917271555E+03  0.00000000000E+00 0.  1.
          1   -1    0    0  501    0  0.00000000000E+00 -0.00000000000E+00 -0.52546368245E+02  0.52546368245E+02  0.00000000000E+00 0. -1.
         23    2    1    2    0    0 -0.62952305018E+02 -0.38810786209E+02  0.72348574873E+02  0.13747519571E+03  0.90530897027E+02 0.  0.
          5    1    1    2  502    0  0.85827344445E+02 -0.28380558863E+01  0.20553236204E+03  0.22279006230E+03  0.41800000000E+01 0. -1.
         -5    1    1    2    0  502 -0.22875039427E+02  0.41648842095E+02  0.38745410396E+02  0.61453825783E+02  0.41800000000E+01 0. -1.
        -11    1    3    3    0    0 -0.27639029917E+02 -0.29452599077E+02  0.88690460418E+02  0.97454447494E+02  0.00000000000E+00 0.  1.
         11    1    3    3    0    0 -0.35313275101E+02 -0.93581871317E+01 -0.16341885545E+02  0.40020748218E+02  0.00000000000E+00 0. -1.
</event>
<event>
 7    1  0.4096326E-006  0.1241752E+03  0.7561462E-02  0.1236364E+00
         -2   -1    0    0    0  501 -0.00000000000E+00  0.00000000000E+00  0.45603095413E+02  0.45603095413E+02  0.00000000000E+00 0.  1.
          2   -1    0    0  501    0  0.00000000000E+00 -0.00000000000E+00 -0.50884409318E+03  0.50884409318E+03  0.00000000000E+00 0. -1.
         23    2    1    2    0    0 -0.90099624834E+02 -0.58272389445E+02 -0.20406034713E+03  0.24730644590E+03  0.89477590181E+02 0.  0.
          5    1    1    2  502    0  0.10322114551E+03  0.63352831028E+02 -0.26496590585E+03  0.29136332944E+03  0.41800000000E+01 0. -1.
         -5    1    1    2    0  502 -0.13121520672E+02 -0.50804415828E+01  0.57852552085E+01  0.15777413262E+02  0.41800000000E+01 0. -1.
        -11    1    3    3    0    0 -0.74430800075E+02 -0.30171878311E+02 -0.61487437282E+02  0.10114836224E+03  0.00000000000E+00 0.  1.
         11    1    3    3    0    0 -0.15668824759E+02 -0.28100511134E+02 -0.14257290985E+03  0.14615808366E+03  0.00000000000E+00 0. -1.
</event>
<event>
 7    1  0.4096326E-006  0.1795799E+03  0.7561462E-02  0.1168210E+00
         -2   -1    0    0    0  501 -0.00000000000E+00  0.00000000000E+00  0.48684960343E+02  0.48684960343E+02  0.00000000000E+00 0.  1.
          2   -1    0    0  501    0  0.00000000000E+00 -0.00000000000E+00 -0.87276080455E+03  0.87276080455E+03  0.00000000000E+00 0. -1.
         23    2    1    2    0    0  0.14576706299E+03 -0.84123013294E+02 -0.50291477007E+03  0.53791424935E+03  0.90020862438E+02 0.  0.
          5    1    1    2  502    0 -0.14297738435E+03  0.80514887780E+02 -0.18536300673E+03  0.24759260137E+03  0.41800000000E+01 0.  1.
         -5    1    1    2    0  502 -0.27896786439E+01  0.36081255137E+01 -0.13579806740E+03  0.13593891417E+03  0.41800000000E+01 0.  1.
        -11    1    3    3    0    0  0.83219693916E+02  0.96754251995E+00 -0.26115120875E+03  0.27409196892E+03  0.00000000000E+00 0.  1.
         11    1    3    3    0    0  0.62547369075E+02 -0.85090555814E+02 -0.24176356133E+03  0.26382228043E+03  0.00000000000E+00 0. -1.
</event>
<event>
 7    1  0.4096326E-006  0.1309754E+03  0.7561462E-02  0.1226016E+00
         -3   -1    0    0    0  501 -0.00000000000E+00  0.00000000000E+00  0.31118831670E+02  0.31118831670E+02  0.00000000000E+00 0.  1.
          3   -1    0    0  501    0  0.00000000000E+00 -0.00000000000E+00 -0.81473114342E+03  0.81473114342E+03  0.00000000000E+00 0. -1.
         23    2    1    2    0    0  0.72696823128E+02  0.89355580342E+02 -0.31985672423E+03  0.35190365358E+03  0.90876892205E+02 0.  0.
          5    1    1    2  502    0  0.55319112361E+01 -0.62576714986E+02 -0.82359109159E+02  0.10366746144E+03  0.41800000000E+01 0. -1.
         -5    1    1    2    0  502 -0.78228734364E+02 -0.26778865356E+02 -0.38139647837E+03  0.39027886007E+03  0.41800000000E+01 0. -1.
        -11    1    3    3    0    0  0.28003430575E+02  0.46494581952E+02 -0.26061066478E+03  0.26620266128E+03  0.00000000000E+00 0.  1.
         11    1    3    3    0    0  0.44693392553E+02  0.42860998390E+02 -0.59246059445E+02  0.85700992296E+02  0.00000000000E+00 0. -1.
</event>
<event>
 7    1  0.4096326E-006  0.1065473E+03  0.7561462E-02  0.1267101E+00
         -1   -1    0    0    0  501 -0.00000000000E+00  0.00000000000E+00  0.39677651443E+02  0.39677651443E+02  0.00000000000E+00 0.  1.
          1   -1    0    0  501    0  0.00000000000E+00 -0.00000000000E+00 -0.44701390916E+03  0.44701390916E+03  0.00000000000E+00 0. -1.
         23    2    1    2    0    0  0.63838206825E+02  0.43495602394E+02 -0.19030431469E+03  0.22455123231E+03  0.90776316635E+02 0.  0.
          5    1    1    2  502    0 -0.78409402234E+02 -0.39114820088E+02 -0.22707867007E+03  0.24343417655E+03  0.41800000000E+01 0.  1.
         -5    1    1    2    0  502  0.14571195409E+02 -0.43807823062E+01  0.10046727042E+02  0.18706151756E+02  0.41800000000E+01 0.  1.
        -11    1    3    3    0    0  0.31927680486E+02  0.64096991877E+02 -0.77472532777E+02  0.10549784113E+03  0.00000000000E+00 0.  1.
         11    1    3    3    0    0  0.31910526339E+02 -0.20601389483E+02 -0.11283178191E+03  0.11905339117E+03  0.00000000000E+00 0. -1.
</event>
<event>
 7    1  0.4096326E-006  0.1632940E+03  0.7561462E-02  0.1185027E+00
         -2   -1    0    0    0  501 -0.00000000000E+00  0.00000000000E+00  0.26475620625E+02  0.26475620625E+02  0.00000000000E+00 0.  1.
          2   -1    0    0  501    0  0.00000000000E+00 -0.00000000000E+00 -0.12937010250E+04  0.12937010250E+04  0.00000000000E+00 0. -1.
         23    2    1    2    0    0  0.39104517502E+02  0.13312838287E+03 -0.79923196669E+03  0.81627551633E+03  0.91003584351E+02 0.  0.
          5    1    1    2  502    0 -0.26445376127E+01 -0.12665668986E+03 -0.43827768360E+03  0.45623865576E+03  0.41800000000E+01 0. -1.
         -5    1    1    2    0  502 -0.36459979889E+02 -0.64716930022E+01 -0.29715754111E+02  0.47662473563E+02  0.41800000000E+01 0. -1.
        -11    1    3    3    0    0  0.12861859500E+02 -0.10475220928E+02 -0.43127298564E+02  0.46207375653E+02  0.00000000000E+00 0.  1.
         11    1    3    3    0    0  0.26242658002E+02  0.14360360380E+03 -0.75610466812E+03  0.77006814067E+03  0.00000000000E+00 0. -1.
</event>
<event>
 7    1  0.4096326E-006  0.1101420E+03  0.7561462E-02  0.1260307E+00
         -1   -1    0    0    0  501 -0.00000000000E+00  0.00000000000E+00  0.41661789057E+02  0.41661789057E+02  0.00000000000E+00 0.  1.
          1   -1    0    0  501    0  0.00000000000E+00 -0.00000000000E+00 -0.48093845327E+03  0.48093845327E+03  0.00000000000E+00 0. -1.
         23    2    1    2    0    0  0.85223822009E+02  0.26897045290E+02 -0.17997858910E+03  0.22115448170E+03  0.92360496735E+02 0.  0.
          5    1    1    2  502    0 -0.74806331008E+02  0.13404977580E+02 -0.24606356101E+03  0.25756635851E+03  0.41800000000E+01 0.  1.
         -5    1    1    2    0  502 -0.10417491001E+02 -0.40302022870E+02 -0.13234514100E+02  0.43879402111E+02  0.41800000000E+01 0.  1.
        -11    1    3    3    0    0  0.52405621515E+02 -0.95732532496E+01 -0.15919393929E+03  0.16787110130E+03  0.00000000000E+00 0. -1.
         11    1    3    3    0    0  0.32818200493E+02  0.36470298539E+02 -0.20784649813E+02  0.53283380402E+02  0.00000000000E+00 0.  1.
</event>
<event>
 7    1  0.4096326E-006  0.1050180E+03  0.7561462E-02  0.1270084E+00
          2   -1    0    0  501    0  0.00000000000E+00  0.00000000000E+00  0.37694017823E+02  0.37694017823E+02  0.00000000000E+00 0. -1.
         -2   -1    0    0    0  501 -0.00000000000E+00 -0.00000000000E+00 -0.50789170730E+03  0.50789170730E+03  0.00000000000E+00 0.  1.
         23    2    1    2    0    0 -0.52201835328E+02  0.66333171269E+02 -0.20274145885E+03  0.23849384154E+03  0.93005871286E+02 0.  0.
          5    1    1    2  502    0  0.23440971464E+02 -0.42590485540E+02 -0.26503096912E+03  0.26948527899E+03  0.41800000000E+01 0. -1.
         -5    1    1    2    0  502  0.28760863864E+02 -0.23742685729E+02 -0.24252615140E+01  0.37606604596E+02  0.41800000000E+01 0. -1.
        -11    1    3    3    0    0 -0.84146800627E+00  0.72032650958E+02 -0.97241693620E+02  0.12101800631E+03  0.00000000000E+00 0. -1.
         11    1    3    3    0    0 -0.51360367322E+02 -0.56994796893E+01 -0.10549976523E+03  0.11747583523E+03  0.00000000000E+00 0.  1.
</event>
<event>
 7    1  0.4096326E-006  0.1565522E+03  0.7561462E-02  0.1192645E+00
         -2   -1    0    0    0  501 -0.00000000000E+00  0.00000000000E+00  0.33717115704E+02  0.33717115704E+02  0.00000000000E+00 0.  1.
          2   -1    0    0  501    0  0.00000000000E+00 -0.00000000000E+00 -0.10228026301E+04  0.10228026301E+04  0.00000000000E+00 0. -1.
         23    2    1    2    0    0  0.10539146038E+02 -0.14208125885E+03 -0.60884084506E+03  0.63162859133E+03  0.89271188252E+02 0.  0.
          5    1    1    2  502    0  0.27306668241E+01  0.35149908592E+01  0.93427468570E+01  0.11161138870E+02  0.41800000000E+01 0.  1.
         -5    1    1    2    0  502 -0.13269812862E+02  0.13856626799E+03 -0.38958741621E+03  0.41373001562E+03  0.41800000000E+01 0.  1.
        -11    1    3    3    0    0  0.40709804401E+02 -0.27205073169E+02 -0.15865990252E+03  0.16604327403E+03  0.00000000000E+00 0.  1.
         11    1    3    3    0    0 -0.30170658363E+02 -0.11487618568E+03 -0.45018094254E+03  0.46558531730E+03  0.00000000000E+00 0. -1.
</event>
<event>
 7    1  0.4096326E-006  0.1595677E+03  0.7561462E-02  0.1189186E+00
         -2   -1    0    0    0  501 -0.00000000000E+00  0.00000000000E+00  0.17691851985E+02  0.17691851985E+02  0.00000000000E+00 0.  1.
          2   -1    0    0  501    0  0.00000000000E+00 -0.00000000000E+00 -0.14642685779E+04  0.14642685779E+04  0.00000000000E+00 0. -1.
         23    2    1    2    0    0  0.23909108703E+02  0.11589674965E+03 -0.66117681638E+03  0.67790554344E+03  0.91637553734E+02 0.  0.
          5    1    1    2  502    0  0.74350823292E+01 -0.13335863070E+03 -0.66752203019E+03  0.68076643427E+03  0.41800000000E+01 0.  1.
         -5    1    1    2    0  502 -0.31344191032E+02  0.17461881049E+02 -0.11787787929E+03  0.12328845213E+03  0.41800000000E+01 0.  1.
        -11    1    3    3    0    0  0.58774902666E+02  0.64360227296E+02 -0.36482332157E+03  0.37509036779E+03  0.00000000000E+00 0.  1.
         11    1    3    3    0    0 -0.34865793963E+02  0.51536522353E+02 -0.29635349481E+03  0.30281517566E+03  0.00000000000E+00 0. -1.
</event>
<event>
 7    1  0.4096326E-006  0.1083179E+03  0.7561462E-02  0.1263717E+00
          1   -1    0    0  501    0  0.00000000000E+00  0.00000000000E+00  0.13408453789E+03  0.13408453789E+03  0.00000000000E+00 0. -1.
         -1   -1    0    0    0  501 -0.00000000000E+00 -0.00000000000E+00 -0.90903980275E+02  0.90903980275E+02  0.00000000000E+00 0.  1.
         23    2    1    2    0    0  0.19547228268E+02 -0.53333503131E+01  0.22409261885E+02  0.96562623630E+02  0.91714919755E+02 0.  0.
          5    1    1    2  502    0  0.49463484781E+02  0.23587292235E+02  0.13184958016E+02  0.56518246607E+02  0.41800000000E+01 0.  1.
         -5    1    1    2    0  502 -0.69010713049E+02 -0.18253941922E+02  0.75863377189E+01  0.71907647933E+02  0.41800000000E+01 0.  1.
        -11    1    3    3    0    0  0.54055343395E+02 -0.11101965907E+02  0.31722394923E+00  0.55184548812E+02  0.00000000000E+00 0.  1.
         11    1    3    3    0    0 -0.34508115127E+02  0.57686155944E+01  0.22092037936E+02  0.41378074818E+02  0.00000000000E+00 0. -1.
</event>
<event>
 7    1  0.4096326E-006  0.1622408E+03  0.7561462E-02  0.1186190E+00
          1   -1    0    0  501    0  0.00000000000E+00  0.00000000000E+00  0.89697970989E+02  0.89697970989E+02  0.00000000000E+00 0. -1.
         -1   -1    0    0    0  501 -0.00000000000E+00 -0.00000000000E+00 -0.32498039545E+03  0.32498039545E+03  0.00000000000E+00 0.  1.
         23    2    1    2    0    0  0.12754408602E+03  0.31358010555E+02 -0.10117959678E+03  0.18911141525E+03  0.90967015273E+02 0.  0.
          5    1    1    2  502    0 -0.12259345637E+03 -0.59199091023E+02 -0.65269124402E+02  0.15103383370E+03  0.41800000000E+01 0. -1.
         -5    1    1    2    0  502 -0.49506296573E+01  0.27841080469E+02 -0.68833703273E+02  0.74533117484E+02  0.41800000000E+01 0. -1.
        -11    1    3    3    0    0  0.85019840070E+02 -0.25436809998E+02 -0.59082960148E+02  0.10661238525E+03  0.00000000000E+00 0.  1.
         11    1    3    3    0    0  0.42524245954E+02  0.56794820553E+02 -0.42096636633E+02  0.82499030003E+02  0.00000000000E+00 0. -1.
</event>
<event>
 7    1  0.4096326E-006  0.1296424E+03  0.7561462E-02  0.1227987E+00
          2   -1    0    0  501    0  0.00000000000E+00  0.00000000000E+00  0.45191268259E+02  0.45191268259E+02  0.00000000000E+00 0. -1.
         -2   -1    0    0    0  501 -0.00000000000E+00 -0.00000000000E+00 -0.47555178274E+03  0.47555178274E+03  0.00000000000E+00 0.  1.
         23    2    1    2    0    0 -0.92510988741E+02  0.15506818022E+02 -0.14284969984E+03  0.19346860778E+03  0.90693555503E+02 0.  0.
          5    1    1    2  502    0  0.78953370396E+02 -0.48862199102E+02 -0.27272472219E+03  0.28812739490E+03  0.41800000000E+01 0.  1.
         -5    1    1    2    0  502  0.13557618344E+02  0.33355381080E+02 -0.14786092456E+02  0.39147048322E+02  0.41800000000E+01 0.  1.
        -11    1    3    3    0    0 -0.79277644973E+02  0.49604626373E+02 -0.95841484686E+02  0.13390725946E+03  0.00000000000E+00 0.  1.
         11    1    3    3    0    0 -0.13233343767E+02 -0.34097808351E+02 -0.47008215150E+02  0.59561348316E+02  0.00000000000E+00 0. -1.
</event>
<event>
 7    1  0.4096326E-006  0.1132212E+03  0.7561462E-02  0.1254718E+00
          1   -1    0    0  501    0  0.00000000000E+00  0.00000000000E+00  0.19999587166E+03  0.19999587166E+03  0.00000000000E+00 0. -1.
         -1   -1    0    0    0  501 -0.00000000000E+00 -0.00000000000E+00 -0.21809179153E+03  0.21809179153E+03  0.00000000000E+00 0.  1.
         23    2    1    2    0    0  0.99767860593E+02  0.41501316306E+02  0.13295598490E+03  0.19416147655E+03  0.91353159723E+02 0.  0.
          5    1    1    2  502    0 -0.50206838679E+02 -0.40572878517E+02 -0.16072051485E+03  0.17324965054E+03  0.41800000000E+01 0. -1.
         -5    1    1    2    0  502 -0.49561021914E+02 -0.92843778920E+00  0.96686100717E+01  0.50676536095E+02  0.41800000000E+01 0. -1.
        -11    1    3    3    0    0  0.34008347988E+02  0.29800864879E+02 -0.17130619957E+00  0.45218233339E+02  0.00000000000E+00 0.  1.
         11    1    3    3    0    0  0.65759512605E+02  0.11700451427E+02  0.13312729110E+03  0.14894324321E+03  0.00000000000E+00 0. -1.
</event>
<event>
 7    1  0.4096326E-006  0.9185517E+02  0.7561462E-02  0.1298420E+00
          1   -1    0    0  501    0  0.00000000000E+00  0.00000000000E+00  0.35576492030E+03  0.35576492030E+03  0.00000000000E+00 0. -1.
         -1   -1    0    0    0  501 -0.00000000000E+00 -0.00000000000E+00 -0.34391776987E+02  0.34391776987E+02  0.00000000000E+00 0.  1.
         23    2    1    2    0    0 -0.29992094356E+02  0.25410995389E+02  0.12593055680E+03  0.15958019810E+03  0.89789142325E+02 0.  0.
          5    1    1    2  502    0  0.55537376954E+01  0.38850925333E+02  0.24941630078E+02  0.46688282390E+02  0.41800000000E+01 0. -1.
         -5    1    1    2    0  502  0.24438356661E+02 -0.64261920722E+02  0.17050095644E+03  0.18388821680E+03  0.41800000000E+01 0.  1.
        -11    1    3    3    0    0  0.12857541573E+02 -0.12660173173E+02  0.90308694287E+02  0.92093738245E+02  0.00000000000E+00 0.  1.
         11    1    3    3    0    0 -0.42849635929E+02  0.38071168563E+02  0.35621862513E+02  0.67486459856E+02  0.00000000000E+00 0. -1.
</event>
<event>
 7    1  0.4096326E-006  0.1526749E+03  0.7561462E-02  0.1197224E+00
         -1   -1    0    0    0  501 -0.00000000000E+00  0.00000000000E+00  0.95702023132E+02  0.95702023132E+02  0.00000000000E+00 0.  1.
          1   -1    0    0  501    0  0.00000000000E+00 -0.00000000000E+00 -0.30257878733E+03  0.30257878733E+03  0.00000000000E+00 0. -1.
         23    2    1    2    0    0 -0.91542855716E+02 -0.62121815969E+02 -0.15134172592E+03  0.22229550940E+03  0.11946447608E+03 0.  0.
          5    1    1    2  502    0  0.90332312201E+02  0.91271663139E+02 -0.66333899967E+02  0.14459634091E+03  0.41800000000E+01 0.  1.
         -5    1    1    2    0  502  0.12105435145E+01 -0.29149847170E+02  0.10798861686E+02  0.31388960151E+02  0.41800000000E+01 0.  1.
        -11    1    3    3    0    0 -0.62806931919E+02 -0.88409366462E+02 -0.62204042757E+02  0.12502107707E+03  0.00000000000E+00 0.  1.
         11    1    3    3    0    0 -0.28735923797E+02  0.26287550493E+02 -0.89137683159E+02  0.97274432337E+02  0.00000000000E+00 0. -1.
</event>
<event>
 7    1  0.4096326E-006  0.1092813E+03  0.7561462E-02  0.1261907E+00
          1   -1    0    0  501    0  0.00000000000E+00  0.00000000000E+00  0.93966892412E+01  0.93966892412E+01  0.00000000000E+00 0. -1.
         -1   -1    0    0    0  501 -0.00000000000E+00 -0.00000000000E+00 -0.13575036286E+04  0.13575036286E+04  0.00000000000E+00 0.  1.
         23    2    1    2    0    0  0.10132597739E+02 -0.26893594169E+02 -0.53300034912E+03  0.54174941200E+03  0.92612732903E+02 0.  0.
          5    1    1    2  502    0  0.40437801610E+02 -0.26369178847E+02 -0.20622429471E+03  0.21184069846E+03  0.41800000000E+01 0. -1.
         -5    1    1    2    0  502 -0.50570399349E+02  0.53262773016E+02 -0.60888229553E+03  0.61331020739E+03  0.41800000000E+01 0. -1.
        -11    1    3    3    0    0 -0.36967579739E+02 -0.32353546468E+02 -0.29659360625E+03  0.30063453093E+03  0.00000000000E+00 0.  1.
         11    1    3    3    0    0  0.47100177478E+02  0.54599522989E+01 -0.23640674287E+03  0.24111488107E+03  0.00000000000E+00 0. -1.
</event>
<event>
 7    1  0.4096326E-006  0.1287336E+03  0.7561462E-02  0.1229347E+00
         -2   -1    0    0    0  501 -0.00000000000E+00  0.00000000000E+00  0.21265193982E+03  0.21265193982E+03  0.00000000000E+00 0.  1.
          2   -1    0    0  501    0  0.00000000000E+00 -0.00000000000E+00 -0.18319650539E+03  0.18319650539E+03  0.00000000000E+00 0. -1.
         23    2    1    2    0    0 -0.27332144702E+02 -0.70136629770E+02 -0.13150118404E+03  0.17854368113E+03  0.94440942914E+02 0.  0.
          5    1    1    2  502    0  0.49141062349E+02 -0.19870960599E+02  0.54519866720E+02  0.76155021838E+02  0.41800000000E+01 0.  1.
         -5    1    1    2    0  502 -0.21808917647E+02  0.90007590369E+02  0.10643675174E+03  0.14114974224E+03  0.41800000000E+01 0.  1.
        -11    1    3    3    0    0 -0.34598904226E+02  0.59929921321E+01 -0.12869144545E+02  0.37398061576E+02  0.00000000000E+00 0.  1.
         11    1    3    3    0    0  0.72667595235E+01 -0.76129621902E+02 -0.11863203950E+03  0.14114561956E+03  0.00000000000E+00 0. -1.
</event>
<event>
 6    1  0.4096326E-006  0.1164479E+03  0.7561462E-02  0.1249075E+00
         -2   -1    0    0    0  501 -0.00000000000E+00  0.00000000000E+00  0.42894824949E+02  0.42894824949E+02  0.00000000000E+00 0.  1.
          2   -1    0    0  501    0  0.00000000000E+00 -0.00000000000E+00 -0.32127319463E+03  0.32127319463E+03  0.00000000000E+00 0. -1.
          5    1    1    2  502    0  0.92367334708E+01 -0.65309653549E+02 -0.82314969076E+02  0.10556464667E+03  0.41800000000E+01 0.  1.
         -5    1    1    2    0  502  0.70136928083E+02  0.29539260665E+02 -0.99710965454E+02  0.12550500242E+03  0.41800000000E+01 0. -1.
        -11    1    1    2    0    0 -0.57960990950E+02  0.37609946923E+02 -0.82124783227E+02  0.10732411006E+03  0.00000000000E+00 0. -1.
         11    1    1    2    0    0 -0.21412670603E+02 -0.18395540385E+01 -0.14227651921E+02  0.25774260428E+02  0.00000000000E+00 0.  1.
</event>
<event>
 7    1  0.4096326E-006  0.9796387E+02  0.7561462E-02  0.1284637E+00
          2   -1    0    0  501    0  0.00000000000E+00  0.00000000000E+00  0.73403463429E+02  0.73403463429E+02  0.00000000000E+00 0.  1.
         -2   -1    0    0    0  501 -0.00000000000E+00 -0.00000000000E+00 -0.17698594033E+03  0.17698594033E+03  0.00000000000E+00 0. -1.
         23    2    1    2    0    0  0.10337388876E+02 -0.15721027364E+02 -0.11641555335E+02  0.94009246113E+02  0.91368486000E+02 0.  0.
          5    1    1    2  502    0 -0.51027480252E+02 -0.28978989354E+02 -0.19584669861E+02  0.62004977690E+02  0.41800000000E+01 0. -1.
         -5    1    1    2    0  502  0.40690091376E+02  0.44700016718E+02 -0.72356251703E+02  0.94375179953E+02  0.41800000000E+01 0. -1.
        -11    1    3    3    0    0 -0.22896875493E+01  0.29482939361E+02  0.21492901885E+02  0.36557232032E+02  0.00000000000E+00 0.  1.
         11    1    3    3    0    0  0.12627076425E+02 -0.45203966725E+02 -0.33134457220E+02  0.57452014081E+02  0.00000000000E+00 0. -1.
</event>
<event>
 7    1  0.4096326E-006  0.7626809E+02  0.7561462E-02  0.1339989E+00
          2   -1    0    0  501    0  0.00000000000E+00  0.00000000000E+00  0.22860151717E+03  0.22860151717E+03  0.00000000000E+00 0. -1.
         -2   -1    0    0    0  501 -0.00000000000E+00 -0.00000000000E+00 -0.63861621017E+02  0.63861621017E+02  0.00000000000E+00 0.  1.
         23    2    1    2    0    0  0.24246889134E+02 -0.27075798849E+02  0.12247488158E+03  0.15551466116E+03  0.88677520839E+02 0.  0.
          5    1    1    2  502    0 -0.78167691768E+01  0.36355884296E+02 -0.38626326386E+02  0.53780272344E+02  0.41800000000E+01 0. -1.
         -5    1    1    2    0  502 -0.16430119957E+02 -0.92800854465E+01  0.80891340963E+02  0.83168204685E+02  0.41800000000E+01 0. -1.
        -11    1    3    3    0    0  0.48614748668E+02  0.11689194496E+02  0.66407953731E+02  0.83126694718E+02  0.00000000000E+00 0. -1.
         11    1    3    3    0    0 -0.24367859534E+02 -0.38764993345E+02  0.56066927844E+02  0.72387966440E+02  0.00000000000E+00 0.  1.
</event>
<event>
 7    1  0.4096326E-006  0.3467124E+03  0.7561462E-02  0.1063973E+00
          2   -1    0    0  501    0  0.00000000000E+00  0.00000000000E+00  0.13326422311E+04  0.13326422311E+04  0.00000000000E+00 0. -1.
         -2   -1    0    0    0  501 -0.00000000000E+00 -0.00000000000E+00 -0.12262404557E+03  0.12262404557E+03  0.00000000000E+00 0.  1.
         23    2    1    2    0    0 -0.27237016692E+02  0.33158397636E+03  0.96121359760E+03  0.10214227134E+04  0.93182567444E+02 0.  0.
          5    1    1    2  502    0 -0.24377631713E+02 -0.26578777085E+03  0.21794357430E+03  0.34460743179E+03  0.41800000000E+01 0.  1.
         -5    1    1    2    0  502  0.51614648405E+02 -0.65796205506E+02  0.30861013612E+02  0.89236131416E+02  0.41800000000E+01 0.  1.
        -11    1    3    3    0    0 -0.42287379012E+02  0.77973891619E+02  0.30883347230E+03  0.32131956649E+03  0.00000000000E+00 0.  1.
         11    1    3    3    0    0  0.15050362320E+02  0.25361008474E+03  0.65238012529E+03  0.70010314695E+03  0.00000000000E+00 0. -1.
</event>
<event>
 7    1  0.4096326E-006  0.1069420E+03  0.7561462E-02  0.1266340E+00
          1   -1    0    0  501    0  0.00000000000E+00  0.00000000000E+00  0.67916561559E+03  0.67916561559E+03  0.00000000000E+00 0. -1.
         -1   -1    0    0    0  501 -0.00000000000E+00 -0.00000000000E+00 -0.33590806686E+02  0.33590806686E+02  0.00000000000E+00 0.  1.
         23    2    1    2    0    0  0.57945620942E+02 -0.84417574324E+01  0.47263852703E+03  0.49143328790E+03  0.12120454190E+03 0.  0.
          5    1    1    2  502    0 -0.20017850941E+02  0.47980286951E+02  0.15254268924E+02  0.54341396859E+02  0.41800000000E+01 0.  1.
         -5    1    1    2    0  502 -0.37927770002E+02 -0.39538529519E+02  0.15768201296E+03  0.16698173752E+03  0.41800000000E+01 0.  1.
        -11    1    3    3    0    0 -0.86479389072E+01  0.29082864143E+02  0.31555937857E+02  0.43776443987E+02  0.00000000000E+00 0.  1.
         11    1    3    3    0    0  0.66593559850E+02 -0.37524621576E+02  0.44108258917E+03  0.44765684392E+03  0.00000000000E+00 0. -1.
</event>
<event>
 7    1  0.4096326E-006  0.1313788E+03  0.7561462E-02  0.1225424E+00
         -2   -1    0    0    0  501 -0.00000000000E+00  0.00000000000E+00  0.43355898232E+03  0.43355898232E+03  0.00000000000E+00 0.  1.
          2   -1    0    0  501    0  0.00000000000E+00 -0.00000000000E+00 -0.57500666641E+02  0.57500666641E+02  0.00000000000E+00 0. -1.
         23    2    1    2    0    0 -0.75943432346E+02  0.57125204752E+02  0.79047205770E+02  0.15506243613E+03  0.93622670463E+02 0.  0.
          5    1    1    2  502    0  0.20587430279E+01 -0.62688001865E+02  0.22099960970E+03  0.22976580226E+03  0.41800000000E+01 0.  1.
         -5    1    1    2    0  502  0.73884689318E+02  0.55627971133E+01  0.76011500207E+02  0.10623141057E+03  0.41800000000E+01 0.  1.
        -11    1    3    3    0    0 -0.81065903226E+02  0.72946999691E+02  0.46584375283E+02  0.11858772892E+03  0.00000000000E+00 0.  1.
         11    1    3    3    0    0  0.51224708806E+01 -0.15821794938E+02  0.32462830487E+02  0.36474707212E+02  0.00000000000E+00 0. -1.
</event>
<event>
 7    1  0.4096326E-006  0.1000060E+03  0.7561462E-02  0.1280283E+00
         -2   -1    0    0    0  501 -0.00000000000E+00  0.00000000000E+00  0.12098212169E+03  0.12098212169E+03  0.00000000000E+00 0. -1.
          2   -1    0    0  501    0  0.00000000000E+00 -0.00000000000E+00 -0.11001800855E+03  0.11001800855E+03  0.00000000000E+00 0.  1.
         23    2    1    2    0    0  0.21321743511E+02  0.16099164193E+02 -0.17769213291E+02  0.99904340894E+02  0.94611482149E+02 0.  0.
          5    1    1    2  502    0 -0.57441696492E+02 -0.34031774981E+02  0.51658056558E+02  0.84520633052E+02  0.41800000000E+01 0. -1.
         -5    1    1    2    0  502  0.36119952981E+02  0.17932610788E+02 -0.22924730122E+02  0.46575156298E+02  0.41800000000E+01 0. -1.
        -11    1    3    3    0    0 -0.34477888262E+02 -0.68636212771E-01  0.94494562671E+01  0.35749429558E+02  0.00000000000E+00 0.  1.
         11    1    3    3    0    0  0.55799631773E+02  0.16167800406E+02 -0.27218669559E+02  0.64154911336E+02  0.00000000000E+00 0. -1.
</event>
<event>
 7    1  0.4096326E-006  0.8194498E+02  0.7561462E-02  0.1323621E+00
         -1   -1    0    0    0  501 -0.00000000000E+00  0.00000000000E+00  0.23454865069E+02  0.23454865069E+02  0.00000000000E+00 0.  1.
          1   -1    0    0  501    0  0.00000000000E+00 -0.00000000000E+00 -0.52494845703E+03  0.52494845703E+03  0.00000000000E+00 0. -1.
         23    2    1    2    0    0  0.24144746740E+02 -0.15274797117E+02 -0.20704383531E+03  0.22721079598E+03  0.89114016018E+02 0.  0.
          5    1    1    2  502    0 -0.41482941712E+02 -0.37825099733E+02 -0.69839278814E+02  0.89702674922E+02  0.41800000000E+01 0. -1.
         -5    1    1    2    0  502  0.17338194971E+02  0.53099896850E+02 -0.22461047784E+03  0.23148985120E+03  0.41800000000E+01 0. -1.
        -11    1    3    3    0    0 -0.12557287595E+02 -0.34965071314E+01  0.32332653951E+01  0.13430005174E+02  0.00000000000E+00 0.  1.
         11    1    3    3    0    0  0.36702034336E+02 -0.11778289985E+02 -0.21027710070E+03  0.21378079081E+03  0.00000000000E+00 0. -1.
</event>
<event>
 7    1  0.4096326E-006  0.1096975E+03  0.7561462E-02  0.1261131E+00
         -4   -1    0    0    0  501 -0.00000000000E+00  0.00000000000E+00  0.47977421968E+03  0.47977421968E+03  0.00000000000E+00 0.  1.
          4   -1    0    0  501    0  0.00000000000E+00 -0.00000000000E+00 -0.36523631544E+02  0.36523631544E+02  0.00000000000E+00 0. -1.
         23    2    1    2    0    0  0.16704686897E+02 -0.28658385204E+02  0.67391532901E+02  0.11878449153E+03  0.92020579839E+02 0.  0.
          5    1    1    2  502    0 -0.62335262946E+02  0.46780312153E+02  0.26369552149E+03  0.27500342374E+03  0.41800000000E+01 0. -1.
         -5    1    1    2    0  502  0.45630576049E+02 -0.18121926949E+02  0.11216353374E+03  0.12250993596E+03  0.41800000000E+01 0. -1.
        -11    1    3    3    0    0 -0.27382861497E+01  0.30077191898E+02  0.42402210213E+02  0.52058458626E+02  0.00000000000E+00 0. -1.
         11    1    3    3    0    0  0.19442973047E+02 -0.58735577102E+02  0.24989322688E+02  0.66726032902E+02  0.00000000000E+00 0.  1.
</event>
<event>
 7    1  0.4096326E-006  0.1769361E+03  0.7561462E-02  0.1170802E+00
         -1   -1    0    0    0  501 -0.00000000000E+00  0.00000000000E+00  0.21301772624E+03  0.21301772624E+03  0.00000000000E+00 0.  1.
          1   -1    0    0  501    0  0.00000000000E+00 -0.00000000000E+00 -0.18057757616E+03  0.18057757616E+03  0.00000000000E+00 0. -1.
         23    2    1    2    0    0 -0.67270625197E+02 -0.70598229186E+02 -0.53322409949E+02  0.14472979696E+03  0.92703763382E+02 0.  0.
          5    1    1    2  502    0 -0.41155519047E+02 -0.53763246332E+02  0.16089599549E+02  0.69718082431E+02  0.41800000000E+01 0. -1.
         -5    1    1    2    0  502  0.10842614424E+03  0.12436147552E+03  0.69672960478E+02  0.17914742301E+03  0.41800000000E+01 0.  1.
        -11    1    3    3    0    0 -0.32321101704E+02 -0.78732545627E+02 -0.64893871281E+02  0.10702654758E+03  0.00000000000E+00 0. -1.
         11    1    3    3    0    0 -0.34949523493E+02  0.81343164412E+01  0.11571461332E+02  0.37703249378E+02  0.00000000000E+00 0.  1.
</event>
<event>
 7    1  0.4096326E-006  0.1831890E+03  0.7561462E-02  0.1164752E+00
         -1   -1    0    0    0  501 -0.00000000000E+00  0.00000000000E+00  0.84464410446E+02  0.84464410446E+02  0.00000000000E+00 0.  1.
          1   -1    0    0  501    0  0.00000000000E+00 -0.00000000000E+00 -0.46254034732E+03  0.46254034732E+03  0.00000000000E+00 0. -1.
         23    2    1    2    0    0 -0.11393021310E+03 -0.98422382935E+02 -0.27372842997E+03  0.32518449550E+03  0.90280916160E+02 0.  0.
          5    1    1    2  502    0  0.18838999476E+02  0.94758760658E+02 -0.74263370628E+02  0.12192887779E+03  0.41800000000E+01 0.  1.
         -5    1    1    2    0  502  0.95091213619E+02  0.36636222765E+01 -0.30084136273E+02  0.99891384469E+02  0.41800000000E+01 0.  1.
        -11    1    3    3    0    0 -0.81809798122E+02 -0.12587055191E+02 -0.14837475671E+03  0.16990098721E+03  0.00000000000E+00 0. -1.
         11    1    3    3    0    0 -0.32120414973E+02 -0.85835327744E+02 -0.12535367326E+03  0.15528350829E+03  0.00000000000E+00 0.  1.
</event>
<event>
 7    1  0.4096326E-006  0.1272274E+03  0.7561462E-02  0.1231629E+00
         -1   -1    0    0    0  501 -0.00000000000E+00  0.00000000000E+00  0.56401654519E+03  0.56401654519E+03  0.00000000000E+00 0.  1.
          1   -1    0    0  501    0  0.00000000000E+00 -0.00000000000E+00 -0.30648668058E+02  0.30648668058E+02  0.00000000000E+00 0. -1.
         23    2    1    2    0    0 -0.71280460911E+02 -0.33643086883E+00  0.17336341993E+03  0.20693901112E+03  0.87680451984E+02 0.  0.
          5    1    1    2  502    0  0.15989519257E+02  0.59345675137E+02  0.18271205971E+03  0.19281790126E+03  0.41800000000E+01 0. -1.
         -5    1    1    2    0  502  0.55290941653E+02 -0.59009244268E+02  0.17729239750E+03  0.19490830087E+03  0.41800000000E+01 0. -1.
        -11    1    3    3    0    0  0.20214379468E+02 -0.24235080106E+01  0.21340304649E+02  0.29494120276E+02  0.00000000000E+00 0. -1.
         11    1    3    3    0    0 -0.91494840378E+02  0.20870771418E+01  0.15202311528E+03  0.17744489084E+03  0.00000000000E+00 0.  1.
</event>
<event>
 7    1  0.4096326E-006  0.1558435E+03  0.7561462E-02  0.1193471E+00
          1   -1    0    0  501    0  0.00000000000E+00  0.00000000000E+00  0.40541929583E+03  0.40541929583E+03  0.00000000000E+00 0. -1.
         -1   -1    0    0    0  501 -0.00000000000E+00 -0.00000000000E+00 -0.72238363541E+02  0.72238363541E+02  0.00000000000E+00 0.  1.
         23    2    1    2    0    0  0.12786091869E+03  0.16878506524E+02  0.19782916218E+03  0.25270618556E+03  0.89948542506E+02 0.  0.
          5    1    1    2  502    0 -0.12615836149E+03  0.32070911080E+02  0.92568909380E+02  0.15978407585E+03  0.41800000000E+01 0. -1.
         -5    1    1    2    0  502 -0.17025571973E+01 -0.48949417604E+02  0.42782860730E+02  0.65167397962E+02  0.41800000000E+01 0. -1.
        -11    1    3    3    0    0  0.22764902183E+02 -0.82843992151E+01 -0.32351915498E+01  0.24440509530E+02  0.00000000000E+00 0.  1.
         11    1    3    3    0    0  0.10509601651E+03  0.25162905739E+02  0.20106435373E+03  0.22826567603E+03  0.00000000000E+00 0. -1.
</event>
<event>
 7    1  0.4096326E-006  0.2111049E+03  0.7561462E-02  0.1140694E+00
          1   -1    0    0  501    0  0.00000000000E+00  0.00000000000E+00  0.13232101115E+04  0.13232101115E+04  0.00000000000E+00 0. -1.
         -1   -1    0    0    0  501 -0.00000000000E+00 -0.00000000000E+00 -0.41212495381E+02  0.41212495381E+02  0.00000000000E+00 0.  1.
         23    2    1    2    0    0  0.20413666989E+03 -0.20432688040E+02  0.53781583048E+03  0.58241152001E+03  0.88701952619E+02 0.  0.
          5    1    1    2  502    0 -0.54201188334E+01 -0.10854091710E+02  0.22253533545E+03  0.22290499527E+03  0.41800000000E+01 0. -1.
         -5    1    1    2    0  502 -0.19871655106E+03  0.31286779750E+02  0.52164645016E+03  0.55910609156E+03  0.41800000000E+01 0. -1.
        -11    1    3    3    0    0  0.97064792349E+02  0.79804802165E+01  0.35974522042E+03  0.37269543275E+03  0.00000000000E+00 0. -1.
         11    1    3    3    0    0  0.10707187754E+03 -0.28413168256E+02  0.17807061006E+03  0.20971608726E+03  0.00000000000E+00 0.  1.
</event>
<event>
 7    1  0.4096326E-006  0.9523476E+02  0.7561462E-02  0.1290648E+00
         -2   -1    0    0    0  501 -0.00000000000E+00  0.00000000000E+00  0.99207268860E+02  0.99207268860E+02  0.00000000000E+00 0.  1.
          2   -1    0    0  501    0  0.00000000000E+00 -0.00000000000E+00 -0.15924867904E+03  0.15924867904E+03  0.00000000000E+00 0. -1.
         23    2    1    2    0    0 -0.48772354615E+02  0.33363630936E+02 -0.48234013264E+02  0.11961305666E+03  0.92135166158E+02 0.  0.
          5    1    1    2  502    0  0.35660499659E+01 -0.69302811069E+02  0.20574178531E+02  0.72500796938E+02  0.41800000000E+01 0.  1.
         -5    1    1    2    0  502  0.45206304650E+02  0.35939180134E+02 -0.32381575450E+02  0.66342094310E+02  0.41800000000E+01 0.  1.
        -11    1    3    3    0    0 -0.24350574966E+02  0.37108465958E+01  0.26132051216E+02  0.35911070498E+02  0.00000000000E+00 0.  1.
         11    1    3    3    0    0 -0.24421779650E+02  0.29652784340E+02 -0.74366064480E+02  0.83701986157E+02  0.00000000000E+00 0. -1.
</event>
<event>
 7    1  0.4096326E-006  0.9840457E+02  0.7561462E-02  0.1283687E+00
         -1   -1    0    0    0  501 -0.00000000000E+00  0.00000000000E+00  0.12839558637E+03  0.12839558637E+03  0.00000000000E+00 0.  1.
          1   -1    0    0  501    0  0.00000000000E+00 -0.00000000000E+00 -0.90406531017E+02  0.90406531017E+02  0.00000000000E+00 0. -1.
         23    2    1    2    0    0 -0.91816025030E+01  0.34225981960E+01  0.12692608074E+02  0.90806553419E+02  0.89379594098E+02 0.  0.
          5    1    1    2  502    0  0.60867005514E+02 -0.99044119628E+00  0.41290909164E+02  0.73676216744E+02  0.41800000000E+01 0.  1.
         -5    1    1    2    0  502 -0.51685403012E+02 -0.24321569997E+01 -0.15994461884E+02  0.54319347226E+02  0.41800000000E+01 0.  1.
        -11    1    3    3    0    0 -0.11484593284E+02 -0.39377234727E+02  0.22575705289E+02  0.46820134204E+02  0.00000000000E+00 0. -1.
         11    1    3    3    0    0  0.23029907814E+01  0.42799832923E+02 -0.98830972141E+01  0.43986419214E+02  0.00000000000E+00 0.  1.
</event>
<event>
 7    1  0.4096326E-006  0.8889938E+02  0.7561462E-02  0.1305539E+00
          1   -1    0    0  501    0  0.00000000000E+00  0.00000000000E+00  0.26561820370E+03  0.26561820370E+03  0.00000000000E+00 0. -1.
         -1   -1    0    0    0  501 -0.00000000000E+00 -0.00000000000E+00 -0.10298223340E+03  0.10298223340E+03  0.00000000000E+00 0.  1.
         23    2    1    2    0    0 -0.38476642892E+02  0.99355588153E+00  0.19484535457E+03  0.21861026213E+03  0.91347114393E+02 0.  0.
          5    1    1    2  502    0 -0.17740806753E+02 -0.18917932203E+02  0.45372963825E+02  0.52429024684E+02  0.41800000000E+01 0. -1.
         -5    1    1    2    0  502  0.56217449645E+02  0.17924376322E+02 -0.77582348094E+02  0.97561150295E+02  0.41800000000E+01 0.  1.
        -11    1    3    3    0    0 -0.26914268257E+02 -0.40874691282E+02  0.14204703859E+03  0.15024140374E+03  0.00000000000E+00 0.  1.
         11    1    3    3    0    0 -0.11562374635E+02  0.41868247163E+02  0.52798315978E+02  0.68368858392E+02  0.00000000000E+00 0. -1.
</event>
<event>
 7    1  0.4096326E-006  0.2096929E+03  0.7561462E-02  0.1141809E+00
         -1   -1    0    0    0  501 -0.00000000000E+00  0.00000000000E+00  0.40700063928E+03  0.40700063928E+03  0.00000000000E+00 0.  1.
          1   -1    0    0  501    0  0.00000000000E+00 -0.00000000000E+00 -0.14731352766E+03  0.14731352766E+03  0.00000000000E+00 0. -1.
         23    2    1    2    0    0  0.68999197251E+02 -0.18368132386E+03  0.15254812429E+02  0.21683070009E+03  0.91011676414E+02 0.  0.
          5    1    1    2  502    0 -0.56363334902E+01 -0.54474761220E+01  0.75624330057E+02  0.76144303450E+02  0.41800000000E+01 0.  1.
         -5    1    1    2    0  502 -0.63362863760E+02  0.18912879998E+03  0.16880796913E+03  0.26133916340E+03  0.41800000000E+01 0.  1.
        -11    1    3    3    0    0  0.55312171089E+02 -0.18853068991E+03  0.99597039706E+00  0.19647964084E+03  0.00000000000E+00 0. -1.
         11    1    3    3    0    0  0.13687026162E+02  0.48493660547E+01  0.14258842032E+02  0.20351059245E+02  0.00000000000E+00 0.  1.
</event>
<event>
 7    1  0.4096326E-006  0.1044358E+03  0.7561462E-02  0.1271235E+00
         -2   -1    0    0    0  501 -0.00000000000E+00  0.00000000000E+00  0.55396700668E+02  0.55396700668E+02  0.00000000000E+00 0.  1.
          2   -1    0    0  501    0  0.00000000000E+00 -0.00000000000E+00 -0.44959154418E+03  0.44959154418E+03  0.00000000000E+00 0. -1.
         23    2    1    2    0    0  0.52122360611E+02  0.83866299539E+01 -0.33421141286E+03  0.35654572285E+03  0.11243001360E+03 0.  0.
          5    1    1    2  502    0 -0.64507290900E+02 -0.31805719484E+02  0.10707485996E+02  0.72834861348E+02  0.41800000000E+01 0. -1.
         -5    1    1    2    0  502  0.12384930289E+02  0.23419089530E+02 -0.70690916643E+02  0.75607660647E+02  0.41800000000E+01 0. -1.
        -11    1    3    3    0    0  0.80793279319E+02  0.30925898957E+01 -0.30396808708E+03  0.31453730472E+03  0.00000000000E+00 0. -1.
         11    1    3    3    0    0 -0.28670918708E+02  0.52940400582E+01 -0.30243325779E+02  0.42008418131E+02  0.00000000000E+00 0.  1.
</event>
<event>
 7    1  0.4096326E-006  0.1041464E+03  0.7561462E-02  0.1271811E+00
         -1   -1    0    0    0  501 -0.00000000000E+00  0.00000000000E+00  0.21732796166E+02  0.21732796166E+02  0.00000000000E+00 0.  1.
          1   -1    0    0  501    0  0.00000000000E+00 -0.00000000000E+00 -0.57377248045E+03  0.57377248045E+03  0.00000000000E+00 0. -1.
         23    2    1    2    0    0 -0.13116001484E+02  0.13423833552E+02 -0.31756634762E+03  0.32908888689E+03  0.84254860552E+02 0.  0.
          5    1    1    2  502    0 -0.47726096525E+02  0.24059128385E+02 -0.81917188901E+02  0.97900562744E+02  0.41800000000E+01 0. -1.
         -5    1    1    2    0  502  0.60842098009E+02 -0.37482961937E+02 -0.15255614776E+03  0.16851582699E+03  0.41800000000E+01 0. -1.
        -11    1    3    3    0    0 -0.75245038737E+01 -0.34265868118E+02 -0.91851311493E+02  0.98323096470E+02  0.00000000000E+00 0.  1.
         11    1    3    3    0    0 -0.55914976103E+01  0.47689701670E+02 -0.22571503613E+03  0.23076579042E+03  0.00000000000E+00 0. -1.
</event>
<event>
 7    1  0.6255207E-006  0.2140083E+03  0.7561462E-02  0.1138431E+00
         -2   -1    0    0    0  501 -0.00000000000E+00  0.00000000000E+00  0.10093636176E+03  0.10093636176E+03  0.00000000000E+00 0.  1.
          2   -1    0    0  501    0  0.00000000000E+00 -0.00000000000E+00 -0.51718569410E+03  0.51718569410E+03  0.00000000000E+00 0. -1.
         23    2    1    2    0    0  0.16826720155E+03  0.10696269536E+03 -0.25819469630E+03  0.33460229590E+03  0.74426647859E+02 0.  0.
          5    1    1    2  502    0 -0.17044380107E+03 -0.68150594218E+02 -0.88721800706E+02  0.20392308142E+03  0.41800000000E+01 0. -1.
         -5    1    1    2    0  502  0.21765995218E+01 -0.38812101139E+02 -0.69332835326E+02  0.79596678540E+02  0.41800000000E+01 0. -1.
        -11    1    3    3    0    0  0.10173039037E+03  0.91886612250E+02 -0.12769437818E+03  0.18734480525E+03  0.00000000000E+00 0.  1.
         11    1    3    3    0    0  0.66536811177E+02  0.15076083107E+02 -0.13050031813E+03  0.14725749066E+03  0.00000000000E+00 0. -1.
</event>
<event>
 7    1  0.4096326E-006  0.1133715E+03  0.7561462E-02  0.1254451E+00
          2   -1    0    0  501    0  0.00000000000E+00  0.00000000000E+00  0.26429545638E+03  0.26429545638E+03  0.00000000000E+00 0. -1.
         -2   -1    0    0    0  501 -0.00000000000E+00 -0.00000000000E+00 -0.56194917913E+02  0.56194917913E+02  0.00000000000E+00 0.  1.
         23    2    1    2    0    0  0.23421826810E+02  0.44330570811E+02  0.12331429907E+03  0.16127320904E+03  0.91043122322E+02 0.  0.
          5    1    1    2  502    0 -0.19195433037E+02  0.37312388062E+02  0.60659877764E+02  0.73876736005E+02  0.41800000000E+01 0.  1.
         -5    1    1    2    0  502 -0.42263937726E+01 -0.81642958873E+02  0.24126361641E+02  0.85340429246E+02  0.41800000000E+01 0.  1.
        -11    1    3    3    0    0  0.52476724827E+02  0.34875722303E+01  0.50789529257E+02  0.73113241556E+02  0.00000000000E+00 0. -1.
         11    1    3    3    0    0 -0.29054898017E+02  0.40842998581E+02  0.72524769808E+02  0.88159967489E+02  0.00000000000E+00 0.  1.
</event>
<event>
 7    1  0.4096326E-006  0.1185096E+03  0.7561462E-02  0.1245576E+00
          1   -1    0    0  501    0  0.00000000000E+00  0.00000000000E+00  0.18896926123E+03  0.18896926123E+03  0.00000000000E+00 0. -1.
         -1   -1    0    0    0  501 -0.00000000000E+00 -0.00000000000E+00 -0.95198123923E+02  0.95198123923E+02  0.00000000000E+00 0.  1.
         23    2    1    2    0    0  0.30270889892E+02 -0.59564765368E+02  0.87370742510E+02  0.14220480591E+03  0.90134744297E+02 0.  0.
          5    1    1    2  502    0 -0.69403958758E+02  0.64606997387E+02 -0.16221939666E+02  0.96289134015E+02  0.41800000000E+01 0.  1.
         -5    1    1    2    0  502  0.39133068866E+02 -0.50422320194E+01  0.22622334468E+02  0.45673445232E+02  0.41800000000E+01 0.  1.
        -11    1    3    3    0    0 -0.14295584719E+02 -0.55914855127E+02  0.77128880710E+02  0.96331194355E+02  0.00000000000E+00 0.  1.
         11    1    3    3    0    0  0.44566474612E+02 -0.36499102412E+01  0.10241861800E+02  0.45873611556E+02  0.00000000000E+00 0. -1.
</event>
<event>
 7    1  0.4096326E-006  0.1876900E+03  0.7561462E-02  0.1160561E+00
          2   -1    0    0  501    0  0.00000000000E+00  0.00000000000E+00  0.69175800573E+02  0.69175800573E+02  0.00000000000E+00 0. -1.
         -2   -1    0    0    0  501 -0.00000000000E+00 -0.00000000000E+00 -0.54107940351E+03  0.54107940351E+03  0.00000000000E+00 0.  1.
         23    2    1    2    0    0  0.15307690039E+03 -0.46059482321E+02 -0.23741488229E+03  0.30011523505E+03  0.90273554438E+02 0.  0.
          5    1    1    2  502    0 -0.86887341320E+02  0.88131243161E+02 -0.13159973968E+03  0.18069999996E+03  0.41800000000E+01 0.  1.
         -5    1    1    2    0  502 -0.66189559065E+02 -0.42071760840E+02 -0.10288898097E+03  0.12943996907E+03  0.41800000000E+01 0.  1.
        -11    1    3    3    0    0  0.10022180023E+03  0.38750778040E+01 -0.85891384629E+02  0.13204830715E+03  0.00000000000E+00 0. -1.
         11    1    3    3    0    0  0.52855100158E+02 -0.49934560125E+02 -0.15152349766E+03  0.16806692789E+03  0.00000000000E+00 0.  1.
</event>
<event>
 7    1  0.4096326E-006  0.9585770E+02  0.7561462E-02  0.1289256E+00
         -1   -1    0    0    0  501 -0.00000000000E+00  0.00000000000E+00  0.42404231081E+03  0.42404231081E+03  0.00000000000E+00 0.  1.
          1   -1    0    0  501    0  0.00000000000E+00 -0.00000000000E+00 -0.48466244025E+02  0.48466244025E+02  0.00000000000E+00 0. -1.
         23    2    1    2    0    0 -0.10223471273E+02 -0.49060751113E+00  0.23334244632E+02  0.96407578316E+02  0.92979428497E+02 0.  0.
          5    1    1    2  502    0 -0.30411117164E+02  0.35208014644E+02  0.47279335433E+02  0.66462382603E+02  0.41800000000E+01 0. -1.
         -5    1    1    2    0  502  0.40634588437E+02 -0.34717407133E+02  0.30496248672E+03  0.30963859392E+03  0.41800000000E+01 0.  1.
        -11    1    3    3    0    0 -0.49924117345E+02 -0.91641355704E+01  0.26952730080E+01  0.50829748868E+02  0.00000000000E+00 0. -1.
         11    1    3    3    0    0  0.39700646072E+02  0.86735280592E+01  0.20638971624E+02  0.45577829448E+02  0.00000000000E+00 0.  1.
</event>
<event>
 7    1  0.4096326E-006  0.8896564E+02  0.7561462E-02  0.1305376E+00
          2   -1    0    0  501    0  0.00000000000E+00  0.00000000000E+00  0.71105998744E+02  0.71105998744E+02  0.00000000000E+00 0.  1.
         -2   -1    0    0    0  501 -0.00000000000E+00 -0.00000000000E+00 -0.18042688619E+03  0.18042688619E+03  0.00000000000E+00 0. -1.
         23    2    1    2    0    0 -0.22139919043E+02 -0.18588333622E+02 -0.33428616363E+02  0.10239360628E+03  0.92364907043E+02 0.  0.
          5    1    1    2  502    0  0.73577760095E+02  0.21265291231E+02 -0.46036337868E+02  0.89457901809E+02  0.41800000000E+01 0. -1.
         -5    1    1    2    0  502 -0.51437841052E+02 -0.26769576092E+01 -0.29855933220E+02  0.59681376849E+02  0.41800000000E+01 0. -1.
        -11    1    3    3    0    0 -0.39657818757E+01  0.12734554567E+02  0.28040061251E+02  0.31050625450E+02  0.00000000000E+00 0.  1.
         11    1    3    3    0    0 -0.18174137167E+02 -0.31322888188E+02 -0.61468677613E+02  0.71342980830E+02  0.00000000000E+00 0. -1.
</event>
<event>
 7    1  0.4301772E-006  0.1992106E+03  0.7561462E-02  0.1150407E+00
          2   -1    0    0  501    0  0.00000000000E+00  0.00000000000E+00  0.19659262585E+04  0.19659262585E+04  0.00000000000E+00 0. -1.
         -2   -1    0    0    0  501 -0.00000000000E+00 -0.00000000000E+00 -0.20656201630E+02  0.20656201630E+02  0.00000000000E+00 0.  1.
         23    2    1    2    0    0 -0.52656795806E+02 -0.16102441538E+03  0.94095130657E+03  0.96042199742E+03  0.91211026132E+02 0.  0.
          5    1    1    2  502    0 -0.37581729241E+02  0.56716732175E+02  0.43803699970E+03  0.44330921441E+03  0.41800000000E+01 0. -1.
         -5    1    1    2    0  502  0.90238525048E+02  0.10430768321E+03  0.56628175055E+03  0.58285124825E+03  0.41800000000E+01 0. -1.
        -11    1    3    3    0    0 -0.22674898394E+02 -0.16069160580E+03  0.78037682245E+03  0.79707209725E+03  0.00000000000E+00 0.  1.
         11    1    3    3    0    0 -0.29981897413E+02 -0.33280958480E+00  0.16057448412E+03  0.16334990017E+03  0.00000000000E+00 0. -1.
</event>
<event>
 7    1  0.4096326E-006  0.7833743E+02  0.7561462E-02  0.1333837E+00
         -2   -1    0    0    0  501 -0.00000000000E+00  0.00000000000E+00  0.74204835656E+02  0.74204835656E+02  0.00000000000E+00 0.  1.
          2   -1    0    0  501    0  0.00000000000E+00 -0.00000000000E+00 -0.15904302066E+03  0.15904302066E+03  0.00000000000E+00 0. -1.
         23    2    1    2    0    0 -0.15934417868E+02  0.35410296023E+01 -0.69414638200E+02  0.11598443382E+03  0.91474326068E+02 0.  0.
          5    1    1    2  502    0 -0.25961801457E+02 -0.92386028991E+01 -0.53426348364E+02  0.60259555407E+02  0.41800000000E+01 0. -1.
         -5    1    1    2    0  502  0.41896219326E+02  0.56975732969E+01  0.38002801565E+02  0.57003867080E+02  0.41800000000E+01 0.  1.
        -11    1    3    3    0    0 -0.91196401788E+01 -0.40620075916E+02 -0.55109241087E+02  0.69066539348E+02  0.00000000000E+00 0.  1.
         11    1    3    3    0    0 -0.68147776895E+01  0.44161105518E+02 -0.14305397114E+02  0.46917894476E+02  0.00000000000E+00 0. -1.
</event>
<event>
 7    1  0.4096326E-006  0.1229141E+03  0.7561462E-02  0.1238366E+00
         -1   -1    0    0    0  501 -0.00000000000E+00  0.00000000000E+00  0.39599246021E+03  0.39599246021E+03  0.00000000000E+00 0.  1.
          1   -1    0    0  501    0  0.00000000000E+00 -0.00000000000E+00 -0.54352175158E+02  0.54352175158E+02  0.00000000000E+00 0. -1.
         23    2    1    2    0    0 -0.88422138072E+02 -0.38641098488E+02  0.11115983094E+03  0.17091616325E+03  0.86857457081E+02 0.  0.
          5    1    1    2  502    0  0.27582966955E+02  0.73566466143E+02  0.16751196441E+03  0.18506911041E+03  0.41800000000E+01 0. -1.
         -5    1    1    2    0  502  0.60839171118E+02 -0.34925367654E+02  0.62968489706E+02  0.94359361719E+02  0.41800000000E+01 0. -1.
        -11    1    3    3    0    0 -0.42021536948E+02 -0.23024425571E+02  0.11214026701E+03  0.12194823994E+03  0.00000000000E+00 0.  1.
         11    1    3    3    0    0 -0.46400601124E+02 -0.15616672917E+02 -0.98043606941E+00  0.48967923303E+02  0.00000000000E+00 0. -1.
</event>
<event>
 7    1  0.4096326E-006  0.9537167E+02  0.7561462E-02  0.1290341E+00
          2   -1    0    0  501    0  0.00000000000E+00  0.00000000000E+00  0.50775920420E+03  0.50775920420E+03  0.00000000000E+00 0. -1.
         -2   -1    0    0    0  501 -0.00000000000E+00 -0.00000000000E+00 -0.68205469803E+02  0.68205469803E+02  0.00000000000E+00 0.  1.
         23    2    1    2    0    0 -0.10155696668E+02  0.25339962732E+01  0.42695666774E+03  0.43583931043E+03  0.86915758530E+02 0.  0.
          5    1    1    2  502    0 -0.38524099594E+02  0.25959429694E+02  0.53011878577E+02  0.70609701244E+02  0.41800000000E+01 0. -1.
         -5    1    1    2    0  502  0.48679796261E+02 -0.28493425967E+02 -0.40414811912E+02  0.69515662331E+02  0.41800000000E+01 0.  1.
        -11    1    3    3    0    0  0.36493800914E+02  0.14680881832E+02  0.19015396381E+03  0.19417995713E+03  0.00000000000E+00 0.  1.
         11    1    3    3    0    0 -0.46649497582E+02 -0.12146885559E+02  0.23680270392E+03  0.24165935330E+03  0.00000000000E+00 0. -1.
</event>
<event>
 7    1  0.4096326E-006  0.1100118E+03  0.7561462E-02  0.1260548E+00
          2   -1    0    0  501    0  0.00000000000E+00  0.00000000000E+00  0.76220535710E+03  0.76220535710E+03  0.00000000000E+00 0. -1.
         -2   -1    0    0    0  501 -0.00000000000E+00 -0.00000000000E+00 -0.17829511833E+02  0.17829511833E+02  0.00000000000E+00 0.  1.
         23    2    1    2    0    0  0.37865534155E+02 -0.18599565495E+02  0.37593603773E+03  0.38865910178E+03  0.89152960772E+02 0.  0.
          5    1    1    2  502    0 -0.68887271388E+02 -0.20346612938E+02  0.13855028361E+03  0.15611884673E+03  0.41800000000E+01 0.  1.
         -5    1    1    2    0  502  0.31021737234E+02  0.38946178433E+02  0.22988952392E+03  0.23525692042E+03  0.41800000000E+01 0.  1.
        -11    1    3    3    0    0  0.51279510143E+02  0.21663544951E+02  0.23287025821E+03  0.23943152361E+03  0.00000000000E+00 0.  1.
         11    1    3    3    0    0 -0.13413975988E+02 -0.40263110446E+02  0.14306577953E+03  0.14922757817E+03  0.00000000000E+00 0. -1.
</event>
<event>
 7    1  0.4096326E-006  0.2087295E+03  0.7561462E-02  0.1142576E+00
         -2   -1    0    0    0  501 -0.00000000000E+00  0.00000000000E+00  0.16087980475E+04  0.16087980475E+04  0.00000000000E+00 0.  1.
          2   -1    0    0  501    0  0.00000000000E+00 -0.00000000000E+00 -0.42436224728E+02  0.42436224728E+02  0.00000000000E+00 0. -1.
         23    2    1    2    0    0 -0.95387667292E+02 -0.77876802317E+02  0.30118363660E+03  0.33852261604E+03  0.93393657194E+02 0.  0.
          5    1    1    2  502    0  0.17342638926E+03  0.57862624301E+02  0.35846752087E+03  0.40241922382E+03  0.41800000000E+01 0. -1.
         -5    1    1    2    0  502 -0.78038721970E+02  0.20014178016E+02  0.90671066532E+03  0.91029243239E+03  0.41800000000E+01 0.  1.
        -11    1    3    3    0    0 -0.59579974779E+02  0.87119117061E+01  0.13308159657E+03  0.14606978519E+03  0.00000000000E+00 0.  1.
         11    1    3    3    0    0 -0.35807692514E+02 -0.86588714023E+02  0.16810204003E+03  0.19245283085E+03  0.00000000000E+00 0. -1.
</event>
<event>
 7    1  0.4096326E-006  0.9873425E+02  0.7561462E-02  0.1282980E+00
         -1   -1    0    0    0  501 -0.00000000000E+00  0.00000000000E+00  0.19763881994E+03  0.19763881994E+03  0.00000000000E+00 0.  1.
          1   -1    0    0  501    0  0.00000000000E+00 -0.00000000000E+00 -0.87664209898E+02  0.87664209898E+02  0.00000000000E+00 0. -1.
         23    2    1    2    0    0 -0.23606327715E+02  0.39475447280E+02 -0.14203632882E+02  0.10313815793E+03  0.91214948267E+02 0.  0.
          5    1    1    2  502    0  0.37874127505E+02  0.30367222014E+02  0.91437034061E+02  0.10360898274E+03  0.41800000000E+01 0. -1.
         -5    1    1    2    0  502 -0.14267799790E+02 -0.69842669294E+02  0.32741208859E+02  0.78555889165E+02  0.41800000000E+01 0. -1.
        -11    1    3    3    0    0 -0.42284223198E+02  0.40605947657E+02 -0.40217669927E+02  0.71093315374E+02  0.00000000000E+00 0. -1.
         11    1    3    3    0    0  0.18677895483E+02 -0.11305003772E+01  0.26014037046E+02  0.32044842552E+02  0.00000000000E+00 0.  1.
</event>
<event>
 7    1  0.4096326E-006  0.1075736E+03  0.7561462E-02  0.1265130E+00
         -2   -1    0    0    0  501 -0.00000000000E+00  0.00000000000E+00  0.86567354952E+02  0.86567354952E+02  0.00000000000E+00 0.  1.
          2   -1    0    0  501    0  0.00000000000E+00 -0.00000000000E+00 -0.14564538983E+03  0.14564538983E+03  0.00000000000E+00 0. -1.
         23    2    1    2    0    0 -0.27112225105E+02  0.13846553057E+02 -0.36889950878E+02  0.10157021027E+03  0.89603790979E+02 0.  0.
          5    1    1    2  502    0 -0.52633020713E+01  0.53399682722E+02 -0.59565576776E+01  0.54149620893E+02  0.41800000000E+01 0.  1.
         -5    1    1    2    0  502  0.32375527176E+02 -0.67246235778E+02 -0.16231526321E+02  0.76492913613E+02  0.41800000000E+01 0.  1.
        -11    1    3    3    0    0  0.16853364902E+02 -0.23479541354E+02  0.62222076397E+01  0.29564178301E+02  0.00000000000E+00 0.  1.
         11    1    3    3    0    0 -0.43965590007E+02  0.37326094410E+02 -0.43112158518E+02  0.72006031974E+02  0.00000000000E+00 0. -1.
</event>
<event>
 7    1  0.4096326E-006  0.8078750E+02  0.7561462E-02  0.1326831E+00
         -1   -1    0    0    0  501 -0.00000000000E+00  0.00000000000E+00  0.29781914910E+03  0.29781914910E+03  0.00000000000E+00 0.  1.
          1   -1    0    0  501    0  0.00000000000E+00 -0.00000000000E+00 -0.49198336169E+02  0.49198336169E+02  0.00000000000E+00 0. -1.
         23    2    1    2    0    0 -0.23648399076E+02  0.48779515312E+02  0.10074928244E+03  0.14589245968E+03  0.90529022905E+02 0.  0.
          5    1    1    2  502    0 -0.17369164976E+01 -0.31839873980E+02 -0.14914614282E+02  0.35450142075E+02  0.41800000000E+01 0. -1.
         -5    1    1    2    0  502  0.25385315573E+02 -0.16939641333E+02  0.16278614477E+03  0.16567488351E+03  0.41800000000E+01 0. -1.
        -11    1    3    3    0    0 -0.19977999926E+02  0.72196102589E+02  0.95917026378E+02  0.12170239792E+03  0.00000000000E+00 0.  1.
         11    1    3    3    0    0 -0.36703991498E+01 -0.23416587277E+02  0.48322560610E+01  0.24190061766E+02  0.00000000000E+00 0. -1.
</event>
<event>
 7    1  0.4096326E-006  0.1147986E+03  0.7561462E-02  0.1251933E+00
         -1   -1    0    0    0  501 -0.00000000000E+00  0.00000000000E+00  0.29787916374E+02  0.29787916374E+02  0.00000000000E+00 0.  1.
          1   -1    0    0  501    0  0.00000000000E+00 -0.00000000000E+00 -0.60398836444E+03  0.60398836444E+03  0.00000000000E+00 0. -1.
         23    2    1    2    0    0  0.17831181753E+02  0.73769546275E+02 -0.30159489915E+03  0.32438650620E+03  0.92234620463E+02 0.  0.
          5    1    1    2  502    0  0.14952585537E+02 -0.78651322363E+02 -0.26252674621E+03  0.27449476352E+03  0.41800000000E+01 0. -1.
         -5    1    1    2    0  502 -0.32783767290E+02  0.48817760881E+01 -0.10078802711E+02  0.34895011099E+02  0.41800000000E+01 0. -1.
        -11    1    3    3    0    0  0.53680274299E+02  0.43078153286E+02 -0.21525111667E+03  0.22598748277E+03  0.00000000000E+00 0. -1.
         11    1    3    3    0    0 -0.35849092546E+02  0.30691392988E+02 -0.86343782474E+02  0.98399023430E+02  0.00000000000E+00 0.  1.
</event>
<event>
 7    1  0.4096326E-006  0.9738272E+02  0.7561462E-02  0.1285898E+00
          3   -1    0    0  501    0  0.00000000000E+00  0.00000000000E+00  0.17357067586E+03  0.17357067586E+03  0.00000000000E+00 0. -1.
         -3   -1    0    0    0  501 -0.00000000000E+00 -0.00000000000E+00 -0.10883268205E+03  0.10883268205E+03  0.00000000000E+00 0.  1.
         23    2    1    2    0    0 -0.46855197898E+01  0.53835457083E+02  0.93577995688E+02  0.14311770953E+03  0.93838302246E+02 0.  0.
          5    1    1    2  502    0 -0.33965349284E+02 -0.55813634257E+01 -0.60475911111E+02  0.69710865684E+02  0.41800000000E+01 0.  1.
         -5    1    1    2    0  502  0.38650869074E+02 -0.48254093657E+02  0.31635909234E+02  0.69574782701E+02  0.41800000000E+01 0.  1.
        -11    1    3    3    0    0  0.26356396904E+02  0.60839512210E+02  0.31601799253E+02  0.73449163506E+02  0.00000000000E+00 0.  1.
         11    1    3    3    0    0 -0.31041916693E+02 -0.70040551271E+01  0.61976196435E+02  0.69668546021E+02  0.00000000000E+00 0. -1.
</event>
<event>
 7    1  0.4096326E-006  0.1001037E+03  0.7561462E-02  0.1280078E+00
          2   -1    0    0  501    0  0.00000000000E+00  0.00000000000E+00  0.24653034932E+03  0.24653034932E+03  0.00000000000E+00 0.  1.
         -2   -1    0    0    0  501 -0.00000000000E+00 -0.00000000000E+00 -0.48497285384E+02  0.48497285384E+02  0.00000000000E+00 0. -1.
         23    2    1    2    0    0 -0.16041755686E+02 -0.66412324950E+01  0.77381060948E+02  0.12038474829E+03  0.90571602236E+02 0.  0.
          5    1    1    2  502    0 -0.49725909862E+02 -0.29571657401E+01  0.86242821057E+02  0.99683035290E+02  0.41800000000E+01 0.  1.
         -5    1    1    2    0  502  0.65767665548E+02  0.95983982351E+01  0.34409181935E+02  0.74959851132E+02  0.41800000000E+01 0.  1.
        -11    1    3    3    0    0 -0.35581233956E+02  0.27036147114E+02  0.15549449064E+02  0.47315566432E+02  0.00000000000E+00 0.  1.
         11    1    3    3    0    0  0.19539478270E+02 -0.33677379609E+02  0.61831611884E+02  0.73069181853E+02  0.00000000000E+00 0. -1.
</event>
<event>
 7    1  0.4096326E-006  0.8038021E+02  0.7561462E-02  0.1327976E+00
          1   -1    0    0  501    0  0.00000000000E+00  0.00000000000E+00  0.79695104644E+01  0.79695104644E+01  0.00000000000E+00 0. -1.
         -1   -1    0    0    0  501 -0.00000000000E+00 -0.00000000000E+00 -0.18059888657E+04  0.18059888657E+04  0.00000000000E+00 0.  1.
         23    2    1    2    0    0 -0.25225611187E+02  0.13206968098E+02 -0.43023704123E+03  0.44017279473E+03  0.88529216125E+02 0.  0.
          5    1    1    2  502    0  0.50372289942E+01 -0.38486129593E+02 -0.13396855183E+03  0.13954067911E+03  0.41800000000E+01 0. -1.
         -5    1    1    2    0  502  0.20188382192E+02  0.25279161494E+02 -0.12338137622E+04  0.12342449023E+04  0.41800000000E+01 0. -1.
        -11    1    3    3    0    0  0.24276442721E+02 -0.18319182853E+02 -0.92411582098E+02  0.97287402255E+02  0.00000000000E+00 0. -1.
         11    1    3    3    0    0 -0.49502053908E+02  0.31526150951E+02 -0.33782545913E+03  0.34288539248E+03  0.00000000000E+00 0.  1.
</event>
<event>
 7    1  0.4096326E-006  0.2201381E+03  0.7561462E-02  0.1133780E+00
         -2   -1    0    0    0  501 -0.00000000000E+00  0.00000000000E+00  0.93769572811E+02  0.93769572811E+02  0.00000000000E+00 0.  1.
          2   -1    0    0  501    0  0.00000000000E+00 -0.00000000000E+00 -0.53781389796E+03  0.53781389796E+03  0.00000000000E+00 0. -1.
         23    2    1    2    0    0 -0.14751212962E+03 -0.12929052927E+03 -0.20397393922E+03  0.29728757620E+03  0.91097012782E+02 0.  0.
          5    1    1    2  502    0  0.12428728996E+03  0.36993548812E+02 -0.95259525709E+02  0.16095869886E+03  0.41800000000E+01 0. -1.
         -5    1    1    2    0  502  0.23224839663E+02  0.92296980459E+02 -0.14481086022E+03  0.17333719571E+03  0.41800000000E+01 0. -1.
        -11    1    3    3    0    0 -0.77718573620E+02 -0.12259343959E+03 -0.12376819406E+03  0.19075611124E+03  0.00000000000E+00 0. -1.
         11    1    3    3    0    0 -0.69793556003E+02 -0.66970896835E+01 -0.80205745156E+02  0.10653146496E+03  0.00000000000E+00 0.  1.
</event>
<event>
 7    1  0.4096326E-006  0.9425571E+02  0.7561462E-02  0.1292861E+00
         -2   -1    0    0    0  501 -0.00000000000E+00  0.00000000000E+00  0.38233948813E+02  0.38233948813E+02  0.00000000000E+00 0.  1.
          2   -1    0    0  501    0  0.00000000000E+00 -0.00000000000E+00 -0.50195969411E+03  0.50195969411E+03  0.00000000000E+00 0. -1.
         23    2    1    2    0    0  0.22030511936E+02  0.40757548055E+02 -0.36255573049E+03  0.37853677562E+03  0.98472897824E+02 0.  0.
          5    1    1    2  502    0 -0.56110376133E+02 -0.17078813372E+02 -0.10440349811E+03  0.11982329904E+03  0.41800000000E+01 0. -1.
         -5    1    1    2    0  502  0.34079864198E+02 -0.23678734683E+02  0.32334832935E+01  0.41833568269E+02  0.41800000000E+01 0.  1.
        -11    1    3    3    0    0  0.49973748437E+02  0.28016007963E+02 -0.32505593598E+03  0.33006610512E+03  0.00000000000E+00 0.  1.
         11    1    3    3    0    0 -0.27943236501E+02  0.12741540092E+02 -0.37499794505E+02  0.48470670493E+02  0.00000000000E+00 0. -1.
</event>
<event>
 7    1  0.4096326E-006  0.1217209E+03  0.7561462E-02  0.1240285E+00
          2   -1    0    0  501    0  0.00000000000E+00  0.00000000000E+00  0.78772012021E+03  0.78772012021E+03  0.00000000000E+00 0. -1.
         -2   -1    0    0    0  501 -0.00000000000E+00 -0.00000000000E+00 -0.24053536050E+02  0.24053536050E+02  0.00000000000E+00 0.  1.
         23    2    1    2    0    0 -0.88620365706E+02  0.79675968970E+00  0.40223529405E+03  0.41917665750E+03  0.77856498583E+02 0.  0.
          5    1    1    2  502    0  0.93040020105E+01  0.36519649856E+02  0.26247205341E+02  0.46115479692E+02  0.41800000000E+01 0. -1.
         -5    1    1    2    0  502  0.79316363696E+02 -0.37316409545E+02  0.33518408477E+03  0.34648151907E+03  0.41800000000E+01 0. -1.
        -11    1    3    3    0    0 -0.60406523542E+02  0.37783259941E+02  0.25503802785E+03  0.26480354693E+03  0.00000000000E+00 0.  1.
         11    1    3    3    0    0 -0.28213842165E+02 -0.36986500251E+02  0.14719726620E+03  0.15437311057E+03  0.00000000000E+00 0. -1.
</event>
<event>
 7    1  0.4096326E-006  0.8865229E+02  0.7561462E-02  0.1306149E+00
         -1   -1    0    0    0  501 -0.00000000000E+00  0.00000000000E+00  0.19743795118E+02  0.19743795118E+02  0.00000000000E+00 0.  1.
          1   -1    0    0  501    0  0.00000000000E+00 -0.00000000000E+00 -0.72830999926E+03  0.72830999926E+03  0.00000000000E+00 0. -1.
         23    2    1    2    0    0  0.16512793662E+02  0.29442780604E+02 -0.34245960843E+03  0.35969747490E+03  0.10470979112E+03 0.  0.
          5    1    1    2  502    0  0.10088393203E+02  0.13535001986E+02  0.13247052491E+01  0.17441307296E+02  0.41800000000E+01 0.  1.
         -5    1    1    2    0  502 -0.26601186866E+02 -0.42977782590E+02 -0.36743130096E+03  0.37091501219E+03  0.41800000000E+01 0.  1.
        -11    1    3    3    0    0 -0.44194228219E+02  0.16141939696E+02 -0.12619977728E+03  0.13468509869E+03  0.00000000000E+00 0. -1.
         11    1    3    3    0    0  0.60707021882E+02  0.13300840909E+02 -0.21625983116E+03  0.22501237621E+03  0.00000000000E+00 0.  1.
</event>
<event>
 7    1  0.4096326E-006  0.9358150E+02  0.7561462E-02  0.1294403E+00
          1   -1    0    0  501    0  0.00000000000E+00  0.00000000000E+00  0.28425061480E+03  0.28425061480E+03  0.00000000000E+00 0. -1.
         -1   -1    0    0    0  501 -0.00000000000E+00 -0.00000000000E+00 -0.42646357219E+02  0.42646357219E+02  0.00000000000E+00 0.  1.
         23    2    1    2    0    0  0.25443351347E+02  0.12347859743E+02  0.13875442478E+03  0.16250950223E+03  0.79729004460E+02 0.  0.
          5    1    1    2  502    0 -0.49381471587E+02  0.28226664463E+02  0.69437998727E+01  0.57454008385E+02  0.41800000000E+01 0. -1.
         -5    1    1    2    0  502  0.23938120240E+02 -0.40574524206E+02  0.95906032930E+02  0.10693346140E+03  0.41800000000E+01 0. -1.
        -11    1    3    3    0    0  0.50802925715E+02  0.22444137985E+02  0.10760480915E+03  0.12109282202E+03  0.00000000000E+00 0. -1.
         11    1    3    3    0    0 -0.25359574368E+02 -0.10096278242E+02  0.31149615623E+02  0.41416680214E+02  0.00000000000E+00 0.  1.
</event>
<event>
 7    1  0.4096326E-006  0.1224396E+03  0.7561462E-02  0.1239126E+00
         -1   -1    0    0    0  501 -0.00000000000E+00  0.00000000000E+00  0.36092745132E+02  0.36092745132E+02  0.00000000000E+00 0.  1.
          1   -1    0    0  501    0  0.00000000000E+00 -0.00000000000E+00 -0.57414259975E+03  0.57414259975E+03  0.00000000000E+00 0. -1.
         23    2    1    2    0    0  0.40966205814E+02  0.68461824176E+02 -0.35670284466E+03  0.37593133134E+03  0.87876021222E+02 0.  0.
          5    1    1    2  502    0 -0.62046318578E+02  0.14477059290E+00 -0.13535696070E+03  0.14895887291E+03  0.41800000000E+01 0.  1.
         -5    1    1    2    0  502  0.21080112764E+02 -0.68606594769E+02 -0.45990049264E+02  0.85345140642E+02  0.41800000000E+01 0.  1.
        -11    1    3    3    0    0 -0.18653865903E+02  0.41230138867E+02 -0.83483352239E+02  0.94959787095E+02  0.00000000000E+00 0.  1.
         11    1    3    3    0    0  0.59620071716E+02  0.27231685309E+02 -0.27321949242E+03  0.28097154424E+03  0.00000000000E+00 0. -1.
</event>
<event>
 7    1  0.4096326E-006  0.2498069E+03  0.7561462E-02  0.1113427E+00
          1   -1    0    0  501    0  0.00000000000E+00  0.00000000000E+00  0.47876791040E+03  0.47876791040E+03  0.00000000000E+00 0. -1.
         -1   -1    0    0    0  501 -0.00000000000E+00 -0.00000000000E+00 -0.14344438072E+03  0.14344438072E+03  0.00000000000E+00 0.  1.
         23    2    1    2    0    0  0.59468543283E+02  0.21995128522E+03  0.24566970516E+03  0.34725798168E+03  0.91210889144E+02 0.  0.
          5    1    1    2  502    0 -0.65271396568E+02 -0.23442452903E+03  0.80226821237E+02  0.25625969302E+03  0.41800000000E+01 0.  1.
         -5    1    1    2    0  502  0.58028532850E+01  0.14473243803E+02  0.94270032813E+01  0.18694616426E+02  0.41800000000E+01 0.  1.
        -11    1    3    3    0    0  0.33217405014E+02  0.20904192146E+03  0.23650333383E+03  0.31738895355E+03  0.00000000000E+00 0.  1.
         11    1    3    3    0    0  0.26251138269E+02  0.10909363762E+02  0.91663713264E+01  0.29869028130E+02  0.00000000000E+00 0. -1.
</event>
<event>
 7    1  0.4096326E-006  0.1065461E+03  0.7561462E-02  0.1267103E+00
         -1   -1    0    0    0  501 -0.00000000000E+00  0.00000000000E+00  0.14979258284E+03  0.14979258284E+03  0.00000000000E+00 0.  1.
          1   -1    0    0  501    0  0.00000000000E+00 -0.00000000000E+00 -0.11061562773E+03  0.11061562773E+03  0.00000000000E+00 0. -1.
         23    2    1    2    0    0 -0.53395805335E+02 -0.30359606498E+02 -0.18100804733E+02  0.10974079940E+03  0.89121188208E+02 0.  0.
          5    1    1    2  502    0  0.36402574074E+02  0.79032646337E+02  0.42164081586E+02  0.96781138463E+02  0.41800000000E+01 0.  1.
         -5    1    1    2    0  502  0.16993231261E+02 -0.48673039839E+02  0.15113678259E+02  0.53886272708E+02  0.41800000000E+01 0.  1.
        -11    1    3    3    0    0 -0.42305165212E+02 -0.39828819217E+00 -0.49383206888E+02  0.65027584606E+02  0.00000000000E+00 0. -1.
         11    1    3    3    0    0 -0.11090640123E+02 -0.29961318305E+02  0.31282402155E+02  0.44713214798E+02  0.00000000000E+00 0.  1.
</event>
<event>
 7    1  0.4096326E-006  0.7769567E+02  0.7561462E-02  0.1335721E+00
          2   -1    0    0  501    0  0.00000000000E+00  0.00000000000E+00  0.40825437478E+03  0.40825437478E+03  0.00000000000E+00 0. -1.
         -2   -1    0    0    0  501 -0.00000000000E+00 -0.00000000000E+00 -0.32800500932E+02  0.32800500932E+02  0.00000000000E+00 0.  1.
         23    2    1    2    0    0  0.12520852424E+02 -0.37397122342E+01  0.23888072233E+03  0.25541826931E+03  0.89463599338E+02 0.  0.
          5    1    1    2  502    0 -0.38576289622E+02 -0.82990985887E+01 -0.60108238764E+01  0.40132375485E+02  0.41800000000E+01 0. -1.
         -5    1    1    2    0  502  0.26055437198E+02  0.12038810823E+02  0.14258397539E+03  0.14550423091E+03  0.41800000000E+01 0. -1.
        -11    1    3    3    0    0 -0.24824028054E+02 -0.31549360996E+02  0.14740938163E+03  0.15277801001E+03  0.00000000000E+00 0. -1.
         11    1    3    3    0    0  0.37344880479E+02  0.27809648762E+02  0.91471340695E+02  0.10264025931E+03  0.00000000000E+00 0.  1.
</event>
<event>
 7    1  0.4096326E-006  0.1167130E+03  0.7561462E-02  0.1248620E+00
         -2   -1    0    0    0  501 -0.00000000000E+00  0.00000000000E+00  0.20573321688E+03  0.20573321688E+03  0.00000000000E+00 0. -1.
          2   -1    0    0  501    0  0.00000000000E+00 -0.00000000000E+00 -0.11979503200E+03  0.11979503200E+03  0.00000000000E+00 0.  1.
         23    2    1    2    0    0  0.11050257961E+03  0.14692881965E+02  0.60437413674E+02  0.15604483974E+03  0.90942895029E+02 0.  0.
          5    1    1    2  502    0 -0.91113521015E+02 -0.19751961999E+02 -0.39497794661E+02  0.10133786014E+03  0.41800000000E+01 0. -1.
         -5    1    1    2    0  502 -0.19389058594E+02  0.50590800339E+01  0.64998565869E+02  0.68145549004E+02  0.41800000000E+01 0. -1.
        -11    1    3    3    0    0  0.84817199693E+02  0.29721402517E+02  0.13471334531E+01  0.89884002469E+02  0.00000000000E+00 0.  1.
         11    1    3    3    0    0  0.25685379917E+02 -0.15028520552E+02  0.59090280221E+02  0.66160837268E+02  0.00000000000E+00 0. -1.
</event>
<event>
 7    1  0.4096326E-006  0.1045525E+03  0.7561462E-02  0.1271004E+00
         -2   -1    0    0    0  501 -0.00000000000E+00  0.00000000000E+00  0.32075238294E+02  0.32075238294E+02  0.00000000000E+00 0.  1.
          2   -1    0    0  501    0  0.00000000000E+00 -0.00000000000E+00 -0.38989035129E+03  0.38989035129E+03  0.00000000000E+00 0. -1.
         23    2    1    2    0    0 -0.14915648573E+02  0.42605295372E+01 -0.19993588238E+03  0.21994379174E+03  0.90334300126E+02 0.  0.
          5    1    1    2  502    0  0.70112379017E+02  0.20871592329E+01 -0.85003378214E+02  0.11028666571E+03  0.41800000000E+01 0.  1.
         -5    1    1    2    0  502 -0.55196730444E+02 -0.63476887701E+01 -0.72875852406E+02  0.91735132138E+02  0.41800000000E+01 0.  1.
        -11    1    3    3    0    0 -0.46070829558E+02  0.17480385291E+02 -0.16091568368E+03  0.16829124297E+03  0.00000000000E+00 0. -1.
         11    1    3    3    0    0  0.31155180985E+02 -0.13219855754E+02 -0.39020198704E+02  0.51652548778E+02  0.00000000000E+00 0.  1.
</event>
<event>
 7    1  0.4096326E-006  0.1269548E+03  0.7561462E-02  0.1232046E+00
          3   -1    0    0  501    0  0.00000000000E+00  0.00000000000E+00  0.25915297743E+02  0.25915297743E+02  0.00000000000E+00 0. -1.
         -3   -1    0    0    0  501 -0.00000000000E+00 -0.00000000000E+00 -0.79903473942E+03  0.79903473942E+03  0.00000000000E+00 0.  1.
         23    2    1    2    0    0  0.38892070253E+02  0.72188591025E+02 -0.22169793856E+03  0.25360385526E+03  0.91875751093E+02 0.  0.
          5    1    1    2  502    0 -0.42318084988E+02  0.14365161562E+02 -0.33816590877E+03  0.34113169369E+03  0.41800000000E+01 0. -1.
         -5    1    1    2    0  502  0.34260147356E+01 -0.86553752587E+02 -0.21325559436E+03  0.23021448822E+03  0.41800000000E+01 0. -1.
        -11    1    3    3    0    0  0.14450764922E+02 -0.21262254560E+02 -0.35362080290E+02  0.43719386984E+02  0.00000000000E+00 0.  1.
         11    1    3    3    0    0  0.24441305331E+02  0.93450845585E+02 -0.18633585827E+03  0.20988446827E+03  0.00000000000E+00 0. -1.
</event>
<event>
 7    1  0.4096326E-006  0.1443075E+03  0.7561462E-02  0.1207648E+00
         -1   -1    0    0    0  501 -0.00000000000E+00  0.00000000000E+00  0.58136209402E+03  0.58136209402E+03  0.00000000000E+00 0.  1.
          1   -1    0    0  501    0  0.00000000000E+00 -0.00000000000E+00 -0.51511062018E+02  0.51511062018E+02  0.00000000000E+00 0. -1.
         23    2    1    2    0    0  0.25742547424E+02  0.47518732645E+02  0.53710883374E+02  0.12115069412E+03  0.94190885931E+02 0.  0.
          5    1    1    2  502    0  0.28353237844E+02 -0.10466872979E+03  0.28620093770E+03  0.30608478929E+03  0.41800000000E+01 0. -1.
         -5    1    1    2    0  502 -0.54095785268E+02  0.57149997147E+02  0.18993921093E+03  0.20563767263E+03  0.41800000000E+01 0.  1.
        -11    1    3    3    0    0 -0.29319474433E+02  0.12112740247E+01  0.37117607801E+02  0.47316123834E+02  0.00000000000E+00 0.  1.
         11    1    3    3    0    0  0.55062021857E+02  0.46307458620E+02  0.16593275573E+02  0.73834570284E+02  0.00000000000E+00 0. -1.
</event>
<event>
 7    1  0.4096326E-006  0.1022078E+03  0.7561462E-02  0.1275721E+00
          2   -1    0    0  501    0  0.00000000000E+00  0.00000000000E+00  0.11998315880E+03  0.11998315880E+03  0.00000000000E+00 0. -1.
         -2   -1    0    0    0  501 -0.00000000000E+00 -0.00000000000E+00 -0.12882851172E+03  0.12882851172E+03  0.00000000000E+00 0.  1.
         23    2    1    2    0    0  0.54357518271E+02  0.23800656567E+02  0.10381192971E+02  0.10903122333E+03  0.90878091130E+02 0.  0.
          5    1    1    2  502    0 -0.35626219810E+02 -0.72756770734E+02  0.62326267228E+01  0.81357810083E+02  0.41800000000E+01 0. -1.
         -5    1    1    2    0  502 -0.18731298461E+02  0.48956114167E+02 -0.25459172616E+02  0.58422637108E+02  0.41800000000E+01 0. -1.
        -11    1    3    3    0    0  0.14941745656E+02  0.27321659429E+02 -0.36304437253E+02  0.47830335578E+02  0.00000000000E+00 0.  1.
         11    1    3    3    0    0  0.39415772616E+02 -0.35210028620E+01  0.46685630224E+02  0.61200887751E+02  0.00000000000E+00 0. -1.
</event>
<event>
 7    1  0.4096326E-006  0.1364113E+03  0.7561462E-02  0.1218241E+00
         -1   -1    0    0    0  501 -0.00000000000E+00  0.00000000000E+00  0.13070132297E+03  0.13070132297E+03  0.00000000000E+00 0.  1.
          1   -1    0    0  501    0  0.00000000000E+00 -0.00000000000E+00 -0.17610898230E+03  0.17610898230E+03  0.00000000000E+00 0. -1.
         23    2    1    2    0    0 -0.78724129733E+02  0.67692709809E+02 -0.40619905935E+02  0.14417132976E+03  0.91408993011E+02 0.  0.
          5    1    1    2  502    0 -0.20527008892E+02  0.10709010148E+01 -0.32503381347E+02  0.38683938812E+02  0.41800000000E+01 0.  1.
         -5    1    1    2    0  502  0.99251138625E+02 -0.68763610823E+02  0.27715627949E+02  0.12395503670E+03  0.41800000000E+01 0.  1.
        -11    1    3    3    0    0 -0.55310765402E+02  0.85350060171E+02 -0.50068906172E+02  0.11336140836E+03  0.00000000000E+00 0. -1.
         11    1    3    3    0    0 -0.23413364332E+02 -0.17657350362E+02  0.94490002366E+01  0.30809921399E+02  0.00000000000E+00 0.  1.
</event>
<event>
 7    1  0.4096326E-006  0.1212952E+03  0.7561462E-02  0.1240976E+00
          1   -1    0    0  501    0  0.00000000000E+00  0.00000000000E+00  0.10679284314E+03  0.10679284314E+03  0.00000000000E+00 0. -1.
         -1   -1    0    0    0  501 -0.00000000000E+00 -0.00000000000E+00 -0.16864959670E+03  0.16864959670E+03  0.00000000000E+00 0.  1.
         23    2    1    2    0    0  0.53442824126E+02 -0.44279820465E+02  0.96957120244E+01  0.11548216930E+03  0.91789360190E+02 0.  0.
          5    1    1    2  502    0 -0.37692808125E+02 -0.33627869082E+02 -0.61560749563E+02  0.79741956648E+02  0.41800000000E+01 0. -1.
         -5    1    1    2    0  502 -0.15750016000E+02  0.77907689546E+02 -0.99917160161E+01  0.80218313890E+02  0.41800000000E+01 0. -1.
        -11    1    3    3    0    0  0.71000375664E+02 -0.72998770020E+01 -0.60306554970E+01  0.71628977058E+02  0.00000000000E+00 0.  1.
         11    1    3    3    0    0 -0.17557551539E+02 -0.36979943463E+02  0.15726367521E+02  0.43853192243E+02  0.00000000000E+00 0. -1.
</event>
<event>
 7    1  0.4096326E-006  0.8265023E+02  0.7561462E-02  0.1321694E+00
         -2   -1    0    0    0  501 -0.00000000000E+00  0.00000000000E+00  0.24332812224E+03  0.24332812224E+03  0.00000000000E+00 0.  1.
          2   -1    0    0  501    0  0.00000000000E+00 -0.00000000000E+00 -0.79669982370E+02  0.79669982370E+02  0.00000000000E+00 0. -1.
         23    2    1    2    0    0  0.12478003783E+02  0.48722502528E+01 -0.22904729903E+02  0.10086655074E+03  0.97313899339E+02 0.  0.
          5    1    1    2  502    0 -0.38250178472E+02 -0.37520320126E+02  0.33194666264E+02  0.63168099892E+02  0.41800000000E+01 0. -1.
         -5    1    1    2    0  502  0.25772174689E+02  0.32648069874E+02  0.15336820350E+03  0.15896345398E+03  0.41800000000E+01 0.  1.
        -11    1    3    3    0    0 -0.22976017750E+02 -0.16562568499E+02  0.24825731601E+02  0.37663417482E+02  0.00000000000E+00 0.  1.
         11    1    3    3    0    0  0.35454021532E+02  0.21434818752E+02 -0.47730461503E+02  0.63203133254E+02  0.00000000000E+00 0. -1.
</event>
<event>
 7    1  0.4096326E-006  0.1598990E+03  0.7561462E-02  0.1188811E+00
          1   -1    0    0  501    0  0.00000000000E+00  0.00000000000E+00  0.34661532495E+03  0.34661532495E+03  0.00000000000E+00 0. -1.
         -1   -1    0    0    0  501 -0.00000000000E+00 -0.00000000000E+00 -0.10869236241E+03  0.10869236241E+03  0.00000000000E+00 0.  1.
         23    2    1    2    0    0 -0.49001872975E+02  0.14490142921E+03  0.11472192355E+03  0.22244817773E+03  0.11368581393E+03 0.  0.
          5    1    1    2  502    0  0.56951257802E+02 -0.14301389890E+03  0.14355775540E+03  0.21052962399E+03  0.41800000000E+01 0. -1.
         -5    1    1    2    0  502 -0.79493848264E+01 -0.18875303180E+01 -0.20356716405E+02  0.22329885638E+02  0.41800000000E+01 0. -1.
        -11    1    3    3    0    0 -0.29938976331E+02  0.39758672638E+02 -0.17217857530E+02  0.52664494412E+02  0.00000000000E+00 0.  1.
         11    1    3    3    0    0 -0.19062896644E+02  0.10514275658E+03  0.13193978108E+03  0.16978368332E+03  0.00000000000E+00 0. -1.
</event>
<event>
 7    1  0.4096326E-006  0.1256769E+03  0.7561462E-02  0.1234015E+00
         -1   -1    0    0    0  501 -0.00000000000E+00  0.00000000000E+00  0.11037184463E+03  0.11037184463E+03  0.00000000000E+00 0.  1.
          1   -1    0    0  501    0  0.00000000000E+00 -0.00000000000E+00 -0.20275881922E+03  0.20275881922E+03  0.00000000000E+00 0. -1.
         23    2    1    2    0    0 -0.39432901611E+02 -0.49240924769E+02 -0.12302553299E+03  0.16469802899E+03  0.89501601027E+02 0.  0.
          5    1    1    2  502    0 -0.45931559248E+02  0.42543115203E+01 -0.23342837268E+01  0.46375948313E+02  0.41800000000E+01 0. -1.
         -5    1    1    2    0  502  0.85364460859E+02  0.44986613249E+02  0.32972842129E+02  0.10205668654E+03  0.41800000000E+01 0.  1.
        -11    1    3    3    0    0  0.28418066445E+02 -0.10333305694E+02 -0.24610172474E+02  0.38987488970E+02  0.00000000000E+00 0.  1.
         11    1    3    3    0    0 -0.67850968056E+02 -0.38907619075E+02 -0.98415360513E+02  0.12571054002E+03  0.00000000000E+00 0. -1.
</event>
<event>
 7    1  0.4096326E-006  0.1849764E+03  0.7561462E-02  0.1163072E+00
          2   -1    0    0  501    0  0.00000000000E+00  0.00000000000E+00  0.11231208822E+04  0.11231208822E+04  0.00000000000E+00 0. -1.
         -2   -1    0    0    0  501 -0.00000000000E+00 -0.00000000000E+00 -0.37231785153E+02  0.37231785153E+02  0.00000000000E+00 0.  1.
         23    2    1    2    0    0  0.10615798315E+03 -0.13467635770E+03  0.60436750550E+03  0.63412278699E+03  0.86280870196E+02 0.  0.
          5    1    1    2  502    0 -0.40632726647E+02  0.12663974208E+02  0.27001046398E+03  0.27337614705E+03  0.41800000000E+01 0. -1.
         -5    1    1    2    0  502 -0.65525256502E+02  0.12201238349E+03  0.21151112756E+03  0.25285373330E+03  0.41800000000E+01 0. -1.
        -11    1    3    3    0    0  0.11805553980E+03 -0.13061040133E+03  0.58591009292E+03  0.61178985313E+03  0.00000000000E+00 0. -1.
         11    1    3    3    0    0 -0.11897556646E+02 -0.40659563767E+01  0.18457412584E+02  0.22332933858E+02  0.00000000000E+00 0.  1.
</event>
<event>
 7    1  0.4096326E-006  0.6176775E+02  0.7561462E-02  0.1390560E+00
         -2   -1    0    0    0  501 -0.00000000000E+00  0.00000000000E+00  0.22685119899E+02  0.22685119899E+02  0.00000000000E+00 0.  1.
          2   -1    0    0  501    0  0.00000000000E+00 -0.00000000000E+00 -0.61992856073E+03  0.61992856073E+03  0.00000000000E+00 0. -1.
         23    2    1    2    0    0  0.35425748753E+02  0.30738874042E+02 -0.24348695450E+03  0.26447229908E+03  0.91977377202E+02 0.  0.
          5    1    1    2  502    0 -0.17164639712E+02  0.23235266004E+01  0.40908547340E+01  0.18281989081E+02  0.41800000000E+01 0. -1.
         -5    1    1    2    0  502 -0.18261109041E+02 -0.33062400643E+02 -0.35784734106E+03  0.35985939247E+03  0.41800000000E+01 0. -1.
        -11    1    3    3    0    0  0.45386686578E+02  0.34560706069E+02 -0.24679479411E+03  0.25330231764E+03  0.00000000000E+00 0. -1.
         11    1    3    3    0    0 -0.99609378251E+01 -0.38218320269E+01  0.33078396125E+01  0.11169981437E+02  0.00000000000E+00 0.  1.
</event>
<event>
 7    1  0.4096326E-006  0.1548571E+03  0.7561462E-02  0.1194629E+00
         -2   -1    0    0    0  501 -0.00000000000E+00  0.00000000000E+00  0.50792299057E+02  0.50792299057E+02  0.00000000000E+00 0. -1.
          2   -1    0    0  501    0  0.00000000000E+00 -0.00000000000E+00 -0.54265618265E+03  0.54265618265E+03  0.00000000000E+00 0.  1.
         23    2    1    2    0    0 -0.81356522876E+02 -0.95577222909E+02 -0.23568627721E+03  0.28195316069E+03  0.90529963005E+02 0.  0.
          5    1    1    2  502    0  0.22578597219E+02  0.97206579170E+02 -0.22180600285E+03  0.24325765638E+03  0.41800000000E+01 0.  1.
         -5    1    1    2    0  502  0.58777925657E+02 -0.16293562608E+01 -0.34371603528E+02  0.68237664639E+02  0.41800000000E+01 0.  1.
        -11    1    3    3    0    0 -0.42002608433E+02 -0.10263911618E+03 -0.14263654904E+03  0.18067703897E+03  0.00000000000E+00 0. -1.
         11    1    3    3    0    0 -0.39353914442E+02  0.70618932757E+01 -0.93049728170E+02  0.10127612172E+03  0.00000000000E+00 0.  1.
</event>
<event>
 7    1  0.4096326E-006  0.9562817E+02  0.7561462E-02  0.1289768E+00
          2   -1    0    0  501    0  0.00000000000E+00  0.00000000000E+00  0.40016784509E+03  0.40016784509E+03  0.00000000000E+00 0. -1.
         -2   -1    0    0    0  501 -0.00000000000E+00 -0.00000000000E+00 -0.39205536050E+02  0.39205536050E+02  0.00000000000E+00 0.  1.
         23    2    1    2    0    0 -0.30464745276E+01 -0.30953583981E+02  0.25414284434E+03  0.27196015163E+03  0.91686058813E+02 0.  0.
          5    1    1    2  502    0  0.30644347637E+02 -0.41207551020E+02  0.41593670717E+02  0.66216645542E+02  0.41800000000E+01 0.  1.
         -5    1    1    2    0  502 -0.27597873109E+02  0.72161135001E+02  0.65225793985E+02  0.10119658396E+03  0.41800000000E+01 0.  1.
        -11    1    3    3    0    0  0.17785816216E+02  0.69623072800E+01  0.59212656936E+01  0.19996758951E+02  0.00000000000E+00 0.  1.
         11    1    3    3    0    0 -0.20832290744E+02 -0.37915891261E+02  0.24822157864E+03  0.25196339268E+03  0.00000000000E+00 0. -1.
</event>
<event>
 7    1  0.4096326E-006  0.1161116E+03  0.7561462E-02  0.1249653E+00
          1   -1    0    0  501    0  0.00000000000E+00  0.00000000000E+00  0.25827880799E+02  0.25827880799E+02  0.00000000000E+00 0. -1.
         -1   -1    0    0    0  501 -0.00000000000E+00 -0.00000000000E+00 -0.56116715094E+03  0.56116715094E+03  0.00000000000E+00 0.  1.
         23    2    1    2    0    0  0.34836723957E+02  0.26516999002E+02 -0.19448369479E+03  0.22128141862E+03  0.96045875054E+02 0.  0.
          5    1    1    2  502    0 -0.81171674227E+02 -0.27231595287E+02 -0.20935826580E+03  0.22622722280E+03  0.41800000000E+01 0. -1.
         -5    1    1    2    0  502  0.46334950270E+02  0.71459628489E+00 -0.13149730956E+03  0.13948639032E+03  0.41800000000E+01 0. -1.
        -11    1    3    3    0    0  0.43604983469E+02 -0.23267283294E+02 -0.60767861898E+02  0.78329394833E+02  0.00000000000E+00 0.  1.
         11    1    3    3    0    0 -0.87682595120E+01  0.49784282296E+02 -0.13371583289E+03  0.14295202379E+03  0.00000000000E+00 0. -1.
</event>
<event>
 7    1  0.4096326E-006  0.3544390E+03  0.7561462E-02  0.1060808E+00
         -2   -1    0    0    0  501 -0.00000000000E+00  0.00000000000E+00  0.41487528728E+03  0.41487528728E+03  0.00000000000E+00 0.  1.
          2   -1    0    0  501    0  0.00000000000E+00 -0.00000000000E+00 -0.49215482036E+03  0.49215482036E+03  0.00000000000E+00 0. -1.
         23    2    1    2    0    0 -0.37054965180E+02 -0.32632524541E+02 -0.14776879751E+03  0.18322864878E+03  0.96432194371E+02 0.  0.
          5    1    1    2  502    0  0.32293493577E+03  0.93630100603E+02 -0.13930036640E+03  0.36397202222E+03  0.41800000000E+01 0. -1.
         -5    1    1    2    0  502 -0.28587997059E+03 -0.60997576061E+02  0.20978963083E+03  0.35982943664E+03  0.41800000000E+01 0.  1.
        -11    1    3    3    0    0 -0.38709154701E+02 -0.49772490241E+02 -0.15279232588E+03  0.16529124081E+03  0.00000000000E+00 0. -1.
         11    1    3    3    0    0  0.16541895216E+01  0.17139965700E+02  0.50235283649E+01  0.17937407962E+02  0.00000000000E+00 0.  1.
</event>
<event>
 7    1  0.4096326E-006  0.1322791E+03  0.7561462E-02  0.1224113E+00
          2   -1    0    0  501    0  0.00000000000E+00  0.00000000000E+00  0.46272219508E+03  0.46272219508E+03  0.00000000000E+00 0. -1.
         -2   -1    0    0    0  501 -0.00000000000E+00 -0.00000000000E+00 -0.55469636639E+02  0.55469636639E+02  0.00000000000E+00 0.  1.
         23    2    1    2    0    0  0.32187736072E+02 -0.10566516993E+03  0.24954700955E+03  0.28858530554E+03  0.93843434020E+02 0.  0.
          5    1    1    2  502    0 -0.18562497357E+01  0.93533595439E+02  0.17029798783E+03  0.19434725673E+03  0.41800000000E+01 0.  1.
         -5    1    1    2    0  502 -0.30331486336E+02  0.12131574496E+02 -0.12592438945E+02  0.35259269443E+02  0.41800000000E+01 0.  1.
        -11    1    3    3    0    0  0.40215050939E+02 -0.92954293612E+01  0.12017306037E+03  0.12706384131E+03  0.00000000000E+00 0. -1.
         11    1    3    3    0    0 -0.80273148677E+01 -0.96369740574E+02  0.12937394918E+03  0.16152146424E+03  0.00000000000E+00 0.  1.
</event>
<event>
 7    1  0.4096326E-006  0.1068770E+03  0.7561462E-02  0.1266465E+00
         -1   -1    0    0    0  501 -0.00000000000E+00  0.00000000000E+00  0.11856396520E+03  0.11856396520E+03  0.00000000000E+00 0.  1.
          1   -1    0    0  501    0  0.00000000000E+00 -0.00000000000E+00 -0.14470134059E+03  0.14470134059E+03  0.00000000000E+00 0. -1.
         23    2    1    2    0    0  0.17232311295E+02 -0.47143428026E+02 -0.63926379092E+02  0.12328271017E+03  0.92696220665E+02 0.  0.
          5    1    1    2  502    0  0.39630265658E+02  0.63411639101E+02  0.14518040853E+02  0.76287874789E+02  0.41800000000E+01 0. -1.
         -5    1    1    2    0  502 -0.56862576953E+02 -0.16268211075E+02  0.23270962841E+02  0.63694720824E+02  0.41800000000E+01 0. -1.
        -11    1    3    3    0    0  0.31183490821E+02 -0.82447777391E+00  0.11860560691E+02  0.33373084414E+02  0.00000000000E+00 0.  1.
         11    1    3    3    0    0 -0.13951179527E+02 -0.46318950252E+02 -0.75786939784E+02  0.89909625761E+02  0.00000000000E+00 0. -1.
</event>
<event>
 7    1  0.4096326E-006  0.1069893E+03  0.7561462E-02  0.1266249E+00
         -4   -1    0    0    0  501 -0.00000000000E+00  0.00000000000E+00  0.19601515814E+03  0.19601515814E+03  0.00000000000E+00 0. -1.
          4   -1    0    0  501    0  0.00000000000E+00 -0.00000000000E+00 -0.12421142787E+03  0.12421142787E+03  0.00000000000E+00 0.  1.
         23    2    1    2    0    0 -0.85330453210E+02  0.76504128666E+01 -0.40292152355E+02  0.13167251733E+03  0.91511634316E+02 0.  0.
          5    1    1    2  502    0  0.89400544239E+02  0.27761659635E+01  0.13542109020E+03  0.16234687702E+03  0.41800000000E+01 0.  1.
         -5    1    1    2    0  502 -0.40700910290E+01 -0.10426578830E+02 -0.23325207568E+02  0.26207191669E+02  0.41800000000E+01 0.  1.
        -11    1    3    3    0    0 -0.60923561978E+02  0.39316902293E+02  0.32215842801E+01  0.72580147529E+02  0.00000000000E+00 0. -1.
         11    1    3    3    0    0 -0.24406891232E+02 -0.31666489426E+02 -0.43513736635E+02  0.59092369796E+02  0.00000000000E+00 0.  1.
</event>
<event>
 7    1  0.4096326E-006  0.1815595E+03  0.7561462E-02  0.1166302E+00
         -3   -1    0    0    0  501 -0.00000000000E+00  0.00000000000E+00  0.27699799420E+03  0.27699799420E+03  0.00000000000E+00 0.  1.
          3   -1    0    0  501    0  0.00000000000E+00 -0.00000000000E+00 -0.19019737235E+03  0.19019737235E+03  0.00000000000E+00 0. -1.
         23    2    1    2    0    0  0.12164996381E+02  0.14528282702E+03 -0.10047942416E+03  0.19891124124E+03  0.90633769933E+02 0.  0.
          5    1    1    2  502    0 -0.60554818218E+02 -0.31985359512E+02  0.73183237951E+02  0.10031554191E+03  0.41800000000E+01 0.  1.
         -5    1    1    2    0  502  0.48389821837E+02 -0.11329746750E+03  0.11409680806E+03  0.16796858340E+03  0.41800000000E+01 0.  1.
        -11    1    3    3    0    0  0.50752770659E+02  0.67933510023E+02 -0.56779257915E+02  0.10205238676E+03  0.00000000000E+00 0.  1.
         11    1    3    3    0    0 -0.38587774278E+02  0.77349316993E+02 -0.43700166240E+02  0.96858854486E+02  0.00000000000E+00 0. -1.
</event>
<event>
 7    1  0.4096326E-006  0.1093893E+03  0.7561462E-02  0.1261705E+00
          1   -1    0    0  501    0  0.00000000000E+00  0.00000000000E+00  0.20134624816E+03  0.20134624816E+03  0.00000000000E+00 0. -1.
         -1   -1    0    0    0  501 -0.00000000000E+00 -0.00000000000E+00 -0.71366825349E+02  0.71366825349E+02  0.00000000000E+00 0.  1.
         23    2    1    2    0    0 -0.46521127234E+02  0.30072005348E+02  0.42336003235E+02  0.11024125095E+03  0.85394703909E+02 0.  0.
          5    1    1    2  502    0 -0.46422268045E+01  0.41855786319E+02  0.52352908350E+02  0.67318322401E+02  0.41800000000E+01 0.  1.
         -5    1    1    2    0  502  0.51163354038E+02 -0.71927791667E+02  0.35290511227E+02  0.95153500163E+02  0.41800000000E+01 0.  1.
        -11    1    3    3    0    0 -0.26418859115E+02  0.52010891541E+02 -0.19288118422E+00  0.58336319381E+02  0.00000000000E+00 0.  1.
         11    1    3    3    0    0 -0.20102268118E+02 -0.21938886193E+02  0.42528884420E+02  0.51904931566E+02  0.00000000000E+00 0. -1.
</event>
<event>
 7    1  0.4096326E-006  0.8714494E+02  0.7561462E-02  0.1309917E+00
          4   -1    0    0  501    0  0.00000000000E+00  0.00000000000E+00  0.21981965523E+03  0.21981965523E+03  0.00000000000E+00 0. -1.
         -4   -1    0    0    0  501 -0.00000000000E+00 -0.00000000000E+00 -0.51066193425E+02  0.51066193425E+02  0.00000000000E+00 0.  1.
         23    2    1    2    0    0  0.20571310631E+02  0.46930742680E+02  0.76069066740E+02  0.10698188605E+03  0.55072203504E+02 0.  0.
          5    1    1    2  502    0 -0.12765289862E+02  0.36293234339E+02 -0.43381261293E+00  0.38701577195E+02  0.41800000000E+01 0.  1.
         -5    1    1    2    0  502 -0.78060207696E+01 -0.83223977019E+02  0.93118207681E+02  0.12520238541E+03  0.41800000000E+01 0.  1.
        -11    1    3    3    0    0  0.35770023640E+01  0.17933968108E+02  0.70600037895E+02  0.72930017886E+02  0.00000000000E+00 0. -1.
         11    1    3    3    0    0  0.16994308267E+02  0.28996774572E+02  0.54690288449E+01  0.34051868165E+02  0.00000000000E+00 0.  1.
</event>
<event>
 7    1  0.4323658E-006  0.2142662E+03  0.7561462E-02  0.1138231E+00
         -2   -1    0    0    0  501 -0.00000000000E+00  0.00000000000E+00  0.51689769747E+02  0.51689769747E+02  0.00000000000E+00 0. -1.
          2   -1    0    0  501    0  0.00000000000E+00 -0.00000000000E+00 -0.13114635202E+04  0.13114635202E+04  0.00000000000E+00 0.  1.
         23    2    1    2    0    0 -0.13750475462E+03  0.14464714146E+03 -0.94438211505E+03  0.96951694132E+03  0.90967946033E+02 0.  0.
          5    1    1    2  502    0  0.65511758062E+02 -0.15871121042E+02 -0.18410592580E+03  0.19610238969E+03  0.41800000000E+01 0. -1.
         -5    1    1    2    0  502  0.71992996557E+02 -0.12877602042E+03 -0.13128570961E+03  0.19753395895E+03  0.41800000000E+01 0. -1.
        -11    1    3    3    0    0 -0.11959697576E+03  0.74266464583E+02 -0.72134749669E+03  0.73495656699E+03  0.00000000000E+00 0.  1.
         11    1    3    3    0    0 -0.17907778856E+02  0.70380676879E+02 -0.22303461835E+03  0.23456037433E+03  0.00000000000E+00 0. -1.
</event>
<event>
 7    1  0.4096326E-006  0.7838911E+02  0.7561462E-02  0.1333686E+00
         -2   -1    0    0    0  501 -0.00000000000E+00  0.00000000000E+00  0.88623559482E+02  0.88623559482E+02  0.00000000000E+00 0. -1.
          2   -1    0    0  501    0  0.00000000000E+00 -0.00000000000E+00 -0.30639972680E+03  0.30639972680E+03  0.00000000000E+00 0.  1.
         23    2    1    2    0    0  0.39428780849E+01  0.29183607139E+02 -0.24485048926E+03  0.26369213509E+03  0.93351758450E+02 0.  0.
          5    1    1    2  502    0  0.30567989684E+02  0.12732820020E+02  0.59304818072E+02  0.68051895973E+02  0.41800000000E+01 0. -1.
         -5    1    1    2    0  502 -0.34510867769E+02 -0.41916427159E+02 -0.32230496132E+02  0.63279255217E+02  0.41800000000E+01 0. -1.
        -11    1    3    3    0    0 -0.71832901183E+01  0.47214705694E+02 -0.23590991327E+03  0.24069548244E+03  0.00000000000E+00 0.  1.
         11    1    3    3    0    0  0.11126168203E+02 -0.18031098556E+02 -0.89405759926E+01  0.22996652650E+02  0.00000000000E+00 0. -1.
</event>
<event>
 7    1  0.4096326E-006  0.1222256E+03  0.7561462E-02  0.1239470E+00
         -1   -1    0    0    0  501 -0.00000000000E+00  0.00000000000E+00  0.27520083886E+03  0.27520083886E+03  0.00000000000E+00 0.  1.
          1   -1    0    0  501    0  0.00000000000E+00 -0.00000000000E+00 -0.59592183742E+02  0.59592183742E+02  0.00000000000E+00 0. -1.
         23    2    1    2    0    0  0.61518423773E+02  0.20109770543E+02  0.69468749107E+02  0.13183361640E+03  0.91461882635E+02 0.  0.
          5    1    1    2  502    0 -0.54312956883E+02  0.44026818315E+02  0.46157855901E+02  0.83882525461E+02  0.41800000000E+01 0. -1.
         -5    1    1    2    0  502 -0.72054668896E+01 -0.64136588858E+02  0.99982050110E+02  0.11907688074E+03  0.41800000000E+01 0. -1.
        -11    1    3    3    0    0  0.47339712980E+02 -0.31071654350E+02  0.22491390498E+02  0.60929129122E+02  0.00000000000E+00 0. -1.
         11    1    3    3    0    0  0.14178710793E+02  0.51181424893E+02  0.46977358609E+02  0.70904487275E+02  0.00000000000E+00 0.  1.
</event>
<event>
 7    1  0.4096326E-006  0.8760398E+02  0.7561462E-02  0.1308760E+00
          2   -1    0    0  501    0  0.00000000000E+00  0.00000000000E+00  0.50312755687E+02  0.50312755687E+02  0.00000000000E+00 0. -1.
         -2   -1    0    0    0  501 -0.00000000000E+00 -0.00000000000E+00 -0.28201244283E+03  0.28201244283E+03  0.00000000000E+00 0.  1.
         23    2    1    2    0    0  0.73334915387E+01 -0.14272963240E+02 -0.36987121282E+02  0.10033775422E+03  0.91881011114E+02 0.  0.
          5    1    1    2  502    0  0.86099688296E+01 -0.31757786143E+02 -0.20655799885E+01  0.33232928921E+02  0.41800000000E+01 0.  1.
         -5    1    1    2    0  502 -0.15943460368E+02  0.46030749383E+02 -0.19264698588E+03  0.19875451538E+03  0.41800000000E+01 0.  1.
        -11    1    3    3    0    0  0.45116398179E+02  0.12527859127E+02 -0.15994620372E+02  0.49479940580E+02  0.00000000000E+00 0. -1.
         11    1    3    3    0    0 -0.37782906640E+02 -0.26800822367E+02 -0.20992500910E+02  0.50857813640E+02  0.00000000000E+00 0.  1.
</event>
<event>
 7    1  0.4096326E-006  0.5131034E+02  0.7561462E-02  0.1438399E+00
         -3   -1    0    0    0  501 -0.00000000000E+00  0.00000000000E+00  0.52072414314E+02  0.52072414314E+02  0.00000000000E+00 0.  1.
          3   -1    0    0  501    0  0.00000000000E+00 -0.00000000000E+00 -0.25176130544E+03  0.25176130544E+03  0.00000000000E+00 0. -1.
         23    2    1    2    0    0  0.74304558127E+01  0.18682298289E+02 -0.12619865772E+03  0.15736393010E+03  0.91831722965E+02 0.  0.
          5    1    1    2  502    0  0.59049412399E+01 -0.19443708873E+02  0.33045858401E+02  0.39018294469E+02  0.41800000000E+01 0.  1.
         -5    1    1    2    0  502 -0.13335397053E+02  0.76141058392E+00 -0.10653609181E+03  0.10745149519E+03  0.41800000000E+01 0.  1.
        -11    1    3    3    0    0 -0.28004119908E+02  0.16211679020E+02 -0.71629150885E+01  0.33141463773E+02  0.00000000000E+00 0.  1.
         11    1    3    3    0    0  0.35434575720E+02  0.24706192693E+01 -0.11903574263E+03  0.12422246633E+03  0.00000000000E+00 0. -1.
</event>
<event>
 7    1  0.5049249E-006  0.1767529E+03  0.7561462E-02  0.1170983E+00
         -2   -1    0    0    0  501 -0.00000000000E+00  0.00000000000E+00  0.53398594423E+02  0.53398594423E+02  0.00000000000E+00 0.  1.
          2   -1    0    0  501    0  0.00000000000E+00 -0.00000000000E+00 -0.72839289002E+03  0.72839289002E+03  0.00000000000E+00 0. -1.
         23    2    1    2    0    0 -0.17029443995E+02  0.16080592680E+03 -0.38159749345E+03  0.42419109814E+03  0.90404052372E+02 0.  0.
          5    1    1    2  502    0  0.37550045836E+02 -0.13762491297E+03 -0.13602222972E+03  0.19715512165E+03  0.41800000000E+01 0.  1.
         -5    1    1    2    0  502 -0.20520601841E+02 -0.23181013822E+02 -0.15737457243E+03  0.16044526465E+03  0.41800000000E+01 0.  1.
        -11    1    3    3    0    0 -0.42211062100E+02  0.47793099271E+02 -0.88720573776E+02  0.10925792563E+03  0.00000000000E+00 0.  1.
         11    1    3    3    0    0  0.25181618105E+02  0.11301282752E+03 -0.29287691967E+03  0.31493317251E+03  0.00000000000E+00 0. -1.
</event>
<event>
 7    1  0.4096326E-006  0.9156573E+02  0.7561462E-02  0.1299104E+00
          1   -1    0    0  501    0  0.00000000000E+00  0.00000000000E+00  0.16435551813E+03  0.16435551813E+03  0.00000000000E+00 0.  1.
         -1   -1    0    0    0  501 -0.00000000000E+00 -0.00000000000E+00 -0.84927122822E+02  0.84927122822E+02  0.00000000000E+00 0. -1.
         23    2    1    2    0    0  0.89816738229E+01 -0.30233466030E+02  0.71101330434E+02  0.12001053983E+03  0.91391452270E+02 0.  0.
          5    1    1    2  502    0  0.16127507892E+02  0.68697504096E+02 -0.22044666117E+02  0.74046494070E+02  0.41800000000E+01 0.  1.
         -5    1    1    2    0  502 -0.25109181715E+02 -0.38464038066E+02  0.30371730988E+02  0.55225607049E+02  0.41800000000E+01 0.  1.
        -11    1    3    3    0    0 -0.23486067420E+02 -0.23371954187E+02 -0.81246603525E+01  0.34115300251E+02  0.00000000000E+00 0. -1.
         11    1    3    3    0    0  0.32467741243E+02 -0.68615118425E+01  0.79225990786E+02  0.85895239579E+02  0.00000000000E+00 0.  1.
</event>
<event>
 7    1  0.4096326E-006  0.1079942E+03  0.7561462E-02  0.1264330E+00
          1   -1    0    0  501    0  0.00000000000E+00  0.00000000000E+00  0.23794748913E+03  0.23794748913E+03  0.00000000000E+00 0. -1.
         -1   -1    0    0    0  501 -0.00000000000E+00 -0.00000000000E+00 -0.13319211841E+03  0.13319211841E+03  0.00000000000E+00 0.  1.
         23    2    1    2    0    0  0.49950267314E+01  0.52213888685E+02  0.19084586111E+03  0.21760949976E+03  0.90446178575E+02 0.  0.
          5    1    1    2  502    0  0.47973058892E+02 -0.53888319010E+02 -0.37084009450E+02  0.81228452294E+02  0.41800000000E+01 0. -1.
         -5    1    1    2    0  502 -0.52968085624E+02  0.16744303251E+01 -0.49006480939E+02  0.72301655483E+02  0.41800000000E+01 0.  1.
        -11    1    3    3    0    0  0.28430375666E+02 -0.48775786213E+01  0.17817988171E+02  0.33905128464E+02  0.00000000000E+00 0.  1.
         11    1    3    3    0    0 -0.23435348935E+02  0.57091467306E+02  0.17302787294E+03  0.18370437129E+03  0.00000000000E+00 0. -1.
</event>
<event>
 7    1  0.4096326E-006  0.5103398E+02  0.7561462E-02  0.1439843E+00
         -1   -1    0    0    0  501 -0.00000000000E+00  0.00000000000E+00  0.25474945447E+03  0.25474945447E+03  0.00000000000E+00 0.  1.
          1   -1    0    0  501    0  0.00000000000E+00 -0.00000000000E+00 -0.55018573091E+02  0.55018573091E+02  0.00000000000E+00 0. -1.
         23    2    1    2    0    0 -0.33802839400E+02  0.31868694063E+02  0.65304446374E+02  0.12037252422E+03  0.89814410075E+02 0.  0.
          5    1    1    2  502    0  0.36379566543E+02 -0.23167992547E+02 -0.10124672184E+02  0.44499551991E+02  0.41800000000E+01 0. -1.
         -5    1    1    2    0  502 -0.25767271439E+01 -0.87007015165E+01  0.14455110718E+03  0.14489595135E+03  0.41800000000E+01 0. -1.
        -11    1    3    3    0    0 -0.14916706398E+02  0.24058215292E+02  0.86448867991E+02  0.90965447450E+02  0.00000000000E+00 0.  1.
         11    1    3    3    0    0 -0.18886133001E+02  0.78104787714E+01 -0.21144421617E+02  0.29407076766E+02  0.00000000000E+00 0. -1.
</event>
<event>
 7    1  0.4096326E-006  0.6914316E+02  0.7561462E-02  0.1363031E+00
         -2   -1    0    0    0  501 -0.00000000000E+00  0.00000000000E+00  0.44473573355E+03  0.44473573355E+03  0.00000000000E+00 0.  1.
          2   -1    0    0  501    0  0.00000000000E+00 -0.00000000000E+00 -0.30088355427E+02  0.30088355427E+02  0.00000000000E+00 0. -1.
         23    2    1    2    0    0  0.35532370264E+02 -0.17856872076E+02  0.18680841227E+03  0.21188140297E+03  0.91732921101E+02 0.  0.
          5    1    1    2  502    0 -0.26813057383E+02  0.37054606513E+02  0.13984514725E+02  0.48010654674E+02  0.41800000000E+01 0.  1.
         -5    1    1    2    0  502 -0.87193128805E+01 -0.19197734437E+02  0.21385445112E+03  0.21493203133E+03  0.41800000000E+01 0.  1.
        -11    1    3    3    0    0  0.18136280484E+02  0.21323655046E+02  0.15745973947E+03  0.15992871064E+03  0.00000000000E+00 0.  1.
         11    1    3    3    0    0  0.17396089780E+02 -0.39180527123E+02  0.29348672806E+02  0.51952692333E+02  0.00000000000E+00 0. -1.
</event>
<event>
 7    1  0.4096326E-006  0.1174441E+03  0.7561462E-02  0.1247374E+00
         -1   -1    0    0    0  501 -0.00000000000E+00  0.00000000000E+00  0.19895551240E+03  0.19895551240E+03  0.00000000000E+00 0.  1.
          1   -1    0    0  501    0  0.00000000000E+00 -0.00000000000E+00 -0.81199378990E+02  0.81199378990E+02  0.00000000000E+00 0. -1.
         23    2    1    2    0    0 -0.18076963925E+02 -0.64508654290E+02  0.46001213320E+02  0.12114409065E+03  0.89842283860E+02 0.  0.
          5    1    1    2  502    0  0.21891351099E+01  0.94085235603E+02  0.80668894880E+02  0.12402325134E+03  0.41800000000E+01 0.  1.
         -5    1    1    2    0  502  0.15887828815E+02 -0.29576581312E+02 -0.89139747924E+01  0.34987549402E+02  0.41800000000E+01 0.  1.
        -11    1    3    3    0    0 -0.26744589428E+01  0.20391279570E+02  0.24938621446E+02  0.32324786972E+02  0.00000000000E+00 0.  1.
         11    1    3    3    0    0 -0.15402504982E+02 -0.84899933860E+02  0.21062591873E+02  0.88819303677E+02  0.00000000000E+00 0. -1.
</event>
<event>
 7    1  0.4096326E-006  0.1428941E+03  0.7561462E-02  0.1209487E+00
         -2   -1    0    0    0  501 -0.00000000000E+00  0.00000000000E+00  0.40886886205E+02  0.40886886205E+02  0.00000000000E+00 0.  1.
          2   -1    0    0  501    0  0.00000000000E+00 -0.00000000000E+00 -0.54697804697E+03  0.54697804697E+03  0.00000000000E+00 0. -1.
         23    2    1    2    0    0  0.27436425566E+02  0.94701899841E+02 -0.28858215226E+03  0.31827534444E+03  0.91095164463E+02 0.  0.
          5    1    1    2  502    0 -0.72721580735E+02 -0.56993607931E+02 -0.17096887655E+03  0.19438242924E+03  0.41800000000E+01 0.  1.
         -5    1    1    2    0  502  0.45285155168E+02 -0.37708291910E+02 -0.46540131948E+02  0.75207159494E+02  0.41800000000E+01 0.  1.
        -11    1    3    3    0    0  0.50086393772E+02  0.99202218680E+02 -0.24069592891E+03  0.26511178251E+03  0.00000000000E+00 0.  1.
         11    1    3    3    0    0 -0.22649968206E+02 -0.45003188387E+01 -0.47886223353E+02  0.53163561923E+02  0.00000000000E+00 0. -1.
</event>
<event>
 7    1  0.4096326E-006  0.1190433E+03  0.7561462E-02  0.1244684E+00
         -1   -1    0    0    0  501 -0.00000000000E+00  0.00000000000E+00  0.19766451686E+03  0.19766451686E+03  0.00000000000E+00 0.  1.
          1   -1    0    0  501    0  0.00000000000E+00 -0.00000000000E+00 -0.82383898599E+02  0.82383898599E+02  0.00000000000E+00 0. -1.
         23    2    1    2    0    0 -0.54543143242E+02  0.37766083281E+02  0.39628253687E+02  0.11951158540E+03  0.91166819806E+02 0.  0.
          5    1    1    2  502    0  0.78706073424E+02  0.17727303108E+02  0.46700492568E+02  0.93312976993E+02  0.41800000000E+01 0.  1.
         -5    1    1    2    0  502 -0.24162930182E+02 -0.55493386389E+02  0.28951872001E+02  0.67223853060E+02  0.41800000000E+01 0.  1.
        -11    1    3    3    0    0 -0.65989448694E+02  0.47740810315E+02  0.54705361344E+02  0.98114570112E+02  0.00000000000E+00 0.  1.
         11    1    3    3    0    0  0.11446305453E+02 -0.99747270336E+01 -0.15077107658E+02  0.21397015288E+02  0.00000000000E+00 0. -1.
</event>
<event>
 7    1  0.4096326E-006  0.1074769E+03  0.7561462E-02  0.1265315E+00
         -1   -1    0    0    0  501 -0.00000000000E+00  0.00000000000E+00  0.59647152677E+02  0.59647152677E+02  0.00000000000E+00 0.  1.
          1   -1    0    0  501    0  0.00000000000E+00 -0.00000000000E+00 -0.24952073699E+03  0.24952073699E+03  0.00000000000E+00 0. -1.
         23    2    1    2    0    0  0.51185500694E+02 -0.67008388626E+01 -0.11058340582E+03  0.15232659295E+03  0.91158348788E+02 0.  0.
          5    1    1    2  502    0 -0.16612576003E+02  0.64918337425E+02 -0.45029430236E+02  0.80842378755E+02  0.41800000000E+01 0. -1.
         -5    1    1    2    0  502 -0.34572924691E+02 -0.58217498562E+02 -0.34260748258E+02  0.75998917964E+02  0.41800000000E+01 0. -1.
        -11    1    3    3    0    0  0.74107227997E+01  0.24904140995E+02  0.33975718909E+01  0.26204552007E+02  0.00000000000E+00 0.  1.
         11    1    3    3    0    0  0.43774777894E+02 -0.31604979858E+02 -0.11398097771E+03  0.12612204094E+03  0.00000000000E+00 0. -1.
</event>
<event>
 7    1  0.4096326E-006  0.1058812E+03  0.7561462E-02  0.1268393E+00
         -2   -1    0    0    0  501 -0.00000000000E+00  0.00000000000E+00  0.82081489850E+02  0.82081489850E+02  0.00000000000E+00 0.  1.
          2   -1    0    0  501    0  0.00000000000E+00 -0.00000000000E+00 -0.29362558830E+03  0.29362558830E+03  0.00000000000E+00 0. -1.
         23    2    1    2    0    0 -0.64849515572E+02  0.40653222908E+02 -0.19405653972E+03  0.22802063625E+03  0.92072394041E+02 0.  0.
          5    1    1    2  502    0  0.43843171091E+02  0.18805325447E+02 -0.55995202835E+02  0.73680384479E+02  0.41800000000E+01 0. -1.
         -5    1    1    2    0  502  0.21006344480E+02 -0.59458548355E+02  0.38507644104E+02  0.74006057424E+02  0.41800000000E+01 0. -1.
        -11    1    3    3    0    0 -0.26744981427E+02 -0.16910133715E+02 -0.12925498068E+02  0.34180625420E+02  0.00000000000E+00 0.  1.
         11    1    3    3    0    0 -0.38104534145E+02  0.57563356624E+02 -0.18113104165E+03  0.19384001083E+03  0.00000000000E+00 0. -1.
</event>
<event>
 7    1  0.4096326E-006  0.1084211E+03  0.7561462E-02  0.1263522E+00
          1   -1    0    0  501    0  0.00000000000E+00  0.00000000000E+00  0.21706087025E+03  0.21706087025E+03  0.00000000000E+00 0. -1.
         -1   -1    0    0    0  501 -0.00000000000E+00 -0.00000000000E+00 -0.54867837511E+02  0.54867837511E+02  0.00000000000E+00 0.  1.
         23    2    1    2    0    0  0.27073205848E+01  0.11728884665E+02  0.79827987644E+02  0.12166634590E+03  0.91023600195E+02 0.  0.
          5    1    1    2  502    0 -0.27254863457E+02 -0.62948987836E+02  0.45450285934E+02  0.82392982366E+02  0.41800000000E+01 0. -1.
         -5    1    1    2    0  502  0.24547542872E+02  0.51220103171E+02  0.36914759166E+02  0.67869379504E+02  0.41800000000E+01 0. -1.
        -11    1    3    3    0    0  0.43704895558E+02  0.21960100854E+02  0.35584228597E+02  0.60486372433E+02  0.00000000000E+00 0. -1.
         11    1    3    3    0    0 -0.40997574974E+02 -0.10231216189E+02  0.44243759047E+02  0.61179973464E+02  0.00000000000E+00 0.  1.
</event>
<event>
 7    1  0.4096326E-006  0.1123167E+03  0.7561462E-02  0.1256339E+00
          1   -1    0    0  501    0  0.00000000000E+00  0.00000000000E+00  0.55203204004E+03  0.55203204004E+03  0.00000000000E+00 0. -1.
         -1   -1    0    0    0  501 -0.00000000000E+00 -0.00000000000E+00 -0.37801919333E+02  0.37801919333E+02  0.00000000000E+00 0.  1.
         23    2    1    2    0    0 -0.61555393086E+02 -0.43000671676E+02  0.35328033833E+03  0.37259930152E+03  0.91570289166E+02 0.  0.
          5    1    1    2  502    0  0.21383163352E+02  0.60223137138E+02  0.16324395329E+02  0.66091029683E+02  0.41800000000E+01 0. -1.
         -5    1    1    2    0  502  0.40172229734E+02 -0.17222465462E+02  0.14462538705E+03  0.15114362817E+03  0.41800000000E+01 0. -1.
        -11    1    3    3    0    0 -0.26931137826E+02 -0.68550997791E+02  0.25235989246E+03  0.26288788638E+03  0.00000000000E+00 0. -1.
         11    1    3    3    0    0 -0.34624255260E+02  0.25550326114E+02  0.10092044587E+03  0.10971141514E+03  0.00000000000E+00 0.  1.
</event>
<event>
 7    1  0.4096326E-006  0.1080379E+03  0.7561462E-02  0.1264247E+00
         -2   -1    0    0    0  501 -0.00000000000E+00  0.00000000000E+00  0.17367097262E+03  0.17367097262E+03  0.00000000000E+00 0.  1.
          2   -1    0    0  501    0  0.00000000000E+00 -0.00000000000E+00 -0.14263450433E+03  0.14263450433E+03  0.00000000000E+00 0. -1.
         23    2    1    2    0    0 -0.21768099302E+02  0.42478419941E+02 -0.96807997778E+02  0.13943184706E+03  0.88267690764E+02 0.  0.
          5    1    1    2  502    0 -0.13349184665E+02 -0.73504061133E+02  0.85018180995E+02  0.11325463008E+03  0.41800000000E+01 0. -1.
         -5    1    1    2    0  502  0.35117283967E+02  0.31025641192E+02  0.42826285071E+02  0.63618999816E+02  0.41800000000E+01 0.  1.
        -11    1    3    3    0    0 -0.47693598289E+02  0.48037084928E+02 -0.88948282967E+02  0.11177673232E+03  0.00000000000E+00 0.  1.
         11    1    3    3    0    0  0.25925498987E+02 -0.55586649873E+01 -0.78597148115E+01  0.27655114736E+02  0.00000000000E+00 0. -1.
</event>
<event>
 7    1  0.4096326E-006  0.1180556E+03  0.7561462E-02  0.1246340E+00
          1   -1    0    0  501    0  0.00000000000E+00  0.00000000000E+00  0.30401496390E+03  0.30401496390E+03  0.00000000000E+00 0. -1.
         -1   -1    0    0    0  501 -0.00000000000E+00 -0.00000000000E+00 -0.63353043732E+02  0.63353043732E+02  0.00000000000E+00 0.  1.
         23    2    1    2    0    0 -0.73054388066E+02  0.45412998039E+02  0.11856069537E+03  0.17256794520E+03  0.91234714981E+02 0.  0.
          5    1    1    2  502    0  0.82901869333E+02  0.18590940589E+02  0.84005507939E+02  0.11955225123E+03  0.41800000000E+01 0.  1.
         -5    1    1    2    0  502 -0.98474812665E+01 -0.64003938628E+02  0.38095716864E+02  0.75247811201E+02  0.41800000000E+01 0.  1.
        -11    1    3    3    0    0 -0.28188322167E+02  0.20325436483E+02 -0.82646309655E+01  0.35721268172E+02  0.00000000000E+00 0.  1.
         11    1    3    3    0    0 -0.44866065899E+02  0.25087561556E+02  0.12682532633E+03  0.13684667703E+03  0.00000000000E+00 0. -1.
</event>
<event>
 7    1  0.4096326E-006  0.2231667E+03  0.7561462E-02  0.1131544E+00
         -3   -1    0    0    0  501 -0.00000000000E+00  0.00000000000E+00  0.52339439668E+03  0.52339439668E+03  0.00000000000E+00 0.  1.
          3   -1    0    0  501    0  0.00000000000E+00 -0.00000000000E+00 -0.11791725823E+03  0.11791725823E+03  0.00000000000E+00 0. -1.
         23    2    1    2    0    0 -0.17565036654E+03 -0.94691388192E+02  0.69742732166E+02  0.23120659947E+03  0.93663934832E+02 0.  0.
          5    1    1    2  502    0  0.82128143637E+02  0.10378796587E+03  0.24968439919E+03  0.28262474314E+03  0.41800000000E+01 0.  1.
         -5    1    1    2    0  502  0.93522222898E+02 -0.90965776793E+01  0.86050007099E+02  0.12748031230E+03  0.41800000000E+01 0.  1.
        -11    1    3    3    0    0 -0.68360092931E+00 -0.34976087073E+02  0.17354506389E+02  0.39050901004E+02  0.00000000000E+00 0. -1.
         11    1    3    3    0    0 -0.17496676561E+03 -0.59715301119E+02  0.52388225777E+02  0.19215569847E+03  0.00000000000E+00 0.  1.
</event>
<event>
 7    1  0.4096326E-006  0.1389520E+03  0.7561462E-02  0.1214746E+00
          1   -1    0    0  501    0  0.00000000000E+00  0.00000000000E+00  0.94317203540E+02  0.94317203540E+02  0.00000000000E+00 0. -1.
         -1   -1    0    0    0  501 -0.00000000000E+00 -0.00000000000E+00 -0.28194851891E+03  0.28194851891E+03  0.00000000000E+00 0.  1.
         23    2    1    2    0    0  0.24667586031E+02  0.77232998526E+02  0.15804174799E+01  0.12085601776E+03  0.89611681419E+02 0.  0.
          5    1    1    2  502    0 -0.61557988428E+02  0.19425025504E+02 -0.97990991774E+02  0.11741560554E+03  0.41800000000E+01 0. -1.
         -5    1    1    2    0  502  0.36890402397E+02 -0.96658024030E+02 -0.91220741072E+02  0.13799409915E+03  0.41800000000E+01 0.  1.
        -11    1    3    3    0    0  0.40712125145E+02  0.83144358548E+02  0.21054257467E+02  0.94940735460E+02  0.00000000000E+00 0.  1.
         11    1    3    3    0    0 -0.16044539113E+02 -0.59113600221E+01 -0.19473839987E+02  0.25915282297E+02  0.00000000000E+00 0. -1.
</event>
<event>
 7    1  0.4096326E-006  0.1034249E+03  0.7561462E-02  0.1273254E+00
         -2   -1    0    0    0  501 -0.00000000000E+00  0.00000000000E+00  0.10539181226E+03  0.10539181226E+03  0.00000000000E+00 0.  1.
          2   -1    0    0  501    0  0.00000000000E+00 -0.00000000000E+00 -0.17447351706E+03  0.17447351706E+03  0.00000000000E+00 0. -1.
         23    2    1    2    0    0 -0.14338722947E+02  0.79449132554E+02 -0.42093860947E+02  0.12855782861E+03  0.90760445836E+02 0.  0.
          5    1    1    2  502    0  0.11477298624E+02 -0.37840543701E+01 -0.65163346422E+02  0.66406186218E+02  0.41800000000E+01 0. -1.
         -5    1    1    2    0  502  0.28614243231E+01 -0.75665078184E+02  0.38175502573E+02  0.84901314492E+02  0.41800000000E+01 0. -1.
        -11    1    3    3    0    0  0.36588169547E+02  0.31487172945E+02 -0.28727948773E+01  0.48356893627E+02  0.00000000000E+00 0.  1.
         11    1    3    3    0    0 -0.50926892494E+02  0.47961959609E+02 -0.39221066070E+02  0.80200934984E+02  0.00000000000E+00 0. -1.
</event>
<event>
 7    1  0.4096326E-006  0.1014698E+03  0.7561462E-02  0.1277235E+00
         -2   -1    0    0    0  501 -0.00000000000E+00  0.00000000000E+00  0.83675013257E+02  0.83675013257E+02  0.00000000000E+00 0. -1.
          2   -1    0    0  501    0  0.00000000000E+00 -0.00000000000E+00 -0.19165458870E+03  0.19165458870E+03  0.00000000000E+00 0.  1.
         23    2    1    2    0    0  0.38659317777E+02  0.51482527898E+02 -0.68037118568E+02  0.12908206128E+03  0.88815176132E+02 0.  0.
          5    1    1    2  502    0  0.26192530867E+02 -0.66501879199E+02 -0.72366500790E+01  0.71961031917E+02  0.41800000000E+01 0. -1.
         -5    1    1    2    0  502 -0.64851848644E+02  0.15019351302E+02 -0.32705806800E+02  0.74286508765E+02  0.41800000000E+01 0. -1.
        -11    1    3    3    0    0  0.25192720435E+02  0.28787195249E+02  0.15650805709E+02  0.41331870180E+02  0.00000000000E+00 0. -1.
         11    1    3    3    0    0  0.13466597341E+02  0.22695332649E+02 -0.83687924277E+02  0.87750191099E+02  0.00000000000E+00 0.  1.
</event>
<event>
 7    1  0.4096326E-006  0.1446743E+03  0.7561462E-02  0.1207174E+00
         -1   -1    0    0    0  501 -0.00000000000E+00  0.00000000000E+00  0.15101380230E+04  0.15101380230E+04  0.00000000000E+00 0.  1.
          1   -1    0    0  501    0  0.00000000000E+00 -0.00000000000E+00 -0.18153876407E+02  0.18153876407E+02  0.00000000000E+00 0. -1.
         23    2    1    2    0    0  0.63832375447E+02 -0.91610268999E+02  0.44889398834E+03  0.47181089660E+03  0.92912301891E+02 0.  0.
          5    1    1    2  502    0  0.48083670685E+01 -0.25912300965E+02  0.28613373740E+03  0.28737528741E+03  0.41800000000E+01 0.  1.
         -5    1    1    2    0  502 -0.68640742515E+02  0.11752256996E+03  0.75695642081E+03  0.76910571535E+03  0.41800000000E+01 0.  1.
        -11    1    3    3    0    0  0.19348352731E+01 -0.54078744904E+02  0.84828259247E+02  0.10061852615E+03  0.00000000000E+00 0.  1.
         11    1    3    3    0    0  0.61897540174E+02 -0.37531524095E+02  0.36406572909E+03  0.37119237045E+03  0.00000000000E+00 0. -1.
</event>
<event>
 7    1  0.4096326E-006  0.1100506E+03  0.7561462E-02  0.1260476E+00
          1   -1    0    0  501    0  0.00000000000E+00  0.00000000000E+00  0.17116005565E+03  0.17116005565E+03  0.00000000000E+00 0.  1.
         -1   -1    0    0    0  501 -0.00000000000E+00 -0.00000000000E+00 -0.81237265491E+02  0.81237265491E+02  0.00000000000E+00 0. -1.
         23    2    1    2    0    0  0.23477262195E+02 -0.95415655981E+00  0.80595763167E+02  0.12478230661E+03  0.92319308639E+02 0.  0.
          5    1    1    2  502    0  0.30425765152E+02 -0.45927379266E+02 -0.13288062886E+01  0.55265626545E+02  0.41800000000E+01 0.  1.
         -5    1    1    2    0  502 -0.53903027346E+02  0.46881535826E+02  0.10655833278E+02  0.72349387982E+02  0.41800000000E+01 0.  1.
        -11    1    3    3    0    0  0.46966768822E+02  0.29020490052E+02  0.59814089464E+02  0.81398965072E+02  0.00000000000E+00 0.  1.
         11    1    3    3    0    0 -0.23489506627E+02 -0.29974646612E+02  0.20781673703E+02  0.43383341538E+02  0.00000000000E+00 0. -1.
</event>
<event>
 7    1  0.4096326E-006  0.7789896E+02  0.7561462E-02  0.1335122E+00
         -1   -1    0    0    0  501 -0.00000000000E+00  0.00000000000E+00  0.13502615667E+03  0.13502615667E+03  0.00000000000E+00 0.  1.
          1   -1    0    0  501    0  0.00000000000E+00 -0.00000000000E+00 -0.93782709513E+02  0.93782709513E+02  0.00000000000E+00 0. -1.
         23    2    1    2    0    0  0.18003596255E+02 -0.31047676524E+02 -0.77988619836E+01  0.89737429659E+02  0.81877324932E+02 0.  0.
          5    1    1    2  502    0 -0.85414102549E+00  0.55762998562E+02 -0.23320515984E+02  0.60593402540E+02  0.41800000000E+01 0.  1.
         -5    1    1    2    0  502 -0.17149455229E+02 -0.24715322038E+02  0.72362825128E+02  0.78478033988E+02  0.41800000000E+01 0.  1.
        -11    1    3    3    0    0  0.29654382226E+02  0.63529310128E+01 -0.31682052314E+02  0.43857662460E+02  0.00000000000E+00 0.  1.
         11    1    3    3    0    0 -0.11650785972E+02 -0.37400607537E+02  0.23883190330E+02  0.45879767199E+02  0.00000000000E+00 0. -1.
</event>
<event>
 7    1  0.4096326E-006  0.1088833E+03  0.7561462E-02  0.1262652E+00
         -1   -1    0    0    0  501 -0.00000000000E+00  0.00000000000E+00  0.76651223873E+02  0.76651223873E+02  0.00000000000E+00 0.  1.
          1   -1    0    0  501    0  0.00000000000E+00 -0.00000000000E+00 -0.27118239897E+03  0.27118239897E+03  0.00000000000E+00 0. -1.
         23    2    1    2    0    0 -0.82247635447E+02 -0.34351270111E+02 -0.12848584590E+03  0.18063797149E+03  0.90425554195E+02 0.  0.
          5    1    1    2  502    0  0.67029706486E+02  0.50909090904E+02 -0.97135051809E+02  0.12859785293E+03  0.41800000000E+01 0. -1.
         -5    1    1    2    0  502  0.15217928961E+02 -0.16557820794E+02  0.31089722611E+02  0.38597798426E+02  0.41800000000E+01 0. -1.
        -11    1    3    3    0    0  0.72787277343E+01  0.86458984430E+01  0.65113186348E+01  0.13043339591E+02  0.00000000000E+00 0.  1.
         11    1    3    3    0    0 -0.89526363181E+02 -0.42997168554E+02 -0.13499716453E+03  0.16759463190E+03  0.00000000000E+00 0. -1.
</event>
<event>
 7    1  0.4096326E-006  0.4943286E+02  0.7561462E-02  0.1448425E+00
         -2   -1    0    0    0  501 -0.00000000000E+00  0.00000000000E+00  0.13105080271E+03  0.13105080271E+03  0.00000000000E+00 0.  1.
          2   -1    0    0  501    0  0.00000000000E+00 -0.00000000000E+00 -0.99490127126E+02  0.99490127126E+02  0.00000000000E+00 0. -1.
         23    2    1    2    0    0 -0.13942157256E+02  0.26092925769E+02 -0.56879874786E+01  0.96712826922E+02  0.91900996543E+02 0.  0.
          5    1    1    2  502    0 -0.16696770233E+01  0.84029632959E+01  0.77688638030E+02  0.78271287791E+02  0.41800000000E+01 0. -1.
         -5    1    1    2    0  502  0.15611834279E+02 -0.34495889065E+02 -0.40439974963E+02  0.55556815126E+02  0.41800000000E+01 0. -1.
        -11    1    3    3    0    0  0.29491885387E+01  0.32896830641E+02  0.37422922380E+02  0.49913668456E+02  0.00000000000E+00 0.  1.
         11    1    3    3    0    0 -0.16891345795E+02 -0.68039048723E+01 -0.43110909859E+02  0.46799158466E+02  0.00000000000E+00 0. -1.
</event>
<event>
 7    1  0.4096326E-006  0.1024603E+03  0.7561462E-02  0.1275206E+00
          1   -1    0    0  501    0  0.00000000000E+00  0.00000000000E+00  0.41046174571E+02  0.41046174571E+02  0.00000000000E+00 0. -1.
         -1   -1    0    0    0  501 -0.00000000000E+00 -0.00000000000E+00 -0.40301825887E+03  0.40301825887E+03  0.00000000000E+00 0.  1.
         23    2    1    2    0    0 -0.32652092513E+02 -0.66054797141E+02 -0.16874629566E+03  0.20237763465E+03  0.83976183163E+02 0.  0.
          5    1    1    2  502    0  0.27734640779E+02 -0.25701275854E+02 -0.11436512868E+03  0.12052643253E+03  0.41800000000E+01 0.  1.
         -5    1    1    2    0  502  0.49174517343E+01  0.91756072995E+02 -0.78860659963E+02  0.12116036626E+03  0.41800000000E+01 0.  1.
        -11    1    3    3    0    0 -0.29003791975E+02 -0.45072172448E+02 -0.17260348006E+03  0.18073373234E+03  0.00000000000E+00 0.  1.
         11    1    3    3    0    0 -0.36483005380E+01 -0.20982624693E+02  0.38571843983E+01  0.21643902313E+02  0.00000000000E+00 0. -1.
</event>
<event>
 7    1  0.4096326E-006  0.1332920E+03  0.7561462E-02  0.1222651E+00
         -2   -1    0    0    0  501 -0.00000000000E+00  0.00000000000E+00  0.15285931331E+03  0.15285931331E+03  0.00000000000E+00 0.  1.
          2   -1    0    0  501    0  0.00000000000E+00 -0.00000000000E+00 -0.14893057053E+03  0.14893057053E+03  0.00000000000E+00 0. -1.
         23    2    1    2    0    0  0.59654741681E+02 -0.64682997543E+02 -0.54680267555E+02  0.13800608990E+03  0.91176591370E+02 0.  0.
          5    1    1    2  502    0 -0.28475072241E+02  0.96988560079E+02  0.17313049958E+02  0.10263929376E+03  0.41800000000E+01 0.  1.
         -5    1    1    2    0  502 -0.31179669440E+02 -0.32305562536E+02  0.41295960379E+02  0.61144500168E+02  0.41800000000E+01 0.  1.
        -11    1    3    3    0    0  0.48983371803E+02  0.55386320560E+01 -0.44199606837E+02  0.66209156487E+02  0.00000000000E+00 0. -1.
         11    1    3    3    0    0  0.10671369879E+02 -0.70221629599E+02 -0.10480660718E+02  0.71796933415E+02  0.00000000000E+00 0.  1.
</event>
<event>
 7    1  0.4096326E-006  0.1128388E+03  0.7561462E-02  0.1255401E+00
          1   -1    0    0  501    0  0.00000000000E+00  0.00000000000E+00  0.56483519199E+03  0.56483519199E+03  0.00000000000E+00 0. -1.
         -1   -1    0    0    0  501 -0.00000000000E+00 -0.00000000000E+00 -0.42425378436E+02  0.42425378436E+02  0.00000000000E+00 0.  1.
         23    2    1    2    0    0 -0.88442408697E+02 -0.22135881420E+02  0.37362863416E+03  0.39505428347E+03  0.90318734025E+02 0.  0.
          5    1    1    2  502    0 -0.12839831069E+02  0.11794888186E+02  0.95603074736E+02  0.97269732950E+02  0.41800000000E+01 0. -1.
         -5    1    1    2    0  502  0.10128223977E+03  0.10340993235E+02  0.53178104656E+02  0.11493655401E+03  0.41800000000E+01 0.  1.
        -11    1    3    3    0    0 -0.33740585418E+02 -0.36084612366E+02  0.28985700098E+03  0.29403674493E+03  0.00000000000E+00 0. -1.
         11    1    3    3    0    0 -0.54701823279E+02  0.13948730945E+02  0.83771633185E+02  0.10101753853E+03  0.00000000000E+00 0.  1.
</event>
<event>
 7    1  0.4096326E-006  0.1470986E+03  0.7561462E-02  0.1204084E+00
          1   -1    0    0  501    0  0.00000000000E+00  0.00000000000E+00  0.65967301820E+02  0.65967301820E+02  0.00000000000E+00 0. -1.
         -1   -1    0    0    0  501 -0.00000000000E+00 -0.00000000000E+00 -0.50918114436E+03  0.50918114436E+03  0.00000000000E+00 0.  1.
         23    2    1    2    0    0 -0.12459802249E+03  0.32853035251E+02 -0.10020832191E+03  0.18797383018E+03  0.93211930131E+02 0.  0.
          5    1    1    2  502    0  0.49754973218E+02 -0.38407722437E+02 -0.39167678003E+02  0.74177421786E+02  0.41800000000E+01 0. -1.
         -5    1    1    2    0  502  0.74843049269E+02  0.55546871860E+01 -0.30383784264E+03  0.31299719422E+03  0.41800000000E+01 0. -1.
        -11    1    3    3    0    0 -0.29850295011E+02 -0.30014281046E+02 -0.44270774821E+02  0.61251927988E+02  0.00000000000E+00 0.  1.
         11    1    3    3    0    0 -0.94747727476E+02  0.62867316297E+02 -0.55937547085E+02  0.12672190219E+03  0.00000000000E+00 0. -1.
</event>
<event>
 7    1  0.4096326E-006  0.1109136E+03  0.7561462E-02  0.1258887E+00
         -2   -1    0    0    0  501 -0.00000000000E+00  0.00000000000E+00  0.22582500032E+03  0.22582500032E+03  0.00000000000E+00 0.  1.
          2   -1    0    0  501    0  0.00000000000E+00 -0.00000000000E+00 -0.54598690982E+02  0.54598690982E+02  0.00000000000E+00 0. -1.
         23    2    1    2    0    0 -0.19562196316E+02 -0.17017212244E+02  0.69714293143E+02  0.11725720702E+03  0.90647144982E+02 0.  0.
          5    1    1    2  502    0  0.21342643800E+01 -0.54050955612E+02  0.47679382579E+02  0.72227811888E+02  0.41800000000E+01 0.  1.
         -5    1    1    2    0  502  0.17427931936E+02  0.71068167856E+02  0.53832633616E+02  0.90938672389E+02  0.41800000000E+01 0.  1.
        -11    1    3    3    0    0  0.72113534366E+01 -0.50723663637E+02  0.37434217674E+02  0.63452457195E+02  0.00000000000E+00 0.  1.
         11    1    3    3    0    0 -0.26773549753E+02  0.33706451394E+02  0.32280075468E+02  0.53804749829E+02  0.00000000000E+00 0. -1.
</event>
<event>
 7    1  0.4096326E-006  0.1002116E+03  0.7561462E-02  0.1279852E+00
         -3   -1    0    0    0  501 -0.00000000000E+00  0.00000000000E+00  0.63872460545E+02  0.63872460545E+02  0.00000000000E+00 0.  1.
          3   -1    0    0  501    0  0.00000000000E+00 -0.00000000000E+00 -0.26621746734E+03  0.26621746734E+03  0.00000000000E+00 0. -1.
         23    2    1    2    0    0  0.58091941218E+02 -0.22714585854E+02 -0.13549781045E+03  0.17514945730E+03  0.91798963561E+02 0.  0.
          5    1    1    2  502    0  0.13248696670E+02  0.11629607782E+02  0.29410870679E+02  0.34543414058E+02  0.41800000000E+01 0. -1.
         -5    1    1    2    0  502 -0.71340637888E+02  0.11084978071E+02 -0.96258067027E+02  0.12039705653E+03  0.41800000000E+01 0. -1.
        -11    1    3    3    0    0  0.78254599897E+02  0.17641575742E+01 -0.10654804678E+03  0.13220960982E+03  0.00000000000E+00 0.  1.
         11    1    3    3    0    0 -0.20162658679E+02 -0.24478743428E+02 -0.28949763671E+02  0.42939847478E+02  0.00000000000E+00 0. -1.
</event>
<event>
 7    1  0.4096326E-006  0.9216743E+02  0.7561462E-02  0.1297686E+00
         -3   -1    0    0    0  501 -0.00000000000E+00  0.00000000000E+00  0.51569812911E+02  0.51569812911E+02  0.00000000000E+00 0.  1.
          3   -1    0    0  501    0  0.00000000000E+00 -0.00000000000E+00 -0.32157005825E+03  0.32157005825E+03  0.00000000000E+00 0. -1.
         23    2    1    2    0    0  0.56889040318E+02 -0.24148488025E+02 -0.16448019158E+03  0.19820561249E+03  0.91718149888E+02 0.  0.
          5    1    1    2  502    0 -0.53430484737E+02 -0.27364515664E+02 -0.10739238565E+03  0.12310251952E+03  0.41800000000E+01 0. -1.
         -5    1    1    2    0  502 -0.34585555806E+01  0.51513003688E+02  0.18723318986E+01  0.51831739142E+02  0.41800000000E+01 0. -1.
        -11    1    3    3    0    0 -0.27677124956E+01 -0.10907015109E+02  0.89157820664E+01  0.14356684189E+02  0.00000000000E+00 0.  1.
         11    1    3    3    0    0  0.59656752813E+02 -0.13241472916E+02 -0.17339597365E+03  0.18384892831E+03  0.00000000000E+00 0. -1.
</event>
<event>
 7    1  0.4096326E-006  0.1703678E+03  0.7561462E-02  0.1177465E+00
         -1   -1    0    0    0  501 -0.00000000000E+00  0.00000000000E+00  0.13807093624E+04  0.13807093624E+04  0.00000000000E+00 0.  1.
          1   -1    0    0  501    0  0.00000000000E+00 -0.00000000000E+00 -0.36279987409E+02  0.36279987409E+02  0.00000000000E+00 0. -1.
         23    2    1    2    0    0 -0.39261607973E+02  0.13823255416E+03  0.23421400156E+03  0.28981632364E+03  0.92128117474E+02 0.  0.
          5    1    1    2  502    0 -0.40515461864E+02 -0.14541209287E+02  0.36471424459E+03  0.36726952232E+03  0.41800000000E+01 0. -1.
         -5    1    1    2    0  502  0.79777069837E+02 -0.12369134487E+03  0.74550112889E+03  0.75990350390E+03  0.41800000000E+01 0.  1.
        -11    1    3    3    0    0  0.72583799602E+01  0.49731806582E+02  0.15288194965E+03  0.16093112562E+03  0.00000000000E+00 0.  1.
         11    1    3    3    0    0 -0.46519987933E+02  0.88500747577E+02  0.81332051910E+02  0.12888519801E+03  0.00000000000E+00 0. -1.
</event>
<event>
 7    1  0.4096326E-006  0.9389536E+02  0.7561462E-02  0.1293684E+00
         -2   -1    0    0    0  501 -0.00000000000E+00  0.00000000000E+00  0.17373516196E+03  0.17373516196E+03  0.00000000000E+00 0.  1.
          2   -1    0    0  501    0  0.00000000000E+00 -0.00000000000E+00 -0.12457425439E+03  0.12457425439E+03  0.00000000000E+00 0. -1.
         23    2    1    2    0    0  0.24273969885E+02  0.28788956335E+02 -0.75603826793E+02  0.12157656748E+03  0.87446518016E+02 0.  0.
          5    1    1    2  502    0 -0.56063621203E+02  0.13078074976E+02  0.23034359994E+02  0.62146760236E+02  0.41800000000E+01 0. -1.
         -5    1    1    2    0  502  0.31789651318E+02 -0.41867031311E+02  0.10173037436E+03  0.11458608864E+03  0.41800000000E+01 0.  1.
        -11    1    3    3    0    0  0.47962282060E+02  0.17087244142E+02 -0.79964607670E+02  0.94798169247E+02  0.00000000000E+00 0. -1.
         11    1    3    3    0    0 -0.23688312175E+02  0.11701712193E+02  0.43607808776E+01  0.26778398231E+02  0.00000000000E+00 0.  1.
</event>
<event>
 7    1  0.4096326E-006  0.1574285E+03  0.7561462E-02  0.1191631E+00
         -1   -1    0    0    0  501 -0.00000000000E+00  0.00000000000E+00  0.25841293900E+02  0.25841293900E+02  0.00000000000E+00 0.  1.
          1   -1    0    0  501    0  0.00000000000E+00 -0.00000000000E+00 -0.98848154070E+03  0.98848154070E+03  0.00000000000E+00 0. -1.
         23    2    1    2    0    0 -0.48511278266E+02  0.10653727775E+03 -0.46509144370E+03  0.48810460253E+03  0.90733215202E+02 0.  0.
          5    1    1    2  502    0  0.17630998229E+02  0.27928051527E+02 -0.96086660580E+02  0.10169044646E+03  0.41800000000E+01 0.  1.
         -5    1    1    2    0  502  0.30880280037E+02 -0.13446532928E+03 -0.40146214252E+03  0.42452778560E+03  0.41800000000E+01 0.  1.
        -11    1    3    3    0    0 -0.60885443749E+02  0.33568235843E+02 -0.28586066495E+03  0.29419412551E+03  0.00000000000E+00 0. -1.
         11    1    3    3    0    0  0.12374165483E+02  0.72969041907E+02 -0.17923077875E+03  0.19391047703E+03  0.00000000000E+00 0.  1.
</event>
<event>
 7    1  0.4096326E-006  0.9064311E+02  0.7561462E-02  0.1301302E+00
         -2   -1    0    0    0  501 -0.00000000000E+00  0.00000000000E+00  0.12385646629E+02  0.12385646629E+02  0.00000000000E+00 0.  1.
          2   -1    0    0  501    0  0.00000000000E+00 -0.00000000000E+00 -0.97182223085E+03  0.97182223085E+03  0.00000000000E+00 0. -1.
         23    2    1    2    0    0 -0.11401478100E+02  0.21803144309E+01 -0.47234813893E+03  0.48117920349E+03  0.91026996245E+02 0.  0.
          5    1    1    2  502    0 -0.35882136606E+02 -0.17699852678E+02 -0.55420768162E+02  0.68481723517E+02  0.41800000000E+01 0.  1.
         -5    1    1    2    0  502  0.47283614706E+02  0.15519538247E+02 -0.43166767713E+03  0.43454695047E+03  0.41800000000E+01 0.  1.
        -11    1    3    3    0    0 -0.48373134564E+02  0.17018527551E+02 -0.23712729351E+03  0.24260862259E+03  0.00000000000E+00 0.  1.
         11    1    3    3    0    0  0.36971656464E+02 -0.14838213120E+02 -0.23522084543E+03  0.23857058091E+03  0.00000000000E+00 0. -1.
</event>
<event>
 7    1  0.4096326E-006  0.8478697E+02  0.7561462E-02  0.1315991E+00
         -4   -1    0    0    0  501 -0.00000000000E+00  0.00000000000E+00  0.66995677451E+02  0.66995677451E+02  0.00000000000E+00 0. -1.
          4   -1    0    0  501    0  0.00000000000E+00 -0.00000000000E+00 -0.28374940595E+03  0.28374940595E+03  0.00000000000E+00 0.  1.
         23    2    1    2    0    0 -0.47165848186E+01  0.70029173126E+02 -0.15457322902E+03  0.19441058016E+03  0.94743122643E+02 0.  0.
          5    1    1    2  502    0 -0.14336919483E+01 -0.80977998432E+02 -0.92640769219E+02  0.12312301257E+03  0.41800000000E+01 0.  1.
         -5    1    1    2    0  502  0.61502767669E+01  0.10948825307E+02  0.30460269740E+02  0.33211490670E+02  0.41800000000E+01 0.  1.
        -11    1    3    3    0    0  0.90266939062E+01  0.50851264482E+02 -0.16327062442E+02  0.54165535816E+02  0.00000000000E+00 0. -1.
         11    1    3    3    0    0 -0.13743278725E+02  0.19177908644E+02 -0.13824616658E+03  0.14024504435E+03  0.00000000000E+00 0.  1.
</event>
<event>
 7    1  0.4096326E-006  0.1111735E+03  0.7561462E-02  0.1258412E+00
         -1   -1    0    0    0  501 -0.00000000000E+00  0.00000000000E+00  0.18762682526E+02  0.18762682526E+02  0.00000000000E+00 0.  1.
          1   -1    0    0  501    0  0.00000000000E+00 -0.00000000000E+00 -0.11417963065E+04  0.11417963065E+04  0.00000000000E+00 0. -1.
         23    2    1    2    0    0  0.61659981763E+02  0.72380067372E+02 -0.43712152652E+03  0.45688024258E+03  0.92862799894E+02 0.  0.
          5    1    1    2  502    0  0.88408365122E+01  0.87272531357E+01 -0.45396454202E+01  0.13871053243E+02  0.41800000000E+01 0. -1.
         -5    1    1    2    0  502 -0.70500818276E+02 -0.81107320508E+02 -0.68137245199E+03  0.68980769317E+03  0.41800000000E+01 0. -1.
        -11    1    3    3    0    0  0.29924710259E+02  0.97347423656E+01 -0.29104646549E+02  0.42864133535E+02  0.00000000000E+00 0.  1.
         11    1    3    3    0    0  0.31735271505E+02  0.62645325007E+02 -0.40801687997E+03  0.41401610904E+03  0.00000000000E+00 0. -1.
</event>
<event>
 7    1  0.4096326E-006  0.1086339E+03  0.7561462E-02  0.1263121E+00
          1   -1    0    0  501    0  0.00000000000E+00  0.00000000000E+00  0.32730042562E+03  0.32730042562E+03  0.00000000000E+00 0. -1.
         -1   -1    0    0    0  501 -0.00000000000E+00 -0.00000000000E+00 -0.46443153153E+02  0.46443153153E+02  0.00000000000E+00 0.  1.
         23    2    1    2    0    0 -0.58349737270E+02  0.15737197780E+02  0.12708209655E+03  0.16650919038E+03  0.89011796895E+02 0.  0.
          5    1    1    2  502    0  0.22538793428E+02 -0.67899269081E+02  0.10550533612E+03  0.12754276263E+03  0.41800000000E+01 0.  1.
         -5    1    1    2    0  502  0.35810943842E+02  0.52162071301E+02  0.48269839808E+02  0.79691625760E+02  0.41800000000E+01 0.  1.
        -11    1    3    3    0    0  0.71658823232E+01 -0.95741022202E+01 -0.79104869071E+01  0.14338378775E+02  0.00000000000E+00 0.  1.
         11    1    3    3    0    0 -0.65515619593E+02  0.25311300000E+02  0.13499258345E+03  0.15217081161E+03  0.00000000000E+00 0. -1.
</event>
<event>
 7    1  0.4096326E-006  0.1042881E+03  0.7561462E-02  0.1271529E+00
         -3   -1    0    0    0  501 -0.00000000000E+00  0.00000000000E+00  0.24343742807E+02  0.24343742807E+02  0.00000000000E+00 0.  1.
          3   -1    0    0  501    0  0.00000000000E+00 -0.00000000000E+00 -0.60661337579E+03  0.60661337579E+03  0.00000000000E+00 0. -1.
         23    2    1    2    0    0  0.30411695594E+02 -0.47174518040E+02 -0.24058459610E+03  0.26278840441E+03  0.89590687183E+02 0.  0.
          5    1    1    2  502    0  0.16250599783E+02 -0.29733539407E+02 -0.36519397416E+02  0.49993040981E+02  0.41800000000E+01 0.  1.
         -5    1    1    2    0  502 -0.46662295377E+02  0.76908057446E+02 -0.30516563947E+03  0.31817567321E+03  0.41800000000E+01 0.  1.
        -11    1    3    3    0    0 -0.13471898173E+02 -0.36939767431E+02 -0.36035658047E+02  0.53334858293E+02  0.00000000000E+00 0.  1.
         11    1    3    3    0    0  0.43883593766E+02 -0.10234750609E+02 -0.20454893806E+03  0.20945354612E+03  0.00000000000E+00 0. -1.
</event>
<event>
 7    1  0.4096326E-006  0.2886194E+03  0.7561462E-02  0.1091072E+00
         -1   -1    0    0    0  501 -0.00000000000E+00  0.00000000000E+00  0.94373849094E+02  0.94373849094E+02  0.00000000000E+00 0.  1.
          1   -1    0    0  501    0  0.00000000000E+00 -0.00000000000E+00 -0.12688000772E+04  0.12688000772E+04  0.00000000000E+00 0. -1.
         23    2    1    2    0    0 -0.15249846098E+03  0.22666373876E+03 -0.93620979661E+03  0.97959964425E+03  0.92165333362E+02 0.  0.
          5    1    1    2  502    0  0.15648684833E+03 -0.14538368271E+03 -0.13767340308E+03  0.25415740637E+03  0.41800000000E+01 0. -1.
         -5    1    1    2    0  502 -0.39883873468E+01 -0.81280056048E+02 -0.10054302837E+03  0.12941687563E+03  0.41800000000E+01 0.  1.
        -11    1    3    3    0    0 -0.79630755829E+02  0.17654793500E+03 -0.54120642618E+03  0.57481703729E+03  0.00000000000E+00 0.  1.
         11    1    3    3    0    0 -0.72867705153E+02  0.50115803756E+02 -0.39500337043E+03  0.40478260695E+03  0.00000000000E+00 0. -1.
</event>
<event>
 7    1  0.4096326E-006  0.1074781E+03  0.7561462E-02  0.1265313E+00
          3   -1    0    0  501    0  0.00000000000E+00  0.00000000000E+00  0.25591812283E+03  0.25591812283E+03  0.00000000000E+00 0. -1.
         -3   -1    0    0    0  501 -0.00000000000E+00 -0.00000000000E+00 -0.75220017228E+02  0.75220017228E+02  0.00000000000E+00 0.  1.
         23    2    1    2    0    0  0.53465484960E+02  0.30739827347E+02  0.15424814519E+03  0.18918728391E+03  0.90530895443E+02 0.  0.
          5    1    1    2  502    0 -0.57451292412E+02 -0.71484488991E+02  0.37768940237E+02  0.99270581809E+02  0.41800000000E+01 0.  1.
         -5    1    1    2    0  502  0.39858074513E+01  0.40744661645E+02 -0.11318979827E+02  0.42680274342E+02  0.41800000000E+01 0.  1.
        -11    1    3    3    0    0 -0.95695677306E+01  0.13682626127E+02 -0.47014015070E+01  0.17346298176E+02  0.00000000000E+00 0.  1.
         11    1    3    3    0    0  0.63035052691E+02  0.17057201220E+02  0.15894954670E+03  0.17184098573E+03  0.00000000000E+00 0. -1.
</event>
<event>
 7    1  0.4096326E-006  0.9588622E+02  0.7561462E-02  0.1289192E+00
          2   -1    0    0  501    0  0.00000000000E+00  0.00000000000E+00  0.93609451311E+02  0.93609451311E+02  0.00000000000E+00 0. -1.
         -2   -1    0    0    0  501 -0.00000000000E+00 -0.00000000000E+00 -0.15444661225E+03  0.15444661225E+03  0.00000000000E+00 0.  1.
         23    2    1    2    0    0 -0.32817070336E+01  0.29534481118E+02  0.17735718415E+02  0.97375470402E+02  0.91018522029E+02 0.  0.
          5    1    1    2  502    0  0.10288629065E+01  0.47743404707E+02 -0.14212681735E+02  0.49999639738E+02  0.41800000000E+01 0.  1.
         -5    1    1    2    0  502  0.22528441271E+01 -0.77277885825E+02 -0.64360197617E+02  0.10068095342E+03  0.41800000000E+01 0.  1.
        -11    1    3    3    0    0  0.86682561569E+01 -0.16614958231E+02 -0.26423145767E+02  0.32394106471E+02  0.00000000000E+00 0.  1.
         11    1    3    3    0    0 -0.11949963191E+02  0.46149439349E+02  0.44158864182E+02  0.64981363931E+02  0.00000000000E+00 0. -1.
</event>
<event>
 7    1  0.4205877E-006  0.2188521E+03  0.7561462E-02  0.1134742E+00
          2   -1    0    0  501    0  0.00000000000E+00  0.00000000000E+00  0.82970453041E+03  0.82970453041E+03  0.00000000000E+00 0. -1.
         -2   -1    0    0    0  501 -0.00000000000E+00 -0.00000000000E+00 -0.66180556433E+02  0.66180556433E+02  0.00000000000E+00 0.  1.
         23    2    1    2    0    0 -0.26142378473E+02 -0.20354965511E+03  0.41560676210E+03  0.47302585360E+03  0.94385334783E+02 0.  0.
          5    1    1    2  502    0 -0.17561897774E+02  0.36830599235E+02  0.80986207944E+01  0.41808771235E+02  0.41800000000E+01 0. -1.
         -5    1    1    2    0  502  0.43704276246E+02  0.16671905587E+03  0.33981859108E+03  0.38105046201E+03  0.41800000000E+01 0. -1.
        -11    1    3    3    0    0 -0.35540788557E+02 -0.20571337863E+02  0.99804408893E+02  0.10792241485E+03  0.00000000000E+00 0. -1.
         11    1    3    3    0    0  0.93984100846E+01 -0.18297831725E+03  0.31580235321E+03  0.36510343875E+03  0.00000000000E+00 0.  1.
</event>
<event>
 7    1  0.4096326E-006  0.1046971E+03  0.7561462E-02  0.1270718E+00
          1   -1    0    0  501    0  0.00000000000E+00  0.00000000000E+00  0.29659166723E+03  0.29659166723E+03  0.00000000000E+00 0. -1.
         -1   -1    0    0    0  501 -0.00000000000E+00 -0.00000000000E+00 -0.74012369125E+02  0.74012369125E+02  0.00000000000E+00 0.  1.
         23    2    1    2    0    0  0.27624025334E+02 -0.57721370407E+02  0.19878762818E+03  0.22809649048E+03  0.91742272018E+02 0.  0.
          5    1    1    2  502    0 -0.29150440472E+02 -0.96272426741E+01 -0.39349083953E+02  0.50082479863E+02  0.41800000000E+01 0.  1.
         -5    1    1    2    0  502  0.15264151378E+01  0.67348613081E+02  0.63140753883E+02  0.92425066016E+02  0.41800000000E+01 0.  1.
        -11    1    3    3    0    0  0.55572243867E+02 -0.11267215085E+02  0.86848886823E+02  0.10372055518E+03  0.00000000000E+00 0. -1.
         11    1    3    3    0    0 -0.27948218532E+02 -0.46454155322E+02  0.11193874135E+03  0.12437593530E+03  0.00000000000E+00 0.  1.
</event>
<event>
 7    1  0.4096326E-006  0.1393611E+03  0.7561462E-02  0.1214191E+00
          2   -1    0    0  501    0  0.00000000000E+00  0.00000000000E+00  0.80070506983E+02  0.80070506983E+02  0.00000000000E+00 0. -1.
         -2   -1    0    0    0  501 -0.00000000000E+00 -0.00000000000E+00 -0.31322731438E+03  0.31322731438E+03  0.00000000000E+00 0.  1.
         23    2    1    2    0    0  0.98194618476E+02  0.36172847199E+02 -0.42490484515E+02  0.14239522161E+03  0.86719662659E+02 0.  0.
          5    1    1    2  502    0 -0.70509544587E+02  0.40116997210E+02 -0.10601121426E+03  0.13355455549E+03  0.41800000000E+01 0. -1.
         -5    1    1    2    0  502 -0.27685073889E+02 -0.76289844409E+02 -0.84655108628E+02  0.11734804427E+03  0.41800000000E+01 0. -1.
        -11    1    3    3    0    0  0.67837652636E+02 -0.14875437853E+01 -0.60372252478E+02  0.90823833716E+02  0.00000000000E+00 0.  1.
         11    1    3    3    0    0  0.30356965840E+02  0.37660390984E+02  0.17881767963E+02  0.51571387896E+02  0.00000000000E+00 0. -1.
</event>
<event>
 7    1  0.4096326E-006  0.2302639E+03  0.7561462E-02  0.1126454E+00
          2   -1    0    0  501    0  0.00000000000E+00  0.00000000000E+00  0.91994628594E+03  0.91994628594E+03  0.00000000000E+00 0.  1.
         -2   -1    0    0    0  501 -0.00000000000E+00 -0.00000000000E+00 -0.68429498305E+02  0.68429498305E+02  0.00000000000E+00 0. -1.
         23    2    1    2    0    0  0.21057022275E+03 -0.50816910768E+02  0.53849906486E+03  0.58768973756E+03  0.92064149663E+02 0.  0.
          5    1    1    2  502    0 -0.77539429874E+02  0.49476474900E+02  0.47341789736E+02  0.10353261423E+03  0.41800000000E+01 0.  1.
         -5    1    1    2    0  502 -0.13303079288E+03  0.13404358674E+01  0.26567593304E+03  0.29715343246E+03  0.41800000000E+01 0.  1.
        -11    1    3    3    0    0  0.88922824221E+02 -0.68733259774E+02  0.26078945509E+03  0.28397652993E+03  0.00000000000E+00 0.  1.
         11    1    3    3    0    0  0.12164739853E+03  0.17916349006E+02  0.27770960977E+03  0.30371320763E+03  0.00000000000E+00 0. -1.
</event>
<event>
 7    1  0.4096326E-006  0.1071191E+03  0.7561462E-02  0.1266000E+00
         -1   -1    0    0    0  501 -0.00000000000E+00  0.00000000000E+00  0.62990478396E+02  0.62990478396E+02  0.00000000000E+00 0.  1.
          1   -1    0    0  501    0  0.00000000000E+00 -0.00000000000E+00 -0.24479832783E+03  0.24479832783E+03  0.00000000000E+00 0. -1.
         23    2    1    2    0    0 -0.36021031302E+02  0.61407379111E+01 -0.14172280559E+03  0.17144526575E+03  0.89291109103E+02 0.  0.
          5    1    1    2  502    0 -0.43358150599E+02 -0.14660724383E+02  0.19893754068E+01  0.46003218119E+02  0.41800000000E+01 0.  1.
         -5    1    1    2    0  502  0.79379181901E+02  0.85199864720E+01 -0.42074419251E+02  0.90340322360E+02  0.41800000000E+01 0.  1.
        -11    1    3    3    0    0  0.10115572386E+02 -0.28757636955E+02 -0.19402917007E+02  0.36135850291E+02  0.00000000000E+00 0.  1.
         11    1    3    3    0    0 -0.46136603688E+02  0.34898374866E+02 -0.12231988858E+03  0.13530941546E+03  0.00000000000E+00 0. -1.
</event>
<event>
 7    1  0.4096326E-006  0.1598786E+03  0.7561462E-02  0.1188834E+00
          1   -1    0    0  501    0  0.00000000000E+00  0.00000000000E+00  0.11932243980E+03  0.11932243980E+03  0.00000000000E+00 0. -1.
         -1   -1    0    0    0  501 -0.00000000000E+00 -0.00000000000E+00 -0.27947948521E+03  0.27947948521E+03  0.00000000000E+00 0.  1.
         23    2    1    2    0    0 -0.82402608956E+02  0.99783465761E+02 -0.14855955406E+01  0.15886072224E+03  0.92128128569E+02 0.  0.
          5    1    1    2  502    0  0.26585281856E+02 -0.11769255227E+03 -0.98289550815E+02  0.15568115580E+03  0.41800000000E+01 0. -1.
         -5    1    1    2    0  502  0.55817327101E+02  0.17909086507E+02 -0.60381899052E+02  0.84260046981E+02  0.41800000000E+01 0. -1.
        -11    1    3    3    0    0 -0.88864349641E+02  0.80441883530E+02 -0.30228625330E+02  0.12361852229E+03  0.00000000000E+00 0.  1.
         11    1    3    3    0    0  0.64617406850E+01  0.19341582231E+02  0.28743029789E+02  0.35242199951E+02  0.00000000000E+00 0. -1.
</event>
<event>
 7    1  0.4096326E-006  0.1230387E+03  0.7561462E-02  0.1238167E+00
         -1   -1    0    0    0  501 -0.00000000000E+00  0.00000000000E+00  0.17815298182E+02  0.17815298182E+02  0.00000000000E+00 0.  1.
          1   -1    0    0  501    0  0.00000000000E+00 -0.00000000000E+00 -0.12820184771E+04  0.12820184771E+04  0.00000000000E+00 0. -1.
         23    2    1    2    0    0  0.98706139774E+02  0.31876997602E+02 -0.61284873980E+03  0.62851556252E+03  0.93215821900E+02 0.  0.
          5    1    1    2  502    0 -0.72407568457E+02 -0.44008487340E+02 -0.62847108618E+03  0.63417109796E+03  0.41800000000E+01 0. -1.
         -5    1    1    2    0  502 -0.26298571316E+02  0.12131489738E+02 -0.22883352958E+02  0.37147114816E+02  0.41800000000E+01 0. -1.
        -11    1    3    3    0    0 -0.10627808536E+02  0.19158333941E+02 -0.44435736948E+02  0.49543181083E+02  0.00000000000E+00 0.  1.
         11    1    3    3    0    0  0.10933394831E+03  0.12718663661E+02 -0.56841300285E+03  0.57897238144E+03  0.00000000000E+00 0. -1.
</event>
<event>
 7    1  0.4096326E-006  0.1244934E+03  0.7561462E-02  0.1235863E+00
         -2   -1    0    0    0  501 -0.00000000000E+00  0.00000000000E+00  0.49397372734E+02  0.49397372734E+02  0.00000000000E+00 0.  1.
          2   -1    0    0  501    0  0.00000000000E+00 -0.00000000000E+00 -0.81545973581E+03  0.81545973581E+03  0.00000000000E+00 0. -1.
         23    2    1    2    0    0  0.42311500405E+02 -0.11601813997E+03 -0.61269896735E+03  0.63158202247E+03  0.90803935190E+02 0.  0.
          5    1    1    2  502    0 -0.27285818126E+02  0.91891090954E+02 -0.17345082062E+03  0.19821994864E+03  0.41800000000E+01 0. -1.
         -5    1    1    2    0  502 -0.15025682279E+02  0.24127049014E+02  0.20087424886E+02  0.35055137436E+02  0.41800000000E+01 0. -1.
        -11    1    3    3    0    0  0.27662148777E+02 -0.92991150658E+02 -0.58390118285E+03  0.59190636076E+03  0.00000000000E+00 0. -1.
         11    1    3    3    0    0  0.14649351628E+02 -0.23026989310E+02 -0.28797784497E+02  0.39675661705E+02  0.00000000000E+00 0.  1.
</event>
<event>
 7    1  0.4096326E-006  0.1795711E+03  0.7561462E-02  0.1168219E+00
          2   -1    0    0  501    0  0.00000000000E+00  0.00000000000E+00  0.83193698990E+03  0.83193698990E+03  0.00000000000E+00 0. -1.
         -2   -1    0    0    0  501 -0.00000000000E+00 -0.00000000000E+00 -0.64647207238E+02  0.64647207238E+02  0.00000000000E+00 0.  1.
         23    2    1    2    0    0  0.13791915056E+03  0.96093633958E+02  0.56404599679E+03  0.59560556251E+03  0.91336854672E+02 0.  0.
          5    1    1    2  502    0 -0.10223031890E+03 -0.55653285254E+02  0.21599620651E+03  0.24539796227E+03  0.41800000000E+01 0. -1.
         -5    1    1    2    0  502 -0.35688831659E+02 -0.40440348704E+02 -0.12752420628E+02  0.55580672364E+02  0.41800000000E+01 0.  1.
        -11    1    3    3    0    0  0.49853179031E+02 -0.98378556136E+01  0.20037404168E+03  0.20671690652E+03  0.00000000000E+00 0.  1.
         11    1    3    3    0    0  0.88065971525E+02  0.10593148957E+03  0.36367195511E+03  0.38888865599E+03  0.00000000000E+00 0. -1.
</event>
<event>
 7    1  0.4096326E-006  0.1156408E+03  0.7561462E-02  0.1250467E+00
          1   -1    0    0  501    0  0.00000000000E+00  0.00000000000E+00  0.79029052621E+02  0.79029052621E+02  0.00000000000E+00 0. -1.
         -1   -1    0    0    0  501 -0.00000000000E+00 -0.00000000000E+00 -0.35409044191E+03  0.35409044191E+03  0.00000000000E+00 0.  1.
         23    2    1    2    0    0  0.76689911195E+02  0.66250714831E+02 -0.28840233085E+02  0.13893649916E+03  0.90559881066E+02 0.  0.
          5    1    1    2  502    0 -0.36295027849E+01 -0.43505009842E+02 -0.19986465700E+03  0.20461967816E+03  0.41800000000E+01 0. -1.
         -5    1    1    2    0  502 -0.73060408411E+02 -0.22745704989E+02 -0.46356499204E+02  0.89563317218E+02  0.41800000000E+01 0. -1.
        -11    1    3    3    0    0  0.10399905286E+02  0.36824451526E+02  0.27479427312E+02  0.47109629435E+02  0.00000000000E+00 0. -1.
         11    1    3    3    0    0  0.66290005909E+02  0.29426263305E+02 -0.56319660398E+02  0.91826869721E+02  0.00000000000E+00 0.  1.
</event>
<event>
 7    1  0.4096326E-006  0.8436427E+02  0.7561462E-02  0.1317103E+00
          2   -1    0    0  501    0  0.00000000000E+00  0.00000000000E+00  0.25937463170E+03  0.25937463170E+03  0.00000000000E+00 0. -1.
         -2   -1    0    0    0  501 -0.00000000000E+00 -0.00000000000E+00 -0.49459397790E+02  0.49459397790E+02  0.00000000000E+00 0.  1.
         23    2    1    2    0    0 -0.57596165655E+01 -0.13034422269E+02  0.13032580237E+03  0.15987713468E+03  0.91503082357E+02 0.  0.
          5    1    1    2  502    0  0.24509864263E+02 -0.38422142574E+02  0.82078142457E+02  0.93974934719E+02  0.41800000000E+01 0.  1.
         -5    1    1    2    0  502 -0.18750247697E+02  0.51456564843E+02 -0.24887109186E+01  0.54981960098E+02  0.41800000000E+01 0.  1.
        -11    1    3    3    0    0  0.12727760177E+02  0.23706747358E+02  0.11139637111E+03  0.11459998799E+03  0.00000000000E+00 0. -1.
         11    1    3    3    0    0 -0.18487376743E+02 -0.36741169628E+02  0.18929431261E+02  0.45277146689E+02  0.00000000000E+00 0.  1.
</event>
<event>
 7    1  0.4096326E-006  0.1455394E+03  0.7561462E-02  0.1206064E+00
          1   -1    0    0  501    0  0.00000000000E+00  0.00000000000E+00  0.26569473937E+03  0.26569473937E+03  0.00000000000E+00 0. -1.
         -1   -1    0    0    0  501 -0.00000000000E+00 -0.00000000000E+00 -0.84836541137E+02  0.84836541137E+02  0.00000000000E+00 0.  1.
         23    2    1    2    0    0 -0.77631975166E+02  0.66717143968E+02  0.96247878052E+02  0.16808727175E+03  0.92259286946E+02 0.  0.
          5    1    1    2  502    0  0.30551472074E+02 -0.94719215258E+02  0.79161717245E+02  0.12723667735E+03  0.41800000000E+01 0. -1.
         -5    1    1    2    0  502  0.47080503092E+02  0.28002071290E+02  0.54486029403E+01  0.55207331415E+02  0.41800000000E+01 0. -1.
        -11    1    3    3    0    0  0.69652389234E+00 -0.19805380488E+02  0.64913962668E+01  0.20853691935E+02  0.00000000000E+00 0.  1.
         11    1    3    3    0    0 -0.78328499058E+02  0.86522524456E+02  0.89756481785E+02  0.14723357982E+03  0.00000000000E+00 0. -1.
</event>
<event>
 7    1  0.4096326E-006  0.3415189E+03  0.7561462E-02  0.1066151E+00
         -1   -1    0    0    0  501 -0.00000000000E+00  0.00000000000E+00  0.20799640680E+03  0.20799640680E+03  0.00000000000E+00 0.  1.
          1   -1    0    0  501    0  0.00000000000E+00 -0.00000000000E+00 -0.70805902236E+03  0.70805902236E+03  0.00000000000E+00 0. -1.
         23    2    1    2    0    0 -0.14126490245E+03  0.30915392604E+03 -0.41468469384E+03  0.54394198959E+03  0.91529066863E+02 0.  0.
          5    1    1    2  502    0  0.47756758949E+02 -0.13162448360E+03 -0.98100004107E+02  0.17101694628E+03  0.41800000000E+01 0.  1.
         -5    1    1    2    0  502  0.93508143505E+02 -0.17752944244E+03  0.12722082391E+02  0.20109649329E+03  0.41800000000E+01 0.  1.
        -11    1    3    3    0    0 -0.53099109041E+02  0.73654206645E+02 -0.17187738121E+03  0.19438696383E+03  0.00000000000E+00 0.  1.
         11    1    3    3    0    0 -0.88165793414E+02  0.23549971940E+03 -0.24280731264E+03  0.34955502576E+03  0.00000000000E+00 0. -1.
</event>
<event>
 7    1  0.4096326E-006  0.1976696E+03  0.7561462E-02  0.1151720E+00
         -2   -1    0    0    0  501 -0.00000000000E+00  0.00000000000E+00  0.83886255095E+02  0.83886255095E+02  0.00000000000E+00 0.  1.
          2   -1    0    0  501    0  0.00000000000E+00 -0.00000000000E+00 -0.51083638893E+03  0.51083638893E+03  0.00000000000E+00 0. -1.
         23    2    1    2    0    0  0.81524847062E+02 -0.14526530426E+03 -0.28554314467E+03  0.34294484794E+03  0.91257722668E+02 0.  0.
          5    1    1    2  502    0 -0.90581174509E+01  0.13217679658E+03 -0.10718980654E+03  0.17046959281E+03  0.41800000000E+01 0. -1.
         -5    1    1    2    0  502 -0.72466729611E+02  0.13088507678E+02 -0.34217182625E+02  0.81308203280E+02  0.41800000000E+01 0. -1.
        -11    1    3    3    0    0  0.27531999410E+02 -0.13005074353E+03 -0.21557510096E+03  0.25326632433E+03  0.00000000000E+00 0.  1.
         11    1    3    3    0    0  0.53992847651E+02 -0.15214560729E+02 -0.69968043708E+02  0.89678523606E+02  0.00000000000E+00 0. -1.
</event>
<event>
 7    1  0.4096326E-006  0.1002328E+03  0.7561462E-02  0.1279807E+00
         -2   -1    0    0    0  501 -0.00000000000E+00  0.00000000000E+00  0.50115473946E+02  0.50115473946E+02  0.00000000000E+00 0.  1.
          2   -1    0    0  501    0  0.00000000000E+00 -0.00000000000E+00 -0.25040424321E+03  0.25040424321E+03  0.00000000000E+00 0. -1.
         23    2    1    2    0    0  0.30386606209E+02  0.79673386982E+01 -0.13159647403E+03  0.16298640725E+03  0.90885161865E+02 0.  0.
          5    1    1    2  502    0 -0.60947302611E+02 -0.39193558256E+02 -0.56496573270E+02  0.91978496919E+02  0.41800000000E+01 0. -1.
         -5    1    1    2    0  502  0.30560696402E+02  0.31226219558E+02 -0.12195721965E+02  0.45554812992E+02  0.41800000000E+01 0.  1.
        -11    1    3    3    0    0 -0.13983097396E+02  0.30994150998E+02 -0.95372239795E+02  0.10125230137E+03  0.00000000000E+00 0. -1.
         11    1    3    3    0    0  0.44369703605E+02 -0.23026812300E+02 -0.36224234235E+02  0.61734105878E+02  0.00000000000E+00 0.  1.
</event>
<event>
 7    1  0.4096326E-006  0.7370414E+02  0.7561462E-02  0.1347932E+00
         -1   -1    0    0    0  501 -0.00000000000E+00  0.00000000000E+00  0.18402365322E+04  0.18402365322E+04  0.00000000000E+00 0.  1.
          1   -1    0    0  501    0  0.00000000000E+00 -0.00000000000E+00 -0.10261091426E+02  0.10261091426E+02  0.00000000000E+00 0. -1.
         23    2    1    2    0    0 -0.36796343176E+02  0.33995278022E+02  0.36942764470E+03  0.38374750509E+03  0.90970946985E+02 0.  0.
          5    1    1    2  502    0  0.30271720224E+02 -0.28263000872E+02  0.13738872567E+03  0.14355594242E+03  0.41800000000E+01 0.  1.
         -5    1    1    2    0  502  0.65246229517E+01 -0.57322771499E+01  0.13231590704E+04  0.13231941761E+04  0.41800000000E+01 0.  1.
        -11    1    3    3    0    0  0.16078066596E+02  0.39826695837E+02  0.24003031694E+03  0.24384261928E+03  0.00000000000E+00 0. -1.
         11    1    3    3    0    0 -0.52874409771E+02 -0.58314178146E+01  0.12939732777E+03  0.13990488582E+03  0.00000000000E+00 0.  1.
</event>
<event>
 7    1  0.4096326E-006  0.1088950E+03  0.7561462E-02  0.1262630E+00
          1   -1    0    0  501    0  0.00000000000E+00  0.00000000000E+00  0.21485132717E+03  0.21485132717E+03  0.00000000000E+00 0. -1.
         -1   -1    0    0    0  501 -0.00000000000E+00 -0.00000000000E+00 -0.58716241370E+02  0.58716241370E+02  0.00000000000E+00 0.  1.
         23    2    1    2    0    0  0.18231246156E+02  0.22943938374E+02  0.77227076268E+02  0.12279127931E+03  0.90856338922E+02 0.  0.
          5    1    1    2  502    0 -0.38254309864E+02 -0.66090116473E+02  0.29234121911E+02  0.81874306119E+02  0.41800000000E+01 0. -1.
         -5    1    1    2    0  502  0.20023063708E+02  0.43146178099E+02  0.49673887624E+02  0.68901983110E+02  0.41800000000E+01 0. -1.
        -11    1    3    3    0    0  0.41951061405E+02  0.44753257084E+02  0.61770270311E+02  0.87053500027E+02  0.00000000000E+00 0.  1.
         11    1    3    3    0    0 -0.23719815249E+02 -0.21809318710E+02  0.15456805957E+02  0.35737779288E+02  0.00000000000E+00 0. -1.
</event>
<event>
 7    1  0.4096326E-006  0.8034203E+02  0.7561462E-02  0.1328084E+00
         -4   -1    0    0    0  501 -0.00000000000E+00  0.00000000000E+00  0.26759153925E+03  0.26759153925E+03  0.00000000000E+00 0.  1.
          4   -1    0    0  501    0  0.00000000000E+00 -0.00000000000E+00 -0.73916690833E+02  0.73916690833E+02  0.00000000000E+00 0. -1.
         23    2    1    2    0    0 -0.11265248589E+02 -0.60100723945E+02 -0.49559931199E+01  0.98944149897E+02  0.77629762891E+02 0.  0.
          5    1    1    2  502    0  0.88667177354E+01  0.42503706148E+02  0.52779667966E+00  0.43622639638E+02  0.41800000000E+01 0. -1.
         -5    1    1    2    0  502  0.23985308532E+01  0.17597017798E+02  0.19810304486E+03  0.19894144055E+03  0.41800000000E+01 0. -1.
        -11    1    3    3    0    0  0.32781494288E+02 -0.15954869524E+02 -0.17013478014E+01  0.36497654906E+02  0.00000000000E+00 0.  1.
         11    1    3    3    0    0 -0.44046742876E+02 -0.44145854421E+02 -0.32546453185E+01  0.62446494992E+02  0.00000000000E+00 0. -1.
</event>
<event>
 7    1  0.4096326E-006  0.1213306E+03  0.7561462E-02  0.1240918E+00
          2   -1    0    0  501    0  0.00000000000E+00  0.00000000000E+00  0.11895385708E+03  0.11895385708E+03  0.00000000000E+00 0. -1.
         -2   -1    0    0    0  501 -0.00000000000E+00 -0.00000000000E+00 -0.14307144313E+03  0.14307144313E+03  0.00000000000E+00 0.  1.
         23    2    1    2    0    0  0.41714793655E+02  0.52835111318E+02  0.14757342276E+02  0.11474949142E+03  0.91749624705E+02 0.  0.
          5    1    1    2  502    0 -0.19593181465E+02 -0.93471886250E+02 -0.25851210354E+02  0.99028499715E+02  0.41800000000E+01 0.  1.
         -5    1    1    2    0  502 -0.22121612190E+02  0.40636774932E+02 -0.13023717974E+02  0.48247309071E+02  0.41800000000E+01 0.  1.
        -11    1    3    3    0    0  0.47776534244E+02  0.35165382939E+00 -0.19693232955E+02  0.51677309421E+02  0.00000000000E+00 0.  1.
         11    1    3    3    0    0 -0.60617405896E+01  0.52483457488E+02  0.34450575231E+02  0.63072182004E+02  0.00000000000E+00 0. -1.
</event>
<event>
 7    1  0.4096326E-006  0.1001606E+03  0.7561462E-02  0.1279959E+00
          2   -1    0    0  501    0  0.00000000000E+00  0.00000000000E+00  0.75110702097E+03  0.75110702097E+03  0.00000000000E+00 0. -1.
         -2   -1    0    0    0  501 -0.00000000000E+00 -0.00000000000E+00 -0.20156427481E+02  0.20156427481E+02  0.00000000000E+00 0.  1.
         23    2    1    2    0    0 -0.11018192859E+02 -0.56819012347E+02  0.36116025512E+03  0.37662104883E+03  0.89760145962E+02 0.  0.
          5    1    1    2  502    0 -0.33203949630E+02  0.20421961530E+01  0.22771840972E+02  0.40530260022E+02  0.41800000000E+01 0.  1.
         -5    1    1    2    0  502  0.44222142489E+02  0.54776816195E+02  0.34701849740E+03  0.35411213960E+03  0.41800000000E+01 0.  1.
        -11    1    3    3    0    0 -0.36140693594E+02 -0.22683319598E+01  0.64753079080E+02  0.74190675382E+02  0.00000000000E+00 0.  1.
         11    1    3    3    0    0  0.25122500735E+02 -0.54550680388E+02  0.29640717604E+03  0.30243037344E+03  0.00000000000E+00 0. -1.
</event>
<event>
 7    1  0.4096326E-006  0.1071936E+03  0.7561462E-02  0.1265857E+00
          1   -1    0    0  501    0  0.00000000000E+00  0.00000000000E+00  0.26765957345E+02  0.26765957345E+02  0.00000000000E+00 0. -1.
         -1   -1    0    0    0  501 -0.00000000000E+00 -0.00000000000E+00 -0.46916770618E+03  0.46916770618E+03  0.00000000000E+00 0.  1.
         23    2    1    2    0    0  0.23313562252E+02 -0.41690509661E+01 -0.18493440409E+03  0.20870778858E+03  0.93793944530E+02 0.  0.
          5    1    1    2  502    0 -0.32445065435E+02 -0.55627109442E+02 -0.15887188030E+03  0.17147829112E+03  0.41800000000E+01 0. -1.
         -5    1    1    2    0  502  0.91315031824E+01  0.59796160408E+02 -0.98595464454E+02  0.11574758382E+03  0.41800000000E+01 0. -1.
        -11    1    3    3    0    0  0.55709171562E+02  0.38661453164E+01 -0.73042846868E+02  0.91944093635E+02  0.00000000000E+00 0.  1.
         11    1    3    3    0    0 -0.32395609309E+02 -0.80351962825E+01 -0.11189155722E+03  0.11676369495E+03  0.00000000000E+00 0. -1.
</event>
<event>
 7    1  0.4096326E-006  0.3643649E+03  0.7561462E-02  0.1056869E+00
          2   -1    0    0  501    0  0.00000000000E+00  0.00000000000E+00  0.48482593048E+03  0.48482593048E+03  0.00000000000E+00 0. -1.
         -2   -1    0    0    0  501 -0.00000000000E+00 -0.00000000000E+00 -0.30421592603E+03  0.30421592603E+03  0.00000000000E+00 0.  1.
         23    2    1    2    0    0 -0.35281161169E+03  0.23677441417E+02  0.19444732730E+03  0.41370795056E+03  0.91147411873E+02 0.  0.
          5    1    1    2  502    0  0.94810083766E+02 -0.62430946234E+02  0.51671867684E+01  0.11371344358E+03  0.41800000000E+01 0.  1.
         -5    1    1    2    0  502  0.25800152792E+03  0.38753504816E+02 -0.19004509615E+02  0.26162046237E+03  0.41800000000E+01 0.  1.
        -11    1    3    3    0    0 -0.11590856272E+03 -0.19045567284E+01  0.11301376642E+03  0.16189667584E+03  0.00000000000E+00 0. -1.
         11    1    3    3    0    0 -0.23690304897E+03  0.25581998146E+02  0.81433560881E+02  0.25181127473E+03  0.00000000000E+00 0.  1.
</event>
<event>
 7    1  0.4096326E-006  0.1658745E+03  0.7561462E-02  0.1182220E+00
          1   -1    0    0  501    0  0.00000000000E+00  0.00000000000E+00  0.23975631276E+03  0.23975631276E+03  0.00000000000E+00 0. -1.
         -1   -1    0    0    0  501 -0.00000000000E+00 -0.00000000000E+00 -0.16031715709E+03  0.16031715709E+03  0.00000000000E+00 0.  1.
         23    2    1    2    0    0  0.15808095681E+03 -0.33618088113E+02  0.50056250285E+02  0.19352967517E+03  0.93959258317E+02 0.  0.
          5    1    1    2  502    0 -0.51415895867E+02 -0.13692016018E+02  0.65343874032E+02  0.84370373497E+02  0.41800000000E+01 0. -1.
         -5    1    1    2    0  502 -0.10666506094E+03  0.47310104131E+02 -0.35960968639E+02  0.12217342119E+03  0.41800000000E+01 0. -1.
        -11    1    3    3    0    0  0.11792098338E+03 -0.25118830083E+02 -0.97840760698E+01  0.12096297819E+03  0.00000000000E+00 0.  1.
         11    1    3    3    0    0  0.40159973426E+02 -0.84992580301E+01  0.59840326354E+02  0.72566696982E+02  0.00000000000E+00 0. -1.
</event>
<event>
 6    1  0.4096326E-006  0.8114198E+02  0.7561462E-02  0.1325842E+00
          2   -1    0    0  501    0  0.00000000000E+00  0.00000000000E+00  0.58586497896E+02  0.58586497896E+02  0.00000000000E+00 0. -1.
         -2   -1    0    0    0  501 -0.00000000000E+00 -0.00000000000E+00 -0.14755152797E+03  0.14755152797E+03  0.00000000000E+00 0.  1.
          5    1    1    2  502    0 -0.15376557670E+01  0.68864527060E+02 -0.36921097131E+01  0.69107101998E+02  0.41800000000E+01 0. -1.
         -5    1    1    2    0  502  0.95265177347E+01 -0.58280595878E+02 -0.73012738806E+02  0.93998483094E+02  0.41800000000E+01 0.  1.
        -11    1    1    2    0    0 -0.18296858938E+02  0.12990130747E+01  0.56513660716E+01  0.19193759935E+02  0.00000000000E+00 0.  1.
         11    1    1    2    0    0  0.10307996971E+02 -0.11882944257E+02 -0.17911547628E+02  0.23838680840E+02  0.00000000000E+00 0. -1.
</event>
<event>
 7    1  0.4096326E-006  0.1213046E+03  0.7561462E-02  0.1240960E+00
         -1   -1    0    0    0  501 -0.00000000000E+00  0.00000000000E+00  0.16888693574E+03  0.16888693574E+03  0.00000000000E+00 0.  1.
          1   -1    0    0  501    0  0.00000000000E+00 -0.00000000000E+00 -0.13468884716E+03  0.13468884716E+03  0.00000000000E+00 0. -1.
         23    2    1    2    0    0 -0.42208169834E+02 -0.72172831823E+02 -0.47197865178E+02  0.13251186854E+03  0.91330770135E+02 0.  0.
          5    1    1    2  502    0 -0.86783069452E+01  0.93868932872E+02  0.43682025385E+02  0.10398212015E+03  0.41800000000E+01 0. -1.
         -5    1    1    2    0  502  0.50886476779E+02 -0.21696101049E+02  0.37713928370E+02  0.67081794198E+02  0.41800000000E+01 0. -1.
        -11    1    3    3    0    0 -0.30176743395E+02 -0.13820318721E+02  0.23043018537E+02  0.40405664885E+02  0.00000000000E+00 0.  1.
         11    1    3    3    0    0 -0.12031426439E+02 -0.58352513102E+02 -0.70240883715E+02  0.92106203659E+02  0.00000000000E+00 0. -1.
</event>
<event>
 7    1  0.4096326E-006  0.1448874E+03  0.7561462E-02  0.1206900E+00
          2   -1    0    0  501    0  0.00000000000E+00  0.00000000000E+00  0.60552056621E+03  0.60552056621E+03  0.00000000000E+00 0.  1.
         -2   -1    0    0    0  501 -0.00000000000E+00 -0.00000000000E+00 -0.51406019143E+02  0.51406019143E+02  0.00000000000E+00 0. -1.
         23    2    1    2    0    0 -0.13415786074E+03  0.23226406864E+02  0.30808103655E+03  0.34916398893E+03  0.91998741865E+02 0.  0.
          5    1    1    2  502    0  0.86221652698E+02 -0.11333216205E+02  0.39931487585E+02  0.95784191203E+02  0.41800000000E+01 0.  1.
         -5    1    1    2    0  502  0.47936208043E+02 -0.11893190658E+02  0.20610202293E+03  0.21197840522E+03  0.41800000000E+01 0.  1.
        -11    1    3    3    0    0 -0.11106328255E+03  0.46456879951E+02  0.17706589003E+03  0.21411591215E+03  0.00000000000E+00 0. -1.
         11    1    3    3    0    0 -0.23094578195E+02 -0.23230473087E+02  0.13101514652E+03  0.13504807677E+03  0.00000000000E+00 0.  1.
</event>
<event>
 7    1  0.4096326E-006  0.1807558E+03  0.7561462E-02  0.1167074E+00
          2   -1    0    0  501    0  0.00000000000E+00  0.00000000000E+00  0.12971712070E+04  0.12971712070E+04  0.00000000000E+00 0. -1.
         -2   -1    0    0    0  501 -0.00000000000E+00 -0.00000000000E+00 -0.27847061716E+02  0.27847061716E+02  0.00000000000E+00 0.  1.
         23    2    1    2    0    0  0.19900725635E+02 -0.14423443982E+03  0.79581303753E+03  0.81407828156E+03  0.90583912971E+02 0.  0.
          5    1    1    2  502    0 -0.20749795357E+02  0.16628452432E+03  0.43733516291E+03  0.46835949244E+03  0.41800000000E+01 0. -1.
         -5    1    1    2    0  502  0.84906972199E+00 -0.22050084502E+02  0.36175944873E+02  0.42580494753E+02  0.41800000000E+01 0. -1.
        -11    1    3    3    0    0 -0.34866111170E+02 -0.78309723831E+02  0.38787305675E+03  0.39723238376E+03  0.00000000000E+00 0.  1.
         11    1    3    3    0    0  0.54766836805E+02 -0.65924715991E+02  0.40793998078E+03  0.41684589780E+03  0.00000000000E+00 0. -1.
</event>
<event>
 7    1  0.4096326E-006  0.1720855E+03  0.7561462E-02  0.1175690E+00
          1   -1    0    0  501    0  0.00000000000E+00  0.00000000000E+00  0.50344869192E+03  0.50344869192E+03  0.00000000000E+00 0. -1.
         -1   -1    0    0    0  501 -0.00000000000E+00 -0.00000000000E+00 -0.79633717719E+02  0.79633717719E+02  0.00000000000E+00 0.  1.
         23    2    1    2    0    0  0.14614236740E+03 -0.19311858668E+02  0.31750210297E+03  0.36243868006E+03  0.93934402519E+02 0.  0.
          5    1    1    2  502    0 -0.93880469172E+02  0.64168077258E+02  0.29830336049E+02  0.11763675437E+03  0.41800000000E+01 0.  1.
         -5    1    1    2    0  502 -0.52261898232E+02 -0.44856218590E+02  0.76482535176E+02  0.10300697520E+03  0.41800000000E+01 0.  1.
        -11    1    3    3    0    0  0.23346851702E+02  0.21742955819E+02  0.19166260198E+02  0.37217968001E+02  0.00000000000E+00 0.  1.
         11    1    3    3    0    0  0.12279551570E+03 -0.41054814486E+02  0.29833584278E+03  0.32522071206E+03  0.00000000000E+00 0. -1.
</event>
<event>
 7    1  0.4096326E-006  0.1972692E+03  0.7561462E-02  0.1152064E+00
         -2   -1    0    0    0  501 -0.00000000000E+00  0.00000000000E+00  0.25250245958E+03  0.25250245958E+03  0.00000000000E+00 0.  1.
          2   -1    0    0  501    0  0.00000000000E+00 -0.00000000000E+00 -0.17127591681E+03  0.17127591681E+03  0.00000000000E+00 0. -1.
         23    2    1    2    0    0 -0.12808628004E+03  0.12222444470E+03  0.29784418950E+02  0.20097951931E+03  0.90336844938E+02 0.  0.
          5    1    1    2  502    0 -0.86275234551E-02 -0.79990870737E+02  0.56523862739E+01  0.80299198914E+02  0.41800000000E+01 0. -1.
         -5    1    1    2    0  502  0.12809490757E+03 -0.42233573961E+02  0.45789737546E+02  0.14249965817E+03  0.41800000000E+01 0. -1.
        -11    1    3    3    0    0 -0.42163119281E+02  0.60320878861E+02 -0.29877917678E+02  0.79429383851E+02  0.00000000000E+00 0. -1.
         11    1    3    3    0    0 -0.85923160761E+02  0.61903565837E+02  0.59662336628E+02  0.12155013546E+03  0.00000000000E+00 0.  1.
</event>
<event>
 7    1  0.4096326E-006  0.7787765E+02  0.7561462E-02  0.1335185E+00
          1   -1    0    0  501    0  0.00000000000E+00  0.00000000000E+00  0.43494260451E+02  0.43494260451E+02  0.00000000000E+00 0. -1.
         -1   -1    0    0    0  501 -0.00000000000E+00 -0.00000000000E+00 -0.50457777370E+03  0.50457777370E+03  0.00000000000E+00 0.  1.
         23    2    1    2    0    0 -0.47290824931E+02  0.29838604153E+02 -0.42808802678E+02  0.10792613439E+03  0.81784426868E+02 0.  0.
          5    1    1    2  502    0  0.47610220911E+02 -0.19936547271E+02 -0.50893297765E+02  0.72607156739E+02  0.41800000000E+01 0.  1.
         -5    1    1    2    0  502 -0.31939598064E+00 -0.99020568820E+01 -0.36738141281E+03  0.36753874302E+03  0.41800000000E+01 0.  1.
        -11    1    3    3    0    0 -0.37705601172E+02 -0.19850976848E+02 -0.37996672726E+02  0.57092212952E+02  0.00000000000E+00 0. -1.
         11    1    3    3    0    0 -0.95852237586E+01  0.49689581001E+02 -0.48121299529E+01  0.50833921442E+02  0.00000000000E+00 0.  1.
</event>
<event>
 7    1  0.4096326E-006  0.7019940E+02  0.7561462E-02  0.1359416E+00
          1   -1    0    0  501    0  0.00000000000E+00  0.00000000000E+00  0.10529611691E+03  0.10529611691E+03  0.00000000000E+00 0. -1.
         -1   -1    0    0    0  501 -0.00000000000E+00 -0.00000000000E+00 -0.15576697035E+03  0.15576697035E+03  0.00000000000E+00 0.  1.
         23    2    1    2    0    0  0.57546499498E+02 -0.21951669766E+02  0.13804466395E+01  0.11229783723E+03  0.93890485164E+02 0.  0.
          5    1    1    2  502    0 -0.59024440786E+02  0.31611174139E+02 -0.88245558729E+02  0.11085080954E+03  0.41800000000E+01 0. -1.
         -5    1    1    2    0  502  0.14779412882E+01 -0.96595043729E+01  0.36394258650E+02  0.37914440492E+02  0.41800000000E+01 0. -1.
        -11    1    3    3    0    0  0.38548177641E+02 -0.86926495768E+01  0.46835766588E+02  0.61278978353E+02  0.00000000000E+00 0. -1.
         11    1    3    3    0    0  0.18998321857E+02 -0.13259020189E+02 -0.45455319949E+02  0.51018858880E+02  0.00000000000E+00 0.  1.
</event>
<event>
 7    1  0.1001570E-005  0.3861230E+03  0.7561462E-02  0.1048694E+00
         -1   -1    0    0    0  501 -0.00000000000E+00  0.00000000000E+00  0.14051711645E+03  0.14051711645E+03  0.00000000000E+00 0.  1.
          1   -1    0    0  501    0  0.00000000000E+00 -0.00000000000E+00 -0.11185639238E+04  0.11185639238E+04  0.00000000000E+00 0. -1.
         23    2    1    2    0    0  0.30117613219E+03  0.21900935171E+03 -0.61625687949E+03  0.72502854146E+03  0.84980501826E+02 0.  0.
          5    1    1    2  502    0 -0.27135076961E+03 -0.13609603706E+03 -0.26368833271E+03  0.40212234541E+03  0.41800000000E+01 0. -1.
         -5    1    1    2    0  502 -0.29825362582E+02 -0.82913314643E+02 -0.98101595117E+02  0.13193015335E+03  0.41800000000E+01 0. -1.
        -11    1    3    3    0    0  0.11386008070E+03  0.38216294320E+02 -0.16535611567E+03  0.20437036996E+03  0.00000000000E+00 0. -1.
         11    1    3    3    0    0  0.18731605149E+03  0.18079305739E+03 -0.45090076381E+03  0.52065817150E+03  0.00000000000E+00 0.  1.
</event>
<event>
 7    1  0.4096326E-006  0.1856934E+03  0.7561462E-02  0.1162404E+00
         -1   -1    0    0    0  501 -0.00000000000E+00  0.00000000000E+00  0.85156266272E+02  0.85156266272E+02  0.00000000000E+00 0.  1.
          1   -1    0    0  501    0  0.00000000000E+00 -0.00000000000E+00 -0.55213729983E+03  0.55213729983E+03  0.00000000000E+00 0. -1.
         23    2    1    2    0    0 -0.15633101896E+02 -0.16866691645E+03 -0.32841327239E+03  0.38111380959E+03  0.93271302103E+02 0.  0.
          5    1    1    2  502    0 -0.22265913521E+02  0.41788962896E+02 -0.11115170775E+03  0.12088946546E+03  0.41800000000E+01 0. -1.
         -5    1    1    2    0  502  0.37899015417E+02  0.12687795356E+03 -0.27416053427E+02  0.13529029106E+03  0.41800000000E+01 0.  1.
        -11    1    3    3    0    0  0.22298770393E+02 -0.14490057888E+03 -0.27304725525E+03  0.30991646701E+03  0.00000000000E+00 0. -1.
         11    1    3    3    0    0 -0.37931872289E+02 -0.23766337572E+02 -0.55366017135E+02  0.71197342579E+02  0.00000000000E+00 0.  1.
</event>
<event>
 7    1  0.4096326E-006  0.9939678E+02  0.7561462E-02  0.1281570E+00
         -1   -1    0    0    0  501 -0.00000000000E+00  0.00000000000E+00  0.14724006166E+03  0.14724006166E+03  0.00000000000E+00 0.  1.
          1   -1    0    0  501    0  0.00000000000E+00 -0.00000000000E+00 -0.22909741147E+03  0.22909741147E+03  0.00000000000E+00 0. -1.
         23    2    1    2    0    0 -0.60628513938E+02 -0.22020882227E+02 -0.16670903190E+03  0.20032952861E+03  0.90439387213E+02 0.  0.
          5    1    1    2  502    0  0.65578653352E+02 -0.13192158222E+02 -0.16070688692E+02  0.68922654106E+02  0.41800000000E+01 0. -1.
         -5    1    1    2    0  502 -0.49501394137E+01  0.35213040449E+02  0.10092237078E+03  0.10708529041E+03  0.41800000000E+01 0.  1.
        -11    1    3    3    0    0 -0.76458356015E+02 -0.12441723517E+02 -0.16433233026E+03  0.18167496100E+03  0.00000000000E+00 0.  1.
         11    1    3    3    0    0  0.15829842077E+02 -0.95791587104E+01 -0.23767016429E+01  0.18654567604E+02  0.00000000000E+00 0. -1.
</event>
<event>
 7    1  0.4421464E-006  0.2384351E+03  0.7561462E-02  0.1120840E+00
          1   -1    0    0  501    0  0.00000000000E+00  0.00000000000E+00  0.29915758374E+03  0.29915758374E+03  0.00000000000E+00 0. -1.
         -1   -1    0    0    0  501 -0.00000000000E+00 -0.00000000000E+00 -0.22304851199E+03  0.22304851199E+03  0.00000000000E+00 0.  1.
         23    2    1    2    0    0  0.17111211704E+03  0.13171796767E+03  0.13004849654E+03  0.26689089058E+03  0.87687835040E+02 0.  0.
          5    1    1    2  502    0 -0.11149607744E+03 -0.14969530503E+03 -0.33786437747E+02  0.18973417037E+03  0.41800000000E+01 0.  1.
         -5    1    1    2    0  502 -0.59616039602E+02  0.17977337355E+02 -0.20152987038E+02  0.65581034780E+02  0.41800000000E+01 0.  1.
        -11    1    3    3    0    0  0.15310428198E+03  0.79478206769E+02  0.12145165508E+03  0.21096969222E+03  0.00000000000E+00 0. -1.
         11    1    3    3    0    0  0.18007835058E+02  0.52239760904E+02  0.85968414600E+01  0.55921198359E+02  0.00000000000E+00 0.  1.
</event>
<event>
 7    1  0.4096326E-006  0.1133801E+03  0.7561462E-02  0.1254435E+00
          1   -1    0    0  501    0  0.00000000000E+00  0.00000000000E+00  0.14101999021E+03  0.14101999021E+03  0.00000000000E+00 0. -1.
         -1   -1    0    0    0  501 -0.00000000000E+00 -0.00000000000E+00 -0.10325265214E+03  0.10325265214E+03  0.00000000000E+00 0.  1.
         23    2    1    2    0    0  0.44090900490E+02 -0.78669792899E+01  0.56200899055E+02  0.11013379960E+03  0.83456670740E+02 0.  0.
          5    1    1    2  502    0 -0.58974968541E+02 -0.46934030687E+02 -0.15893593490E+02  0.77142263806E+02  0.41800000000E+01 0.  1.
         -5    1    1    2    0  502  0.14884068052E+02  0.54801009977E+02 -0.25399675009E+01  0.56996578943E+02  0.41800000000E+01 0.  1.
        -11    1    3    3    0    0  0.21363055862E+02  0.37745542120E+02  0.30781693570E+02  0.53184760643E+02  0.00000000000E+00 0.  1.
         11    1    3    3    0    0  0.22727844628E+02 -0.45612521410E+02  0.25419205485E+02  0.56949038958E+02  0.00000000000E+00 0. -1.
</event>
<event>
 7    1  0.4096326E-006  0.1575913E+03  0.7561462E-02  0.1191443E+00
          1   -1    0    0  501    0  0.00000000000E+00  0.00000000000E+00  0.23737717836E+03  0.23737717836E+03  0.00000000000E+00 0. -1.
         -1   -1    0    0    0  501 -0.00000000000E+00 -0.00000000000E+00 -0.10561442363E+03  0.10561442363E+03  0.00000000000E+00 0.  1.
         23    2    1    2    0    0 -0.76492519121E+02 -0.86751044358E+02  0.54630736722E+02  0.15597700052E+03  0.89260619069E+02 0.  0.
          5    1    1    2  502    0 -0.34126392189E+02  0.27702640969E+02  0.27954291043E+02  0.52258604538E+02  0.41800000000E+01 0. -1.
         -5    1    1    2    0  502  0.11061891131E+03  0.59048403389E+02  0.49177726967E+02  0.13475599694E+03  0.41800000000E+01 0. -1.
        -11    1    3    3    0    0  0.20155142504E+02 -0.12848890223E+02  0.14034542907E+02  0.27718083338E+02  0.00000000000E+00 0.  1.
         11    1    3    3    0    0 -0.96647661625E+02 -0.73902154135E+02  0.40596193815E+02  0.12825891718E+03  0.00000000000E+00 0. -1.
</event>
<event>
 7    1  0.4096326E-006  0.9222598E+02  0.7561462E-02  0.1297549E+00
          1   -1    0    0  501    0  0.00000000000E+00  0.00000000000E+00  0.54806143060E+02  0.54806143060E+02  0.00000000000E+00 0. -1.
         -1   -1    0    0    0  501 -0.00000000000E+00 -0.00000000000E+00 -0.32501466329E+03  0.32501466329E+03  0.00000000000E+00 0.  1.
         23    2    1    2    0    0  0.57600766013E+02 -0.39279745685E+02 -0.78435430108E+02  0.14047726337E+03  0.93386284658E+02 0.  0.
          5    1    1    2  502    0 -0.24917661338E+02  0.31060661843E+02  0.43751186973E+01  0.40277395947E+02  0.41800000000E+01 0. -1.
         -5    1    1    2    0  502 -0.32683104675E+02  0.82190838422E+01 -0.19614820882E+03  0.19906614703E+03  0.41800000000E+01 0. -1.
        -11    1    3    3    0    0  0.22452443364E+01 -0.53302597063E+02 -0.15629239844E+02  0.55592095786E+02  0.00000000000E+00 0. -1.
         11    1    3    3    0    0  0.55355521676E+02  0.14022851378E+02 -0.62806190264E+02  0.84885167587E+02  0.00000000000E+00 0.  1.
</event>
<event>
 7    1  0.4096326E-006  0.1106870E+03  0.7561462E-02  0.1259303E+00
          2   -1    0    0  501    0  0.00000000000E+00  0.00000000000E+00  0.20507770763E+03  0.20507770763E+03  0.00000000000E+00 0. -1.
         -2   -1    0    0    0  501 -0.00000000000E+00 -0.00000000000E+00 -0.88414881390E+02  0.88414881390E+02  0.00000000000E+00 0.  1.
         23    2    1    2    0    0  0.15267252294E+01 -0.76910011716E+02  0.51287455591E+02  0.13274710719E+03  0.95257076243E+02 0.  0.
          5    1    1    2  502    0 -0.50929030500E+01  0.10043418670E+03  0.83312003790E+02  0.13065728412E+03  0.41800000000E+01 0.  1.
         -5    1    1    2    0  502  0.35661778206E+01 -0.23524174982E+02 -0.17936633139E+02  0.30088197706E+02  0.41800000000E+01 0.  1.
        -11    1    3    3    0    0  0.49610786485E+01  0.91657762790E+01 -0.18930746031E+02  0.21610111093E+02  0.00000000000E+00 0.  1.
         11    1    3    3    0    0 -0.34343534192E+01 -0.86075787995E+02  0.70218201622E+02  0.11113699610E+03  0.00000000000E+00 0. -1.
</event>
<event>
 7    1  0.4096326E-006  0.2121801E+03  0.7561462E-02  0.1139851E+00
         -3   -1    0    0    0  501 -0.00000000000E+00  0.00000000000E+00  0.35338964430E+03  0.35338964430E+03  0.00000000000E+00 0.  1.
          3   -1    0    0  501    0  0.00000000000E+00 -0.00000000000E+00 -0.13451600999E+03  0.13451600999E+03  0.00000000000E+00 0. -1.
         23    2    1    2    0    0 -0.10079646212E+03 -0.15543566497E+03  0.14315959559E+03  0.25189503528E+03  0.92931513872E+02 0.  0.
          5    1    1    2  502    0 -0.10165458317E+01  0.11194424979E+03  0.28619981685E+02  0.11562492888E+03  0.41800000000E+01 0. -1.
         -5    1    1    2    0  502  0.10181300795E+03  0.43491415183E+02  0.47094057032E+02  0.12038569014E+03  0.41800000000E+01 0. -1.
        -11    1    3    3    0    0 -0.11931058603E+02 -0.90986389707E+02  0.36262108825E+02  0.98670227565E+02  0.00000000000E+00 0.  1.
         11    1    3    3    0    0 -0.88865403512E+02 -0.64449275264E+02  0.10689748676E+03  0.15322480772E+03  0.00000000000E+00 0. -1.
</event>
<event>
 7    1  0.4096326E-006  0.2345720E+03  0.7561462E-02  0.1123463E+00
         -2   -1    0    0    0  501 -0.00000000000E+00  0.00000000000E+00  0.55961781186E+02  0.55961781186E+02  0.00000000000E+00 0.  1.
          2   -1    0    0  501    0  0.00000000000E+00 -0.00000000000E+00 -0.14026340330E+04  0.14026340330E+04  0.00000000000E+00 0. -1.
         23    2    1    2    0    0  0.95629356822E+02 -0.20013309253E+03 -0.10005790764E+04  0.10289140801E+04  0.91145309907E+02 0.  0.
          5    1    1    2  502    0 -0.82936685716E+02  0.66866484467E+02 -0.85426346993E+02  0.13661900945E+03  0.41800000000E+01 0. -1.
         -5    1    1    2    0  502 -0.12692671106E+02  0.13326660806E+03 -0.26066682844E+03  0.29306272463E+03  0.41800000000E+01 0. -1.
        -11    1    3    3    0    0  0.78975210693E+01 -0.76987939270E+02 -0.20559105958E+03  0.21967520891E+03  0.00000000000E+00 0.  1.
         11    1    3    3    0    0  0.87731835753E+02 -0.12314515326E+03 -0.79498801680E+03  0.80923887119E+03  0.00000000000E+00 0. -1.
</event>
<event>
 7    1  0.4096326E-006  0.1396651E+03  0.7561462E-02  0.1213780E+00
          2   -1    0    0  501    0  0.00000000000E+00  0.00000000000E+00  0.29828303670E+03  0.29828303670E+03  0.00000000000E+00 0. -1.
         -2   -1    0    0    0  501 -0.00000000000E+00 -0.00000000000E+00 -0.91004257737E+02  0.91004257737E+02  0.00000000000E+00 0.  1.
         23    2    1    2    0    0 -0.96404509218E+02 -0.59287712700E+02  0.15907700366E+03  0.21384080373E+03  0.87255566987E+02 0.  0.
          5    1    1    2  502    0  0.57563811024E+02 -0.25218456106E+02 -0.12626397125E+02  0.64237537097E+02  0.41800000000E+01 0. -1.
         -5    1    1    2    0  502  0.38840698193E+02  0.84506168806E+02  0.60828172424E+02  0.11120895361E+03  0.41800000000E+01 0. -1.
        -11    1    3    3    0    0 -0.61044127508E+02 -0.62962238011E+02  0.15495789378E+03  0.17805217708E+03  0.00000000000E+00 0. -1.
         11    1    3    3    0    0 -0.35360381710E+02  0.36745253110E+01  0.41191098794E+01  0.35788626645E+02  0.00000000000E+00 0.  1.
</event>
<event>
 7    1  0.4096326E-006  0.1044763E+03  0.7561462E-02  0.1271155E+00
          2   -1    0    0  501    0  0.00000000000E+00  0.00000000000E+00  0.68300770467E+03  0.68300770467E+03  0.00000000000E+00 0. -1.
         -2   -1    0    0    0  501 -0.00000000000E+00 -0.00000000000E+00 -0.17639001367E+02  0.17639001367E+02  0.00000000000E+00 0.  1.
         23    2    1    2    0    0 -0.20563133891E+01 -0.28701885144E+02  0.35975031062E+03  0.37240863436E+03  0.91868810377E+02 0.  0.
          5    1    1    2  502    0  0.38870844077E+02 -0.30341277527E+02  0.11168426492E+03  0.12215720639E+03  0.41800000000E+01 0. -1.
         -5    1    1    2    0  502 -0.36814530687E+02  0.59043162670E+02  0.19393412776E+03  0.20608086529E+03  0.41800000000E+01 0.  1.
        -11    1    3    3    0    0  0.17512644644E+02  0.26177642402E+02  0.68583941473E+02  0.75469985505E+02  0.00000000000E+00 0.  1.
         11    1    3    3    0    0 -0.19568958033E+02 -0.54879527546E+02  0.29116636915E+03  0.29693864886E+03  0.00000000000E+00 0. -1.
</event>
<event>
 7    1  0.4096326E-006  0.1494165E+03  0.7561462E-02  0.1201192E+00
         -1   -1    0    0    0  501 -0.00000000000E+00  0.00000000000E+00  0.48749179712E+02  0.48749179712E+02  0.00000000000E+00 0.  1.
          1   -1    0    0  501    0  0.00000000000E+00 -0.00000000000E+00 -0.60099479841E+03  0.60099479841E+03  0.00000000000E+00 0. -1.
         23    2    1    2    0    0  0.10527228248E+03 -0.62754221499E+02 -0.36593208832E+03  0.39404762357E+03  0.79667374753E+02 0.  0.
          5    1    1    2  502    0 -0.16516593284E+02  0.71875545960E+02 -0.13170366849E+03  0.15100404185E+03  0.41800000000E+01 0. -1.
         -5    1    1    2    0  502 -0.88755689201E+02 -0.91213244607E+01 -0.54609861896E+02  0.10469231272E+03  0.41800000000E+01 0. -1.
        -11    1    3    3    0    0  0.17390949984E+02 -0.41838164706E+02 -0.20052269904E+03  0.20557779549E+03  0.00000000000E+00 0. -1.
         11    1    3    3    0    0  0.87881332501E+02 -0.20916056794E+02 -0.16540938928E+03  0.18846982808E+03  0.00000000000E+00 0.  1.
</event>
<event>
 7    1  0.4096326E-006  0.1062664E+03  0.7561462E-02  0.1267644E+00
         -2   -1    0    0    0  501 -0.00000000000E+00  0.00000000000E+00  0.18724989872E+02  0.18724989872E+02  0.00000000000E+00 0.  1.
          2   -1    0    0  501    0  0.00000000000E+00 -0.00000000000E+00 -0.66585305577E+03  0.66585305577E+03  0.00000000000E+00 0. -1.
         23    2    1    2    0    0 -0.28808363713E+02 -0.19621933396E+02 -0.25530707018E+03  0.27179496769E+03  0.86463068946E+02 0.  0.
          5    1    1    2  502    0 -0.20952996745E+02  0.57985420116E+02 -0.13692974064E+03  0.15022837046E+03  0.41800000000E+01 0.  1.
         -5    1    1    2    0  502  0.49761360458E+02 -0.38363486721E+02 -0.25489125508E+03  0.26255470749E+03  0.41800000000E+01 0.  1.
        -11    1    3    3    0    0 -0.48913459916E+01  0.31207988166E+02 -0.14016049909E+03  0.14367612639E+03  0.00000000000E+00 0. -1.
         11    1    3    3    0    0 -0.23917017722E+02 -0.50829921562E+02 -0.11514657109E+03  0.12811884130E+03  0.00000000000E+00 0.  1.
</event>
<event>
 7    1  0.4096326E-006  0.9868917E+02  0.7561462E-02  0.1283077E+00
          1   -1    0    0  501    0  0.00000000000E+00  0.00000000000E+00  0.50455026057E+03  0.50455026057E+03  0.00000000000E+00 0. -1.
         -1   -1    0    0    0  501 -0.00000000000E+00 -0.00000000000E+00 -0.32006801864E+02  0.32006801864E+02  0.00000000000E+00 0.  1.
         23    2    1    2    0    0  0.36047097439E+02 -0.38425185238E+02  0.29298523543E+03  0.31147006767E+03  0.91637147369E+02 0.  0.
          5    1    1    2  502    0 -0.40217252597E+02  0.60265368295E+02  0.38358961403E+02  0.82086687972E+02  0.41800000000E+01 0. -1.
         -5    1    1    2    0  502  0.41701551578E+01 -0.21840183057E+02  0.14119926187E+03  0.14300030679E+03  0.41800000000E+01 0. -1.
        -11    1    3    3    0    0  0.53081133821E+02  0.71185073961E+01  0.11327467360E+03  0.12529737265E+03  0.00000000000E+00 0.  1.
         11    1    3    3    0    0 -0.17034036382E+02 -0.45543692634E+02  0.17971056183E+03  0.18617269501E+03  0.00000000000E+00 0. -1.
</event>
<event>
 7    1  0.4096326E-006  0.9265795E+02  0.7561462E-02  0.1296540E+00
         -2   -1    0    0    0  501 -0.00000000000E+00  0.00000000000E+00  0.45652670437E+02  0.45652670437E+02  0.00000000000E+00 0.  1.
          2   -1    0    0  501    0  0.00000000000E+00 -0.00000000000E+00 -0.29862402243E+03  0.29862402243E+03  0.00000000000E+00 0. -1.
         23    2    1    2    0    0  0.81224064253E+01 -0.20039363034E+02 -0.16555886834E+03  0.19014778393E+03  0.90988412943E+02 0.  0.
          5    1    1    2  502    0 -0.18273756389E+01  0.71051172542E+02 -0.69614821046E+02  0.99575620162E+02  0.41800000000E+01 0.  1.
         -5    1    1    2    0  502 -0.62950307865E+01 -0.51011809508E+02 -0.17797662604E+02  0.54553288774E+02  0.41800000000E+01 0.  1.
        -11    1    3    3    0    0  0.33652859926E+02 -0.98890974732E+01 -0.15772562244E+03  0.16157871520E+03  0.00000000000E+00 0. -1.
         11    1    3    3    0    0 -0.25530453501E+02 -0.10150265561E+02 -0.78332458999E+01  0.28569068732E+02  0.00000000000E+00 0.  1.
</event>
<event>
 7    1  0.4096326E-006  0.1179576E+03  0.7561462E-02  0.1246505E+00
         -2   -1    0    0    0  501 -0.00000000000E+00  0.00000000000E+00  0.11324453180E+03  0.11324453180E+03  0.00000000000E+00 0.  1.
          2   -1    0    0  501    0  0.00000000000E+00 -0.00000000000E+00 -0.17528422475E+03  0.17528422475E+03  0.00000000000E+00 0. -1.
         23    2    1    2    0    0 -0.73870744943E+02  0.34984125588E+02 -0.70525967154E+02  0.13886108707E+03  0.87336781813E+02 0.  0.
          5    1    1    2  502    0  0.80992254277E+02 -0.63375211859E+02 -0.24055792974E+02  0.10569917836E+03  0.41800000000E+01 0. -1.
         -5    1    1    2    0  502 -0.71215093340E+01  0.28391086272E+02  0.32542067184E+02  0.43968491122E+02  0.41800000000E+01 0. -1.
        -11    1    3    3    0    0  0.65168145669E+01  0.20794816208E+02  0.10195651182E+02  0.24059188603E+02  0.00000000000E+00 0.  1.
         11    1    3    3    0    0 -0.80387559510E+02  0.14189309380E+02 -0.80721618336E+02  0.11480189847E+03  0.00000000000E+00 0. -1.
</event>
<event>
 7    1  0.4096326E-006  0.7968163E+02  0.7561462E-02  0.1329957E+00
          3   -1    0    0  501    0  0.00000000000E+00  0.00000000000E+00  0.28652274932E+03  0.28652274932E+03  0.00000000000E+00 0. -1.
         -3   -1    0    0    0  501 -0.00000000000E+00 -0.00000000000E+00 -0.41337966128E+02  0.41337966128E+02  0.00000000000E+00 0.  1.
         23    2    1    2    0    0  0.14570287813E+02  0.69488384612E+01  0.10013395480E+03  0.13561936336E+03  0.90029012939E+02 0.  0.
          5    1    1    2  502    0 -0.58756810438E+02 -0.30597496479E+02  0.11735956926E+03  0.13483067329E+03  0.41800000000E+01 0. -1.
         -5    1    1    2    0  502  0.44186522625E+02  0.23648658018E+02  0.27691259134E+02  0.57410678799E+02  0.41800000000E+01 0. -1.
        -11    1    3    3    0    0 -0.73009562668E+01 -0.11807181036E+02 -0.12912460269E+02  0.18959037861E+02  0.00000000000E+00 0.  1.
         11    1    3    3    0    0  0.21871244080E+02  0.18756019497E+02  0.11304641507E+03  0.11666032550E+03  0.00000000000E+00 0. -1.
</event>
<event>
 7    1  0.4096326E-006  0.1191489E+03  0.7561462E-02  0.1244508E+00
         -2   -1    0    0    0  501 -0.00000000000E+00  0.00000000000E+00  0.94865222085E+02  0.94865222085E+02  0.00000000000E+00 0.  1.
          2   -1    0    0  501    0  0.00000000000E+00 -0.00000000000E+00 -0.18643876949E+03  0.18643876949E+03  0.00000000000E+00 0. -1.
         23    2    1    2    0    0  0.64714989137E+02  0.36314642632E+02 -0.52047785902E+02  0.13055025946E+03  0.93955389091E+02 0.  0.
          5    1    1    2  502    0 -0.55813677529E+02 -0.71422149529E+02  0.77295082402E+01  0.91068697917E+02  0.41800000000E+01 0. -1.
         -5    1    1    2    0  502 -0.89013116081E+01  0.35107506898E+02 -0.47255269746E+02  0.59685034202E+02  0.41800000000E+01 0. -1.
        -11    1    3    3    0    0 -0.20129176343E+02  0.78822212639E+01  0.77080769452E+01  0.22950546889E+02  0.00000000000E+00 0.  1.
         11    1    3    3    0    0  0.84844165479E+02  0.28432421368E+02 -0.59755862847E+02  0.10759971257E+03  0.00000000000E+00 0. -1.
</event>
<event>
 7    1  0.4096326E-006  0.1348783E+03  0.7561462E-02  0.1220392E+00
          3   -1    0    0  501    0  0.00000000000E+00  0.00000000000E+00  0.49862787262E+03  0.49862787262E+03  0.00000000000E+00 0. -1.
         -3   -1    0    0    0  501 -0.00000000000E+00 -0.00000000000E+00 -0.51455066566E+02  0.51455066566E+02  0.00000000000E+00 0.  1.
         23    2    1    2    0    0  0.10582495131E+03 -0.39648132046E+02  0.20783429070E+03  0.25733525037E+03  0.10126916609E+03 0.  0.
          5    1    1    2  502    0 -0.98648905987E+02 -0.16392762691E+02  0.96280099542E+02  0.13888001760E+03  0.41800000000E+01 0. -1.
         -5    1    1    2    0  502 -0.71760453190E+01  0.56040894737E+02  0.14305841581E+03  0.15386767121E+03  0.41800000000E+01 0. -1.
        -11    1    3    3    0    0  0.44368955245E+02 -0.15992702543E+02  0.91766466472E+01  0.48047700963E+02  0.00000000000E+00 0.  1.
         11    1    3    3    0    0  0.61455996061E+02 -0.23655429503E+02  0.19865764405E+03  0.20928754941E+03  0.00000000000E+00 0. -1.
</event>
<event>
 7    1  0.4096326E-006  0.8691071E+02  0.7561462E-02  0.1310510E+00
         -2   -1    0    0    0  501 -0.00000000000E+00  0.00000000000E+00  0.10525818148E+03  0.10525818148E+03  0.00000000000E+00 0.  1.
          2   -1    0    0  501    0  0.00000000000E+00 -0.00000000000E+00 -0.16846660553E+03  0.16846660553E+03  0.00000000000E+00 0. -1.
         23    2    1    2    0    0 -0.46719086735E+02 -0.18995139963E+01 -0.87046225032E+02  0.13808910301E+03  0.96463847424E+02 0.  0.
          5    1    1    2  502    0 -0.39384623481E+02 -0.59374899509E+01 -0.12211015474E+02  0.41868647609E+02  0.41800000000E+01 0.  1.
         -5    1    1    2    0  502  0.86103710216E+02  0.78370039472E+01  0.36048816454E+02  0.93767036381E+02  0.41800000000E+01 0.  1.
        -11    1    3    3    0    0 -0.32116835874E+02 -0.43362082909E+01 -0.10781703340E+03  0.11258244330E+03  0.00000000000E+00 0. -1.
         11    1    3    3    0    0 -0.14602250861E+02  0.24366942947E+01  0.20770808368E+02  0.25506659710E+02  0.00000000000E+00 0.  1.
</event>
<event>
 7    1  0.4096326E-006  0.1019432E+03  0.7561462E-02  0.1276262E+00
          2   -1    0    0  501    0  0.00000000000E+00  0.00000000000E+00  0.17150959104E+03  0.17150959104E+03  0.00000000000E+00 0. -1.
         -2   -1    0    0    0  501 -0.00000000000E+00 -0.00000000000E+00 -0.13554729651E+03  0.13554729651E+03  0.00000000000E+00 0.  1.
         23    2    1    2    0    0 -0.86987669271E+02  0.10349745764E+02  0.78605441698E+02  0.14850052657E+03  0.90551748099E+02 0.  0.
          5    1    1    2  502    0  0.45147990185E+02 -0.27112003441E+02  0.38685952679E+02  0.65478829274E+02  0.41800000000E+01 0.  1.
         -5    1    1    2    0  502  0.41839679086E+02  0.16762257677E+02 -0.81329099846E+02  0.93077531715E+02  0.41800000000E+01 0.  1.
        -11    1    3    3    0    0 -0.55192910438E+02 -0.22928709686E+02  0.28185165204E+01  0.59832492225E+02  0.00000000000E+00 0.  1.
         11    1    3    3    0    0 -0.31794758833E+02  0.33278455450E+02  0.75786925178E+02  0.88668034343E+02  0.00000000000E+00 0. -1.
</event>
<event>
 7    1  0.4096326E-006  0.8451129E+02  0.7561462E-02  0.1316716E+00
         -1   -1    0    0    0  501 -0.00000000000E+00  0.00000000000E+00  0.26354169558E+02  0.26354169558E+02  0.00000000000E+00 0.  1.
          1   -1    0    0  501    0  0.00000000000E+00 -0.00000000000E+00 -0.53972977662E+03  0.53972977662E+03  0.00000000000E+00 0. -1.
         23    2    1    2    0    0  0.43356807072E+02  0.17721492344E+01 -0.28791551395E+03  0.30462006899E+03  0.89527035153E+02 0.  0.
          5    1    1    2  502    0 -0.58061173804E+02 -0.10126167243E+02 -0.31949159400E+02  0.67170383004E+02  0.41800000000E+01 0. -1.
         -5    1    1    2    0  502  0.14704366732E+02  0.83540180083E+01 -0.19351093371E+03  0.19429349419E+03  0.41800000000E+01 0. -1.
        -11    1    3    3    0    0  0.29434792466E+02  0.41238827101E+02 -0.10002472877E+03  0.11212490461E+03  0.00000000000E+00 0. -1.
         11    1    3    3    0    0  0.13922014606E+02 -0.39466677866E+02 -0.18789078518E+03  0.19249516438E+03  0.00000000000E+00 0.  1.
</event>
<event>
 7    1  0.4096326E-006  0.1139479E+03  0.7561462E-02  0.1253429E+00
         -1   -1    0    0    0  501 -0.00000000000E+00  0.00000000000E+00  0.41724833655E+02  0.41724833655E+02  0.00000000000E+00 0.  1.
          1   -1    0    0  501    0  0.00000000000E+00 -0.00000000000E+00 -0.44038597694E+03  0.44038597694E+03  0.00000000000E+00 0. -1.
         23    2    1    2    0    0 -0.41956483151E+01  0.80763732709E+02 -0.20581376683E+03  0.23843531110E+03  0.89172344242E+02 0.  0.
          5    1    1    2  502    0 -0.33453256070E+02 -0.40341388348E+02 -0.11180150751E+02  0.53749568615E+02  0.41800000000E+01 0.  1.
         -5    1    1    2    0  502  0.37648904386E+02 -0.40422344361E+02 -0.18166722570E+03  0.18992593088E+03  0.41800000000E+01 0.  1.
        -11    1    3    3    0    0  0.39634404914E+02  0.58769751602E+02 -0.13173501938E+03  0.14959573887E+03  0.00000000000E+00 0. -1.
         11    1    3    3    0    0 -0.43830053230E+02  0.21993981107E+02 -0.74078747450E+02  0.88839572235E+02  0.00000000000E+00 0.  1.
</event>
<event>
 7    1  0.4096326E-006  0.1732515E+03  0.7561462E-02  0.1174499E+00
          2   -1    0    0  501    0  0.00000000000E+00  0.00000000000E+00  0.63524318614E+03  0.63524318614E+03  0.00000000000E+00 0. -1.
         -2   -1    0    0    0  501 -0.00000000000E+00 -0.00000000000E+00 -0.87664809455E+02  0.87664809455E+02  0.00000000000E+00 0.  1.
         23    2    1    2    0    0 -0.16041509899E+03  0.19765093097E+02  0.46432239038E+03  0.50222065230E+03  0.10250189510E+03 0.  0.
          5    1    1    2  502    0  0.14667241609E+03 -0.29508635587E+02  0.11211907025E+03  0.18700726064E+03  0.41800000000E+01 0.  1.
         -5    1    1    2    0  502  0.13742682902E+02  0.97435424898E+01 -0.28863083941E+02  0.33680082663E+02  0.41800000000E+01 0.  1.
        -11    1    3    3    0    0 -0.14684093413E+03  0.42613985018E+02  0.44137350347E+03  0.46710681992E+03  0.00000000000E+00 0. -1.
         11    1    3    3    0    0 -0.13574164868E+02 -0.22848891921E+02  0.22948886911E+02  0.35113832379E+02  0.00000000000E+00 0.  1.
</event>
<event>
 7    1  0.4096326E-006  0.1154948E+03  0.7561462E-02  0.1250720E+00
         -1   -1    0    0    0  501 -0.00000000000E+00  0.00000000000E+00  0.23043519826E+03  0.23043519826E+03  0.00000000000E+00 0.  1.
          1   -1    0    0  501    0  0.00000000000E+00 -0.00000000000E+00 -0.67362197017E+02  0.67362197017E+02  0.00000000000E+00 0. -1.
         23    2    1    2    0    0 -0.11227786589E+02  0.50543681152E+02  0.33440669905E+02  0.11036121722E+03  0.91545578628E+02 0.  0.
          5    1    1    2  502    0  0.47389588816E+02  0.23052759803E+02  0.57959290522E+02  0.78447145394E+02  0.41800000000E+01 0. -1.
         -5    1    1    2    0  502 -0.36161802227E+02 -0.73596440955E+02  0.71673040821E+02  0.10898903267E+03  0.41800000000E+01 0. -1.
        -11    1    3    3    0    0 -0.15624831319E+01 -0.22391011459E+02  0.28977403970E+02  0.36653631314E+02  0.00000000000E+00 0.  1.
         11    1    3    3    0    0 -0.96653034567E+01  0.72934692611E+02  0.44632659351E+01  0.73707585905E+02  0.00000000000E+00 0. -1.
</event>
<event>
 7    1  0.4096326E-006  0.1490114E+03  0.7561462E-02  0.1201693E+00
         -2   -1    0    0    0  501 -0.00000000000E+00  0.00000000000E+00  0.12658175476E+03  0.12658175476E+03  0.00000000000E+00 0.  1.
          2   -1    0    0  501    0  0.00000000000E+00 -0.00000000000E+00 -0.52001000370E+03  0.52001000370E+03  0.00000000000E+00 0. -1.
         23    2    1    2    0    0  0.78354300329E+02 -0.83140031388E+02 -0.44567629681E+03  0.46890322840E+03  0.90505330602E+02 0.  0.
          5    1    1    2  502    0 -0.77718605730E+02 -0.44015523863E+01  0.49876557203E+01  0.78114687797E+02  0.41800000000E+01 0. -1.
         -5    1    1    2    0  502 -0.63569459867E+00  0.87541583774E+02  0.47260392151E+02  0.99573842266E+02  0.41800000000E+01 0.  1.
        -11    1    3    3    0    0  0.85219477191E+02 -0.50476352889E+02 -0.40149364352E+03  0.41353037044E+03  0.00000000000E+00 0. -1.
         11    1    3    3    0    0 -0.68651768625E+01 -0.32663678499E+02 -0.44182653290E+02  0.55372857956E+02  0.00000000000E+00 0.  1.
</event>
<event>
 7    1  0.4096326E-006  0.9573535E+02  0.7561462E-02  0.1289528E+00
          2   -1    0    0  501    0  0.00000000000E+00  0.00000000000E+00  0.38130296889E+03  0.38130296889E+03  0.00000000000E+00 0. -1.
         -2   -1    0    0    0  501 -0.00000000000E+00 -0.00000000000E+00 -0.63474376021E+02  0.63474376021E+02  0.00000000000E+00 0.  1.
         23    2    1    2    0    0 -0.77174500880E+02  0.13780719054E+02  0.25956626472E+03  0.28607188593E+03  0.91195758311E+02 0.  0.
          5    1    1    2  502    0  0.42742710697E+02 -0.15175312276E+02 -0.36126326443E+02  0.58136161575E+02  0.41800000000E+01 0. -1.
         -5    1    1    2    0  502  0.34431790183E+02  0.13945932227E+01  0.94388654599E+02  0.10056929741E+03  0.41800000000E+01 0. -1.
        -11    1    3    3    0    0  0.83820615595E+01  0.23644146555E+02  0.21963320361E+02  0.33342046482E+02  0.00000000000E+00 0.  1.
         11    1    3    3    0    0 -0.85556562440E+02 -0.98634275012E+01  0.23760294436E+03  0.25272983944E+03  0.00000000000E+00 0. -1.
</event>
<event>
 7    1  0.4096326E-006  0.1317350E+03  0.7561462E-02  0.1224904E+00
         -2   -1    0    0    0  501 -0.00000000000E+00  0.00000000000E+00  0.66474373512E+02  0.66474373512E+02  0.00000000000E+00 0.  1.
          2   -1    0    0  501    0  0.00000000000E+00 -0.00000000000E+00 -0.36657473965E+03  0.36657473965E+03  0.00000000000E+00 0. -1.
         23    2    1    2    0    0 -0.99242196993E+01  0.10893021690E+03 -0.17180885824E+03  0.22311934746E+03  0.91102563923E+02 0.  0.
          5    1    1    2  502    0 -0.34338526525E+02 -0.94761801451E+02 -0.37083602767E+02  0.10747836718E+03  0.41800000000E+01 0. -1.
         -5    1    1    2    0  502  0.44262746224E+02 -0.14168415444E+02 -0.91207905132E+02  0.10245139852E+03  0.41800000000E+01 0. -1.
        -11    1    3    3    0    0  0.95513872534E+01  0.62416123999E+01  0.88261080029E+01  0.14425217721E+02  0.00000000000E+00 0.  1.
         11    1    3    3    0    0 -0.19475606953E+02  0.10268860450E+03 -0.18063496624E+03  0.20869412974E+03  0.00000000000E+00 0. -1.
</event>
<event>
 7    1  0.4096326E-006  0.1413829E+03  0.7561462E-02  0.1211480E+00
         -1   -1    0    0    0  501 -0.00000000000E+00  0.00000000000E+00  0.73261669671E+02  0.73261669671E+02  0.00000000000E+00 0.  1.
          1   -1    0    0  501    0  0.00000000000E+00 -0.00000000000E+00 -0.44677204593E+03  0.44677204593E+03  0.00000000000E+00 0. -1.
         23    2    1    2    0    0 -0.11683503442E+03 -0.29384427822E+02 -0.29115907161E+03  0.32782604855E+03  0.90456858562E+02 0.  0.
          5    1    1    2  502    0  0.62447975675E+02 -0.38801504597E+02 -0.21893122698E+01  0.73672056528E+02  0.41800000000E+01 0.  1.
         -5    1    1    2    0  502  0.54387058749E+02  0.68185932419E+02 -0.80161992380E+02  0.11853561052E+03  0.41800000000E+01 0.  1.
        -11    1    3    3    0    0 -0.72186106566E+02 -0.27079127300E+02 -0.26508667524E+03  0.27607074909E+03  0.00000000000E+00 0. -1.
         11    1    3    3    0    0 -0.44648927858E+02 -0.23053005219E+01 -0.26072396371E+02  0.51755299456E+02  0.00000000000E+00 0.  1.
</event>
<event>
 7    1  0.4096326E-006  0.1156012E+03  0.7561462E-02  0.1250535E+00
         -2   -1    0    0    0  501 -0.00000000000E+00  0.00000000000E+00  0.38327321963E+02  0.38327321963E+02  0.00000000000E+00 0.  1.
          2   -1    0    0  501    0  0.00000000000E+00 -0.00000000000E+00 -0.55032149824E+03  0.55032149824E+03  0.00000000000E+00 0. -1.
         23    2    1    2    0    0  0.34221173152E+02  0.70663110842E+02 -0.34664518774E+03  0.36693901788E+03  0.91197547827E+02 0.  0.
          5    1    1    2  502    0 -0.69401650537E+02 -0.27249929897E+02 -0.40705747810E+02  0.85050444334E+02  0.41800000000E+01 0.  1.
         -5    1    1    2    0  502  0.35180477385E+02 -0.43413180945E+02 -0.12464324072E+03  0.13665935799E+03  0.41800000000E+01 0.  1.
        -11    1    3    3    0    0  0.49978169639E+02  0.68185880376E+02 -0.33875286699E+03  0.34914271669E+03  0.00000000000E+00 0. -1.
         11    1    3    3    0    0 -0.15756996488E+02  0.24772304661E+01 -0.78923207518E+01  0.17796301187E+02  0.00000000000E+00 0.  1.
</event>
<event>
 7    1  0.4096326E-006  0.2923557E+03  0.7561462E-02  0.1089126E+00
         -1   -1    0    0    0  501 -0.00000000000E+00  0.00000000000E+00  0.12960360658E+03  0.12960360658E+03  0.00000000000E+00 0.  1.
          1   -1    0    0  501    0  0.00000000000E+00 -0.00000000000E+00 -0.69363030555E+03  0.69363030555E+03  0.00000000000E+00 0. -1.
         23    2    1    2    0    0  0.20445160246E+03 -0.18980564644E+03 -0.29239177050E+03  0.41425800962E+03  0.91050040714E+02 0.  0.
          5    1    1    2  502    0 -0.14604837539E+03  0.50449010492E+02 -0.13589269401E+03  0.20581430295E+03  0.41800000000E+01 0.  1.
         -5    1    1    2    0  502 -0.58403227066E+02  0.13935663595E+03 -0.13574223447E+03  0.20316159955E+03  0.41800000000E+01 0.  1.
        -11    1    3    3    0    0  0.14173423518E+03 -0.13280078231E+03 -0.25765721902E+03  0.32266373164E+03  0.00000000000E+00 0. -1.
         11    1    3    3    0    0  0.62717367279E+02 -0.57004864123E+02 -0.34734551478E+02  0.91594277979E+02  0.00000000000E+00 0.  1.
</event>
<event>
 7    1  0.4096326E-006  0.1182412E+03  0.7561462E-02  0.1246027E+00
         -2   -1    0    0    0  501 -0.00000000000E+00  0.00000000000E+00  0.56902421617E+02  0.56902421617E+02  0.00000000000E+00 0.  1.
          2   -1    0    0  501    0  0.00000000000E+00 -0.00000000000E+00 -0.27574548441E+03  0.27574548441E+03  0.00000000000E+00 0. -1.
         23    2    1    2    0    0  0.46763713154E+02  0.41339633752E+02 -0.10675223179E+03  0.15347715303E+03  0.90903175537E+02 0.  0.
          5    1    1    2  502    0 -0.18796211425E+01 -0.78099763165E+02 -0.83267354536E+02  0.11425423718E+03  0.41800000000E+01 0.  1.
         -5    1    1    2    0  502 -0.44884092012E+02  0.36760129412E+02 -0.28823476460E+02  0.64916515814E+02  0.41800000000E+01 0.  1.
        -11    1    3    3    0    0  0.54523507633E+02 -0.34425330878E+01 -0.25307121420E+02  0.60208922206E+02  0.00000000000E+00 0.  1.
         11    1    3    3    0    0 -0.77597944793E+01  0.44782166840E+02 -0.81445110373E+02  0.93268230823E+02  0.00000000000E+00 0. -1.
</event>
<event>
 7    1  0.4096326E-006  0.9987004E+02  0.7561462E-02  0.1280569E+00
          1   -1    0    0  501    0  0.00000000000E+00  0.00000000000E+00  0.27877009496E+03  0.27877009496E+03  0.00000000000E+00 0. -1.
         -1   -1    0    0    0  501 -0.00000000000E+00 -0.00000000000E+00 -0.64883838202E+02  0.64883838202E+02  0.00000000000E+00 0.  1.
         23    2    1    2    0    0  0.34292339081E+02 -0.29458793032E+02  0.18031760686E+03  0.20647383368E+03  0.89851097055E+02 0.  0.
          5    1    1    2  502    0  0.24883667110E+01  0.65875812974E+02  0.49855807307E+02  0.82758012459E+02  0.41800000000E+01 0.  1.
         -5    1    1    2    0  502 -0.36780705792E+02 -0.36417019942E+02 -0.16287157410E+02  0.54422087029E+02  0.41800000000E+01 0.  1.
        -11    1    3    3    0    0  0.77492694331E+01 -0.48484356177E+02  0.42811805372E+02  0.65143185752E+02  0.00000000000E+00 0.  1.
         11    1    3    3    0    0  0.26543069648E+02  0.19025563146E+02  0.13750580149E+03  0.14133064793E+03  0.00000000000E+00 0. -1.
</event>
<event>
 7    1  0.4096326E-006  0.1277778E+03  0.7561462E-02  0.1230791E+00
         -1   -1    0    0    0  501 -0.00000000000E+00  0.00000000000E+00  0.99218529032E+02  0.99218529032E+02  0.00000000000E+00 0.  1.
          1   -1    0    0  501    0  0.00000000000E+00 -0.00000000000E+00 -0.18032422440E+03  0.18032422440E+03  0.00000000000E+00 0. -1.
         23    2    1    2    0    0 -0.25737639217E+02  0.68180908486E+02 -0.67652553338E+02  0.13414412304E+03  0.90037300157E+02 0.  0.
          5    1    1    2  502    0  0.75310874294E+02 -0.31039881804E+02 -0.16595300788E+02  0.83235079490E+02  0.41800000000E+01 0.  1.
         -5    1    1    2    0  502 -0.49573235077E+02 -0.37141026681E+02  0.31421587566E+01  0.62163550901E+02  0.41800000000E+01 0.  1.
        -11    1    3    3    0    0 -0.39373226680E+02 -0.29480107993E+01 -0.79305237273E+01  0.40272012036E+02  0.00000000000E+00 0.  1.
         11    1    3    3    0    0  0.13635587463E+02  0.71128919285E+02 -0.59722029610E+02  0.93872111007E+02  0.00000000000E+00 0. -1.
</event>
<event>
 7    1  0.4096326E-006  0.1528541E+03  0.7561462E-02  0.1197009E+00
         -2   -1    0    0    0  501 -0.00000000000E+00  0.00000000000E+00  0.35988163088E+02  0.35988163088E+02  0.00000000000E+00 0. -1.
          2   -1    0    0  501    0  0.00000000000E+00 -0.00000000000E+00 -0.72107345967E+03  0.72107345967E+03  0.00000000000E+00 0.  1.
         23    2    1    2    0    0  0.12023300022E+03 -0.53692839089E+01 -0.32252398046E+03  0.35508490991E+03  0.87056141203E+02 0.  0.
          5    1    1    2  502    0 -0.69457515062E+01  0.47938798520E+02 -0.14568762826E+03  0.15358622756E+03  0.41800000000E+01 0. -1.
         -5    1    1    2    0  502 -0.11328724872E+03 -0.42569514611E+02 -0.21687368787E+03  0.24839048530E+03  0.41800000000E+01 0. -1.
        -11    1    3    3    0    0  0.66205713626E+02  0.28661662224E+02 -0.24079743304E+03  0.25137241527E+03  0.00000000000E+00 0.  1.
         11    1    3    3    0    0  0.54027286597E+02 -0.34030946133E+02 -0.81726547416E+02  0.10371249464E+03  0.00000000000E+00 0. -1.
</event>
<event>
 7    1  0.4096326E-006  0.1008366E+03  0.7561462E-02  0.1278547E+00
         -2   -1    0    0    0  501 -0.00000000000E+00  0.00000000000E+00  0.32210685870E+02  0.32210685870E+02  0.00000000000E+00 0.  1.
          2   -1    0    0  501    0  0.00000000000E+00 -0.00000000000E+00 -0.43647307260E+03  0.43647307260E+03  0.00000000000E+00 0. -1.
         23    2    1    2    0    0 -0.17956124385E+02  0.95467001046E+01 -0.26264756513E+03  0.27864217157E+03  0.90797326097E+02 0.  0.
          5    1    1    2  502    0 -0.28234413691E+02 -0.43564261417E+02 -0.11584747097E+03  0.12701628210E+03  0.41800000000E+01 0. -1.
         -5    1    1    2    0  502  0.46190538076E+02  0.34017561312E+02 -0.25767350633E+02  0.63025304791E+02  0.41800000000E+01 0. -1.
        -11    1    3    3    0    0 -0.36164502029E+01  0.49496688102E+02 -0.12132396025E+03  0.13108205131E+03  0.00000000000E+00 0.  1.
         11    1    3    3    0    0 -0.14339674182E+02 -0.39949987997E+02 -0.14132360488E+03  0.14756012027E+03  0.00000000000E+00 0. -1.
</event>
<event>
 7    1  0.4096326E-006  0.1288982E+03  0.7561462E-02  0.1229100E+00
         -2   -1    0    0    0  501 -0.00000000000E+00  0.00000000000E+00  0.53247504671E+02  0.53247504671E+02  0.00000000000E+00 0.  1.
          2   -1    0    0  501    0  0.00000000000E+00 -0.00000000000E+00 -0.47966112496E+03  0.47966112496E+03  0.00000000000E+00 0. -1.
         23    2    1    2    0    0 -0.79174915086E+02  0.53169024304E+02 -0.27800290939E+03  0.31664709976E+03  0.11783104784E+03 0.  0.
          5    1    1    2  502    0  0.81086769993E+01  0.13836013173E+02 -0.10997156498E+03  0.11121332388E+03  0.41800000000E+01 0.  1.
         -5    1    1    2    0  502  0.71066238087E+02 -0.67005037477E+02 -0.38439145920E+02  0.10504820599E+03  0.41800000000E+01 0.  1.
        -11    1    3    3    0    0 -0.67690753958E+02  0.85557401511E+02 -0.24835680109E+03  0.27126224907E+03  0.00000000000E+00 0. -1.
         11    1    3    3    0    0 -0.11484161128E+02 -0.32388377206E+02 -0.29646108297E+02  0.45384850688E+02  0.00000000000E+00 0.  1.
</event>
<event>
 7    1  0.4096326E-006  0.2032175E+03  0.7561462E-02  0.1147052E+00
         -1   -1    0    0    0  501 -0.00000000000E+00  0.00000000000E+00  0.60035453799E+02  0.60035453799E+02  0.00000000000E+00 0.  1.
          1   -1    0    0  501    0  0.00000000000E+00 -0.00000000000E+00 -0.73068747332E+03  0.73068747332E+03  0.00000000000E+00 0. -1.
         23    2    1    2    0    0 -0.13330834386E+03  0.10863943696E+03 -0.40206097509E+03  0.44647901011E+03  0.90093490166E+02 0.  0.
          5    1    1    2  502    0 -0.40111658115E+01  0.23768569363E+02 -0.32978549636E+02  0.41062044236E+02  0.41800000000E+01 0. -1.
         -5    1    1    2    0  502  0.13731950967E+03 -0.13240800633E+03 -0.23561249480E+03  0.30318187278E+03  0.41800000000E+01 0.  1.
        -11    1    3    3    0    0  0.98626839902E+00 -0.11159823551E+02 -0.48197496015E+02  0.49482451528E+02  0.00000000000E+00 0.  1.
         11    1    3    3    0    0 -0.13429461226E+03  0.11979926052E+03 -0.35386347907E+03  0.39699655858E+03  0.00000000000E+00 0. -1.
</event>
<event>
 7    1  0.4096326E-006  0.1465897E+03  0.7561462E-02  0.1204727E+00
          1   -1    0    0  501    0  0.00000000000E+00  0.00000000000E+00  0.61678865072E+03  0.61678865072E+03  0.00000000000E+00 0. -1.
         -1   -1    0    0    0  501 -0.00000000000E+00 -0.00000000000E+00 -0.50292060039E+02  0.50292060039E+02  0.00000000000E+00 0.  1.
         23    2    1    2    0    0 -0.58402075660E+01 -0.12436956130E+03  0.37802928532E+03  0.40887513562E+03  0.93652763780E+02 0.  0.
          5    1    1    2  502    0  0.54940400338E+02  0.78650955343E+02  0.15687065799E+03  0.18393013919E+03  0.41800000000E+01 0. -1.
         -5    1    1    2    0  502 -0.49100192772E+02  0.45718605953E+02  0.31596647370E+02  0.74275435950E+02  0.41800000000E+01 0. -1.
        -11    1    3    3    0    0 -0.19463668371E+02 -0.40199892273E+02  0.39020779746E+02  0.59308405621E+02  0.00000000000E+00 0.  1.
         11    1    3    3    0    0  0.13623460805E+02 -0.84169669022E+02  0.33900850558E+03  0.34956673000E+03  0.00000000000E+00 0. -1.
</event>
<event>
 7    1  0.4096326E-006  0.1358935E+03  0.7561462E-02  0.1218964E+00
         -1   -1    0    0    0  501 -0.00000000000E+00  0.00000000000E+00  0.94160644222E+02  0.94160644222E+02  0.00000000000E+00 0.  1.
          1   -1    0    0  501    0  0.00000000000E+00 -0.00000000000E+00 -0.22307032623E+03  0.22307032623E+03  0.00000000000E+00 0. -1.
         23    2    1    2    0    0  0.16719294478E+02 -0.87464961286E+02 -0.21711542526E+02  0.12991179656E+03  0.92065354748E+02 0.  0.
          5    1    1    2  502    0  0.43383291826E+02  0.75552039673E+02 -0.85623670546E+02  0.12222563588E+03  0.41800000000E+01 0.  1.
         -5    1    1    2    0  502 -0.60102586304E+02  0.11912921613E+02 -0.21574468940E+02  0.65093538019E+02  0.41800000000E+01 0.  1.
        -11    1    3    3    0    0  0.33706282389E+02  0.34977936818E+00  0.97619701378E+01  0.35093188499E+02  0.00000000000E+00 0.  1.
         11    1    3    3    0    0 -0.16986987910E+02 -0.87814740654E+02 -0.31473512664E+02  0.94818608057E+02  0.00000000000E+00 0. -1.
</event>
<event>
 7    1  0.4096326E-006  0.1112624E+03  0.7561462E-02  0.1258250E+00
         -3   -1    0    0    0  501 -0.00000000000E+00  0.00000000000E+00  0.21675706676E+03  0.21675706676E+03  0.00000000000E+00 0.  1.
          3   -1    0    0  501    0  0.00000000000E+00 -0.00000000000E+00 -0.11777235679E+03  0.11777235679E+03  0.00000000000E+00 0. -1.
         23    2    1    2    0    0 -0.90108778101E+02  0.34303441248E+02 -0.23399766754E+02  0.13472510941E+03  0.91142679627E+02 0.  0.
          5    1    1    2  502    0  0.10341467328E+03 -0.27740263355E+02  0.37489211824E+02  0.11352105648E+03  0.41800000000E+01 0. -1.
         -5    1    1    2    0  502 -0.13305895180E+02 -0.65631778927E+01  0.84895264895E+02  0.86283257658E+02  0.41800000000E+01 0. -1.
        -11    1    3    3    0    0 -0.60480344053E+02  0.35819136125E+02 -0.56566797874E+02  0.90225745501E+02  0.00000000000E+00 0. -1.
         11    1    3    3    0    0 -0.29628434048E+02 -0.15156948770E+01  0.33167031121E+02  0.44499363911E+02  0.00000000000E+00 0.  1.
</event>
<event>
 7    1  0.4096326E-006  0.9392398E+02  0.7561462E-02  0.1293618E+00
          1   -1    0    0  501    0  0.00000000000E+00  0.00000000000E+00  0.29152267220E+02  0.29152267220E+02  0.00000000000E+00 0. -1.
         -1   -1    0    0    0  501 -0.00000000000E+00 -0.00000000000E+00 -0.66333682469E+03  0.66333682469E+03  0.00000000000E+00 0.  1.
         23    2    1    2    0    0  0.18277082486E+02 -0.33936070744E+02 -0.95605112903E+02  0.13823085064E+03  0.92096263849E+02 0.  0.
          5    1    1    2  502    0 -0.59797509717E+02 -0.11838294160E+02 -0.36222476061E+03  0.36734198913E+03  0.41800000000E+01 0.  1.
         -5    1    1    2    0  502  0.41520427231E+02  0.45774364904E+02 -0.17635468396E+03  0.18691625214E+03  0.41800000000E+01 0.  1.
        -11    1    3    3    0    0  0.35089367841E+02 -0.11824132988E+02 -0.10302696634E+03  0.10947890047E+03  0.00000000000E+00 0.  1.
         11    1    3    3    0    0 -0.16812285355E+02 -0.22111937755E+02  0.74218534342E+01  0.28751950170E+02  0.00000000000E+00 0. -1.
</event>
<event>
 7    1  0.4096326E-006  0.1168995E+03  0.7561462E-02  0.1248301E+00
          1   -1    0    0  501    0  0.00000000000E+00  0.00000000000E+00  0.42016882066E+03  0.42016882066E+03  0.00000000000E+00 0. -1.
         -1   -1    0    0    0  501 -0.00000000000E+00 -0.00000000000E+00 -0.83344685177E+02  0.83344685177E+02  0.00000000000E+00 0.  1.
         23    2    1    2    0    0 -0.22830545860E+02  0.10836899204E+03  0.29997342090E+03  0.33242679661E+03  0.90876012237E+02 0.  0.
          5    1    1    2  502    0  0.22326026235E+02 -0.36008751141E+02 -0.44869565512E+02  0.61853309656E+02  0.41800000000E+01 0. -1.
         -5    1    1    2    0  502  0.50451962501E+00 -0.72360240897E+02  0.81720280096E+02  0.10923339957E+03  0.41800000000E+01 0. -1.
        -11    1    3    3    0    0 -0.15245898324E+02  0.64708158307E+01  0.11337508667E+01  0.16601032024E+02  0.00000000000E+00 0.  1.
         11    1    3    3    0    0 -0.75846475362E+01  0.10189817621E+03  0.29883967003E+03  0.31582576459E+03  0.00000000000E+00 0. -1.
</event>
<event>
 7    1  0.4096326E-006  0.1442683E+03  0.7561462E-02  0.1207698E+00
          1   -1    0    0  501    0  0.00000000000E+00  0.00000000000E+00  0.72667031206E+03  0.72667031206E+03  0.00000000000E+00 0. -1.
         -1   -1    0    0    0  501 -0.00000000000E+00 -0.00000000000E+00 -0.33602103552E+02  0.33602103552E+02  0.00000000000E+00 0.  1.
         23    2    1    2    0    0 -0.11364246179E+03 -0.59150860341E+01  0.27930514734E+03  0.31328592641E+03  0.84776818706E+02 0.  0.
          5    1    1    2  502    0  0.12110721004E+03  0.37577836265E+02  0.37671873211E+03  0.39750915163E+03  0.41800000000E+01 0. -1.
         -5    1    1    2    0  502 -0.74647482524E+01 -0.31662750231E+02  0.37044329051E+02  0.49477337575E+02  0.41800000000E+01 0. -1.
        -11    1    3    3    0    0 -0.24836861847E+02  0.24606431052E+02  0.27313800339E+02  0.44366539695E+02  0.00000000000E+00 0.  1.
         11    1    3    3    0    0 -0.88805599942E+02 -0.30521517086E+02  0.25199134700E+03  0.26891938671E+03  0.00000000000E+00 0. -1.
</event>
<event>
 7    1  0.4096326E-006  0.1140149E+03  0.7561462E-02  0.1253311E+00
          2   -1    0    0  501    0  0.00000000000E+00  0.00000000000E+00  0.42089156030E+02  0.42089156030E+02  0.00000000000E+00 0. -1.
         -2   -1    0    0    0  501 -0.00000000000E+00 -0.00000000000E+00 -0.42996200969E+03  0.42996200969E+03  0.00000000000E+00 0.  1.
         23    2    1    2    0    0  0.24691914142E+02  0.76403041123E+02 -0.17920751271E+03  0.21585594574E+03  0.89617751496E+02 0.  0.
          5    1    1    2  502    0 -0.17542128264E+02 -0.10745912029E+03 -0.12103419161E+03  0.16285557017E+03  0.41800000000E+01 0. -1.
         -5    1    1    2    0  502 -0.71497858779E+01  0.31056079167E+02 -0.87631149345E+02  0.93339649811E+02  0.41800000000E+01 0. -1.
        -11    1    3    3    0    0 -0.64805743723E+01  0.32149711704E+02 -0.46821901982E+01  0.33128910515E+02  0.00000000000E+00 0. -1.
         11    1    3    3    0    0  0.31172488514E+02  0.44253329419E+02 -0.17452532251E+03  0.18272703522E+03  0.00000000000E+00 0.  1.
</event>
<event>
 7    1  0.4096326E-006  0.1229980E+03  0.7561462E-02  0.1238232E+00
          2   -1    0    0  501    0  0.00000000000E+00  0.00000000000E+00  0.43579752663E+03  0.43579752663E+03  0.00000000000E+00 0. -1.
         -2   -1    0    0    0  501 -0.00000000000E+00 -0.00000000000E+00 -0.43608920561E+02  0.43608920561E+02  0.00000000000E+00 0.  1.
         23    2    1    2    0    0 -0.42527776083E+01  0.80482791565E+02  0.21567276409E+03  0.24853793595E+03  0.93599137717E+02 0.  0.
          5    1    1    2  502    0 -0.22457031779E+01 -0.11102214751E+03  0.16133044273E+03  0.19589779113E+03  0.41800000000E+01 0. -1.
         -5    1    1    2    0  502  0.64984807861E+01  0.30539355947E+02  0.15185399253E+02  0.34970720105E+02  0.41800000000E+01 0. -1.
        -11    1    3    3    0    0 -0.32455067067E+02  0.24426685602E+02  0.15858551147E+03  0.16370509704E+03  0.00000000000E+00 0. -1.
         11    1    3    3    0    0  0.28202289458E+02  0.56056105963E+02  0.57087252616E+02  0.84832838910E+02  0.00000000000E+00 0.  1.
</event>
<event>
 7    1  0.4096326E-006  0.1024926E+03  0.7561462E-02  0.1275140E+00
         -2   -1    0    0    0  501 -0.00000000000E+00  0.00000000000E+00  0.54368575191E+02  0.54368575191E+02  0.00000000000E+00 0. -1.
          2   -1    0    0  501    0  0.00000000000E+00 -0.00000000000E+00 -0.33229606554E+03  0.33229606554E+03  0.00000000000E+00 0.  1.
         23    2    1    2    0    0  0.42839193141E+02  0.37618719079E+02 -0.16684531535E+03  0.20991297619E+03  0.11391107858E+03 0.  0.
          5    1    1    2  502    0 -0.41996419308E+02 -0.50917275884E+02 -0.13640644328E+01  0.66148327944E+02  0.41800000000E+01 0.  1.
         -5    1    1    2    0  502 -0.84277383333E+00  0.13298556805E+02 -0.10971811057E+03  0.11060333660E+03  0.41800000000E+01 0.  1.
        -11    1    3    3    0    0  0.10978056246E+02  0.74982382772E+02 -0.12076962398E+03  0.14257691791E+03  0.00000000000E+00 0.  1.
         11    1    3    3    0    0  0.31861136895E+02 -0.37363663694E+02 -0.46075691370E+02  0.67336058275E+02  0.00000000000E+00 0. -1.
</event>
<event>
 7    1  0.4096326E-006  0.1351630E+03  0.7561462E-02  0.1219990E+00
          1   -1    0    0  501    0  0.00000000000E+00  0.00000000000E+00  0.47696029074E+03  0.47696029074E+03  0.00000000000E+00 0. -1.
         -1   -1    0    0    0  501 -0.00000000000E+00 -0.00000000000E+00 -0.47009065487E+02  0.47009065487E+02  0.00000000000E+00 0.  1.
         23    2    1    2    0    0  0.24161827851E+02  0.95168986781E+02  0.25559150195E+03  0.28798326190E+03  0.89254766239E+02 0.  0.
          5    1    1    2  502    0 -0.64573039931E+02 -0.47651799383E+02  0.44494822179E+02  0.91856589699E+02  0.41800000000E+01 0.  1.
         -5    1    1    2    0  502  0.40411212079E+02 -0.47517187398E+02  0.12986490112E+03  0.14412950463E+03  0.41800000000E+01 0.  1.
        -11    1    3    3    0    0 -0.20730440309E+02  0.75750286490E+02  0.11612721339E+03  0.14019053730E+03  0.00000000000E+00 0.  1.
         11    1    3    3    0    0  0.44892268160E+02  0.19418700291E+02  0.13946428856E+03  0.14779272460E+03  0.00000000000E+00 0. -1.
</event>
<event>
 7    1  0.4096326E-006  0.1368559E+03  0.7561462E-02  0.1217623E+00
          1   -1    0    0  501    0  0.00000000000E+00  0.00000000000E+00  0.27733610274E+03  0.27733610274E+03  0.00000000000E+00 0. -1.
         -1   -1    0    0    0  501 -0.00000000000E+00 -0.00000000000E+00 -0.82146574051E+02  0.82146574051E+02  0.00000000000E+00 0.  1.
         23    2    1    2    0    0  0.57370757454E+02 -0.65906785393E+02  0.16019727591E+03  0.20293268992E+03  0.88788519854E+02 0.  0.
          5    1    1    2  502    0 -0.52228668591E+02 -0.25127665960E+02 -0.18025346930E+01  0.58137379978E+02  0.41800000000E+01 0. -1.
         -5    1    1    2    0  502 -0.51420888626E+01  0.91034451353E+02  0.36794787479E+02  0.98412606899E+02  0.41800000000E+01 0. -1.
        -11    1    3    3    0    0  0.20836157501E+01 -0.68926084129E+02  0.82480037208E+02  0.10750861857E+03  0.00000000000E+00 0.  1.
         11    1    3    3    0    0  0.55287141704E+02  0.30192987361E+01  0.77717238698E+02  0.95424071352E+02  0.00000000000E+00 0. -1.
</event>
<event>
 7    1  0.4096326E-006  0.1261179E+03  0.7561462E-02  0.1233332E+00
          3   -1    0    0  501    0  0.00000000000E+00  0.00000000000E+00  0.49415470203E+03  0.49415470203E+03  0.00000000000E+00 0. -1.
         -3   -1    0    0    0  501 -0.00000000000E+00 -0.00000000000E+00 -0.39476162880E+02  0.39476162880E+02  0.00000000000E+00 0.  1.
         23    2    1    2    0    0  0.24158959458E+02  0.78870480384E+02  0.26294651461E+03  0.29029323448E+03  0.91241900691E+02 0.  0.
          5    1    1    2  502    0  0.46173783060E+02 -0.49499881905E+02  0.12376982903E+03  0.14113362295E+03  0.41800000000E+01 0. -1.
         -5    1    1    2    0  502 -0.70332742518E+02 -0.29370598480E+02  0.67962195513E+02  0.10220400748E+03  0.41800000000E+01 0. -1.
        -11    1    3    3    0    0 -0.22797752763E+02  0.10404174894E+02  0.15920221877E+02  0.29689019029E+02  0.00000000000E+00 0.  1.
         11    1    3    3    0    0  0.46956712222E+02  0.68466305490E+02  0.24702629273E+03  0.26060421545E+03  0.00000000000E+00 0. -1.
</event>
<event>
 7    1  0.4096326E-006  0.1079047E+03  0.7561462E-02  0.1264500E+00
         -1   -1    0    0    0  501 -0.00000000000E+00  0.00000000000E+00  0.30165964166E+03  0.30165964166E+03  0.00000000000E+00 0.  1.
          1   -1    0    0  501    0  0.00000000000E+00 -0.00000000000E+00 -0.44507123659E+02  0.44507123659E+02  0.00000000000E+00 0. -1.
         23    2    1    2    0    0 -0.23707442856E+02 -0.26382420880E+01  0.61530517489E+02  0.11274806593E+03  0.91417277469E+02 0.  0.
          5    1    1    2  502    0  0.52776137980E+02 -0.42468084742E+02  0.14228702526E+03  0.15764494574E+03  0.41800000000E+01 0. -1.
         -5    1    1    2    0  502 -0.29068695125E+02  0.45106326830E+02  0.53334975251E+02  0.75773753644E+02  0.41800000000E+01 0. -1.
        -11    1    3    3    0    0  0.29017069363E+02 -0.23574108472E+02  0.29322520647E+02  0.47513567765E+02  0.00000000000E+00 0. -1.
         11    1    3    3    0    0 -0.52724512218E+02  0.20935866384E+02  0.32207996842E+02  0.65234498162E+02  0.00000000000E+00 0.  1.
</event>
<event>
 7    1  0.4096326E-006  0.1673694E+03  0.7561462E-02  0.1180619E+00
         -4   -1    0    0    0  501 -0.00000000000E+00  0.00000000000E+00  0.14767130355E+03  0.14767130355E+03  0.00000000000E+00 0.  1.
          4   -1    0    0  501    0  0.00000000000E+00 -0.00000000000E+00 -0.32525488946E+03  0.32525488946E+03  0.00000000000E+00 0. -1.
         23    2    1    2    0    0  0.71853448484E+02  0.13355594741E+03 -0.21024711229E+03  0.27363870533E+03  0.87602418247E+02 0.  0.
          5    1    1    2  502    0 -0.39600308797E+02 -0.25496232954E+01  0.49142921569E+02  0.63302323623E+02  0.41800000000E+01 0.  1.
         -5    1    1    2    0  502 -0.32253139687E+02 -0.13100632411E+03 -0.16479395193E+02  0.13598516406E+03  0.41800000000E+01 0.  1.
        -11    1    3    3    0    0  0.14754728575E+02  0.80728712520E+02 -0.16335368780E+03  0.18280933882E+03  0.00000000000E+00 0. -1.
         11    1    3    3    0    0  0.57098719909E+02  0.52827234888E+02 -0.46893424486E+02  0.90829366513E+02  0.00000000000E+00 0.  1.
</event>
<event>
 7    1  0.4096326E-006  0.8313055E+02  0.7561462E-02  0.1320395E+00
         -4   -1    0    0    0  501 -0.00000000000E+00  0.00000000000E+00  0.11627811835E+03  0.11627811835E+03  0.00000000000E+00 0.  1.
          4   -1    0    0  501    0  0.00000000000E+00 -0.00000000000E+00 -0.16413381541E+03  0.16413381541E+03  0.00000000000E+00 0. -1.
         23    2    1    2    0    0  0.39534655247E+02 -0.39210792178E+02 -0.88381312106E+02  0.13761779124E+03  0.89593107706E+02 0.  0.
          5    1    1    2  502    0 -0.62663879941E+02  0.10750279245E+02  0.70659173363E+02  0.95144739914E+02  0.41800000000E+01 0.  1.
         -5    1    1    2    0  502  0.23129224694E+02  0.28460512933E+02 -0.30133558312E+02  0.47649402597E+02  0.41800000000E+01 0.  1.
        -11    1    3    3    0    0  0.17661453185E+02 -0.40021372510E+02  0.28110635509E+01  0.43835365454E+02  0.00000000000E+00 0.  1.
         11    1    3    3    0    0  0.21873202062E+02  0.81058033265E+00 -0.91192375657E+02  0.93782425789E+02  0.00000000000E+00 0. -1.
</event>
<event>
 7    1  0.4096326E-006  0.1495215E+03  0.7561462E-02  0.1201062E+00
          1   -1    0    0  501    0  0.00000000000E+00  0.00000000000E+00  0.12201724402E+03  0.12201724402E+03  0.00000000000E+00 0. -1.
         -1   -1    0    0    0  501 -0.00000000000E+00 -0.00000000000E+00 -0.23559622885E+03  0.23559622885E+03  0.00000000000E+00 0.  1.
         23    2    1    2    0    0  0.22411793237E+02 -0.12654351972E+03 -0.65445411441E+02  0.17192520800E+03  0.93592865156E+02 0.  0.
          5    1    1    2  502    0 -0.24061708640E+02  0.14101210841E+03 -0.69819339601E+02  0.15923439680E+03  0.41800000000E+01 0.  1.
         -5    1    1    2    0  502  0.16499154028E+01 -0.14468588695E+02  0.21685766213E+02  0.26453868070E+02  0.41800000000E+01 0.  1.
        -11    1    3    3    0    0  0.31072246897E+02 -0.27905102248E+02  0.14971417336E+02  0.44365781812E+02  0.00000000000E+00 0. -1.
         11    1    3    3    0    0 -0.86604536605E+01 -0.98638417472E+02 -0.80416828777E+02  0.12755942619E+03  0.00000000000E+00 0.  1.
</event>
<event>
 7    1  0.4096326E-006  0.1493572E+03  0.7561462E-02  0.1201265E+00
         -2   -1    0    0    0  501 -0.00000000000E+00  0.00000000000E+00  0.33344432570E+02  0.33344432570E+02  0.00000000000E+00 0.  1.
          2   -1    0    0  501    0  0.00000000000E+00 -0.00000000000E+00 -0.98950461905E+03  0.98950461905E+03  0.00000000000E+00 0. -1.
         23    2    1    2    0    0 -0.50059211418E+02 -0.10286414493E+03 -0.70459798911E+03  0.71950392260E+03  0.90225336898E+02 0.  0.
          5    1    1    2  502    0  0.81172916121E+02  0.60065640094E+02 -0.97636258295E+02  0.14052485462E+03  0.41800000000E+01 0.  1.
         -5    1    1    2    0  502 -0.31113704702E+02  0.42798504834E+02 -0.15392593907E+03  0.16282027440E+03  0.41800000000E+01 0.  1.
        -11    1    3    3    0    0 -0.38313182868E+02  0.26496458089E+01 -0.22924626717E+03  0.23244089919E+03  0.00000000000E+00 0. -1.
         11    1    3    3    0    0 -0.11746028550E+02 -0.10551379074E+03 -0.47535172194E+03  0.48706302341E+03  0.00000000000E+00 0.  1.
</event>
<event>
 7    1  0.4096326E-006  0.2712245E+03  0.7561462E-02  0.1100581E+00
          2   -1    0    0  501    0  0.00000000000E+00  0.00000000000E+00  0.12826377441E+04  0.12826377441E+04  0.00000000000E+00 0. -1.
         -2   -1    0    0    0  501 -0.00000000000E+00 -0.00000000000E+00 -0.70925045005E+02  0.70925045005E+02  0.00000000000E+00 0.  1.
         23    2    1    2    0    0 -0.25835804505E+03 -0.42723587579E+02  0.36423314959E+03  0.45777074107E+03  0.91181575704E+02 0.  0.
          5    1    1    2  502    0  0.12133999424E+03  0.57242930893E+02  0.57460808680E+03  0.59007802294E+03  0.41800000000E+01 0.  1.
         -5    1    1    2    0  502  0.13701805081E+03 -0.14519343314E+02  0.27287146269E+03  0.30571402508E+03  0.41800000000E+01 0.  1.
        -11    1    3    3    0    0 -0.31544509386E+02  0.16989259847E+02  0.19428643111E+02  0.40757369833E+02  0.00000000000E+00 0. -1.
         11    1    3    3    0    0 -0.22681353566E+03 -0.59712847426E+02  0.34480450648E+03  0.41701337124E+03  0.00000000000E+00 0.  1.
</event>
<event>
 7    1  0.4096326E-006  0.1434512E+03  0.7561462E-02  0.1208759E+00
          1   -1    0    0  501    0  0.00000000000E+00  0.00000000000E+00  0.48222410308E+02  0.48222410308E+02  0.00000000000E+00 0. -1.
         -1   -1    0    0    0  501 -0.00000000000E+00 -0.00000000000E+00 -0.52678742608E+03  0.52678742608E+03  0.00000000000E+00 0.  1.
         23    2    1    2    0    0 -0.78625465590E+02 -0.68853564654E+02 -0.12976475036E+03  0.19000028238E+03  0.91315057148E+02 0.  0.
          5    1    1    2  502    0  0.90415864823E+02  0.46251242515E+01 -0.25511204897E+03  0.27073243307E+03  0.41800000000E+01 0.  1.
         -5    1    1    2    0  502 -0.11790399233E+02  0.64228440402E+02 -0.93688216434E+02  0.11427712094E+03  0.41800000000E+01 0.  1.
        -11    1    3    3    0    0 -0.91560527357E+02 -0.41393630264E+02 -0.12313491177E+03  0.15893070595E+03  0.00000000000E+00 0.  1.
         11    1    3    3    0    0  0.12935061766E+02 -0.27459934390E+02 -0.66298385874E+01  0.31069576426E+02  0.00000000000E+00 0. -1.
</event>
<event>
 7    1  0.4096326E-006  0.9493427E+02  0.7561462E-02  0.1291324E+00
          2   -1    0    0  501    0  0.00000000000E+00  0.00000000000E+00  0.29361982425E+03  0.29361982425E+03  0.00000000000E+00 0. -1.
         -2   -1    0    0    0  501 -0.00000000000E+00 -0.00000000000E+00 -0.49579025146E+02  0.49579025146E+02  0.00000000000E+00 0.  1.
         23    2    1    2    0    0  0.48221455132E+02  0.23984620202E+02  0.11530521749E+03  0.15579289442E+03  0.89864130939E+02 0.  0.
          5    1    1    2  502    0 -0.12866064370E+02  0.33215242035E+02  0.11253426825E+03  0.11811105726E+03  0.41800000000E+01 0.  1.
         -5    1    1    2    0  502 -0.35355390762E+02 -0.57199862238E+02  0.16201313370E+02  0.69294897726E+02  0.41800000000E+01 0.  1.
        -11    1    3    3    0    0 -0.25298611397E+01 -0.19581339594E+02  0.75323912048E+02  0.77868612315E+02  0.00000000000E+00 0. -1.
         11    1    3    3    0    0  0.50751316272E+02  0.43565959796E+02  0.39981305439E+02  0.77924282101E+02  0.00000000000E+00 0.  1.
</event>
<event>
 7    1  0.4096326E-006  0.9857643E+02  0.7561462E-02  0.1283318E+00
          2   -1    0    0  501    0  0.00000000000E+00  0.00000000000E+00  0.23323126323E+03  0.23323126323E+03  0.00000000000E+00 0. -1.
         -2   -1    0    0    0  501 -0.00000000000E+00 -0.00000000000E+00 -0.59544933212E+02  0.59544933212E+02  0.00000000000E+00 0.  1.
         23    2    1    2    0    0  0.18740863323E+02  0.40731222640E+02  0.82382319383E+02  0.13155753785E+03  0.92251215509E+02 0.  0.
          5    1    1    2  502    0 -0.67831911962E+02 -0.21722889312E+02  0.80037507505E+02  0.10722185975E+03  0.41800000000E+01 0. -1.
         -5    1    1    2    0  502  0.49091048639E+02 -0.19008333327E+02  0.11266503132E+02  0.53996798843E+02  0.41800000000E+01 0. -1.
        -11    1    3    3    0    0 -0.16033954828E+01 -0.14266702612E+02 -0.13146530892E+02  0.19466405806E+02  0.00000000000E+00 0.  1.
         11    1    3    3    0    0  0.20344258806E+02  0.54997925252E+02  0.95528850276E+02  0.11209113205E+03  0.00000000000E+00 0. -1.
</event>
<event>
 6    1  0.4096326E-006  0.2262808E+03  0.7561462E-02  0.1129285E+00
         -1   -1    0    0    0  501 -0.00000000000E+00  0.00000000000E+00  0.16337860105E+03  0.16337860105E+03  0.00000000000E+00 0.  1.
          1   -1    0    0  501    0  0.00000000000E+00 -0.00000000000E+00 -0.40037859275E+03  0.40037859275E+03  0.00000000000E+00 0. -1.
          5    1    1    2  502    0  0.14399008873E+02 -0.99598107853E+01 -0.85409419743E+01  0.19923588462E+02  0.41800000000E+01 0. -1.
         -5    1    1    2    0  502 -0.14173343740E+03  0.15005518402E+03  0.16889173200E+02  0.20714159915E+03  0.41800000000E+01 0. -1.
        -11    1    1    2    0    0  0.97198321488E+02 -0.13685302344E+02 -0.81611781843E+02  0.12765298326E+03  0.00000000000E+00 0.  1.
         11    1    1    2    0    0  0.30136107035E+02 -0.12641007089E+03 -0.16373644108E+03  0.20903902293E+03  0.00000000000E+00 0. -1.
</event>
<event>
 7    1  0.4096326E-006  0.7137558E+02  0.7561462E-02  0.1355477E+00
         -1   -1    0    0    0  501 -0.00000000000E+00  0.00000000000E+00  0.53651343381E+03  0.53651343381E+03  0.00000000000E+00 0.  1.
          1   -1    0    0  501    0  0.00000000000E+00 -0.00000000000E+00 -0.29122164782E+02  0.29122164782E+02  0.00000000000E+00 0. -1.
         23    2    1    2    0    0 -0.11602770868E+02 -0.50004308936E+02  0.14800301674E+03  0.18165538364E+03  0.91971355531E+02 0.  0.
          5    1    1    2  502    0 -0.15627002545E+02 -0.15993752141E+01  0.30062667128E+03  0.30106582186E+03  0.41800000000E+01 0.  1.
         -5    1    1    2    0  502  0.27229773413E+02  0.51603684150E+02  0.58761581002E+02  0.82914393080E+02  0.41800000000E+01 0.  1.
        -11    1    3    3    0    0 -0.28675865931E+02 -0.27309764728E+02  0.14805140196E+03  0.15325581934E+03  0.00000000000E+00 0.  1.
         11    1    3    3    0    0  0.17073095063E+02 -0.22694544208E+02 -0.48385221919E-01  0.28399564309E+02  0.00000000000E+00 0. -1.
</event>
<event>
 7    1  0.4096326E-006  0.1889810E+03  0.7561462E-02  0.1159384E+00
         -1   -1    0    0    0  501 -0.00000000000E+00  0.00000000000E+00  0.41896257481E+02  0.41896257481E+02  0.00000000000E+00 0.  1.
          1   -1    0    0  501    0  0.00000000000E+00 -0.00000000000E+00 -0.98744248344E+03  0.98744248344E+03  0.00000000000E+00 0. -1.
         23    2    1    2    0    0 -0.17396561292E+03 -0.11687043276E+01 -0.45621585546E+03  0.49515008698E+03  0.82312219728E+02 0.  0.
          5    1    1    2  502    0  0.56104412366E+02 -0.46725762377E+02 -0.95420173084E+02  0.12022264258E+03  0.41800000000E+01 0. -1.
         -5    1    1    2    0  502  0.11786120055E+03  0.47894466705E+02 -0.39391019741E+03  0.41396601136E+03  0.41800000000E+01 0. -1.
        -11    1    3    3    0    0 -0.50693751528E+02  0.15814060783E+02 -0.23888684350E+03  0.24471792938E+03  0.00000000000E+00 0. -1.
         11    1    3    3    0    0 -0.12327186139E+03 -0.16982765111E+02 -0.21732901196E+03  0.25043215760E+03  0.00000000000E+00 0.  1.
</event>
<event>
 7    1  0.4096326E-006  0.1844239E+03  0.7561462E-02  0.1163589E+00
          1   -1    0    0  501    0  0.00000000000E+00  0.00000000000E+00  0.46267872835E+02  0.46267872835E+02  0.00000000000E+00 0. -1.
         -1   -1    0    0    0  501 -0.00000000000E+00 -0.00000000000E+00 -0.96681725902E+03  0.96681725902E+03  0.00000000000E+00 0.  1.
         23    2    1    2    0    0 -0.14422530348E+03  0.10982584908E+03 -0.44258253236E+03  0.48681422003E+03  0.90808213193E+02 0.  0.
          5    1    1    2  502    0  0.93242305709E+02 -0.50230994741E+02 -0.12141599090E+03  0.16117256482E+03  0.41800000000E+01 0. -1.
         -5    1    1    2    0  502  0.50982997774E+02 -0.59594854342E+02 -0.35655086294E+03  0.36509834701E+03  0.41800000000E+01 0. -1.
        -11    1    3    3    0    0 -0.45892049511E+02  0.16564415460E+02 -0.43564838349E+02  0.65409137040E+02  0.00000000000E+00 0.  1.
         11    1    3    3    0    0 -0.98333253972E+02  0.93261433623E+02 -0.39901769401E+03  0.42140508299E+03  0.00000000000E+00 0. -1.
</event>
<event>
 7    1  0.4096326E-006  0.2812221E+03  0.7561462E-02  0.1095023E+00
          3   -1    0    0  501    0  0.00000000000E+00  0.00000000000E+00  0.10347785547E+04  0.10347785547E+04  0.00000000000E+00 0. -1.
         -3   -1    0    0    0  501 -0.00000000000E+00 -0.00000000000E+00 -0.10348492141E+03  0.10348492141E+03  0.00000000000E+00 0.  1.
         23    2    1    2    0    0 -0.22438892950E+03 -0.15526106111E+03  0.70748378761E+03  0.76383739223E+03  0.91966642074E+02 0.  0.
          5    1    1    2  502    0  0.17082758911E+03  0.13618858451E+03  0.10453677560E+03  0.24222882901E+03  0.41800000000E+01 0.  1.
         -5    1    1    2    0  502  0.53561340392E+02  0.19072476600E+02  0.11927307008E+03  0.13219725487E+03  0.41800000000E+01 0.  1.
        -11    1    3    3    0    0 -0.95767129100E+02 -0.12005246985E+03  0.34638871481E+03  0.37890510723E+03  0.00000000000E+00 0.  1.
         11    1    3    3    0    0 -0.12862180040E+03 -0.35208591260E+02  0.36109507280E+03  0.38493228500E+03  0.00000000000E+00 0. -1.
</event>
<event>
 7    1  0.4096326E-006  0.1210961E+03  0.7561462E-02  0.1241300E+00
         -1   -1    0    0    0  501 -0.00000000000E+00  0.00000000000E+00  0.22809958913E+03  0.22809958913E+03  0.00000000000E+00 0.  1.
          1   -1    0    0  501    0  0.00000000000E+00 -0.00000000000E+00 -0.83607030929E+02  0.83607030929E+02  0.00000000000E+00 0. -1.
         23    2    1    2    0    0 -0.30038520132E+02 -0.79455883328E+02  0.66845836913E+02  0.14172914602E+03  0.91669159650E+02 0.  0.
          5    1    1    2  502    0  0.69707864582E+02  0.56966784838E+02  0.84662710361E+02  0.12365131574E+03  0.41800000000E+01 0.  1.
         -5    1    1    2    0  502 -0.39669344450E+02  0.22489098489E+02 -0.70159890750E+01  0.46326158298E+02  0.41800000000E+01 0.  1.
        -11    1    3    3    0    0 -0.29085849556E+02 -0.23645886962E+01  0.56960770475E+02  0.64000838254E+02  0.00000000000E+00 0.  1.
         11    1    3    3    0    0 -0.95267057601E+00 -0.77091294632E+02  0.98850664379E+01  0.77728307763E+02  0.00000000000E+00 0. -1.
</event>
<event>
 7    1  0.4096326E-006  0.9787520E+02  0.7561462E-02  0.1284829E+00
         -1   -1    0    0    0  501 -0.00000000000E+00  0.00000000000E+00  0.71703784166E+02  0.71703784166E+02  0.00000000000E+00 0.  1.
          1   -1    0    0  501    0  0.00000000000E+00 -0.00000000000E+00 -0.20930943275E+03  0.20930943275E+03  0.00000000000E+00 0. -1.
         23    2    1    2    0    0 -0.33637182752E+02  0.11675136229E+02 -0.11220870462E+03  0.14849702171E+03  0.90514104941E+02 0.  0.
          5    1    1    2  502    0 -0.37374340410E+02  0.55844449658E+01 -0.42830021992E+02  0.57270503146E+02  0.41800000000E+01 0.  1.
         -5    1    1    2    0  502  0.71011523162E+02 -0.17259581195E+02  0.17433078029E+02  0.75245692065E+02  0.41800000000E+01 0.  1.
        -11    1    3    3    0    0 -0.58645947812E+02  0.97344694214E+01 -0.10769028126E+03  0.12300936455E+03  0.00000000000E+00 0.  1.
         11    1    3    3    0    0  0.25008765060E+02  0.19406668075E+01 -0.45184233617E+01  0.25487657154E+02  0.00000000000E+00 0. -1.
</event>
<event>
 7    1  0.4096326E-006  0.1295349E+03  0.7561462E-02  0.1228147E+00
         -1   -1    0    0    0  501 -0.00000000000E+00  0.00000000000E+00  0.21165811763E+03  0.21165811763E+03  0.00000000000E+00 0.  1.
          1   -1    0    0  501    0  0.00000000000E+00 -0.00000000000E+00 -0.14714567829E+03  0.14714567829E+03  0.00000000000E+00 0. -1.
         23    2    1    2    0    0 -0.85889580377E+00 -0.10443055188E+03 -0.62274705519E+02  0.15233515941E+03  0.91768098908E+02 0.  0.
          5    1    1    2  502    0 -0.27038551385E+02  0.28369861492E+02 -0.15765669176E+02  0.42449511501E+02  0.41800000000E+01 0. -1.
         -5    1    1    2    0  502  0.27897447189E+02  0.76060690384E+02  0.14255281403E+03  0.16401912501E+03  0.41800000000E+01 0. -1.
        -11    1    3    3    0    0  0.42539347997E+02 -0.28916164700E+02 -0.16995447145E+02  0.54171818621E+02  0.00000000000E+00 0. -1.
         11    1    3    3    0    0 -0.43398243801E+02 -0.75514387175E+02 -0.45279258374E+02  0.98163340787E+02  0.00000000000E+00 0.  1.
</event>
<event>
 7    1  0.4096326E-006  0.1050094E+03  0.7561462E-02  0.1270101E+00
          3   -1    0    0  501    0  0.00000000000E+00  0.00000000000E+00  0.86855360815E+02  0.86855360815E+02  0.00000000000E+00 0. -1.
         -3   -1    0    0    0  501 -0.00000000000E+00 -0.00000000000E+00 -0.31387295728E+03  0.31387295728E+03  0.00000000000E+00 0.  1.
         23    2    1    2    0    0 -0.76855899230E+02  0.14364538500E+02  0.10220959118E+02  0.12136841768E+03  0.92264053634E+02 0.  0.
          5    1    1    2  502    0  0.67934003039E+01  0.22877981536E+02 -0.17953251757E+03  0.18116001101E+03  0.41800000000E+01 0.  1.
         -5    1    1    2    0  502  0.70062498927E+02 -0.37242520036E+02 -0.57706038021E+02  0.98199889402E+02  0.41800000000E+01 0.  1.
        -11    1    3    3    0    0 -0.81454026161E+02 -0.95225424578E+01  0.32660927768E+02  0.88273288119E+02  0.00000000000E+00 0. -1.
         11    1    3    3    0    0  0.45981269301E+01  0.23887080958E+02 -0.22439968650E+02  0.33095129565E+02  0.00000000000E+00 0.  1.
</event>
<event>
 7    1  0.4096326E-006  0.1229652E+03  0.7561462E-02  0.1238284E+00
          1   -1    0    0  501    0  0.00000000000E+00  0.00000000000E+00  0.19709800986E+03  0.19709800986E+03  0.00000000000E+00 0. -1.
         -1   -1    0    0    0  501 -0.00000000000E+00 -0.00000000000E+00 -0.10154417341E+03  0.10154417341E+03  0.00000000000E+00 0.  1.
         23    2    1    2    0    0  0.79858518386E+02  0.35585963474E+02  0.51067953164E+02  0.13967035963E+03  0.96208782150E+02 0.  0.
          5    1    1    2  502    0 -0.45015148570E+01  0.42509474277E+02  0.42809107909E+01  0.43163846406E+02  0.41800000000E+01 0.  1.
         -5    1    1    2    0  502 -0.75357003529E+02 -0.78095437751E+02  0.40204972503E+02  0.11580797724E+03  0.41800000000E+01 0.  1.
        -11    1    3    3    0    0  0.26923466343E+02  0.31270079925E+02 -0.23983711180E+02  0.47727448501E+02  0.00000000000E+00 0.  1.
         11    1    3    3    0    0  0.52935052043E+02  0.43158835493E+01  0.75051664343E+02  0.91942911126E+02  0.00000000000E+00 0. -1.
</event>
<event>
 7    1  0.5595704E-006  0.2084476E+03  0.7561462E-02  0.1142801E+00
         -1   -1    0    0    0  501 -0.00000000000E+00  0.00000000000E+00  0.94218812734E+02  0.94218812734E+02  0.00000000000E+00 0.  1.
          1   -1    0    0  501    0  0.00000000000E+00 -0.00000000000E+00 -0.68034173366E+03  0.68034173366E+03  0.00000000000E+00 0. -1.
         23    2    1    2    0    0  0.19910731763E+03 -0.26256086438E+02 -0.45148446754E+03  0.50233223276E+03  0.90367813042E+02 0.  0.
          5    1    1    2  502    0 -0.48057850860E+02  0.75709872317E+01  0.22200504388E+02  0.53639646457E+02  0.41800000000E+01 0. -1.
         -5    1    1    2    0  502 -0.15104946677E+03  0.18685099206E+02 -0.15683895778E+03  0.21858866718E+03  0.41800000000E+01 0. -1.
        -11    1    3    3    0    0  0.14342703619E+03  0.18172800516E+02 -0.34661410454E+03  0.37555679046E+03  0.00000000000E+00 0. -1.
         11    1    3    3    0    0  0.55680281436E+02 -0.44428886953E+02 -0.10487036299E+03  0.12677544230E+03  0.00000000000E+00 0.  1.
</event>
<event>
 7    1  0.4096326E-006  0.9981653E+02  0.7561462E-02  0.1280682E+00
         -1   -1    0    0    0  501 -0.00000000000E+00  0.00000000000E+00  0.23648790859E+02  0.23648790859E+02  0.00000000000E+00 0.  1.
          1   -1    0    0  501    0  0.00000000000E+00 -0.00000000000E+00 -0.52032477743E+03  0.52032477743E+03  0.00000000000E+00 0. -1.
         23    2    1    2    0    0 -0.37072346163E+00  0.16718623451E+02 -0.22923212348E+03  0.24824859467E+03  0.93810172777E+02 0.  0.
          5    1    1    2  502    0 -0.23574224984E+02  0.45821221622E+02 -0.16789742303E+03  0.17567682116E+03  0.41800000000E+01 0. -1.
         -5    1    1    2    0  502  0.23944948446E+02 -0.62539845074E+02 -0.99546440067E+02  0.12004815246E+03  0.41800000000E+01 0. -1.
        -11    1    3    3    0    0  0.35911585293E+02  0.24828502953E+02 -0.18679719002E+03  0.19183140180E+03  0.00000000000E+00 0. -1.
         11    1    3    3    0    0 -0.36282308755E+02 -0.81098795017E+01 -0.42434933463E+02  0.56417192877E+02  0.00000000000E+00 0.  1.
</event>
<event>
 6    1  0.4096326E-006  0.1376302E+03  0.7561462E-02  0.1216554E+00
          2   -1    0    0  501    0  0.00000000000E+00  0.00000000000E+00  0.21482758353E+03  0.21482758353E+03  0.00000000000E+00 0. -1.
         -2   -1    0    0    0  501 -0.00000000000E+00 -0.00000000000E+00 -0.12084453071E+03  0.12084453071E+03  0.00000000000E+00 0.  1.
          5    1    1    2  502    0 -0.57664097332E+00 -0.34657890023E+02  0.43080858994E+02  0.55452093444E+02  0.41800000000E+01 0. -1.
         -5    1    1    2    0  502 -0.91567333191E+01  0.10563438642E+03  0.61560921950E+02  0.12267717339E+03  0.41800000000E+01 0. -1.
        -11    1    1    2    0    0  0.52000067417E+01 -0.10237635093E+03 -0.43970567458E+02  0.11154088086E+03  0.00000000000E+00 0.  1.
         11    1    1    2    0    0  0.45333675507E+01  0.31399854537E+02  0.33311839338E+02  0.46001966549E+02  0.00000000000E+00 0. -1.
</event>
<event>
 7    1  0.4096326E-006  0.9669776E+02  0.7561462E-02  0.1287397E+00
          2   -1    0    0  501    0  0.00000000000E+00  0.00000000000E+00  0.24218985617E+03  0.24218985617E+03  0.00000000000E+00 0. -1.
         -2   -1    0    0    0  501 -0.00000000000E+00 -0.00000000000E+00 -0.51121288371E+02  0.51121288371E+02  0.00000000000E+00 0.  1.
         23    2    1    2    0    0 -0.33989271976E+01 -0.14899868753E+02  0.11227669150E+03  0.14468610017E+03  0.89969179903E+02 0.  0.
          5    1    1    2  502    0 -0.35969607842E+02 -0.27071761616E+02  0.78890333032E+02  0.90927718608E+02  0.41800000000E+01 0. -1.
         -5    1    1    2    0  502  0.39368535040E+02  0.41971630369E+02 -0.98456731108E-01  0.57697325768E+02  0.41800000000E+01 0. -1.
        -11    1    3    3    0    0  0.40351277387E+02 -0.22316712743E+02  0.66586786453E+02  0.80994205870E+02  0.00000000000E+00 0. -1.
         11    1    3    3    0    0 -0.43750204584E+02  0.74168439899E+01  0.45689905049E+02  0.63691894299E+02  0.00000000000E+00 0.  1.
</event>
<event>
 7    1  0.9614622E-006  0.3534358E+03  0.7561462E-02  0.1061214E+00
          2   -1    0    0  501    0  0.00000000000E+00  0.00000000000E+00  0.24162132815E+04  0.24162132815E+04  0.00000000000E+00 0. -1.
         -2   -1    0    0    0  501 -0.00000000000E+00 -0.00000000000E+00 -0.58216840600E+02  0.58216840600E+02  0.00000000000E+00 0.  1.
         23    2    1    2    0    0 -0.15932504882E+03  0.30966780548E+03  0.14484271700E+04  0.14924717115E+04  0.90840090028E+02 0.  0.
          5    1    1    2  502    0  0.80120092716E+02 -0.17021145964E+03  0.65109647262E+03  0.67774276780E+03  0.41800000000E+01 0.  1.
         -5    1    1    2    0  502  0.79204956105E+02 -0.13945634583E+03  0.25847279831E+03  0.30421564282E+03  0.41800000000E+01 0.  1.
        -11    1    3    3    0    0 -0.67904611224E+02  0.21988303685E+03  0.99670075322E+03  0.10229232511E+04  0.00000000000E+00 0.  1.
         11    1    3    3    0    0 -0.91420437596E+02  0.89784768629E+02  0.45172641678E+03  0.46954846044E+03  0.00000000000E+00 0. -1.
</event>
<event>
 7    1  0.4096326E-006  0.8968306E+02  0.7561462E-02  0.1303621E+00
         -2   -1    0    0    0  501 -0.00000000000E+00  0.00000000000E+00  0.11926971311E+03  0.11926971311E+03  0.00000000000E+00 0.  1.
          2   -1    0    0  501    0  0.00000000000E+00 -0.00000000000E+00 -0.11184525924E+03  0.11184525924E+03  0.00000000000E+00 0. -1.
         23    2    1    2    0    0  0.16949181675E+01 -0.69998070531E+01 -0.33499149226E+02  0.99301069120E+02  0.93202142052E+02 0.  0.
          5    1    1    2  502    0  0.25504646280E+02 -0.31661634054E+02 -0.26978886118E+02  0.48972224261E+02  0.41800000000E+01 0. -1.
         -5    1    1    2    0  502 -0.27199564447E+02  0.38661441107E+02  0.67902489213E+02  0.82841678978E+02  0.41800000000E+01 0. -1.
        -11    1    3    3    0    0  0.88913593810E+01  0.41280138737E+02 -0.43587023010E+01  0.42451200354E+02  0.00000000000E+00 0. -1.
         11    1    3    3    0    0 -0.71964412135E+01 -0.48279945790E+02 -0.29140446925E+02  0.56849868765E+02  0.00000000000E+00 0.  1.
</event>
<event>
 7    1  0.4096326E-006  0.2542397E+03  0.7561462E-02  0.1110654E+00
          2   -1    0    0  501    0  0.00000000000E+00  0.00000000000E+00  0.20711009583E+04  0.20711009583E+04  0.00000000000E+00 0. -1.
         -2   -1    0    0    0  501 -0.00000000000E+00 -0.00000000000E+00 -0.34058926155E+02  0.34058926155E+02  0.00000000000E+00 0.  1.
         23    2    1    2    0    0 -0.13348156109E+03  0.20109778175E+03  0.93143771340E+03  0.96662038542E+03  0.92309861861E+02 0.  0.
          5    1    1    2  502    0  0.10228023097E+03 -0.20127624356E+03  0.79816822166E+03  0.82949584347E+03  0.41800000000E+01 0. -1.
         -5    1    1    2    0  502  0.31201330124E+02  0.17846180836E+00  0.30743609711E+03  0.30904365558E+03  0.41800000000E+01 0. -1.
        -11    1    3    3    0    0 -0.12817081572E+03  0.13980944837E+03  0.78878603368E+03  0.81126928130E+03  0.00000000000E+00 0. -1.
         11    1    3    3    0    0 -0.53107453706E+01  0.61288333378E+02  0.14265167972E+03  0.15535110412E+03  0.00000000000E+00 0.  1.
</event>
<event>
 7    1  0.4096326E-006  0.1519746E+03  0.7561462E-02  0.1198067E+00
          1   -1    0    0  501    0  0.00000000000E+00  0.00000000000E+00  0.96755564259E+03  0.96755564259E+03  0.00000000000E+00 0. -1.
         -1   -1    0    0    0  501 -0.00000000000E+00 -0.00000000000E+00 -0.25113375956E+02  0.25113375956E+02  0.00000000000E+00 0.  1.
         23    2    1    2    0    0  0.10855380666E+03 -0.70815656370E+01  0.51976657419E+03  0.53864639735E+03  0.90269442366E+02 0.  0.
          5    1    1    2  502    0 -0.98437033630E+02  0.55409678768E+02  0.33163314212E+03  0.35036851377E+03  0.41800000000E+01 0. -1.
         -5    1    1    2    0  502 -0.10116773032E+02 -0.48328113131E+02  0.91042550332E+02  0.10365410743E+03  0.41800000000E+01 0. -1.
        -11    1    3    3    0    0  0.16532134183E+02 -0.40273263931E+02  0.16092955539E+03  0.16671403374E+03  0.00000000000E+00 0. -1.
         11    1    3    3    0    0  0.92021672479E+02  0.33191698294E+02  0.35883701880E+03  0.37193236361E+03  0.00000000000E+00 0.  1.
</event>
<event>
 7    1  0.4096326E-006  0.1219950E+03  0.7561462E-02  0.1239842E+00
          3   -1    0    0  501    0  0.00000000000E+00  0.00000000000E+00  0.43512641109E+03  0.43512641109E+03  0.00000000000E+00 0. -1.
         -3   -1    0    0    0  501 -0.00000000000E+00 -0.00000000000E+00 -0.46609740216E+02  0.46609740216E+02  0.00000000000E+00 0.  1.
         23    2    1    2    0    0  0.11499229143E+02  0.80120398065E+02  0.25048878755E+03  0.27863211504E+03  0.91322025744E+02 0.  0.
          5    1    1    2  502    0 -0.37061057320E+02  0.10173053588E+02  0.32144433542E+01  0.38791984160E+02  0.41800000000E+01 0.  1.
         -5    1    1    2    0  502  0.25561828177E+02 -0.90293451653E+02  0.13481343997E+03  0.16431205210E+03  0.41800000000E+01 0.  1.
        -11    1    3    3    0    0  0.25593868734E+02 -0.41737991374E+01  0.19817590414E+02  0.32637457098E+02  0.00000000000E+00 0.  1.
         11    1    3    3    0    0 -0.14094639591E+02  0.84294197202E+02  0.23067119714E+03  0.24599465794E+03  0.00000000000E+00 0. -1.
</event>
<event>
 7    1  0.4096326E-006  0.1110865E+03  0.7561462E-02  0.1258571E+00
          3   -1    0    0  501    0  0.00000000000E+00  0.00000000000E+00  0.12403706525E+03  0.12403706525E+03  0.00000000000E+00 0. -1.
         -3   -1    0    0    0  501 -0.00000000000E+00 -0.00000000000E+00 -0.11835075099E+03  0.11835075099E+03  0.00000000000E+00 0.  1.
         23    2    1    2    0    0 -0.58790425053E+01  0.52741506055E+02  0.16341420812E+02  0.10609398425E+03  0.90402775722E+02 0.  0.
          5    1    1    2  502    0  0.39205070026E+02 -0.75686938861E+02  0.17117411578E+02  0.87040383782E+02  0.41800000000E+01 0.  1.
         -5    1    1    2    0  502 -0.33326027520E+02  0.22945432806E+02 -0.27772518131E+02  0.49253448207E+02  0.41800000000E+01 0.  1.
        -11    1    3    3    0    0  0.28183846881E+02  0.55226436209E+02  0.30529166779E+02  0.69110914518E+02  0.00000000000E+00 0. -1.
         11    1    3    3    0    0 -0.34062889387E+02 -0.24849301535E+01 -0.14187745966E+02  0.36983069732E+02  0.00000000000E+00 0.  1.
</event>
<event>
 7    1  0.4096326E-006  0.1777305E+03  0.7561462E-02  0.1170018E+00
         -2   -1    0    0    0  501 -0.00000000000E+00  0.00000000000E+00  0.85875500145E+02  0.85875500145E+02  0.00000000000E+00 0.  1.
          2   -1    0    0  501    0  0.00000000000E+00 -0.00000000000E+00 -0.51743312203E+03  0.51743312203E+03  0.00000000000E+00 0. -1.
         23    2    1    2    0    0  0.10846113998E+03  0.12637301595E+02 -0.25367617443E+03  0.29455914491E+03  0.10242054528E+03 0.  0.
          5    1    1    2  502    0 -0.11659948678E+03  0.73621812328E+02 -0.36212726796E+02  0.14263395651E+03  0.41800000000E+01 0. -1.
         -5    1    1    2    0  502  0.81383468068E+01 -0.86259113922E+02 -0.14166872065E+03  0.16611552075E+03  0.41800000000E+01 0.  1.
        -11    1    3    3    0    0  0.34597851613E+02  0.39180558577E+02 -0.36819973813E+02  0.63936202407E+02  0.00000000000E+00 0. -1.
         11    1    3    3    0    0  0.73863288365E+02 -0.26543256982E+02 -0.21685620062E+03  0.23062294250E+03  0.00000000000E+00 0.  1.
</event>
<event>
 7    1  0.4096326E-006  0.1501155E+03  0.7561462E-02  0.1200331E+00
         -1   -1    0    0    0  501 -0.00000000000E+00  0.00000000000E+00  0.52455617492E+02  0.52455617492E+02  0.00000000000E+00 0.  1.
          1   -1    0    0  501    0  0.00000000000E+00 -0.00000000000E+00 -0.46494392076E+03  0.46494392076E+03  0.00000000000E+00 0. -1.
         23    2    1    2    0    0 -0.10710249621E+03  0.13945492170E+02 -0.24067750527E+03  0.27900484675E+03  0.90843940463E+02 0.  0.
          5    1    1    2  502    0  0.17729048741E+01  0.43667498324E+02 -0.59481525074E+02  0.73929140578E+02  0.41800000000E+01 0.  1.
         -5    1    1    2    0  502  0.10532959134E+03 -0.57612990494E+02 -0.11232927293E+03  0.16446555093E+03  0.41800000000E+01 0.  1.
        -11    1    3    3    0    0 -0.18537081803E+02  0.39826621595E+02 -0.46213764560E+02  0.63761236063E+02  0.00000000000E+00 0.  1.
         11    1    3    3    0    0 -0.88565414412E+02 -0.25881129425E+02 -0.19446374071E+03  0.21524361068E+03  0.00000000000E+00 0. -1.
</event>
<event>
 7    1  0.4096326E-006  0.1110694E+03  0.7561462E-02  0.1258602E+00
         -2   -1    0    0    0  501 -0.00000000000E+00  0.00000000000E+00  0.12657573334E+03  0.12657573334E+03  0.00000000000E+00 0.  1.
          2   -1    0    0  501    0  0.00000000000E+00 -0.00000000000E+00 -0.17722952605E+03  0.17722952605E+03  0.00000000000E+00 0. -1.
         23    2    1    2    0    0 -0.90320961293E+02 -0.45355211955E+02 -0.41878883427E+02  0.14276271719E+03  0.91719034239E+02 0.  0.
          5    1    1    2  502    0  0.71029617821E+02  0.31183258335E+02 -0.64035159280E+02  0.10067559899E+03  0.41800000000E+01 0.  1.
         -5    1    1    2    0  502  0.19291343472E+02  0.14171953620E+02  0.55260250000E+02  0.60366943209E+02  0.41800000000E+01 0.  1.
        -11    1    3    3    0    0  0.45262264682E+01 -0.22016594133E+02  0.17471345120E+02  0.28468667752E+02  0.00000000000E+00 0.  1.
         11    1    3    3    0    0 -0.94847187761E+02 -0.23338617822E+02 -0.59350228548E+02  0.11429404944E+03  0.00000000000E+00 0. -1.
</event>
<event>
 7    1  0.4096326E-006  0.1581178E+03  0.7561462E-02  0.1190838E+00
         -2   -1    0    0    0  501 -0.00000000000E+00  0.00000000000E+00  0.18839299687E+02  0.18839299687E+02  0.00000000000E+00 0.  1.
          2   -1    0    0  501    0  0.00000000000E+00 -0.00000000000E+00 -0.15725271456E+04  0.15725271456E+04  0.00000000000E+00 0. -1.
         23    2    1    2    0    0  0.74161154835E+02 -0.11066246782E+03 -0.75181276184E+03  0.76893195675E+03  0.91037720613E+02 0.  0.
          5    1    1    2  502    0 -0.84752153617E+02  0.58298701170E+02 -0.28942998750E+03  0.30719514346E+03  0.41800000000E+01 0.  1.
         -5    1    1    2    0  502  0.10590998782E+02  0.52363766654E+02 -0.51244509655E+03  0.51523934505E+03  0.41800000000E+01 0.  1.
        -11    1    3    3    0    0  0.31806603704E+02 -0.11288794953E+03 -0.59718857478E+03  0.60859637119E+03  0.00000000000E+00 0. -1.
         11    1    3    3    0    0  0.42354551131E+02  0.22254817031E+01 -0.15462418707E+03  0.16033558556E+03  0.00000000000E+00 0.  1.
</event>
<event>
 7    1  0.4096326E-006  0.2808363E+03  0.7561462E-02  0.1095233E+00
          3   -1    0    0  501    0  0.00000000000E+00  0.00000000000E+00  0.59592806293E+03  0.59592806293E+03  0.00000000000E+00 0. -1.
         -3   -1    0    0    0  501 -0.00000000000E+00 -0.00000000000E+00 -0.14690865646E+03  0.14690865646E+03  0.00000000000E+00 0.  1.
         23    2    1    2    0    0 -0.63770163378E+02  0.26643581444E+03  0.27477582211E+03  0.39489620753E+03  0.73393360378E+02 0.  0.
          5    1    1    2  502    0  0.73118569474E+02 -0.14386542720E+03  0.40904932374E+02  0.16653609890E+03  0.41800000000E+01 0. -1.
         -5    1    1    2    0  502 -0.93484060955E+01 -0.12257038725E+03  0.13333865199E+03  0.18140441296E+03  0.41800000000E+01 0. -1.
        -11    1    3    3    0    0 -0.22913457356E+02  0.18203077533E+03  0.14034909832E+03  0.23099372090E+03  0.00000000000E+00 0.  1.
         11    1    3    3    0    0 -0.40856706022E+02  0.84405039116E+02  0.13442672379E+03  0.16390248663E+03  0.00000000000E+00 0. -1.
</event>
<event>
 7    1  0.4096326E-006  0.1177040E+03  0.7561462E-02  0.1246933E+00
          3   -1    0    0  501    0  0.00000000000E+00  0.00000000000E+00  0.27436535514E+03  0.27436535514E+03  0.00000000000E+00 0. -1.
         -3   -1    0    0    0  501 -0.00000000000E+00 -0.00000000000E+00 -0.90726703413E+02  0.90726703413E+02  0.00000000000E+00 0.  1.
         23    2    1    2    0    0  0.77167113335E+02 -0.96994093657E+01  0.18250402627E+03  0.21778833308E+03  0.89862097140E+02 0.  0.
          5    1    1    2  502    0  0.24509929402E+02 -0.62937417062E+01 -0.30209420327E+02  0.39628642425E+02  0.41800000000E+01 0.  1.
         -5    1    1    2    0  502 -0.10167704274E+03  0.15993151072E+02  0.31344045785E+02  0.10767508304E+03  0.41800000000E+01 0.  1.
        -11    1    3    3    0    0  0.90614844987E+02 -0.79292783518E+00  0.10532823925E+03  0.13894501376E+03  0.00000000000E+00 0.  1.
         11    1    3    3    0    0 -0.13447731652E+02 -0.89064815305E+01  0.77175787019E+02  0.78843319323E+02  0.00000000000E+00 0. -1.
</event>
<event>
 7    1  0.4096326E-006  0.9397853E+02  0.7561462E-02  0.1293493E+00
         -1   -1    0    0    0  501 -0.00000000000E+00  0.00000000000E+00  0.16682169270E+03  0.16682169270E+03  0.00000000000E+00 0.  1.
          1   -1    0    0  501    0  0.00000000000E+00 -0.00000000000E+00 -0.73669485068E+02  0.73669485068E+02  0.00000000000E+00 0. -1.
         23    2    1    2    0    0 -0.61924698253E+01  0.18608492106E+02  0.35757256484E+02  0.10147052157E+03  0.92914276059E+02 0.  0.
          5    1    1    2  502    0  0.15524712886E+01  0.39374738036E+02  0.68990066700E+02  0.79560554710E+02  0.41800000000E+01 0.  1.
         -5    1    1    2    0  502  0.46399985368E+01 -0.57983230142E+02 -0.11595115554E+02  0.59460101486E+02  0.41800000000E+01 0.  1.
        -11    1    3    3    0    0  0.39251123881E+02 -0.36304883080E+01 -0.16899375072E+00  0.39419027514E+02  0.00000000000E+00 0. -1.
         11    1    3    3    0    0 -0.45443593706E+02  0.22238980414E+02  0.35926250235E+02  0.62051494057E+02  0.00000000000E+00 0.  1.
</event>
<event>
 7    1  0.4096326E-006  0.1219049E+03  0.7561462E-02  0.1239987E+00
          2   -1    0    0  501    0  0.00000000000E+00  0.00000000000E+00  0.38155495839E+03  0.38155495839E+03  0.00000000000E+00 0. -1.
         -2   -1    0    0    0  501 -0.00000000000E+00 -0.00000000000E+00 -0.50592960671E+02  0.50592960671E+02  0.00000000000E+00 0.  1.
         23    2    1    2    0    0 -0.66726280074E+02 -0.51112467588E+02  0.20281755675E+03  0.23432733899E+03  0.81911291518E+02 0.  0.
          5    1    1    2  502    0  0.70787001833E+02 -0.21323795498E+02  0.87243430853E+02  0.11443073237E+03  0.41800000000E+01 0. -1.
         -5    1    1    2    0  502 -0.40607217598E+01  0.72436263086E+02  0.40901010117E+02  0.83389847701E+02  0.41800000000E+01 0. -1.
        -11    1    3    3    0    0  0.48280831147E+01 -0.17281842642E+02  0.14957789112E+01  0.18005827563E+02  0.00000000000E+00 0.  1.
         11    1    3    3    0    0 -0.71554363188E+02 -0.33830624946E+02  0.20132177784E+03  0.21632151143E+03  0.00000000000E+00 0. -1.
</event>
<event>
 7    1  0.4096326E-006  0.1206759E+03  0.7561462E-02  0.1241986E+00
         -1   -1    0    0    0  501 -0.00000000000E+00  0.00000000000E+00  0.49265586544E+02  0.49265586544E+02  0.00000000000E+00 0.  1.
          1   -1    0    0  501    0  0.00000000000E+00 -0.00000000000E+00 -0.49634926148E+03  0.49634926148E+03  0.00000000000E+00 0. -1.
         23    2    1    2    0    0 -0.42813203586E+02  0.55564363097E+02 -0.35943941823E+03  0.37753144037E+03  0.91721994296E+02 0.  0.
          5    1    1    2  502    0 -0.27557251502E+02 -0.49295191350E+02 -0.78394537889E+02  0.96708810205E+02  0.41800000000E+01 0.  1.
         -5    1    1    2    0  502  0.70370455088E+02 -0.62691717470E+01 -0.92497188162E+01  0.71374597455E+02  0.41800000000E+01 0.  1.
        -11    1    3    3    0    0 -0.11023654063E+02  0.75582658453E+02 -0.21058393409E+03  0.22400859918E+03  0.00000000000E+00 0.  1.
         11    1    3    3    0    0 -0.31789549523E+02 -0.20018295356E+02 -0.14885548414E+03  0.15352284119E+03  0.00000000000E+00 0. -1.
</event>
<event>
 7    1  0.4096326E-006  0.9501700E+02  0.7561462E-02  0.1291138E+00
         -1   -1    0    0    0  501 -0.00000000000E+00  0.00000000000E+00  0.29448961763E+03  0.29448961763E+03  0.00000000000E+00 0.  1.
          1   -1    0    0  501    0  0.00000000000E+00 -0.00000000000E+00 -0.53525509744E+02  0.53525509744E+02  0.00000000000E+00 0. -1.
         23    2    1    2    0    0 -0.35483571307E+02 -0.32055730326E+02  0.52805039771E+02  0.11706578299E+03  0.92894411252E+02 0.  0.
          5    1    1    2  502    0  0.72011384296E+02 -0.91609257463E+01  0.13962260063E+03  0.15742142496E+03  0.41800000000E+01 0. -1.
         -5    1    1    2    0  502 -0.36527812989E+02  0.41216656072E+02  0.48536467483E+02  0.73527919427E+02  0.41800000000E+01 0. -1.
        -11    1    3    3    0    0 -0.10399426478E+02 -0.35297255559E+02 -0.18659122232E+02  0.41257813364E+02  0.00000000000E+00 0. -1.
         11    1    3    3    0    0 -0.25084144829E+02  0.32415252329E+01  0.71464162003E+02  0.75807969624E+02  0.00000000000E+00 0.  1.
</event>
<event>
 7    1  0.4096326E-006  0.9754028E+02  0.7561462E-02  0.1285555E+00
          1   -1    0    0  501    0  0.00000000000E+00  0.00000000000E+00  0.12679165319E+03  0.12679165319E+03  0.00000000000E+00 0. -1.
         -1   -1    0    0    0  501 -0.00000000000E+00 -0.00000000000E+00 -0.16491141832E+03  0.16491141832E+03  0.00000000000E+00 0.  1.
         23    2    1    2    0    0 -0.15777840387E+01  0.29541420469E+01  0.72023080453E+02  0.12499727830E+03  0.10210670451E+03 0.  0.
          5    1    1    2  502    0  0.35794311040E+02 -0.44829674358E+02 -0.18872496051E+02  0.60535740790E+02  0.41800000000E+01 0. -1.
         -5    1    1    2    0  502 -0.34216527001E+02  0.41875532311E+02 -0.91270349535E+02  0.10617005242E+03  0.41800000000E+01 0. -1.
        -11    1    3    3    0    0  0.40828889718E+02  0.23306809220E+00 -0.62450402368E+00  0.40834330674E+02  0.00000000000E+00 0.  1.
         11    1    3    3    0    0 -0.42406673757E+02  0.27210739547E+01  0.72647584477E+02  0.84162947625E+02  0.00000000000E+00 0. -1.
</event>
<event>
 7    1  0.4096326E-006  0.1217595E+03  0.7561462E-02  0.1240222E+00
         -1   -1    0    0    0  501 -0.00000000000E+00  0.00000000000E+00  0.48966021310E+02  0.48966021310E+02  0.00000000000E+00 0.  1.
          1   -1    0    0  501    0  0.00000000000E+00 -0.00000000000E+00 -0.32155311392E+03  0.32155311392E+03  0.00000000000E+00 0. -1.
         23    2    1    2    0    0 -0.20504468281E+02  0.60988868871E+02 -0.13296174821E+03  0.17231975243E+03  0.88742296831E+02 0.  0.
          5    1    1    2  502    0 -0.79575159892E+01 -0.91957971396E+02 -0.12039176073E+03  0.15176046592E+03  0.41800000000E+01 0. -1.
         -5    1    1    2    0  502  0.28461984270E+02  0.30969102526E+02 -0.19233583674E+02  0.46438916877E+02  0.41800000000E+01 0. -1.
        -11    1    3    3    0    0  0.33978420232E+02  0.33942732298E+02 -0.48712653483E+02  0.68407344099E+02  0.00000000000E+00 0. -1.
         11    1    3    3    0    0 -0.54482888512E+02  0.27046136573E+02 -0.84249094724E+02  0.10391240833E+03  0.00000000000E+00 0.  1.
</event>
<event>
 7    1  0.4096326E-006  0.9033264E+02  0.7561462E-02  0.1302048E+00
          2   -1    0    0  501    0  0.00000000000E+00  0.00000000000E+00  0.63274097203E+02  0.63274097203E+02  0.00000000000E+00 0. -1.
         -2   -1    0    0    0  501 -0.00000000000E+00 -0.00000000000E+00 -0.20697886438E+03  0.20697886438E+03  0.00000000000E+00 0.  1.
         23    2    1    2    0    0 -0.24632956877E+02 -0.11301591417E+02 -0.29590897552E+02  0.98774224480E+02  0.90256399610E+02 0.  0.
          5    1    1    2  502    0 -0.34119996512E+02  0.25475907533E+02 -0.10072238305E+03  0.10943339012E+03  0.41800000000E+01 0. -1.
         -5    1    1    2    0  502  0.58752953389E+02 -0.14174316116E+02 -0.13391486576E+02  0.62045346981E+02  0.41800000000E+01 0. -1.
        -11    1    3    3    0    0 -0.21707376675E+02  0.29368903889E+02 -0.42470137004E+02  0.56012991840E+02  0.00000000000E+00 0.  1.
         11    1    3    3    0    0 -0.29255802029E+01 -0.40670495307E+02  0.12879239451E+02  0.42761232640E+02  0.00000000000E+00 0. -1.
</event>
<event>
 7    1  0.4096326E-006  0.1108008E+03  0.7561462E-02  0.1259094E+00
         -2   -1    0    0    0  501 -0.00000000000E+00  0.00000000000E+00  0.42244246474E+02  0.42244246474E+02  0.00000000000E+00 0.  1.
          2   -1    0    0  501    0  0.00000000000E+00 -0.00000000000E+00 -0.40599909645E+03  0.40599909645E+03  0.00000000000E+00 0. -1.
         23    2    1    2    0    0  0.84261483876E+01  0.67384257258E+02 -0.21174199888E+03  0.23999405394E+03  0.90281967929E+02 0.  0.
          5    1    1    2  502    0 -0.46656725938E+02  0.23901153019E+01 -0.10679300607E+03  0.11663953563E+03  0.41800000000E+01 0. -1.
         -5    1    1    2    0  502  0.38230577551E+02 -0.69774372560E+02 -0.45219845028E+02  0.91609753358E+02  0.41800000000E+01 0. -1.
        -11    1    3    3    0    0 -0.23742111009E+02  0.56131600833E+02 -0.64017150199E+02  0.88389139416E+02  0.00000000000E+00 0.  1.
         11    1    3    3    0    0  0.32168259396E+02  0.11252656425E+02 -0.14772484868E+03  0.15160491452E+03  0.00000000000E+00 0. -1.
</event>
<event>
 7    1  0.4096326E-006  0.1089742E+03  0.7561462E-02  0.1262481E+00
          4   -1    0    0  501    0  0.00000000000E+00  0.00000000000E+00  0.28147043601E+03  0.28147043601E+03  0.00000000000E+00 0. -1.
         -4   -1    0    0    0  501 -0.00000000000E+00 -0.00000000000E+00 -0.49227226607E+02  0.49227226607E+02  0.00000000000E+00 0.  1.
         23    2    1    2    0    0  0.12774361724E+02 -0.34477592797E+02  0.13104130580E+03  0.16565003859E+03  0.94425752511E+02 0.  0.
          5    1    1    2  502    0  0.15864282697E+01 -0.46772307174E+02  0.45521535558E+02  0.65420547785E+02  0.41800000000E+01 0. -1.
         -5    1    1    2    0  502 -0.14360789994E+02  0.81249899971E+02  0.55680368049E+02  0.99627076243E+02  0.41800000000E+01 0. -1.
        -11    1    3    3    0    0 -0.47210344552E+01  0.25467703198E+02  0.70855990073E+01  0.26853263969E+02  0.00000000000E+00 0.  1.
         11    1    3    3    0    0  0.17495396179E+02 -0.59945295995E+02  0.12395570679E+03  0.13879677462E+03  0.00000000000E+00 0. -1.
</event>
<event>
 7    1  0.4096326E-006  0.9812985E+02  0.7561462E-02  0.1284278E+00
          4   -1    0    0  501    0  0.00000000000E+00  0.00000000000E+00  0.11529717125E+03  0.11529717125E+03  0.00000000000E+00 0.  1.
         -4   -1    0    0    0  501 -0.00000000000E+00 -0.00000000000E+00 -0.16016558710E+03  0.16016558710E+03  0.00000000000E+00 0. -1.
         23    2    1    2    0    0 -0.54606700846E+02 -0.43876395440E+02  0.18093616688E+02  0.11887816972E+03  0.94327145703E+02 0.  0.
          5    1    1    2  502    0  0.25292172703E+02  0.42629694897E+02 -0.98477188220E+02  0.11032775665E+03  0.41800000000E+01 0. -1.
         -5    1    1    2    0  502  0.29314528143E+02  0.12467005428E+01  0.35515155684E+02  0.46256831990E+02  0.41800000000E+01 0. -1.
        -11    1    3    3    0    0 -0.57097046461E+02  0.14129359893E+02  0.15176813632E+02  0.60745758680E+02  0.00000000000E+00 0.  1.
         11    1    3    3    0    0  0.24903456146E+01 -0.58005755333E+02  0.29168030562E+01  0.58132411038E+02  0.00000000000E+00 0. -1.
</event>
<event>
 7    1  0.4096326E-006  0.1460616E+03  0.7561462E-02  0.1205398E+00
          1   -1    0    0  501    0  0.00000000000E+00  0.00000000000E+00  0.13351228496E+03  0.13351228496E+03  0.00000000000E+00 0. -1.
         -1   -1    0    0    0  501 -0.00000000000E+00 -0.00000000000E+00 -0.19336328164E+03  0.19336328164E+03  0.00000000000E+00 0.  1.
         23    2    1    2    0    0  0.44636155047E+02  0.10068664213E+03  0.13875530935E+02  0.14463003525E+03  0.92709926637E+02 0.  0.
          5    1    1    2  502    0  0.36970551392E+02 -0.26861151006E+01 -0.28223547037E+02  0.46776894851E+02  0.41800000000E+01 0.  1.
         -5    1    1    2    0  502 -0.81606706439E+02 -0.98000527027E+02 -0.45502980586E+02  0.13546863650E+03  0.41800000000E+01 0.  1.
        -11    1    3    3    0    0 -0.19113205055E+01  0.73077796501E+02  0.41295879545E+02  0.83960509496E+02  0.00000000000E+00 0. -1.
         11    1    3    3    0    0  0.46547475552E+02  0.27608845626E+02 -0.27420348609E+02  0.60669525752E+02  0.00000000000E+00 0.  1.
</event>
<event>
 7    1  0.4096326E-006  0.8996422E+02  0.7561462E-02  0.1302938E+00
          3   -1    0    0  501    0  0.00000000000E+00  0.00000000000E+00  0.19674106244E+03  0.19674106244E+03  0.00000000000E+00 0. -1.
         -3   -1    0    0    0  501 -0.00000000000E+00 -0.00000000000E+00 -0.57670755940E+02  0.57670755940E+02  0.00000000000E+00 0.  1.
         23    2    1    2    0    0  0.25061035989E+02  0.94876770761E+01  0.67530861981E+02  0.11178681974E+03  0.84957661253E+02 0.  0.
          5    1    1    2  502    0  0.46340591566E+02 -0.46024896105E+01  0.92675391621E+01  0.47665427926E+02  0.41800000000E+01 0. -1.
         -5    1    1    2    0  502 -0.71401627555E+02 -0.48851874656E+01  0.62271905360E+02  0.94959570720E+02  0.41800000000E+01 0.  1.
        -11    1    3    3    0    0  0.34175797786E+02 -0.13506012640E+02  0.76986086468E+02  0.85306828809E+02  0.00000000000E+00 0. -1.
         11    1    3    3    0    0 -0.91147617966E+01  0.22993689716E+02 -0.94552244876E+01  0.26479990927E+02  0.00000000000E+00 0.  1.
</event>
<event>
 7    1  0.4096326E-006  0.4172258E+03  0.7561462E-02  0.1037973E+00
          1   -1    0    0  501    0  0.00000000000E+00  0.00000000000E+00  0.53129934733E+03  0.53129934733E+03  0.00000000000E+00 0. -1.
         -1   -1    0    0    0  501 -0.00000000000E+00 -0.00000000000E+00 -0.40346115518E+03  0.40346115518E+03  0.00000000000E+00 0.  1.
         23    2    1    2    0    0 -0.72781563730E+02  0.14841292280E+02  0.17808669978E+03  0.21060697400E+03  0.84397896198E+02 0.  0.
          5    1    1    2  502    0  0.10434130591E+02  0.35094236627E+03 -0.15849242918E+02  0.35147985209E+03  0.41800000000E+01 0. -1.
         -5    1    1    2    0  502  0.62347433139E+02 -0.36578365855E+03 -0.34399264711E+02  0.37267367642E+03  0.41800000000E+01 0.  1.
        -11    1    3    3    0    0 -0.87587596165E+02 -0.47188930771E+01  0.14396985079E+03  0.16858580276E+03  0.00000000000E+00 0.  1.
         11    1    3    3    0    0  0.14806032435E+02  0.19560185357E+02  0.34116848987E+02  0.42021171241E+02  0.00000000000E+00 0. -1.
</event>
<event>
 7    1  0.4096326E-006  0.1134044E+03  0.7561462E-02  0.1254392E+00
         -2   -1    0    0    0  501 -0.00000000000E+00  0.00000000000E+00  0.13302804163E+03  0.13302804163E+03  0.00000000000E+00 0.  1.
          2   -1    0    0  501    0  0.00000000000E+00 -0.00000000000E+00 -0.15236306960E+03  0.15236306960E+03  0.00000000000E+00 0. -1.
         23    2    1    2    0    0  0.60525741894E+02 -0.52691239073E+02 -0.53485397101E+02  0.13289081468E+03  0.91430568285E+02 0.  0.
          5    1    1    2  502    0 -0.25392154035E+02  0.83596343427E+02  0.52558629032E+02  0.10204406894E+03  0.41800000000E+01 0. -1.
         -5    1    1    2    0  502 -0.35133587859E+02 -0.30905104354E+02 -0.18408259900E+02  0.50456227599E+02  0.41800000000E+01 0. -1.
        -11    1    3    3    0    0  0.30321338592E+02 -0.54217071756E+02 -0.73795759630E+02  0.96460813718E+02  0.00000000000E+00 0. -1.
         11    1    3    3    0    0  0.30204403302E+02  0.15258326831E+01  0.20310362529E+02  0.36430000964E+02  0.00000000000E+00 0.  1.
</event>
<event>
 7    1  0.4096326E-006  0.1128557E+03  0.7561462E-02  0.1255371E+00
         -1   -1    0    0    0  501 -0.00000000000E+00  0.00000000000E+00  0.12420819969E+03  0.12420819969E+03  0.00000000000E+00 0.  1.
          1   -1    0    0  501    0  0.00000000000E+00 -0.00000000000E+00 -0.13286776948E+03  0.13286776948E+03  0.00000000000E+00 0. -1.
         23    2    1    2    0    0  0.34866367876E+02  0.51676996906E+02 -0.35044588853E+02  0.11484250056E+03  0.89858227832E+02 0.  0.
          5    1    1    2  502    0 -0.60598997786E+02  0.88210694349E+01  0.42197869906E+02  0.74486122354E+02  0.41800000000E+01 0.  1.
         -5    1    1    2    0  502  0.25732629910E+02 -0.60498066341E+02 -0.15812850849E+02  0.67747346259E+02  0.41800000000E+01 0.  1.
        -11    1    3    3    0    0  0.91595752475E+01  0.67599136670E+02  0.44429617878E+00  0.68218314962E+02  0.00000000000E+00 0.  1.
         11    1    3    3    0    0  0.25706792629E+02 -0.15922139763E+02 -0.35488885032E+02  0.46624185598E+02  0.00000000000E+00 0. -1.
</event>
<event>
 7    1  0.4096326E-006  0.9666332E+02  0.7561462E-02  0.1287473E+00
          2   -1    0    0  501    0  0.00000000000E+00  0.00000000000E+00  0.22766026494E+03  0.22766026494E+03  0.00000000000E+00 0. -1.
         -2   -1    0    0    0  501 -0.00000000000E+00 -0.00000000000E+00 -0.10939698239E+03  0.10939698239E+03  0.00000000000E+00 0.  1.
         23    2    1    2    0    0  0.14649034079E+02  0.25680265739E+01  0.12775593472E+03  0.15743289335E+03  0.90787378492E+02 0.  0.
          5    1    1    2  502    0 -0.70785592080E+02 -0.78938181471E+01  0.57734115655E+02  0.91780242545E+02  0.41800000000E+01 0. -1.
         -5    1    1    2    0  502  0.56136558001E+02  0.53257915731E+01 -0.67226767825E+02  0.87844111426E+02  0.41800000000E+01 0.  1.
        -11    1    3    3    0    0  0.39982360203E+02  0.30492416464E+01  0.12578119085E+03  0.13201816153E+03  0.00000000000E+00 0.  1.
         11    1    3    3    0    0 -0.25333326123E+02 -0.48121507242E+00  0.19747438719E+01  0.25414731826E+02  0.00000000000E+00 0. -1.
</event>
<event>
 7    1  0.4096326E-006  0.1100609E+03  0.7561462E-02  0.1260457E+00
         -1   -1    0    0    0  501 -0.00000000000E+00  0.00000000000E+00  0.10130278199E+03  0.10130278199E+03  0.00000000000E+00 0.  1.
          1   -1    0    0  501    0  0.00000000000E+00 -0.00000000000E+00 -0.14903147815E+03  0.14903147815E+03  0.00000000000E+00 0. -1.
         23    2    1    2    0    0  0.18540619967E+02  0.53156458920E+02 -0.30824348551E+02  0.11213679502E+03  0.91951925591E+02 0.  0.
          5    1    1    2  502    0  0.75440740813E+01  0.34424263347E+02 -0.29121184575E+02  0.45907066469E+02  0.41800000000E+01 0. -1.
         -5    1    1    2    0  502 -0.26084694048E+02 -0.87580722267E+02  0.12216836967E+02  0.92290398644E+02  0.41800000000E+01 0. -1.
        -11    1    3    3    0    0  0.47456400799E+02  0.35624444261E+02  0.88616401141E+01  0.59997830554E+02  0.00000000000E+00 0.  1.
         11    1    3    3    0    0 -0.28915780832E+02  0.17532014659E+02 -0.39685988665E+02  0.52138964465E+02  0.00000000000E+00 0. -1.
</event>
<event>
 7    1  0.4096326E-006  0.1254508E+03  0.7561462E-02  0.1234367E+00
         -1   -1    0    0    0  501 -0.00000000000E+00  0.00000000000E+00  0.13861291514E+03  0.13861291514E+03  0.00000000000E+00 0.  1.
          1   -1    0    0  501    0  0.00000000000E+00 -0.00000000000E+00 -0.14160694146E+03  0.14160694146E+03  0.00000000000E+00 0. -1.
         23    2    1    2    0    0  0.51314725273E+02  0.48704633805E+02 -0.51649506688E+02  0.12851563770E+03  0.94038583619E+02 0.  0.
          5    1    1    2  502    0 -0.87267844593E+02 -0.24413154972E+02  0.63136539093E+01  0.90934116047E+02  0.41800000000E+01 0.  1.
         -5    1    1    2    0  502  0.35953119320E+02 -0.24291478833E+02  0.42341826456E+02  0.60770102849E+02  0.41800000000E+01 0.  1.
        -11    1    3    3    0    0 -0.10086562592E+02  0.54030571975E+02 -0.15686424060E+02  0.57158598239E+02  0.00000000000E+00 0.  1.
         11    1    3    3    0    0  0.61401287865E+02 -0.53259381702E+01 -0.35963082628E+02  0.71357039463E+02  0.00000000000E+00 0. -1.
</event>
<event>
 7    1  0.4096326E-006  0.8942069E+02  0.7561462E-02  0.1304261E+00
          2   -1    0    0  501    0  0.00000000000E+00  0.00000000000E+00  0.12675994942E+03  0.12675994942E+03  0.00000000000E+00 0. -1.
         -2   -1    0    0    0  501 -0.00000000000E+00 -0.00000000000E+00 -0.10840660884E+03  0.10840660884E+03  0.00000000000E+00 0.  1.
         23    2    1    2    0    0  0.40767580852E+02 -0.14379362069E+02  0.85920864781E+01  0.10245623821E+03  0.92491594728E+02 0.  0.
          5    1    1    2  502    0 -0.26837816795E+02  0.40197701407E+02  0.58297511695E+02  0.75843232253E+02  0.41800000000E+01 0. -1.
         -5    1    1    2    0  502 -0.13929764057E+02 -0.25818339337E+02 -0.48536257597E+02  0.56867087796E+02  0.41800000000E+01 0. -1.
        -11    1    3    3    0    0  0.22381622317E+02  0.38597964038E+02  0.12223164036E+02  0.46261707539E+02  0.00000000000E+00 0.  1.
         11    1    3    3    0    0  0.18385958535E+02 -0.52977326107E+02 -0.36310775579E+01  0.56194530667E+02  0.00000000000E+00 0. -1.
</event>
<event>
 7    1  0.4096326E-006  0.2695138E+03  0.7561462E-02  0.1101558E+00
          2   -1    0    0  501    0  0.00000000000E+00  0.00000000000E+00  0.16208107210E+04  0.16208107210E+04  0.00000000000E+00 0. -1.
         -2   -1    0    0    0  501 -0.00000000000E+00 -0.00000000000E+00 -0.56916962814E+02  0.56916962814E+02  0.00000000000E+00 0.  1.
         23    2    1    2    0    0 -0.10070924901E+03 -0.24107017113E+03  0.10697647852E+04  0.11049553254E+04  0.90952708441E+02 0.  0.
          5    1    1    2  502    0  0.82039851158E+02  0.79278318347E+02  0.28958069384E+03  0.31127164918E+03  0.41800000000E+01 0. -1.
         -5    1    1    2    0  502  0.18669397852E+02  0.16179185278E+03  0.20454827913E+03  0.26150070925E+03  0.41800000000E+01 0. -1.
        -11    1    3    3    0    0 -0.18377536357E+02 -0.65516347649E+02  0.14625445833E+03  0.16130868616E+03  0.00000000000E+00 0. -1.
         11    1    3    3    0    0 -0.82331712653E+02 -0.17555382348E+03  0.92351032692E+03  0.94364663925E+03  0.00000000000E+00 0.  1.
</event>
<event>
 7    1  0.4096326E-006  0.1092354E+03  0.7561462E-02  0.1261992E+00
          2   -1    0    0  501    0  0.00000000000E+00  0.00000000000E+00  0.45301563959E+03  0.45301563959E+03  0.00000000000E+00 0. -1.
         -2   -1    0    0    0  501 -0.00000000000E+00 -0.00000000000E+00 -0.29988465509E+02  0.29988465509E+02  0.00000000000E+00 0.  1.
         23    2    1    2    0    0 -0.28444198459E+02  0.21729239213E+02  0.18340735489E+03  0.21033289308E+03  0.96542404276E+02 0.  0.
          5    1    1    2  502    0 -0.32491554170E+02  0.23324449757E+02  0.31311343731E+02  0.50966692016E+02  0.41800000000E+01 0.  1.
         -5    1    1    2    0  502  0.60935752629E+02 -0.45053688970E+02  0.20830847546E+03  0.22170452000E+03  0.41800000000E+01 0.  1.
        -11    1    3    3    0    0 -0.47613495789E+01  0.58460608065E+02  0.11621134206E+03  0.13017445667E+03  0.00000000000E+00 0. -1.
         11    1    3    3    0    0 -0.23682848880E+02 -0.36731368852E+02  0.67196012824E+02  0.80158436414E+02  0.00000000000E+00 0.  1.
</event>
<event>
 7    1  0.4096326E-006  0.2659754E+03  0.7561462E-02  0.1103605E+00
         -2   -1    0    0    0  501 -0.00000000000E+00  0.00000000000E+00  0.93491320004E+02  0.93491320004E+02  0.00000000000E+00 0.  1.
          2   -1    0    0  501    0  0.00000000000E+00 -0.00000000000E+00 -0.85904031500E+03  0.85904031500E+03  0.00000000000E+00 0. -1.
         23    2    1    2    0    0 -0.39032464971E+02  0.25589314144E+03 -0.43773324437E+03  0.51653047879E+03  0.90490381440E+02 0.  0.
          5    1    1    2  502    0 -0.91545778179E+01 -0.11240168880E+03 -0.22868585739E+03  0.25501497938E+03  0.41800000000E+01 0. -1.
         -5    1    1    2    0  502  0.48187042789E+02 -0.14349145264E+03 -0.99129893237E+02  0.18098617683E+03  0.41800000000E+01 0. -1.
        -11    1    3    3    0    0 -0.41362554695E+02  0.66807887631E+02 -0.81447106320E+02  0.11317148894E+03  0.00000000000E+00 0.  1.
         11    1    3    3    0    0  0.23300897239E+01  0.18908525380E+03 -0.35628613805E+03  0.40335898985E+03  0.00000000000E+00 0. -1.
</event>
<event>
 7    1  0.4096326E-006  0.8486676E+02  0.7561462E-02  0.1315781E+00
          3   -1    0    0  501    0  0.00000000000E+00  0.00000000000E+00  0.26898137171E+02  0.26898137171E+02  0.00000000000E+00 0. -1.
         -3   -1    0    0    0  501 -0.00000000000E+00 -0.00000000000E+00 -0.57365288488E+03  0.57365288488E+03  0.00000000000E+00 0.  1.
         23    2    1    2    0    0  0.15453866663E+02 -0.35619548516E+02 -0.12823420734E+03  0.16201411583E+03  0.91087801405E+02 0.  0.
          5    1    1    2  502    0 -0.17279245683E+02  0.52287970469E+02 -0.68050255979E+02  0.87640823399E+02  0.41800000000E+01 0. -1.
         -5    1    1    2    0  502  0.18253790200E+01 -0.16668421953E+02 -0.35047028439E+03  0.35089608282E+03  0.41800000000E+01 0. -1.
        -11    1    3    3    0    0 -0.16804444995E+02  0.24082054121E+02 -0.53782312691E+02  0.61277009234E+02  0.00000000000E+00 0.  1.
         11    1    3    3    0    0  0.32258311658E+02 -0.59701602637E+02 -0.74451894644E+02  0.10073710659E+03  0.00000000000E+00 0. -1.
</event>
<event>
 7    1  0.4096326E-006  0.7085471E+02  0.7561462E-02  0.1357210E+00
         -3   -1    0    0    0  501 -0.00000000000E+00  0.00000000000E+00  0.48375784234E+02  0.48375784234E+02  0.00000000000E+00 0.  1.
          3   -1    0    0  501    0  0.00000000000E+00 -0.00000000000E+00 -0.25026694098E+03  0.25026694098E+03  0.00000000000E+00 0. -1.
         23    2    1    2    0    0 -0.83329958508E+01 -0.14076040530E+02 -0.11053390416E+03  0.14288255475E+03  0.89051146793E+02 0.  0.
          5    1    1    2  502    0 -0.22764697585E+02  0.34459491741E+02 -0.10732913179E+03  0.11507694364E+03  0.41800000000E+01 0.  1.
         -5    1    1    2    0  502  0.31097693436E+02 -0.20383451211E+02  0.15971879198E+02  0.40683226831E+02  0.41800000000E+01 0.  1.
        -11    1    3    3    0    0 -0.34320321465E+02 -0.27405130962E+01 -0.10920015863E+03  0.11449921189E+03  0.00000000000E+00 0. -1.
         11    1    3    3    0    0  0.25987325615E+02 -0.11335527434E+02 -0.13337455301E+01  0.28383342860E+02  0.00000000000E+00 0.  1.
</event>
<event>
 7    1  0.4096326E-006  0.1247147E+03  0.7561462E-02  0.1235516E+00
         -1   -1    0    0    0  501 -0.00000000000E+00  0.00000000000E+00  0.40555474959E+03  0.40555474959E+03  0.00000000000E+00 0.  1.
          1   -1    0    0  501    0  0.00000000000E+00 -0.00000000000E+00 -0.39592120490E+02  0.39592120490E+02  0.00000000000E+00 0. -1.
         23    2    1    2    0    0  0.31112110369E+02  0.57079929114E+02  0.14054842559E+03  0.17927969849E+03  0.90339740069E+02 0.  0.
          5    1    1    2  502    0 -0.65562447519E+02  0.73562096449E+01  0.86669281436E+02  0.10900268386E+03  0.41800000000E+01 0. -1.
         -5    1    1    2    0  502  0.34450337150E+02 -0.64436138759E+02  0.13874492207E+03  0.15686448772E+03  0.41800000000E+01 0. -1.
        -11    1    3    3    0    0  0.32768598324E+02  0.80366893970E+02  0.99300553698E+02  0.13188335243E+03  0.00000000000E+00 0. -1.
         11    1    3    3    0    0 -0.16564879554E+01 -0.23286964856E+02  0.41247871895E+02  0.47396346066E+02  0.00000000000E+00 0.  1.
</event>
<event>
 7    1  0.4096326E-006  0.7480989E+02  0.7561462E-02  0.1344461E+00
         -2   -1    0    0    0  501 -0.00000000000E+00  0.00000000000E+00  0.78463837147E+02  0.78463837147E+02  0.00000000000E+00 0.  1.
          2   -1    0    0  501    0  0.00000000000E+00 -0.00000000000E+00 -0.20524638624E+03  0.20524638624E+03  0.00000000000E+00 0. -1.
         23    2    1    2    0    0 -0.45823260834E+02 -0.71088665552E+01 -0.10420821863E+03  0.14840428635E+03  0.94942994268E+02 0.  0.
          5    1    1    2  502    0  0.39404368015E+01  0.49625410636E+01  0.50436141947E+02  0.51004222085E+02  0.41800000000E+01 0. -1.
         -5    1    1    2    0  502  0.41882824033E+02  0.21463254915E+01 -0.73010472410E+02  0.84301714950E+02  0.41800000000E+01 0. -1.
        -11    1    3    3    0    0  0.25888644970E+02 -0.10857348699E+02 -0.53749122311E+02  0.60638866319E+02  0.00000000000E+00 0. -1.
         11    1    3    3    0    0 -0.71711905804E+02  0.37484821442E+01 -0.50459096317E+02  0.87765420033E+02  0.00000000000E+00 0.  1.
</event>
<event>
 7    1  0.4096326E-006  0.1244063E+03  0.7561462E-02  0.1236000E+00
          2   -1    0    0  501    0  0.00000000000E+00  0.00000000000E+00  0.34128988643E+03  0.34128988643E+03  0.00000000000E+00 0. -1.
         -2   -1    0    0    0  501 -0.00000000000E+00 -0.00000000000E+00 -0.59022298319E+02  0.59022298319E+02  0.00000000000E+00 0.  1.
         23    2    1    2    0    0  0.34696470241E+02  0.74236293639E+02  0.19109495709E+03  0.22713464362E+03  0.91422050764E+02 0.  0.
          5    1    1    2  502    0 -0.37771384221E+02  0.16012772450E+02  0.68539897491E+02  0.79989226122E+02  0.41800000000E+01 0. -1.
         -5    1    1    2    0  502  0.30749139797E+01 -0.90249066089E+02  0.22632733521E+02  0.93188315000E+02  0.41800000000E+01 0.  1.
        -11    1    3    3    0    0 -0.25091839916E+02  0.48000010397E+01  0.17897553235E+02  0.31192352462E+02  0.00000000000E+00 0.  1.
         11    1    3    3    0    0  0.59788310157E+02  0.69436292600E+02  0.17319740386E+03  0.19594229116E+03  0.00000000000E+00 0. -1.
</event>
<event>
 7    1  0.4096326E-006  0.3667713E+03  0.7561462E-02  0.1055934E+00
         -1   -1    0    0    0  501 -0.00000000000E+00  0.00000000000E+00  0.10460167770E+04  0.10460167770E+04  0.00000000000E+00 0.  1.
          1   -1    0    0  501    0  0.00000000000E+00 -0.00000000000E+00 -0.15693495672E+03  0.15693495672E+03  0.00000000000E+00 0. -1.
         23    2    1    2    0    0  0.23104362363E+03 -0.27824007261E+03  0.22336310408E+03  0.43508001183E+03  0.92762311361E+02 0.  0.
          5    1    1    2  502    0 -0.22108672845E+02  0.56415950793E+02  0.42503084576E+02  0.74131892714E+02  0.41800000000E+01 0.  1.
         -5    1    1    2    0  502 -0.20893495078E+03  0.22182412181E+03  0.62321563159E+03  0.69373982914E+03  0.41800000000E+01 0.  1.
        -11    1    3    3    0    0  0.11114695822E+03 -0.82164212874E+02  0.49195272163E+02  0.14671325435E+03  0.00000000000E+00 0. -1.
         11    1    3    3    0    0  0.11989666540E+03 -0.19607585973E+03  0.17416783192E+03  0.28836675748E+03  0.00000000000E+00 0.  1.
</event>
<event>
 7    1  0.4096326E-006  0.9066603E+02  0.7561462E-02  0.1301247E+00
          2   -1    0    0  501    0  0.00000000000E+00  0.00000000000E+00  0.88936039057E+02  0.88936039057E+02  0.00000000000E+00 0. -1.
         -2   -1    0    0    0  501 -0.00000000000E+00 -0.00000000000E+00 -0.14348658044E+03  0.14348658044E+03  0.00000000000E+00 0.  1.
         23    2    1    2    0    0  0.68386486304E+01 -0.21724742990E+02  0.24901349110E+01  0.93067030363E+02  0.90202770444E+02 0.  0.
          5    1    1    2  502    0  0.27189813971E+02  0.40712652839E+02  0.19897127161E+02  0.53011075769E+02  0.41800000000E+01 0. -1.
         -5    1    1    2    0  502 -0.34028462601E+02 -0.18987909849E+02 -0.76937803454E+02  0.86344513362E+02  0.41800000000E+01 0. -1.
        -11    1    3    3    0    0  0.24643067819E+02 -0.52192092346E+02  0.26558494811E+01  0.57778446080E+02  0.00000000000E+00 0. -1.
         11    1    3    3    0    0 -0.17804419188E+02  0.30467349356E+02 -0.16571457006E+00  0.35288584284E+02  0.00000000000E+00 0.  1.
</event>
<event>
 7    1  0.4096326E-006  0.1133478E+03  0.7561462E-02  0.1254493E+00
          2   -1    0    0  501    0  0.00000000000E+00  0.00000000000E+00  0.54065327650E+03  0.54065327650E+03  0.00000000000E+00 0. -1.
         -2   -1    0    0    0  501 -0.00000000000E+00 -0.00000000000E+00 -0.42915920927E+02  0.42915920927E+02  0.00000000000E+00 0.  1.
         23    2    1    2    0    0  0.29195345090E+02 -0.74258770483E+02  0.36324975156E+03  0.38331799791E+03  0.92820107441E+02 0.  0.
          5    1    1    2  502    0  0.38285200544E+01  0.71202862679E+02  0.14789099478E+03  0.16423679233E+03  0.41800000000E+01 0. -1.
         -5    1    1    2    0  502 -0.33023865144E+02  0.30559078040E+01 -0.13403390757E+02  0.36014407191E+02  0.41800000000E+01 0. -1.
        -11    1    3    3    0    0 -0.66292198302E+01 -0.84358976519E+02  0.23471834204E+03  0.24950567842E+03  0.00000000000E+00 0.  1.
         11    1    3    3    0    0  0.35824564920E+02  0.10100206036E+02  0.12853140952E+03  0.13381231949E+03  0.00000000000E+00 0. -1.
</event>
<event>
 7    1  0.4096326E-006  0.1085857E+03  0.7561462E-02  0.1263212E+00
         -1   -1    0    0    0  501 -0.00000000000E+00  0.00000000000E+00  0.13492945967E+02  0.13492945967E+02  0.00000000000E+00 0.  1.
          1   -1    0    0  501    0  0.00000000000E+00 -0.00000000000E+00 -0.91031738527E+03  0.91031738527E+03  0.00000000000E+00 0. -1.
         23    2    1    2    0    0 -0.13437055126E+01 -0.13507827817E+02 -0.46637477149E+03  0.47534798592E+03  0.90917618054E+02 0.  0.
          5    1    1    2  502    0  0.62273286001E+02  0.14865641232E+02 -0.24188462327E+03  0.25024906157E+03  0.41800000000E+01 0.  1.
         -5    1    1    2    0  502 -0.60929580488E+02 -0.13578134142E+01 -0.18856504453E+03  0.19821328375E+03  0.41800000000E+01 0.  1.
        -11    1    3    3    0    0 -0.46120894889E+02 -0.79987423170E+01 -0.23626062420E+03  0.24085306593E+03  0.00000000000E+00 0.  1.
         11    1    3    3    0    0  0.44777189377E+02 -0.55090855004E+01 -0.23011414730E+03  0.23449491998E+03  0.00000000000E+00 0. -1.
</event>
<event>
 7    1  0.4096326E-006  0.8104010E+02  0.7561462E-02  0.1326125E+00
         -1   -1    0    0    0  501 -0.00000000000E+00  0.00000000000E+00  0.11171262464E+03  0.11171262464E+03  0.00000000000E+00 0.  1.
          1   -1    0    0  501    0  0.00000000000E+00 -0.00000000000E+00 -0.16235445659E+03  0.16235445659E+03  0.00000000000E+00 0. -1.
         23    2    1    2    0    0  0.24616018086E+02 -0.73453371605E+02 -0.35594074380E+02  0.12615643887E+03  0.92990122008E+02 0.  0.
          5    1    1    2  502    0 -0.11352965961E+02  0.47989056792E+01  0.50394926035E+02  0.52048441877E+02  0.41800000000E+01 0.  1.
         -5    1    1    2    0  502 -0.13263052125E+02  0.68654465926E+02 -0.65442683612E+02  0.95862200483E+02  0.41800000000E+01 0.  1.
        -11    1    3    3    0    0  0.69024506538E+00 -0.24690828910E+02  0.31373884521E+02  0.39930365644E+02  0.00000000000E+00 0.  1.
         11    1    3    3    0    0  0.23925773020E+02 -0.48762542695E+02 -0.66967958901E+02  0.86226073227E+02  0.00000000000E+00 0. -1.
</event>
<event>
 7    1  0.4096326E-006  0.2212169E+03  0.7561462E-02  0.1132979E+00
         -1   -1    0    0    0  501 -0.00000000000E+00  0.00000000000E+00  0.86093656886E+02  0.86093656886E+02  0.00000000000E+00 0.  1.
          1   -1    0    0  501    0  0.00000000000E+00 -0.00000000000E+00 -0.65505211646E+03  0.65505211646E+03  0.00000000000E+00 0. -1.
         23    2    1    2    0    0  0.69116029020E+02 -0.19065977728E+03 -0.36325167676E+03  0.42635870744E+03  0.93283388646E+02 0.  0.
          5    1    1    2  502    0  0.20480181589E+02  0.77370267889E+02 -0.26135722551E+02  0.84297951247E+02  0.41800000000E+01 0.  1.
         -5    1    1    2    0  502 -0.89596210609E+02  0.11328950939E+03 -0.17957106026E+03  0.23048911466E+03  0.41800000000E+01 0.  1.
        -11    1    3    3    0    0  0.87167187040E+02 -0.16053035064E+03 -0.33383489916E+03  0.38054415233E+03  0.00000000000E+00 0. -1.
         11    1    3    3    0    0 -0.18051158020E+02 -0.30129426639E+02 -0.29416777602E+02  0.45814555110E+02  0.00000000000E+00 0.  1.
</event>
<event>
 7    1  0.4096326E-006  0.8976648E+02  0.7561462E-02  0.1303418E+00
         -2   -1    0    0    0  501 -0.00000000000E+00  0.00000000000E+00  0.16978379408E+03  0.16978379408E+03  0.00000000000E+00 0.  1.
          2   -1    0    0  501    0  0.00000000000E+00 -0.00000000000E+00 -0.85026066537E+02  0.85026066537E+02  0.00000000000E+00 0. -1.
         23    2    1    2    0    0 -0.18026451301E+02 -0.36177374051E+02  0.11162258200E+02  0.10415104985E+03  0.95336718203E+02 0.  0.
          5    1    1    2  502    0 -0.35076061947E+02  0.33112580561E+02  0.83376156213E+02  0.96414879236E+02  0.41800000000E+01 0.  1.
         -5    1    1    2    0  502  0.53102513248E+02  0.30647934904E+01 -0.97806868655E+01  0.54243931531E+02  0.41800000000E+01 0.  1.
        -11    1    3    3    0    0 -0.43374919999E+02 -0.20705992946E+02 -0.27519403224E+02  0.55384468785E+02  0.00000000000E+00 0. -1.
         11    1    3    3    0    0  0.25348468698E+02 -0.15471381105E+02  0.38681661424E+02  0.48766581069E+02  0.00000000000E+00 0.  1.
</event>
<event>
 7    1  0.4096326E-006  0.1973650E+03  0.7561462E-02  0.1151981E+00
         -2   -1    0    0    0  501 -0.00000000000E+00  0.00000000000E+00  0.44341450404E+02  0.44341450404E+02  0.00000000000E+00 0.  1.
          2   -1    0    0  501    0  0.00000000000E+00 -0.00000000000E+00 -0.12523700776E+04  0.12523700776E+04  0.00000000000E+00 0. -1.
         23    2    1    2    0    0 -0.43238417828E+02 -0.17434704553E+03 -0.38860683558E+03  0.43918942167E+03  0.98008277125E+02 0.  0.
          5    1    1    2  502    0 -0.23976980392E+02  0.49549833564E+02 -0.55265923818E+03  0.55540956738E+03  0.41800000000E+01 0. -1.
         -5    1    1    2    0  502  0.67215398220E+02  0.12479721197E+03 -0.26676255340E+03  0.30211253891E+03  0.41800000000E+01 0.  1.
        -11    1    3    3    0    0 -0.35578691627E+02 -0.15706848811E+02 -0.38419145553E+02  0.54667898647E+02  0.00000000000E+00 0.  1.
         11    1    3    3    0    0 -0.76597262004E+01 -0.15864019672E+03 -0.35018769003E+03  0.38452152302E+03  0.00000000000E+00 0. -1.
</event>
<event>
 7    1  0.4096326E-006  0.1301623E+03  0.7561462E-02  0.1227215E+00
          2   -1    0    0  501    0  0.00000000000E+00  0.00000000000E+00  0.53970965615E+03  0.53970965615E+03  0.00000000000E+00 0. -1.
         -2   -1    0    0    0  501 -0.00000000000E+00 -0.00000000000E+00 -0.33949342722E+02  0.33949342722E+02  0.00000000000E+00 0.  1.
         23    2    1    2    0    0  0.47707861494E+02 -0.43747885932E+02  0.31148951816E+03  0.33370396986E+03  0.10071098257E+03 0.  0.
          5    1    1    2  502    0 -0.13117026941E+02 -0.44148817582E+02  0.60869701849E+02  0.76444538672E+02  0.41800000000E+01 0.  1.
         -5    1    1    2    0  502 -0.34590834553E+02  0.87896703513E+02  0.13340109342E+03  0.16351049033E+03  0.41800000000E+01 0.  1.
        -11    1    3    3    0    0 -0.31218515590E+02 -0.20122846036E+02  0.10569218672E+03  0.11202840257E+03  0.00000000000E+00 0. -1.
         11    1    3    3    0    0  0.78926377083E+02 -0.23625039896E+02  0.20579733143E+03  0.22167556729E+03  0.00000000000E+00 0.  1.
</event>
<event>
 7    1  0.4096326E-006  0.2303680E+03  0.7561462E-02  0.1126381E+00
          2   -1    0    0  501    0  0.00000000000E+00  0.00000000000E+00  0.17234672799E+04  0.17234672799E+04  0.00000000000E+00 0. -1.
         -2   -1    0    0    0  501 -0.00000000000E+00 -0.00000000000E+00 -0.36145101320E+02  0.36145101320E+02  0.00000000000E+00 0.  1.
         23    2    1    2    0    0 -0.21499892063E+03  0.39917816322E+02  0.99857446122E+03  0.10262376425E+04  0.90525004502E+02 0.  0.
          5    1    1    2  502    0  0.48144332304E+01  0.64706898654E+01  0.18913351165E+03  0.18935154138E+03  0.41800000000E+01 0. -1.
         -5    1    1    2    0  502  0.21018448740E+03 -0.46388506187E+02  0.49961420574E+03  0.54402319733E+03  0.41800000000E+01 0. -1.
        -11    1    3    3    0    0 -0.13616411331E+02 -0.21833176977E+02  0.93537189020E+02  0.97011854967E+02  0.00000000000E+00 0.  1.
         11    1    3    3    0    0 -0.20138250930E+03  0.61750993299E+02  0.90503727220E+03  0.92922578757E+03  0.00000000000E+00 0. -1.
</event>
<event>
 7    1  0.4096326E-006  0.1967930E+03  0.7561462E-02  0.1152473E+00
          2   -1    0    0  501    0  0.00000000000E+00  0.00000000000E+00  0.84576989902E+03  0.84576989902E+03  0.00000000000E+00 0. -1.
         -2   -1    0    0    0  501 -0.00000000000E+00 -0.00000000000E+00 -0.53462169948E+02  0.53462169948E+02  0.00000000000E+00 0.  1.
         23    2    1    2    0    0  0.82579884702E+02  0.16070569704E+03  0.43534507720E+03  0.48004616045E+03  0.90957250945E+02 0.  0.
          5    1    1    2  502    0 -0.71211799225E+02 -0.24726437302E+02  0.77688660805E+02  0.10833059341E+03  0.41800000000E+01 0.  1.
         -5    1    1    2    0  502 -0.11368085477E+02 -0.13597925974E+03  0.27927399107E+03  0.31085531512E+03  0.41800000000E+01 0.  1.
        -11    1    3    3    0    0  0.68886860168E+02  0.11703999424E+03  0.20990105092E+03  0.25000442182E+03  0.00000000000E+00 0.  1.
         11    1    3    3    0    0  0.13693024535E+02  0.43665702799E+02  0.22544402628E+03  0.23004173862E+03  0.00000000000E+00 0. -1.
</event>
<event>
 7    1  0.4096326E-006  0.1257310E+03  0.7561462E-02  0.1233931E+00
          1   -1    0    0  501    0  0.00000000000E+00  0.00000000000E+00  0.93562081542E+02  0.93562081542E+02  0.00000000000E+00 0. -1.
         -1   -1    0    0    0  501 -0.00000000000E+00 -0.00000000000E+00 -0.18975630009E+03  0.18975630009E+03  0.00000000000E+00 0.  1.
         23    2    1    2    0    0 -0.62701019809E+02 -0.12574372120E+02  0.14788593309E+01  0.11221135903E+03  0.92193651356E+02 0.  0.
          5    1    1    2  502    0  0.86063403903E+02 -0.30070546933E+02 -0.69888547078E+02  0.11494793907E+03  0.41800000000E+01 0.  1.
         -5    1    1    2    0  502 -0.23362384094E+02  0.42644919053E+02 -0.27784530804E+02  0.56159083536E+02  0.41800000000E+01 0.  1.
        -11    1    3    3    0    0  0.85257871864E+01 -0.35548053747E+02 -0.58183435127E+01  0.37016297675E+02  0.00000000000E+00 0.  1.
         11    1    3    3    0    0 -0.71226806995E+02  0.22973681627E+02  0.72972028436E+01  0.75195061351E+02  0.00000000000E+00 0. -1.
</event>
<event>
 7    1  0.4096326E-006  0.1298481E+03  0.7561462E-02  0.1227681E+00
          2   -1    0    0  501    0  0.00000000000E+00  0.00000000000E+00  0.34081137248E+03  0.34081137248E+03  0.00000000000E+00 0. -1.
         -2   -1    0    0    0  501 -0.00000000000E+00 -0.00000000000E+00 -0.61919201034E+02  0.61919201034E+02  0.00000000000E+00 0.  1.
         23    2    1    2    0    0  0.86536590284E+02 -0.14986892974E+02  0.17297628186E+03  0.21677667812E+03  0.96737509107E+02 0.  0.
          5    1    1    2  502    0  0.25216339697E+01  0.48098573754E+02  0.68299487563E+02  0.83678694041E+02  0.41800000000E+01 0.  1.
         -5    1    1    2    0  502 -0.89058224253E+02 -0.33111680780E+02  0.37616402013E+02  0.10227520135E+03  0.41800000000E+01 0.  1.
        -11    1    3    3    0    0  0.30300556618E+02 -0.43640994852E+02  0.12994901817E+03  0.14039019726E+03  0.00000000000E+00 0. -1.
         11    1    3    3    0    0  0.56236033666E+02  0.28654101878E+02  0.43027263698E+02  0.76386480860E+02  0.00000000000E+00 0.  1.
</event>
<event>
 7    1  0.4096326E-006  0.9017932E+02  0.7561462E-02  0.1302418E+00
          2   -1    0    0  501    0  0.00000000000E+00  0.00000000000E+00  0.27677256134E+03  0.27677256134E+03  0.00000000000E+00 0. -1.
         -2   -1    0    0    0  501 -0.00000000000E+00 -0.00000000000E+00 -0.48548573849E+02  0.48548573849E+02  0.00000000000E+00 0.  1.
         23    2    1    2    0    0 -0.62861913532E+01 -0.56956143366E+01  0.15496036537E+03  0.18010775828E+03  0.91400949307E+02 0.  0.
          5    1    1    2  502    0  0.47205325751E+02 -0.40830163402E+02  0.28977749375E+02  0.68939302155E+02  0.41800000000E+01 0.  1.
         -5    1    1    2    0  502 -0.40919134398E+02  0.46525777739E+02  0.44285872746E+02  0.76274074750E+02  0.41800000000E+01 0.  1.
        -11    1    3    3    0    0  0.79819570708E+01  0.22625617830E+02  0.22028192486E+01  0.24093207207E+02  0.00000000000E+00 0.  1.
         11    1    3    3    0    0 -0.14268148424E+02 -0.28321232167E+02  0.15275754612E+03  0.15601455108E+03  0.00000000000E+00 0. -1.
</event>
<event>
 7    1  0.4096326E-006  0.1767551E+03  0.7561462E-02  0.1170981E+00
          2   -1    0    0  501    0  0.00000000000E+00  0.00000000000E+00  0.57753604750E+03  0.57753604750E+03  0.00000000000E+00 0.  1.
         -2   -1    0    0    0  501 -0.00000000000E+00 -0.00000000000E+00 -0.59988891428E+02  0.59988891428E+02  0.00000000000E+00 0. -1.
         23    2    1    2    0    0 -0.19171387675E+02  0.14877490295E+03  0.24427851777E+03  0.30158867638E+03  0.93713508216E+02 0.  0.
          5    1    1    2  502    0  0.30215419730E+02 -0.16560565932E+03  0.26456778213E+03  0.31361088905E+03  0.41800000000E+01 0. -1.
         -5    1    1    2    0  502 -0.11044032056E+02  0.16830756366E+02  0.87008561747E+01  0.22325373504E+02  0.41800000000E+01 0. -1.
        -11    1    3    3    0    0  0.13645393707E+02  0.12041477478E+03  0.12248897410E+03  0.17230630729E+03  0.00000000000E+00 0. -1.
         11    1    3    3    0    0 -0.32816781382E+02  0.28360128168E+02  0.12178954367E+03  0.12928236909E+03  0.00000000000E+00 0.  1.
</event>
<event>
 7    1  0.4096326E-006  0.1052279E+03  0.7561462E-02  0.1269671E+00
         -1   -1    0    0    0  501 -0.00000000000E+00  0.00000000000E+00  0.13884603122E+03  0.13884603122E+03  0.00000000000E+00 0.  1.
          1   -1    0    0  501    0  0.00000000000E+00 -0.00000000000E+00 -0.94434335434E+02  0.94434335434E+02  0.00000000000E+00 0. -1.
         23    2    1    2    0    0 -0.12610321133E+01  0.15185128348E+02 -0.17772810072E+02  0.92754756024E+02  0.89751844897E+02 0.  0.
          5    1    1    2  502    0 -0.61439840486E+02 -0.13983074328E+02  0.32319795344E+02  0.70939565390E+02  0.41800000000E+01 0.  1.
         -5    1    1    2    0  502  0.62700872599E+02 -0.12020540199E+01  0.29864710518E+02  0.69586045245E+02  0.41800000000E+01 0.  1.
        -11    1    3    3    0    0  0.98733391406E+01  0.48413826072E+02 -0.27283435762E+02  0.56442601355E+02  0.00000000000E+00 0.  1.
         11    1    3    3    0    0 -0.11134371254E+02 -0.33228697725E+02  0.95106256900E+01  0.36312154669E+02  0.00000000000E+00 0. -1.
</event>
<event>
 7    1  0.4096326E-006  0.9898600E+02  0.7561462E-02  0.1282443E+00
         -2   -1    0    0    0  501 -0.00000000000E+00  0.00000000000E+00  0.69713470873E+02  0.69713470873E+02  0.00000000000E+00 0.  1.
          2   -1    0    0  501    0  0.00000000000E+00 -0.00000000000E+00 -0.36142126989E+03  0.36142126989E+03  0.00000000000E+00 0. -1.
         23    2    1    2    0    0  0.41931931990E+02 -0.75656100156E+02 -0.23961685944E+03  0.27037734368E+03  0.90584414975E+02 0.  0.
          5    1    1    2  502    0 -0.56987997970E+02  0.33880087326E+02 -0.83133957669E+02  0.10641531632E+03  0.41800000000E+01 0. -1.
         -5    1    1    2    0  502  0.15056065981E+02  0.41776012830E+02  0.31043018083E+02  0.54342080771E+02  0.41800000000E+01 0. -1.
        -11    1    3    3    0    0  0.26214324787E+02 -0.38309003908E+02 -0.26517299467E+02  0.53459683646E+02  0.00000000000E+00 0.  1.
         11    1    3    3    0    0  0.15717607203E+02 -0.37347096248E+02 -0.21309955997E+03  0.21691766003E+03  0.00000000000E+00 0. -1.
</event>
<event>
 7    1  0.4096326E-006  0.9736396E+02  0.7561462E-02  0.1285939E+00
          2   -1    0    0  501    0  0.00000000000E+00  0.00000000000E+00  0.84631011422E+02  0.84631011422E+02  0.00000000000E+00 0. -1.
         -2   -1    0    0    0  501 -0.00000000000E+00 -0.00000000000E+00 -0.14597972748E+03  0.14597972748E+03  0.00000000000E+00 0.  1.
         23    2    1    2    0    0 -0.86640791697E+01 -0.39450499151E+02 -0.19700262059E+02  0.92726423004E+02  0.81109068832E+02 0.  0.
          5    1    1    2  502    0 -0.53310975678E+02  0.41413925852E+02 -0.10767448400E+02  0.68487836345E+02  0.41800000000E+01 0.  1.
         -5    1    1    2    0  502  0.61975054847E+02 -0.19634267012E+01 -0.30881005600E+02  0.69396479555E+02  0.41800000000E+01 0.  1.
        -11    1    3    3    0    0 -0.30115578482E+02 -0.22087980547E+02  0.21532658804E+02  0.43110118849E+02  0.00000000000E+00 0. -1.
         11    1    3    3    0    0  0.21451499313E+02 -0.17362518604E+02 -0.41232920864E+02  0.49616304155E+02  0.00000000000E+00 0.  1.
</event>
<event>
 7    1  0.4096326E-006  0.1642163E+03  0.7561462E-02  0.1184017E+00
          2   -1    0    0  501    0  0.00000000000E+00  0.00000000000E+00  0.14134986940E+04  0.14134986940E+04  0.00000000000E+00 0.  1.
         -2   -1    0    0    0  501 -0.00000000000E+00 -0.00000000000E+00 -0.25934787273E+02  0.25934787273E+02  0.00000000000E+00 0. -1.
         23    2    1    2    0    0  0.23425985799E+02 -0.14174478943E+03  0.72774131102E+03  0.74790547339E+03  0.95471562430E+02 0.  0.
          5    1    1    2  502    0  0.20401223089E+02  0.98538571890E+02  0.58925630382E+03  0.59780140854E+03  0.41800000000E+01 0.  1.
         -5    1    1    2    0  502 -0.43827208888E+02  0.43206217543E+02  0.70566291891E+02  0.93726599344E+02  0.41800000000E+01 0. -1.
        -11    1    3    3    0    0 -0.59860612752E+01 -0.13591643992E+03  0.65920053375E+03  0.67309319954E+03  0.00000000000E+00 0. -1.
         11    1    3    3    0    0  0.29412047074E+02 -0.58283495099E+01  0.68540777265E+02  0.74812273854E+02  0.00000000000E+00 0.  1.
</event>
<event>
 7    1  0.4096326E-006  0.1399470E+03  0.7561462E-02  0.1213400E+00
          3   -1    0    0  501    0  0.00000000000E+00  0.00000000000E+00  0.11842622773E+03  0.11842622773E+03  0.00000000000E+00 0. -1.
         -3   -1    0    0    0  501 -0.00000000000E+00 -0.00000000000E+00 -0.23364776512E+03  0.23364776512E+03  0.00000000000E+00 0.  1.
         23    2    1    2    0    0 -0.79973427167E+02  0.80385852092E+02  0.29381252411E+01  0.14599754255E+03  0.91918526860E+02 0.  0.
          5    1    1    2  502    0 -0.75573727110E+01  0.25333016718E+02 -0.39840059620E+02  0.47995607808E+02  0.41800000000E+01 0.  1.
         -5    1    1    2    0  502  0.87530799878E+02 -0.10571886881E+03 -0.78319603015E+02  0.15808084250E+03  0.41800000000E+01 0.  1.
        -11    1    3    3    0    0 -0.12750834052E+02  0.26139096745E+01 -0.34281543550E+02  0.36669340340E+02  0.00000000000E+00 0.  1.
         11    1    3    3    0    0 -0.67222593115E+02  0.77771942417E+02  0.37219668792E+02  0.10932820221E+03  0.00000000000E+00 0. -1.
</event>
<event>
 7    1  0.4096326E-006  0.9231925E+02  0.7561462E-02  0.1297331E+00
         -2   -1    0    0    0  501 -0.00000000000E+00  0.00000000000E+00  0.67073997130E+02  0.67073997130E+02  0.00000000000E+00 0.  1.
          2   -1    0    0  501    0  0.00000000000E+00 -0.00000000000E+00 -0.21835055585E+03  0.21835055585E+03  0.00000000000E+00 0. -1.
         23    2    1    2    0    0  0.21847491902E+02  0.29354842179E+02 -0.11710625960E+03  0.15068941945E+03  0.87489458992E+02 0.  0.
          5    1    1    2  502    0  0.12739360833E+02 -0.56624330794E+02 -0.59936373875E+02  0.83537102329E+02  0.41800000000E+01 0. -1.
         -5    1    1    2    0  502 -0.34586852735E+02  0.27269488615E+02  0.25766074749E+02  0.51198031207E+02  0.41800000000E+01 0. -1.
        -11    1    3    3    0    0  0.42124260693E+02  0.41033960676E+02 -0.42655510301E+02  0.72647999469E+02  0.00000000000E+00 0.  1.
         11    1    3    3    0    0 -0.20276768791E+02 -0.11679118497E+02 -0.74450749298E+02  0.78041419980E+02  0.00000000000E+00 0. -1.
</event>
<event>
 7    1  0.4096326E-006  0.1125486E+03  0.7561462E-02  0.1255922E+00
         -1   -1    0    0    0  501 -0.00000000000E+00  0.00000000000E+00  0.50173704285E+02  0.50173704285E+02  0.00000000000E+00 0.  1.
          1   -1    0    0  501    0  0.00000000000E+00 -0.00000000000E+00 -0.45845448020E+03  0.45845448020E+03  0.00000000000E+00 0. -1.
         23    2    1    2    0    0 -0.79597146416E+02 -0.27813326148E+02 -0.29237204056E+03  0.31838861475E+03  0.93704925546E+02 0.  0.
          5    1    1    2  502    0  0.18695767448E+02  0.37517171149E+02  0.15606332415E+02  0.44923266388E+02  0.41800000000E+01 0. -1.
         -5    1    1    2    0  502  0.60901378968E+02 -0.97038450011E+01 -0.13151506777E+03  0.14531630335E+03  0.41800000000E+01 0. -1.
        -11    1    3    3    0    0 -0.68179847768E+02 -0.57604460500E+02 -0.24923452511E+03  0.26473498828E+03  0.00000000000E+00 0. -1.
         11    1    3    3    0    0 -0.11417298648E+02  0.29791134352E+02 -0.43137515448E+02  0.53653626471E+02  0.00000000000E+00 0.  1.
</event>
<event>
 7    1  0.4096326E-006  0.1307020E+03  0.7561462E-02  0.1226418E+00
         -3   -1    0    0    0  501 -0.00000000000E+00  0.00000000000E+00  0.26531785191E+03  0.26531785191E+03  0.00000000000E+00 0.  1.
          3   -1    0    0  501    0  0.00000000000E+00 -0.00000000000E+00 -0.10651949310E+03  0.10651949310E+03  0.00000000000E+00 0. -1.
         23    2    1    2    0    0 -0.66211105904E+01 -0.91112228881E+02 -0.24795449624E+02  0.13163327868E+03  0.91472555322E+02 0.  0.
          5    1    1    2  502    0  0.37973123765E+02  0.10865722961E+03  0.15952186562E+03  0.19675632058E+03  0.41800000000E+01 0.  1.
         -5    1    1    2    0  502 -0.31352013174E+02 -0.17545000728E+02  0.24071942806E+02  0.43447745754E+02  0.41800000000E+01 0.  1.
        -11    1    3    3    0    0  0.92442703158E+01  0.64121253266E+01 -0.30653993634E+02  0.32653318523E+02  0.00000000000E+00 0. -1.
         11    1    3    3    0    0 -0.15865380906E+02 -0.97524354207E+02  0.58585440102E+01  0.98979960157E+02  0.00000000000E+00 0.  1.
</event>
<event>
 7    1  0.4096326E-006  0.8766912E+02  0.7561462E-02  0.1308596E+00
         -1   -1    0    0    0  501 -0.00000000000E+00  0.00000000000E+00  0.53812981459E+02  0.53812981459E+02  0.00000000000E+00 0.  1.
          1   -1    0    0  501    0  0.00000000000E+00 -0.00000000000E+00 -0.28064098332E+03  0.28064098332E+03  0.00000000000E+00 0. -1.
         23    2    1    2    0    0 -0.12806057849E+01  0.38381610524E+02 -0.16024305761E+03  0.18763737971E+03  0.89750547492E+02 0.  0.
          5    1    1    2  502    0 -0.13973880330E+01  0.34763241795E+02 -0.64581967795E+02  0.73476109298E+02  0.41800000000E+01 0.  1.
         -5    1    1    2    0  502  0.26779938179E+01 -0.73144852319E+02 -0.20029764575E+01  0.73340475771E+02  0.41800000000E+01 0.  1.
        -11    1    3    3    0    0  0.20945041989E+02  0.39521697118E+02 -0.15919338102E+03  0.16535776936E+03  0.00000000000E+00 0. -1.
         11    1    3    3    0    0 -0.22225647774E+02 -0.11400865938E+01 -0.10496765879E+01  0.22279610350E+02  0.00000000000E+00 0.  1.
</event>
<event>
 7    1  0.4096326E-006  0.1367464E+03  0.7561462E-02  0.1217775E+00
          1   -1    0    0  501    0  0.00000000000E+00  0.00000000000E+00  0.23228971176E+03  0.23228971176E+03  0.00000000000E+00 0. -1.
         -1   -1    0    0    0  501 -0.00000000000E+00 -0.00000000000E+00 -0.12304787027E+03  0.12304787027E+03  0.00000000000E+00 0.  1.
         23    2    1    2    0    0 -0.11179071497E+03 -0.52916649583E+01  0.11625486506E+03  0.18734561002E+03  0.95173621725E+02 0.  0.
          5    1    1    2  502    0  0.13541733252E+03 -0.41010313410E+01  0.11846945398E+02  0.13606062957E+03  0.41800000000E+01 0.  1.
         -5    1    1    2    0  502 -0.23626617543E+02  0.93926962993E+01 -0.18859968974E+02  0.31931342439E+02  0.41800000000E+01 0.  1.
        -11    1    3    3    0    0 -0.41059045907E+02  0.17837983040E+01 -0.10142397854E+02  0.42330785741E+02  0.00000000000E+00 0.  1.
         11    1    3    3    0    0 -0.70731669067E+02 -0.70754632622E+01  0.12639726291E+03  0.14501482428E+03  0.00000000000E+00 0. -1.
</event>
<event>
 7    1  0.4096326E-006  0.2066108E+03  0.7561462E-02  0.1144278E+00
         -1   -1    0    0    0  501 -0.00000000000E+00  0.00000000000E+00  0.12110095988E+04  0.12110095988E+04  0.00000000000E+00 0. -1.
          1   -1    0    0  501    0  0.00000000000E+00 -0.00000000000E+00 -0.45711025980E+02  0.45711025980E+02  0.00000000000E+00 0.  1.
         23    2    1    2    0    0  0.18322211710E+03 -0.97387462397E+01  0.30341295042E+03  0.36668659354E+03  0.93458290306E+02 0.  0.
          5    1    1    2  502    0 -0.92136189816E+02  0.64913714153E+02  0.37360165267E+03  0.39025444909E+03  0.41800000000E+01 0.  1.
         -5    1    1    2    0  502 -0.91085927286E+02 -0.55174967913E+02  0.48828396970E+03  0.49977958211E+03  0.41800000000E+01 0.  1.
        -11    1    3    3    0    0  0.13850259856E+03  0.20310251642E+02  0.15529551949E+03  0.20907456685E+03  0.00000000000E+00 0.  1.
         11    1    3    3    0    0  0.44719518541E+02 -0.30048997882E+02  0.14811743094E+03  0.15761202670E+03  0.00000000000E+00 0. -1.
</event>
<event>
 7    1  0.4096326E-006  0.1383822E+03  0.7561462E-02  0.1215523E+00
         -2   -1    0    0    0  501 -0.00000000000E+00  0.00000000000E+00  0.66325557618E+02  0.66325557618E+02  0.00000000000E+00 0. -1.
          2   -1    0    0  501    0  0.00000000000E+00 -0.00000000000E+00 -0.31924915352E+03  0.31924915352E+03  0.00000000000E+00 0.  1.
         23    2    1    2    0    0 -0.94028500211E+02  0.22650341470E+02 -0.12157310862E+03  0.18001666634E+03  0.90948241308E+02 0.  0.
          5    1    1    2  502    0  0.12068096520E+03 -0.12888055525E+02 -0.76129909576E+02  0.14332910685E+03  0.41800000000E+01 0.  1.
         -5    1    1    2    0  502 -0.26652464994E+02 -0.97622859444E+01 -0.55220577698E+02  0.62228937950E+02  0.41800000000E+01 0.  1.
        -11    1    3    3    0    0 -0.89412944593E+02  0.47578086668E+02 -0.11612058094E+03  0.15408549026E+03  0.00000000000E+00 0.  1.
         11    1    3    3    0    0 -0.46155556178E+01 -0.24927745198E+02 -0.54525276842E+01  0.25931176072E+02  0.00000000000E+00 0. -1.
</event>
<event>
 6    1  0.4096326E-006  0.1397675E+03  0.7561462E-02  0.1213642E+00
         -2   -1    0    0    0  501 -0.00000000000E+00  0.00000000000E+00  0.10277150334E+03  0.10277150334E+03  0.00000000000E+00 0.  1.
          2   -1    0    0  501    0  0.00000000000E+00 -0.00000000000E+00 -0.36952673367E+03  0.36952673367E+03  0.00000000000E+00 0. -1.
          5    1    1    2  502    0  0.53891188738E+02 -0.23610062006E+02 -0.49284777338E+02  0.76864536223E+02  0.41800000000E+01 0. -1.
         -5    1    1    2    0  502 -0.12267143716E+02  0.11562419680E+03  0.35512463934E+02  0.12164721614E+03  0.41800000000E+01 0.  1.
        -11    1    1    2    0    0 -0.32036746533E+02 -0.88280242465E+02 -0.23496091355E+03  0.25303435583E+03  0.00000000000E+00 0. -1.
         11    1    1    2    0    0 -0.95872984888E+01 -0.37338923261E+01 -0.18022003386E+02  0.20752128813E+02  0.00000000000E+00 0.  1.
</event>
<event>
 7    1  0.4096326E-006  0.8985331E+02  0.7561462E-02  0.1303207E+00
         -2   -1    0    0    0  501 -0.00000000000E+00  0.00000000000E+00  0.13496426867E+03  0.13496426867E+03  0.00000000000E+00 0.  1.
          2   -1    0    0  501    0  0.00000000000E+00 -0.00000000000E+00 -0.11891170160E+03  0.11891170160E+03  0.00000000000E+00 0. -1.
         23    2    1    2    0    0 -0.46766699562E+02 -0.38977740121E+02 -0.19250752327E+02  0.11034538959E+03  0.89995139455E+02 0.  0.
          5    1    1    2  502    0 -0.54280237343E+01  0.24121358931E+02  0.73089628404E+02  0.77271402074E+02  0.41800000000E+01 0.  1.
         -5    1    1    2    0  502  0.52194723296E+02  0.14856381190E+02 -0.37786309000E+02  0.66259178608E+02  0.41800000000E+01 0.  1.
        -11    1    3    3    0    0 -0.69408104165E+02 -0.26086177840E+02  0.55745765919E+01  0.74357578647E+02  0.00000000000E+00 0.  1.
         11    1    3    3    0    0  0.22641404603E+02 -0.12891562281E+02 -0.24825328918E+02  0.35987810942E+02  0.00000000000E+00 0. -1.
</event>
<event>
 7    1  0.4096326E-006  0.9372605E+02  0.7561462E-02  0.1294071E+00
         -2   -1    0    0    0  501 -0.00000000000E+00  0.00000000000E+00  0.11279920847E+03  0.11279920847E+03  0.00000000000E+00 0.  1.
          2   -1    0    0  501    0  0.00000000000E+00 -0.00000000000E+00 -0.13833100811E+03  0.13833100811E+03  0.00000000000E+00 0. -1.
         23    2    1    2    0    0 -0.12396085768E+02  0.20778866536E+02 -0.69718162244E+02  0.11628766094E+03  0.89870872380E+02 0.  0.
          5    1    1    2  502    0  0.48692983924E+02 -0.51099944636E+02  0.10839938157E+01  0.70716748143E+02  0.41800000000E+01 0.  1.
         -5    1    1    2    0  502 -0.36296898157E+02  0.30321078100E+02  0.43102368791E+02  0.64125807507E+02  0.41800000000E+01 0.  1.
        -11    1    3    3    0    0 -0.34374521103E+02 -0.57088850681E+01  0.38586515221E+01  0.35058355086E+02  0.00000000000E+00 0.  1.
         11    1    3    3    0    0  0.21978435335E+02  0.26487751604E+02 -0.73576813766E+02  0.81229305849E+02  0.00000000000E+00 0. -1.
</event>
<event>
 7    1  0.4096326E-006  0.1566858E+03  0.7561462E-02  0.1192490E+00
         -1   -1    0    0    0  501 -0.00000000000E+00  0.00000000000E+00  0.18504562836E+03  0.18504562836E+03  0.00000000000E+00 0.  1.
          1   -1    0    0  501    0  0.00000000000E+00 -0.00000000000E+00 -0.18835987118E+03  0.18835987118E+03  0.00000000000E+00 0. -1.
         23    2    1    2    0    0  0.14926590503E+03 -0.11340204287E+02 -0.15231735267E+02  0.17779877219E+03  0.94717933863E+02 0.  0.
          5    1    1    2  502    0 -0.12921892772E+03 -0.14101057794E+02  0.55285825695E+02  0.14131654551E+03  0.41800000000E+01 0. -1.
         -5    1    1    2    0  502 -0.20046977313E+02  0.25441262080E+02 -0.43368333249E+02  0.54290181842E+02  0.41800000000E+01 0. -1.
        -11    1    3    3    0    0  0.30198067440E+02  0.45395052515E+01  0.36000409211E+02  0.47207624897E+02  0.00000000000E+00 0.  1.
         11    1    3    3    0    0  0.11906783759E+03 -0.15879709538E+02 -0.51232144478E+02  0.13059114730E+03  0.00000000000E+00 0. -1.
</event>
<event>
 7    1  0.4096326E-006  0.9954447E+02  0.7561462E-02  0.1281257E+00
          1   -1    0    0  501    0  0.00000000000E+00  0.00000000000E+00  0.14335666419E+03  0.14335666419E+03  0.00000000000E+00 0. -1.
         -1   -1    0    0    0  501 -0.00000000000E+00 -0.00000000000E+00 -0.20459199232E+03  0.20459199232E+03  0.00000000000E+00 0.  1.
         23    2    1    2    0    0  0.46505397371E+01 -0.62800564060E+02  0.88333847463E+02  0.14305052534E+03  0.93247229590E+02 0.  0.
          5    1    1    2  502    0 -0.26974774726E+02  0.58068798287E+02 -0.11863844698E+02  0.65252180171E+02  0.41800000000E+01 0. -1.
         -5    1    1    2    0  502  0.22324234989E+02  0.47317657723E+01 -0.13770533089E+03  0.13964595100E+03  0.41800000000E+01 0. -1.
        -11    1    3    3    0    0  0.12041305062E+02  0.22811210611E+02  0.13556008512E+02  0.29139487365E+02  0.00000000000E+00 0.  1.
         11    1    3    3    0    0 -0.73907653247E+01 -0.85611774670E+02  0.74777838950E+02  0.11391103797E+03  0.00000000000E+00 0. -1.
</event>
<event>
 7    1  0.4096326E-006  0.9601471E+02  0.7561462E-02  0.1288907E+00
          1   -1    0    0  501    0  0.00000000000E+00  0.00000000000E+00  0.11115350669E+03  0.11115350669E+03  0.00000000000E+00 0. -1.
         -1   -1    0    0    0  501 -0.00000000000E+00 -0.00000000000E+00 -0.26393479813E+03  0.26393479813E+03  0.00000000000E+00 0.  1.
         23    2    1    2    0    0  0.24007054326E+02  0.54698754797E+02  0.55648882661E+02  0.12476932639E+03  0.94351969945E+02 0.  0.
          5    1    1    2  502    0  0.26540556765E+02 -0.20938745912E+02 -0.94870987703E+00  0.34076453516E+02  0.41800000000E+01 0.  1.
         -5    1    1    2    0  502 -0.50547611091E+02 -0.33760008885E+02 -0.20748146422E+03  0.21624252492E+03  0.41800000000E+01 0.  1.
        -11    1    3    3    0    0  0.33732789297E+02  0.70687211294E+02  0.66837770365E+02  0.10296538477E+03  0.00000000000E+00 0.  1.
         11    1    3    3    0    0 -0.97257349711E+01 -0.15988456497E+02 -0.11188887705E+02  0.21803941615E+02  0.00000000000E+00 0. -1.
</event>
<event>
 7    1  0.4096326E-006  0.9136866E+02  0.7561462E-02  0.1299571E+00
         -2   -1    0    0    0  501 -0.00000000000E+00  0.00000000000E+00  0.14916970322E+03  0.14916970322E+03  0.00000000000E+00 0.  1.
          2   -1    0    0  501    0  0.00000000000E+00 -0.00000000000E+00 -0.12315297137E+03  0.12315297137E+03  0.00000000000E+00 0. -1.
         23    2    1    2    0    0  0.27214168093E+02 -0.44866175097E+02 -0.51186905091E+02  0.11623751556E+03  0.90207960611E+02 0.  0.
          5    1    1    2  502    0 -0.66359880507E+02  0.17560238947E+02  0.43750110688E+01  0.68910150592E+02  0.41800000000E+01 0.  1.
         -5    1    1    2    0  502  0.39145712413E+02  0.27305936150E+02  0.72828625878E+02  0.87175008441E+02  0.41800000000E+01 0.  1.
        -11    1    3    3    0    0  0.34590778196E+02 -0.19650751211E+02  0.16925686305E+02  0.43233700007E+02  0.00000000000E+00 0.  1.
         11    1    3    3    0    0 -0.73766101030E+01 -0.25215423886E+02 -0.68112591396E+02  0.73003815551E+02  0.00000000000E+00 0. -1.
</event>
<event>
 7    1  0.4096326E-006  0.1345167E+03  0.7561462E-02  0.1220904E+00
          2   -1    0    0  501    0  0.00000000000E+00  0.00000000000E+00  0.10900295506E+04  0.10900295506E+04  0.00000000000E+00 0. -1.
         -2   -1    0    0    0  501 -0.00000000000E+00 -0.00000000000E+00 -0.18227980651E+02  0.18227980651E+02  0.00000000000E+00 0.  1.
         23    2    1    2    0    0 -0.65147885910E+02 -0.58636055061E+02  0.55639566432E+03  0.57069505246E+03  0.91838301573E+02 0.  0.
          5    1    1    2  502    0 -0.25456108722E+02  0.46425475211E+02  0.11269230701E+03  0.12458076368E+03  0.41800000000E+01 0.  1.
         -5    1    1    2    0  502  0.90603994632E+02  0.12210579850E+02  0.40271359860E+03  0.41298171509E+03  0.41800000000E+01 0.  1.
        -11    1    3    3    0    0 -0.77877890249E+02 -0.15469959943E+02  0.29730300674E+03  0.30772286764E+03  0.00000000000E+00 0. -1.
         11    1    3    3    0    0  0.12730004339E+02 -0.43166095118E+02  0.25909265758E+03  0.26297218482E+03  0.00000000000E+00 0.  1.
</event>
<event>
 7    1  0.4096326E-006  0.6146060E+02  0.7561462E-02  0.1391803E+00
         -2   -1    0    0    0  501 -0.00000000000E+00  0.00000000000E+00  0.49406499551E+02  0.49406499551E+02  0.00000000000E+00 0.  1.
          2   -1    0    0  501    0  0.00000000000E+00 -0.00000000000E+00 -0.24298077928E+03  0.24298077928E+03  0.00000000000E+00 0. -1.
         23    2    1    2    0    0  0.90069533124E+01  0.19668241546E+02 -0.82328461632E+02  0.12359274175E+03  0.89605944476E+02 0.  0.
          5    1    1    2  502    0 -0.46534714903E+01 -0.23065452672E+02  0.23707949706E+02  0.33663172506E+02  0.41800000000E+01 0.  1.
         -5    1    1    2    0  502 -0.43534818221E+01  0.33972111257E+01 -0.13495376781E+03  0.13513136458E+03  0.41800000000E+01 0.  1.
        -11    1    3    3    0    0  0.19336096856E+01  0.55520161750E+02 -0.52217089861E+02  0.76242059789E+02  0.00000000000E+00 0.  1.
         11    1    3    3    0    0  0.70733436268E+01 -0.35851920204E+02 -0.30111371771E+02  0.47350681963E+02  0.00000000000E+00 0. -1.
</event>
<event>
 7    1  0.4096326E-006  0.1310645E+03  0.7561462E-02  0.1225885E+00
          1   -1    0    0  501    0  0.00000000000E+00  0.00000000000E+00  0.22215698429E+02  0.22215698429E+02  0.00000000000E+00 0. -1.
         -1   -1    0    0    0  501 -0.00000000000E+00 -0.00000000000E+00 -0.10306431967E+04  0.10306431967E+04  0.00000000000E+00 0.  1.
         23    2    1    2    0    0 -0.40405008282E+02  0.80425646571E+02 -0.27114843974E+03  0.29965104818E+03  0.90379339335E+02 0.  0.
          5    1    1    2  502    0  0.36623208325E+02  0.21906677363E+02 -0.11894751006E+03  0.12644028017E+03  0.41800000000E+01 0.  1.
         -5    1    1    2    0  502  0.37817999577E+01 -0.10233232393E+03 -0.61833154849E+03  0.62676756680E+03  0.41800000000E+01 0.  1.
        -11    1    3    3    0    0 -0.60977069916E+02  0.72457083785E+02 -0.15668035218E+03  0.18307639063E+03  0.00000000000E+00 0. -1.
         11    1    3    3    0    0  0.20572061634E+02  0.79685627863E+01 -0.11446808756E+03  0.11657465754E+03  0.00000000000E+00 0.  1.
</event>
<event>
 7    1  0.4096326E-006  0.1810766E+03  0.7561462E-02  0.1166765E+00
         -3   -1    0    0    0  501 -0.00000000000E+00  0.00000000000E+00  0.20643261028E+03  0.20643261028E+03  0.00000000000E+00 0.  1.
          3   -1    0    0  501    0  0.00000000000E+00 -0.00000000000E+00 -0.17392696701E+03  0.17392696701E+03  0.00000000000E+00 0. -1.
         23    2    1    2    0    0 -0.27692738336E+02 -0.43480432333E+02  0.20990953013E+02  0.10602050378E+03  0.90234646126E+02 0.  0.
          5    1    1    2  502    0 -0.73691648595E+02  0.11785930114E+03 -0.29214408542E+02  0.14209935962E+03  0.41800000000E+01 0. -1.
         -5    1    1    2    0  502  0.10138438693E+03 -0.74378868810E+02  0.40729098795E+02  0.13223971388E+03  0.41800000000E+01 0.  1.
        -11    1    3    3    0    0 -0.48831651228E+02  0.11085139986E+00 -0.81174868481E+01  0.49501879181E+02  0.00000000000E+00 0. -1.
         11    1    3    3    0    0  0.21138912892E+02 -0.43591283733E+02  0.29108439861E+02  0.56518624601E+02  0.00000000000E+00 0.  1.
</event>
<event>
 7    1  0.4096326E-006  0.8359637E+02  0.7561462E-02  0.1319145E+00
          2   -1    0    0  501    0  0.00000000000E+00  0.00000000000E+00  0.27385214125E+02  0.27385214125E+02  0.00000000000E+00 0. -1.
         -2   -1    0    0    0  501 -0.00000000000E+00 -0.00000000000E+00 -0.47114824967E+03  0.47114824967E+03  0.00000000000E+00 0.  1.
         23    2    1    2    0    0 -0.24566416665E+02 -0.16416118447E+02 -0.14995008347E+03  0.17783691153E+03  0.90928223317E+02 0.  0.
          5    1    1    2  502    0  0.60116056525E+02 -0.69887011319E+01 -0.69105799473E+02  0.91955783486E+02  0.41800000000E+01 0.  1.
         -5    1    1    2    0  502 -0.35549639861E+02  0.23404819579E+02 -0.22470715260E+03  0.22874076878E+03  0.41800000000E+01 0.  1.
        -11    1    3    3    0    0 -0.41531893489E+01 -0.35544024530E+02 -0.13023661186E+02  0.38082048425E+02  0.00000000000E+00 0. -1.
         11    1    3    3    0    0 -0.20413227316E+02  0.19127906083E+02 -0.13692642229E+03  0.13975486310E+03  0.00000000000E+00 0.  1.
</event>
<event>
 7    1  0.4096326E-006  0.1672705E+03  0.7561462E-02  0.1180725E+00
          2   -1    0    0  501    0  0.00000000000E+00  0.00000000000E+00  0.17829040503E+03  0.17829040503E+03  0.00000000000E+00 0. -1.
         -2   -1    0    0    0  501 -0.00000000000E+00 -0.00000000000E+00 -0.38775042139E+03  0.38775042139E+03  0.00000000000E+00 0.  1.
         23    2    1    2    0    0 -0.68702315553E+02 -0.13324147406E+03  0.98342977119E+02  0.20153586187E+03  0.92043815110E+02 0.  0.
          5    1    1    2  502    0  0.48707942327E+02  0.76730726416E+01 -0.16955855112E+03  0.17663214415E+03  0.41800000000E+01 0. -1.
         -5    1    1    2    0  502  0.19994373226E+02  0.12556840142E+03 -0.13824444236E+03  0.18787282039E+03  0.41800000000E+01 0. -1.
        -11    1    3    3    0    0 -0.62762377089E+02 -0.68818561613E+02  0.10021276497E+03  0.13681267728E+03  0.00000000000E+00 0. -1.
         11    1    3    3    0    0 -0.59399384641E+01 -0.64422912450E+02 -0.18697878560E+01  0.64723184595E+02  0.00000000000E+00 0.  1.
</event>
<event>
 7    1  0.4096326E-006  0.8888562E+02  0.7561462E-02  0.1305573E+00
          3   -1    0    0  501    0  0.00000000000E+00  0.00000000000E+00  0.76988783975E+02  0.76988783975E+02  0.00000000000E+00 0. -1.
         -3   -1    0    0    0  501 -0.00000000000E+00 -0.00000000000E+00 -0.22471947307E+03  0.22471947307E+03  0.00000000000E+00 0.  1.
         23    2    1    2    0    0  0.49334467996E+02 -0.31297249060E+02 -0.16008344767E+02  0.11088913673E+03  0.92880170174E+02 0.  0.
          5    1    1    2  502    0 -0.63796403384E+02  0.29242977975E+01 -0.14308759340E+03  0.15674841112E+03  0.41800000000E+01 0.  1.
         -5    1    1    2    0  502  0.14461935388E+02  0.28372951262E+02  0.11365249076E+02  0.34070709195E+02  0.41800000000E+01 0.  1.
        -11    1    3    3    0    0  0.16908034683E+02 -0.43760122247E+02 -0.45474990844E+02  0.65336090548E+02  0.00000000000E+00 0.  1.
         11    1    3    3    0    0  0.32426433313E+02  0.12462873187E+02  0.29466646077E+02  0.45553046183E+02  0.00000000000E+00 0. -1.
</event>
<event>
 7    1  0.4096326E-006  0.9991045E+02  0.7561462E-02  0.1280484E+00
          1   -1    0    0  501    0  0.00000000000E+00  0.00000000000E+00  0.29248548368E+02  0.29248548368E+02  0.00000000000E+00 0. -1.
         -1   -1    0    0    0  501 -0.00000000000E+00 -0.00000000000E+00 -0.47433385021E+03  0.47433385021E+03  0.00000000000E+00 0.  1.
         23    2    1    2    0    0 -0.14425534989E+02 -0.44405211255E+02 -0.17268338876E+03  0.20021863854E+03  0.89933484419E+02 0.  0.
          5    1    1    2  502    0  0.35352319879E+02 -0.19360147448E+02 -0.26462175660E+02  0.48397530626E+02  0.41800000000E+01 0. -1.
         -5    1    1    2    0  502 -0.20926784889E+02  0.63765358703E+02 -0.24593973742E+03  0.25496622941E+03  0.41800000000E+01 0. -1.
        -11    1    3    3    0    0 -0.28495588195E+02 -0.62762075287E+02 -0.15911623432E+03  0.17340430406E+03  0.00000000000E+00 0.  1.
         11    1    3    3    0    0  0.14070053206E+02  0.18356864032E+02 -0.13567154437E+02  0.26814334484E+02  0.00000000000E+00 0. -1.
</event>
<event>
 7    1  0.4096326E-006  0.8552892E+02  0.7561462E-02  0.1314055E+00
         -2   -1    0    0    0  501 -0.00000000000E+00  0.00000000000E+00  0.15476602791E+03  0.15476602791E+03  0.00000000000E+00 0.  1.
          2   -1    0    0  501    0  0.00000000000E+00 -0.00000000000E+00 -0.82258707061E+02  0.82258707061E+02  0.00000000000E+00 0. -1.
         23    2    1    2    0    0  0.29030997272E+02 -0.11332495089E+01  0.15338450994E+02  0.96449200053E+02  0.90681293853E+02 0.  0.
          5    1    1    2  502    0  0.65717702823E+01  0.57856471088E+02  0.41622608463E+02  0.71697094408E+02  0.41800000000E+01 0. -1.
         -5    1    1    2    0  502 -0.35602767554E+02 -0.56723221579E+02  0.15546261394E+02  0.68878440510E+02  0.41800000000E+01 0. -1.
        -11    1    3    3    0    0  0.24067029156E+02  0.15228435031E+02 -0.33929730886E+02  0.44298462319E+02  0.00000000000E+00 0. -1.
         11    1    3    3    0    0  0.49639681162E+01 -0.16361684540E+02  0.49268181880E+02  0.52150737734E+02  0.00000000000E+00 0.  1.
</event>
<event>
 7    1  0.4096326E-006  0.1059798E+03  0.7561462E-02  0.1268201E+00
         -3   -1    0    0    0  501 -0.00000000000E+00  0.00000000000E+00  0.93960247106E+02  0.93960247106E+02  0.00000000000E+00 0.  1.
          3   -1    0    0  501    0  0.00000000000E+00 -0.00000000000E+00 -0.13352318526E+03  0.13352318526E+03  0.00000000000E+00 0. -1.
         23    2    1    2    0    0 -0.23736166310E+02  0.91097231306E+01 -0.22725751870E+02  0.98728894151E+02  0.92652804035E+02 0.  0.
          5    1    1    2  502    0 -0.23445271217E+02 -0.49781515876E+02 -0.32954619192E+02  0.64275651622E+02  0.41800000000E+01 0.  1.
         -5    1    1    2    0  502  0.47181437527E+02  0.40671792746E+02  0.16117432911E+02  0.64478886590E+02  0.41800000000E+01 0.  1.
        -11    1    3    3    0    0  0.34041050804E+02  0.12990210147E+02  0.23335866196E+00  0.36436151770E+02  0.00000000000E+00 0.  1.
         11    1    3    3    0    0 -0.57777217114E+02 -0.38804870166E+01 -0.22959110532E+02  0.62292742381E+02  0.00000000000E+00 0. -1.
</event>
<event>
 7    1  0.4096326E-006  0.1136490E+03  0.7561462E-02  0.1253958E+00
          1   -1    0    0  501    0  0.00000000000E+00  0.00000000000E+00  0.16437750353E+03  0.16437750353E+03  0.00000000000E+00 0. -1.
         -1   -1    0    0    0  501 -0.00000000000E+00 -0.00000000000E+00 -0.10269734087E+03  0.10269734087E+03  0.00000000000E+00 0.  1.
         23    2    1    2    0    0 -0.39576522874E+01  0.57863826420E+02  0.69970106938E+02  0.12894274970E+03  0.91468745568E+02 0.  0.
          5    1    1    2  502    0 -0.52111281810E+02 -0.17431112774E+02 -0.33432109606E+02  0.64456246688E+02  0.41800000000E+01 0.  1.
         -5    1    1    2    0  502  0.56068934097E+02 -0.40432713645E+02  0.25142165329E+02  0.73675848016E+02  0.41800000000E+01 0.  1.
        -11    1    3    3    0    0 -0.25474953858E+02 -0.13196528806E+02  0.28096581052E+01  0.28827345096E+02  0.00000000000E+00 0.  1.
         11    1    3    3    0    0  0.21517301570E+02  0.71060355226E+02  0.67160448833E+02  0.10011540460E+03  0.00000000000E+00 0. -1.
</event>
<event>
 7    1  0.4096326E-006  0.1667629E+03  0.7561462E-02  0.1181266E+00
         -1   -1    0    0    0  501 -0.00000000000E+00  0.00000000000E+00  0.49130654917E+03  0.49130654917E+03  0.00000000000E+00 0.  1.
          1   -1    0    0  501    0  0.00000000000E+00 -0.00000000000E+00 -0.95638256087E+02  0.95638256087E+02  0.00000000000E+00 0. -1.
         23    2    1    2    0    0 -0.65845532064E+02 -0.11985339378E+03  0.19421832884E+02  0.16752978931E+03  0.94807977623E+02 0.  0.
          5    1    1    2  502    0  0.98500391884E+02  0.66137023695E+02  0.28286625023E+03  0.30676900271E+03  0.41800000000E+01 0. -1.
         -5    1    1    2    0  502 -0.32654859820E+02  0.53716370081E+02  0.93380209971E+02  0.11264601324E+03  0.41800000000E+01 0. -1.
        -11    1    3    3    0    0 -0.37814793982E+02 -0.11777667028E+03 -0.13279143659E+02  0.12440915707E+03  0.00000000000E+00 0. -1.
         11    1    3    3    0    0 -0.28030738082E+02 -0.20767234955E+01  0.32700976544E+02  0.43120632240E+02  0.00000000000E+00 0.  1.
</event>
<event>
 7    1  0.4096326E-006  0.8569005E+02  0.7561462E-02  0.1313638E+00
          1   -1    0    0  501    0  0.00000000000E+00  0.00000000000E+00  0.31788188508E+03  0.31788188508E+03  0.00000000000E+00 0. -1.
         -1   -1    0    0    0  501 -0.00000000000E+00 -0.00000000000E+00 -0.84230640300E+02  0.84230640300E+02  0.00000000000E+00 0.  1.
         23    2    1    2    0    0 -0.81374139600E+02 -0.81994070885E+01  0.22442392472E+03  0.25237297563E+03  0.81468030334E+02 0.  0.
          5    1    1    2  502    0  0.81490695910E+01  0.16769055528E+01 -0.52706437207E+02  0.53522521152E+02  0.41800000000E+01 0.  1.
         -5    1    1    2    0  502  0.73225070009E+02  0.65225015357E+01  0.61933757268E+02  0.96217028604E+02  0.41800000000E+01 0.  1.
        -11    1    3    3    0    0 -0.57510917352E+01 -0.11374598458E+02 -0.26483913336E+01  0.13018084455E+02  0.00000000000E+00 0.  1.
         11    1    3    3    0    0 -0.75623047865E+02  0.31751913694E+01  0.22707231606E+03  0.23935489117E+03  0.00000000000E+00 0. -1.
</event>
<event>
 7    1  0.4096326E-006  0.1040947E+03  0.7561462E-02  0.1271914E+00
         -1   -1    0    0    0  501 -0.00000000000E+00  0.00000000000E+00  0.39155519216E+02  0.39155519216E+02  0.00000000000E+00 0.  1.
          1   -1    0    0  501    0  0.00000000000E+00 -0.00000000000E+00 -0.42365461742E+03  0.42365461742E+03  0.00000000000E+00 0. -1.
         23    2    1    2    0    0  0.60496873420E+02  0.21082530969E+02 -0.18646074601E+03  0.21997322296E+03  0.97551341408E+02 0.  0.
          5    1    1    2  502    0  0.37164460437E+02  0.82553169194E+01 -0.59616470936E+02  0.70858615453E+02  0.41800000000E+01 0. -1.
         -5    1    1    2    0  502 -0.97661333857E+02 -0.29337847888E+02 -0.13842188125E+03  0.17197829822E+03  0.41800000000E+01 0. -1.
        -11    1    3    3    0    0  0.26697666577E+02 -0.22022806535E+01  0.22198342950E+01  0.26880161924E+02  0.00000000000E+00 0.  1.
         11    1    3    3    0    0  0.33799206843E+02  0.23284811622E+02 -0.18868058031E+03  0.19309306104E+03  0.00000000000E+00 0. -1.
</event>
<event>
 7    1  0.4096326E-006  0.1009150E+03  0.7561462E-02  0.1278384E+00
         -2   -1    0    0    0  501 -0.00000000000E+00  0.00000000000E+00  0.88305820251E+02  0.88305820251E+02  0.00000000000E+00 0.  1.
          2   -1    0    0  501    0  0.00000000000E+00 -0.00000000000E+00 -0.24755940400E+03  0.24755940400E+03  0.00000000000E+00 0. -1.
         23    2    1    2    0    0 -0.22571516785E+01  0.47353862798E+02 -0.17216673158E+03  0.20147040656E+03  0.93281606981E+02 0.  0.
          5    1    1    2  502    0  0.63520822388E+02 -0.22303837174E+02  0.61864129584E+01  0.67735516052E+02  0.41800000000E+01 0. -1.
         -5    1    1    2    0  502 -0.61263670709E+02 -0.25050025625E+02  0.67267348761E+01  0.66659301636E+02  0.41800000000E+01 0. -1.
        -11    1    3    3    0    0 -0.24539086124E+02  0.34493374095E+02 -0.17051442662E+03  0.17569043596E+03  0.00000000000E+00 0. -1.
         11    1    3    3    0    0  0.22281934445E+02  0.12860488704E+02 -0.16523049632E+01  0.25779970598E+02  0.00000000000E+00 0.  1.
</event>
<event>
 7    1  0.4096326E-006  0.1564526E+03  0.7561462E-02  0.1192761E+00
         -2   -1    0    0    0  501 -0.00000000000E+00  0.00000000000E+00  0.45550532100E+02  0.45550532100E+02  0.00000000000E+00 0.  1.
          2   -1    0    0  501    0  0.00000000000E+00 -0.00000000000E+00 -0.61808630884E+03  0.61808630884E+03  0.00000000000E+00 0. -1.
         23    2    1    2    0    0  0.10148597587E+03 -0.68520693137E+02 -0.28777591124E+03  0.32937546709E+03  0.10333796274E+03 0.  0.
          5    1    1    2  502    0 -0.77818085468E+02 -0.57595338150E+01 -0.67014537311E+02  0.10294293209E+03  0.41800000000E+01 0. -1.
         -5    1    1    2    0  502 -0.23667890402E+02  0.74280226952E+02 -0.21774532818E+03  0.23131844176E+03  0.41800000000E+01 0. -1.
        -11    1    3    3    0    0  0.35752625084E+02 -0.82120030433E+02 -0.12951678026E+03  0.15746919054E+03  0.00000000000E+00 0. -1.
         11    1    3    3    0    0  0.65733350785E+02  0.13599337296E+02 -0.15825913098E+03  0.17190627655E+03  0.00000000000E+00 0.  1.
</event>
<event>
 7    1  0.4096326E-006  0.1172735E+03  0.7561462E-02  0.1247664E+00
          3   -1    0    0  501    0  0.00000000000E+00  0.00000000000E+00  0.23253084234E+03  0.23253084234E+03  0.00000000000E+00 0. -1.
         -3   -1    0    0    0  501 -0.00000000000E+00 -0.00000000000E+00 -0.90881837976E+02  0.90881837976E+02  0.00000000000E+00 0.  1.
         23    2    1    2    0    0  0.39406381797E+02 -0.73904632338E+02  0.11723492028E+03  0.17090580400E+03  0.91923934315E+02 0.  0.
          5    1    1    2  502    0 -0.14507982321E+02 -0.22280036696E+02 -0.29051416423E+02  0.39602257289E+02  0.41800000000E+01 0. -1.
         -5    1    1    2    0  502 -0.24898399476E+02  0.96184669034E+02  0.53465500507E+02  0.11290461903E+03  0.41800000000E+01 0. -1.
        -11    1    3    3    0    0 -0.10692579047E+02 -0.52725008012E+02  0.10050711056E+03  0.11399972363E+03  0.00000000000E+00 0.  1.
         11    1    3    3    0    0  0.50098960844E+02 -0.21179624326E+02  0.16727809725E+02  0.56906080364E+02  0.00000000000E+00 0. -1.
</event>
<event>
 7    1  0.4096326E-006  0.1209084E+03  0.7561462E-02  0.1241606E+00
         -1   -1    0    0    0  501 -0.00000000000E+00  0.00000000000E+00  0.82900423216E+02  0.82900423216E+02  0.00000000000E+00 0.  1.
          1   -1    0    0  501    0  0.00000000000E+00 -0.00000000000E+00 -0.20368345814E+03  0.20368345814E+03  0.00000000000E+00 0. -1.
         23    2    1    2    0    0  0.23147803979E+02  0.67151831137E+02 -0.42279367760E+02  0.12270805938E+03  0.90689214605E+02 0.  0.
          5    1    1    2  502    0  0.38531154934E+02  0.91278283299E+01 -0.45104823742E+02  0.60165477438E+02  0.41800000000E+01 0. -1.
         -5    1    1    2    0  502 -0.61678958913E+02 -0.76279659467E+02 -0.33398843421E+02  0.10371034453E+03  0.41800000000E+01 0. -1.
        -11    1    3    3    0    0  0.37017105936E+02  0.77912928635E+02 -0.11159299582E+02  0.86978276297E+02  0.00000000000E+00 0.  1.
         11    1    3    3    0    0 -0.13869301957E+02 -0.10761097498E+02 -0.31120068178E+02  0.35729783088E+02  0.00000000000E+00 0. -1.
</event>
<event>
 7    1  0.4096326E-006  0.1167631E+03  0.7561462E-02  0.1248534E+00
         -1   -1    0    0    0  501 -0.00000000000E+00  0.00000000000E+00  0.18647763436E+03  0.18647763436E+03  0.00000000000E+00 0.  1.
          1   -1    0    0  501    0  0.00000000000E+00 -0.00000000000E+00 -0.87650408993E+02  0.87650408993E+02  0.00000000000E+00 0. -1.
         23    2    1    2    0    0 -0.36889132023E+02  0.53802441052E+02  0.54228898157E+02  0.12615386011E+03  0.93372974151E+02 0.  0.
          5    1    1    2  502    0  0.79703993669E+02 -0.55755028748E+02  0.37493933636E+02  0.10432936929E+03  0.41800000000E+01 0. -1.
         -5    1    1    2    0  502 -0.42814861646E+02  0.19525876958E+01  0.71043935770E+01  0.43644813948E+02  0.41800000000E+01 0. -1.
        -11    1    3    3    0    0 -0.53184731097E+02  0.22367957151E+02  0.67086203569E+02  0.88484460999E+02  0.00000000000E+00 0.  1.
         11    1    3    3    0    0  0.16295599074E+02  0.31434483900E+02 -0.12857305412E+02  0.37669399115E+02  0.00000000000E+00 0. -1.
</event>
<event>
 7    1  0.4096326E-006  0.9625337E+02  0.7561462E-02  0.1288378E+00
          2   -1    0    0  501    0  0.00000000000E+00  0.00000000000E+00  0.14155070116E+03  0.14155070116E+03  0.00000000000E+00 0. -1.
         -2   -1    0    0    0  501 -0.00000000000E+00 -0.00000000000E+00 -0.10084033161E+03  0.10084033161E+03  0.00000000000E+00 0.  1.
         23    2    1    2    0    0  0.50170608037E+02  0.67505279307E+01  0.24419819318E+02  0.10646488269E+03  0.90420042760E+02 0.  0.
          5    1    1    2  502    0 -0.77670656190E+02 -0.27064940717E+02 -0.21172559818E+02  0.85035237039E+02  0.41800000000E+01 0. -1.
         -5    1    1    2    0  502  0.27500048153E+02  0.20314412786E+02  0.37463110049E+02  0.50890913038E+02  0.41800000000E+01 0. -1.
        -11    1    3    3    0    0 -0.10721231163E+02  0.10089292849E+02 -0.24298719662E+02  0.28410674139E+02  0.00000000000E+00 0.  1.
         11    1    3    3    0    0  0.60891839200E+02 -0.33387649178E+01  0.48718538980E+02  0.78054208552E+02  0.00000000000E+00 0. -1.
</event>
<event>
 7    1  0.4096326E-006  0.7692572E+02  0.7561462E-02  0.1338009E+00
          2   -1    0    0  501    0  0.00000000000E+00  0.00000000000E+00  0.56624737654E+03  0.56624737654E+03  0.00000000000E+00 0. -1.
         -2   -1    0    0    0  501 -0.00000000000E+00 -0.00000000000E+00 -0.19494251652E+02  0.19494251652E+02  0.00000000000E+00 0.  1.
         23    2    1    2    0    0  0.56012531730E+01  0.78632499496E+01  0.30031597178E+03  0.31341408198E+03  0.89137529340E+02 0.  0.
          5    1    1    2  502    0  0.67969525116E+00  0.32101416492E+02  0.22309915087E+03  0.22543661292E+03  0.41800000000E+01 0. -1.
         -5    1    1    2    0  502 -0.62809484242E+01 -0.39964666441E+02  0.23338002236E+02  0.46890933295E+02  0.41800000000E+01 0.  1.
        -11    1    3    3    0    0  0.29053539730E+02  0.34636876593E+02  0.97148717462E+02  0.10715267003E+03  0.00000000000E+00 0. -1.
         11    1    3    3    0    0 -0.23452286557E+02 -0.26773626643E+02  0.20316725432E+03  0.20626141194E+03  0.00000000000E+00 0.  1.
</event>
<event>
 7    1  0.4096326E-006  0.8958239E+02  0.7561462E-02  0.1303866E+00
         -2   -1    0    0    0  501 -0.00000000000E+00  0.00000000000E+00  0.85284701900E+02  0.85284701900E+02  0.00000000000E+00 0.  1.
          2   -1    0    0  501    0  0.00000000000E+00 -0.00000000000E+00 -0.13840991658E+03  0.13840991658E+03  0.00000000000E+00 0. -1.
         23    2    1    2    0    0 -0.78760040013E+01 -0.92157685803E+01 -0.18842060111E+02  0.93431996046E+02  0.90705858831E+02 0.  0.
          5    1    1    2  502    0  0.60693991141E+02 -0.38895956551E+00  0.85771227492E+01  0.61440632197E+02  0.41800000000E+01 0. -1.
         -5    1    1    2    0  502 -0.52817987139E+02  0.96047281458E+01 -0.42860277316E+02  0.68821990235E+02  0.41800000000E+01 0. -1.
        -11    1    3    3    0    0 -0.35817234259E+02 -0.65474436036E+01 -0.43038278280E+02  0.56374078131E+02  0.00000000000E+00 0.  1.
         11    1    3    3    0    0  0.27941230258E+02 -0.26683249767E+01  0.24196218169E+02  0.37057917915E+02  0.00000000000E+00 0. -1.
</event>
<event>
 7    1  0.4254929E-006  0.1454975E+03  0.7561462E-02  0.1206117E+00
          2   -1    0    0  501    0  0.00000000000E+00  0.00000000000E+00  0.38210259078E+03  0.38210259078E+03  0.00000000000E+00 0. -1.
         -2   -1    0    0    0  501 -0.00000000000E+00 -0.00000000000E+00 -0.67669672043E+02  0.67669672043E+02  0.00000000000E+00 0.  1.
         23    2    1    2    0    0 -0.10778376786E+03 -0.38960740658E+02  0.19431560657E+03  0.24190031077E+03  0.87303639482E+02 0.  0.
          5    1    1    2  502    0  0.16878292164E+02  0.71018293400E+02  0.49160215034E+02  0.88106037739E+02  0.41800000000E+01 0.  1.
         -5    1    1    2    0  502  0.90905475693E+02 -0.32057552743E+02  0.70957097134E+02  0.11976591432E+03  0.41800000000E+01 0.  1.
        -11    1    3    3    0    0 -0.51411846299E+02  0.24163741407E+01  0.15126918968E+03  0.15978543284E+03  0.00000000000E+00 0. -1.
         11    1    3    3    0    0 -0.56371921557E+02 -0.41377114799E+02  0.43046416897E+02  0.82114877926E+02  0.00000000000E+00 0.  1.
</event>
<event>
 7    1  0.4096326E-006  0.1266590E+03  0.7561462E-02  0.1232499E+00
         -2   -1    0    0    0  501 -0.00000000000E+00  0.00000000000E+00  0.58048795429E+02  0.58048795429E+02  0.00000000000E+00 0.  1.
          2   -1    0    0  501    0  0.00000000000E+00 -0.00000000000E+00 -0.34612897447E+03  0.34612897447E+03  0.00000000000E+00 0. -1.
         23    2    1    2    0    0  0.57497918128E+02 -0.42825312245E+02 -0.21159106892E+03  0.24096615874E+03  0.90298899531E+02 0.  0.
          5    1    1    2  502    0 -0.87753813652E+02 -0.76306038236E+00 -0.63565718370E+02  0.10844070741E+03  0.41800000000E+01 0. -1.
         -5    1    1    2    0  502  0.30255895524E+02  0.43588372627E+02 -0.12923391750E+02  0.54770903740E+02  0.41800000000E+01 0. -1.
        -11    1    3    3    0    0 -0.13536350884E+02 -0.38794618824E+02 -0.52316196481E+02  0.66522474843E+02  0.00000000000E+00 0.  1.
         11    1    3    3    0    0  0.71034269012E+02 -0.40306934203E+01 -0.15927487244E+03  0.17444368390E+03  0.00000000000E+00 0. -1.
</event>
<event>
 7    1  0.4096326E-006  0.1373332E+03  0.7561462E-02  0.1216963E+00
         -1   -1    0    0    0  501 -0.00000000000E+00  0.00000000000E+00  0.57556211990E+02  0.57556211990E+02  0.00000000000E+00 0.  1.
          1   -1    0    0  501    0  0.00000000000E+00 -0.00000000000E+00 -0.50269893469E+03  0.50269893469E+03  0.00000000000E+00 0. -1.
         23    2    1    2    0    0  0.66320544174E+00  0.23937569251E+02 -0.22685862911E+03  0.24485368533E+03  0.88966524892E+02 0.  0.
          5    1    1    2  502    0 -0.57633081560E+02  0.61922406824E+02 -0.19068149299E+03  0.20864529883E+03  0.41800000000E+01 0. -1.
         -5    1    1    2    0  502  0.56969876118E+02 -0.85859976075E+02 -0.27602600600E+02  0.10675616252E+03  0.41800000000E+01 0.  1.
        -11    1    3    3    0    0 -0.28680911673E+02  0.43119477092E+02 -0.17304601789E+03  0.18062892433E+03  0.00000000000E+00 0. -1.
         11    1    3    3    0    0  0.29344117114E+02 -0.19181907841E+02 -0.53812611228E+02  0.64224760995E+02  0.00000000000E+00 0.  1.
</event>
<event>
 7    1  0.4096326E-006  0.2052540E+03  0.7561462E-02  0.1145380E+00
         -1   -1    0    0    0  501 -0.00000000000E+00  0.00000000000E+00  0.41465416242E+02  0.41465416242E+02  0.00000000000E+00 0.  1.
          1   -1    0    0  501    0  0.00000000000E+00 -0.00000000000E+00 -0.11413340168E+04  0.11413340168E+04  0.00000000000E+00 0. -1.
         23    2    1    2    0    0  0.10007335867E+03 -0.15810587417E+03 -0.52002533959E+03  0.56080468418E+03  0.95201866685E+02 0.  0.
          5    1    1    2  502    0 -0.18806671818E+02  0.11701821633E+03 -0.43480275271E+03  0.45068598827E+03  0.41800000000E+01 0. -1.
         -5    1    1    2    0  502 -0.81266686851E+02  0.41087657838E+02 -0.14504050823E+03  0.17130876056E+03  0.41800000000E+01 0. -1.
        -11    1    3    3    0    0  0.88144252438E+02 -0.71960070464E+02 -0.37314067107E+03  0.39010462877E+03  0.00000000000E+00 0. -1.
         11    1    3    3    0    0  0.11929106232E+02 -0.86145803707E+02 -0.14688466852E+03  0.17070005541E+03  0.00000000000E+00 0.  1.
</event>
<event>
 7    1  0.4096326E-006  0.1591924E+03  0.7561462E-02  0.1189612E+00
         -2   -1    0    0    0  501 -0.00000000000E+00  0.00000000000E+00  0.53298270860E+02  0.53298270860E+02  0.00000000000E+00 0.  1.
          2   -1    0    0  501    0  0.00000000000E+00 -0.00000000000E+00 -0.52913570743E+03  0.52913570743E+03  0.00000000000E+00 0. -1.
         23    2    1    2    0    0 -0.10306406236E+03 -0.62129556760E+02 -0.18529620857E+03  0.24004206393E+03  0.93825501728E+02 0.  0.
          5    1    1    2  502    0  0.89822899070E+02 -0.19264699803E+02 -0.19834344820E+03  0.21862497043E+03  0.41800000000E+01 0. -1.
         -5    1    1    2    0  502  0.13241163287E+02  0.81394256563E+02 -0.92197779804E+02  0.12376694392E+03  0.41800000000E+01 0.  1.
        -11    1    3    3    0    0 -0.13081049835E+02  0.18751663188E+02 -0.67147028224E+02  0.70932800145E+02  0.00000000000E+00 0.  1.
         11    1    3    3    0    0 -0.89983012521E+02 -0.80881219948E+02 -0.11814918034E+03  0.16910926379E+03  0.00000000000E+00 0. -1.
</event>
<event>
 7    1  0.4096326E-006  0.1143197E+03  0.7561462E-02  0.1252773E+00
          1   -1    0    0  501    0  0.00000000000E+00  0.00000000000E+00  0.81094473099E+03  0.81094473099E+03  0.00000000000E+00 0. -1.
         -1   -1    0    0    0  501 -0.00000000000E+00 -0.00000000000E+00 -0.18278493787E+02  0.18278493787E+02  0.00000000000E+00 0.  1.
         23    2    1    2    0    0  0.16317059097E+02  0.39097814924E+02  0.39914018011E+03  0.41162006929E+03  0.91232190121E+02 0.  0.
          5    1    1    2  502    0  0.11823818420E+02  0.41791036654E+02  0.21713138008E+03  0.22147189899E+03  0.41800000000E+01 0. -1.
         -5    1    1    2    0  502 -0.28140877517E+02 -0.80888851578E+02  0.17639467701E+03  0.19613125650E+03  0.41800000000E+01 0.  1.
        -11    1    3    3    0    0 -0.29309732270E+02  0.44531922046E+02  0.24722967935E+03  0.25291236988E+03  0.00000000000E+00 0.  1.
         11    1    3    3    0    0  0.45626791368E+02 -0.54341071218E+01  0.15191050076E+03  0.15870769941E+03  0.00000000000E+00 0. -1.
</event>
<event>
 7    1  0.4096326E-006  0.1069789E+03  0.7561462E-02  0.1266269E+00
         -2   -1    0    0    0  501 -0.00000000000E+00  0.00000000000E+00  0.21772382839E+02  0.21772382839E+02  0.00000000000E+00 0.  1.
          2   -1    0    0  501    0  0.00000000000E+00 -0.00000000000E+00 -0.73446545288E+03  0.73446545288E+03  0.00000000000E+00 0. -1.
         23    2    1    2    0    0  0.61560518973E+02 -0.89573204508E+01 -0.35771920128E+03  0.37475842400E+03  0.92795033855E+02 0.  0.
          5    1    1    2  502    0 -0.23792804276E+02  0.53235062272E+02 -0.72953957910E+02  0.93487013886E+02  0.41800000000E+01 0.  1.
         -5    1    1    2    0  502 -0.37767714697E+02 -0.44277741821E+02 -0.28201991085E+03  0.28799239783E+03  0.41800000000E+01 0.  1.
        -11    1    3    3    0    0 -0.47884723376E+01 -0.27775151887E+02 -0.35950285132E+02  0.45681632312E+02  0.00000000000E+00 0.  1.
         11    1    3    3    0    0  0.66348991311E+02  0.18817831436E+02 -0.32176891615E+03  0.32907679168E+03  0.00000000000E+00 0. -1.
</event>
<event>
 7    1  0.4096326E-006  0.1250719E+03  0.7561462E-02  0.1234957E+00
          2   -1    0    0  501    0  0.00000000000E+00  0.00000000000E+00  0.21655101626E+03  0.21655101626E+03  0.00000000000E+00 0. -1.
         -2   -1    0    0    0  501 -0.00000000000E+00 -0.00000000000E+00 -0.12110976029E+03  0.12110976029E+03  0.00000000000E+00 0.  1.
         23    2    1    2    0    0  0.27977107333E+01  0.10996093808E+03  0.96556797046E+02  0.17108226587E+03  0.88581553112E+02 0.  0.
          5    1    1    2  502    0  0.26626977378E+02 -0.20260188615E+02 -0.49906603181E+02  0.60229665515E+02  0.41800000000E+01 0.  1.
         -5    1    1    2    0  502 -0.29424688111E+02 -0.89700749465E+02  0.48791062106E+02  0.10634884516E+03  0.41800000000E+01 0.  1.
        -11    1    3    3    0    0 -0.15891010593E+02  0.71362938058E+01  0.56558480117E+02  0.59180339473E+02  0.00000000000E+00 0. -1.
         11    1    3    3    0    0  0.18688721327E+02  0.10282464427E+03  0.39998316929E+02  0.11190192640E+03  0.00000000000E+00 0.  1.
</event>
<event>
 7    1  0.4096326E-006  0.1303317E+03  0.7561462E-02  0.1226964E+00
          2   -1    0    0  501    0  0.00000000000E+00  0.00000000000E+00  0.37772579035E+02  0.37772579035E+02  0.00000000000E+00 0. -1.
         -2   -1    0    0    0  501 -0.00000000000E+00 -0.00000000000E+00 -0.14423233225E+04  0.14423233225E+04  0.00000000000E+00 0.  1.
         23    2    1    2    0    0 -0.19190966117E+02  0.31722557540E+01 -0.37075451253E+02  0.75232086962E+02  0.62505371257E+02 0.  0.
          5    1    1    2  502    0  0.10667226826E+03 -0.39509684813E+02 -0.17588310972E+03  0.20950496103E+03  0.41800000000E+01 0. -1.
         -5    1    1    2    0  502 -0.87481302145E+02  0.36337429059E+02 -0.11915921824E+04  0.11953588535E+04  0.41800000000E+01 0.  1.
        -11    1    3    3    0    0  0.78751395843E+01 -0.16680497648E+02 -0.37358663658E+02  0.41664452181E+02  0.00000000000E+00 0. -1.
         11    1    3    3    0    0 -0.27066105701E+02  0.19852753402E+02  0.28321240525E+00  0.33567634780E+02  0.00000000000E+00 0.  1.
</event>
<event>
 7    1  0.4096326E-006  0.1805822E+03  0.7561462E-02  0.1167241E+00
         -1   -1    0    0    0  501 -0.00000000000E+00  0.00000000000E+00  0.17734663832E+02  0.17734663832E+02  0.00000000000E+00 0.  1.
          1   -1    0    0  501    0  0.00000000000E+00 -0.00000000000E+00 -0.21364636918E+04  0.21364636918E+04  0.00000000000E+00 0. -1.
         23    2    1    2    0    0 -0.10426450680E+03  0.11806099144E+03 -0.88820526883E+03  0.90734422809E+03  0.97752051651E+02 0.  0.
          5    1    1    2  502    0  0.13084723451E+02 -0.83633725364E+02 -0.31693183113E+03  0.32806869401E+03  0.41800000000E+01 0. -1.
         -5    1    1    2    0  502  0.91179783353E+02 -0.34427266072E+02 -0.91359192801E+03  0.91878543353E+03  0.41800000000E+01 0. -1.
        -11    1    3    3    0    0 -0.37791460588E+02  0.10435391381E+03 -0.65974953922E+03  0.66901972193E+03  0.00000000000E+00 0. -1.
         11    1    3    3    0    0 -0.66473046216E+02  0.13707077622E+02 -0.22845572960E+03  0.23832450617E+03  0.00000000000E+00 0.  1.
</event>
<event>
 7    1  0.4096326E-006  0.3386799E+03  0.7561462E-02  0.1067360E+00
          2   -1    0    0  501    0  0.00000000000E+00  0.00000000000E+00  0.47505859256E+03  0.47505859256E+03  0.00000000000E+00 0. -1.
         -2   -1    0    0    0  501 -0.00000000000E+00 -0.00000000000E+00 -0.30917490384E+03  0.30917490384E+03  0.00000000000E+00 0.  1.
         23    2    1    2    0    0  0.20938957265E+03  0.25136046902E+03  0.25139271886E+03  0.42369855009E+03  0.96416200563E+02 0.  0.
          5    1    1    2  502    0 -0.13083602562E+03 -0.62332048541E+02 -0.25805015352E+02  0.14726412018E+03  0.41800000000E+01 0. -1.
         -5    1    1    2    0  502 -0.78553547031E+02 -0.18902842048E+03 -0.59704014790E+02  0.21327082614E+03  0.41800000000E+01 0. -1.
        -11    1    3    3    0    0  0.13075119667E+03  0.14331334134E+03  0.89133259225E+02  0.21349315478E+03  0.00000000000E+00 0. -1.
         11    1    3    3    0    0  0.78638375981E+02  0.10804712768E+03  0.16225945964E+03  0.21020539531E+03  0.00000000000E+00 0.  1.
</event>
<event>
 7    1  0.4096326E-006  0.1649388E+03  0.7561462E-02  0.1183231E+00
          4   -1    0    0  501    0  0.00000000000E+00  0.00000000000E+00  0.23984922024E+03  0.23984922024E+03  0.00000000000E+00 0. -1.
         -4   -1    0    0    0  501 -0.00000000000E+00 -0.00000000000E+00 -0.14966381348E+03  0.14966381348E+03  0.00000000000E+00 0.  1.
         23    2    1    2    0    0  0.55812278820E+02  0.13974528210E+03  0.10505980641E+02  0.17823176457E+03  0.94933829250E+02 0.  0.
          5    1    1    2  502    0 -0.80770151002E+02 -0.12650780264E+03  0.28732651140E+02  0.15287602514E+03  0.41800000000E+01 0. -1.
         -5    1    1    2    0  502  0.24957872183E+02 -0.13237479460E+02  0.50946774980E+02  0.58405244004E+02  0.41800000000E+01 0. -1.
        -11    1    3    3    0    0  0.11353274785E+02  0.46492623145E+02 -0.40795447387E+02  0.62886639143E+02  0.00000000000E+00 0.  1.
         11    1    3    3    0    0  0.44459004035E+02  0.93252658953E+02  0.51301428027E+02  0.11534512542E+03  0.00000000000E+00 0. -1.
</event>
<event>
 7    1  0.4096326E-006  0.1031972E+03  0.7561462E-02  0.1273713E+00
          2   -1    0    0  501    0  0.00000000000E+00  0.00000000000E+00  0.86328863378E+03  0.86328863378E+03  0.00000000000E+00 0. -1.
         -2   -1    0    0    0  501 -0.00000000000E+00 -0.00000000000E+00 -0.16833244071E+02  0.16833244071E+02  0.00000000000E+00 0.  1.
         23    2    1    2    0    0 -0.80670746543E+01 -0.51560229806E+02  0.43535363754E+03  0.44725565307E+03  0.88211646013E+02 0.  0.
          5    1    1    2  502    0  0.80518404600E+01 -0.25333104653E+02  0.18191569484E+02  0.32480823981E+02  0.41800000000E+01 0. -1.
         -5    1    1    2    0  502  0.15234194298E-01  0.76893334459E+02  0.39291018269E+03  0.40038540081E+03  0.41800000000E+01 0. -1.
        -11    1    3    3    0    0 -0.48312240345E+02 -0.27536528608E+02  0.23252921721E+03  0.23908611384E+03  0.00000000000E+00 0.  1.
         11    1    3    3    0    0  0.40245165691E+02 -0.24023701198E+02  0.20282442033E+03  0.20816953923E+03  0.00000000000E+00 0. -1.
</event>
<event>
 7    1  0.4096326E-006  0.1214168E+03  0.7561462E-02  0.1240778E+00
          2   -1    0    0  501    0  0.00000000000E+00  0.00000000000E+00  0.13573001362E+03  0.13573001362E+03  0.00000000000E+00 0. -1.
         -2   -1    0    0    0  501 -0.00000000000E+00 -0.00000000000E+00 -0.15728873203E+03  0.15728873203E+03  0.00000000000E+00 0.  1.
         23    2    1    2    0    0 -0.85921704597E+02 -0.27101095180E+02  0.60527505441E+01  0.13640665623E+03  0.10224055650E+03 0.  0.
          5    1    1    2  502    0  0.10182997670E+03  0.58309244470E+02 -0.11980240714E+02  0.11802673728E+03  0.41800000000E+01 0. -1.
         -5    1    1    2    0  502 -0.15908272107E+02 -0.31208149290E+02 -0.15631228233E+02  0.38585352138E+02  0.41800000000E+01 0. -1.
        -11    1    3    3    0    0 -0.41500761824E+02 -0.14575334816E+02  0.54139086445E+02  0.69755245667E+02  0.00000000000E+00 0. -1.
         11    1    3    3    0    0 -0.44420942773E+02 -0.12525760364E+02 -0.48086335900E+02  0.66651410562E+02  0.00000000000E+00 0.  1.
</event>
<event>
 7    1  0.4096326E-006  0.1056694E+03  0.7561462E-02  0.1268806E+00
          2   -1    0    0  501    0  0.00000000000E+00  0.00000000000E+00  0.95880447636E+02  0.95880447636E+02  0.00000000000E+00 0. -1.
         -2   -1    0    0    0  501 -0.00000000000E+00 -0.00000000000E+00 -0.15591294287E+03  0.15591294287E+03  0.00000000000E+00 0.  1.
         23    2    1    2    0    0  0.52963586609E+02  0.26016860184E+02 -0.30846134948E+02  0.11043690301E+03  0.88106793063E+02 0.  0.
          5    1    1    2  502    0  0.11886967141E+02 -0.61950714133E+02 -0.21156110152E+02  0.66665166063E+02  0.41800000000E+01 0. -1.
         -5    1    1    2    0  502 -0.64850553751E+02  0.35933853949E+02 -0.80302501372E+01  0.74691321442E+02  0.41800000000E+01 0. -1.
        -11    1    3    3    0    0  0.18272137235E+02 -0.12412515369E+02  0.25620888204E+02  0.33828559669E+02  0.00000000000E+00 0. -1.
         11    1    3    3    0    0  0.34691449374E+02  0.38429375553E+02 -0.56467023152E+02  0.76608343336E+02  0.00000000000E+00 0.  1.
</event>
<event>
 7    1  0.4096326E-006  0.1771674E+03  0.7561462E-02  0.1170573E+00
          1   -1    0    0  501    0  0.00000000000E+00  0.00000000000E+00  0.92370941936E+03  0.92370941936E+03  0.00000000000E+00 0. -1.
         -1   -1    0    0    0  501 -0.00000000000E+00 -0.00000000000E+00 -0.36663318085E+02  0.36663318085E+02  0.00000000000E+00 0.  1.
         23    2    1    2    0    0 -0.10855512173E+03 -0.98449403454E+02  0.40806429344E+03  0.44409005599E+03  0.96036507419E+02 0.  0.
          5    1    1    2  502    0 -0.14571495956E+02 -0.75055963345E+01  0.93365112943E+01  0.19321110576E+02  0.41800000000E+01 0.  1.
         -5    1    1    2    0  502  0.12312661769E+03  0.10595499979E+03  0.46964529654E+03  0.49696157088E+03  0.41800000000E+01 0.  1.
        -11    1    3    3    0    0 -0.12319492801E+02  0.19272812949E+02  0.62434450131E+02  0.66492644594E+02  0.00000000000E+00 0. -1.
         11    1    3    3    0    0 -0.96235628932E+02 -0.11772221640E+03  0.34562984331E+03  0.37759741140E+03  0.00000000000E+00 0.  1.
</event>
<event>
 7    1  0.4096326E-006  0.1613964E+03  0.7561462E-02  0.1187129E+00
          2   -1    0    0  501    0  0.00000000000E+00  0.00000000000E+00  0.65638181387E+03  0.65638181387E+03  0.00000000000E+00 0. -1.
         -2   -1    0    0    0  501 -0.00000000000E+00 -0.00000000000E+00 -0.57270280964E+02  0.57270280964E+02  0.00000000000E+00 0.  1.
         23    2    1    2    0    0  0.51866835090E+02  0.15192302244E+03  0.32498007626E+03  0.37223428122E+03  0.84708540429E+02 0.  0.
          5    1    1    2  502    0 -0.13512573844E+02 -0.69487215949E+02  0.22919009098E+03  0.23990963515E+03  0.41800000000E+01 0. -1.
         -5    1    1    2    0  502 -0.38354261246E+02 -0.82435806489E+02  0.44941365661E+02  0.10150817846E+03  0.41800000000E+01 0. -1.
        -11    1    3    3    0    0  0.34026988578E+02  0.11368738198E+03  0.30135223096E+03  0.32387624778E+03  0.00000000000E+00 0. -1.
         11    1    3    3    0    0  0.17839846512E+02  0.38235640459E+02  0.23627845307E+02  0.48358033446E+02  0.00000000000E+00 0.  1.
</event>
<event>
 7    1  0.4096326E-006  0.1161998E+03  0.7561462E-02  0.1249501E+00
          2   -1    0    0  501    0  0.00000000000E+00  0.00000000000E+00  0.58755360504E+03  0.58755360504E+03  0.00000000000E+00 0. -1.
         -2   -1    0    0    0  501 -0.00000000000E+00 -0.00000000000E+00 -0.33472017637E+02  0.33472017637E+02  0.00000000000E+00 0.  1.
         23    2    1    2    0    0  0.45692834462E+02 -0.52108165375E+02  0.41653252325E+03  0.43138214736E+03  0.88250315140E+02 0.  0.
          5    1    1    2  502    0 -0.27076059679E+02 -0.29747493634E+02  0.73793508467E+02  0.84148563131E+02  0.41800000000E+01 0. -1.
         -5    1    1    2    0  502 -0.18616774783E+02  0.81855659009E+02  0.63755555690E+02  0.10549491218E+03  0.41800000000E+01 0.  1.
        -11    1    3    3    0    0  0.51863712830E+02  0.34784540465E+01  0.26033597300E+03  0.26547459989E+03  0.00000000000E+00 0.  1.
         11    1    3    3    0    0 -0.61708783687E+01 -0.55586619421E+02  0.15619655025E+03  0.16590754747E+03  0.00000000000E+00 0. -1.
</event>
<event>
 7    1  0.4096326E-006  0.1331620E+03  0.7561462E-02  0.1222838E+00
          1   -1    0    0  501    0  0.00000000000E+00  0.00000000000E+00  0.66653109815E+03  0.66653109815E+03  0.00000000000E+00 0. -1.
         -1   -1    0    0    0  501 -0.00000000000E+00 -0.00000000000E+00 -0.28866950468E+02  0.28866950468E+02  0.00000000000E+00 0.  1.
         23    2    1    2    0    0  0.68824147241E+02 -0.43345217042E+02  0.28948602395E+03  0.31659584674E+03  0.99071696402E+02 0.  0.
          5    1    1    2  502    0  0.35026137206E+02 -0.69941188759E+00  0.10329469930E+03  0.10915395902E+03  0.41800000000E+01 0.  1.
         -5    1    1    2    0  502 -0.10385028445E+03  0.44044628930E+02  0.24488342443E+03  0.26964824286E+03  0.41800000000E+01 0.  1.
        -11    1    3    3    0    0  0.28019688902E+02 -0.65848664900E+02  0.23091427714E+03  0.24174894627E+03  0.00000000000E+00 0. -1.
         11    1    3    3    0    0  0.40804458340E+02  0.22503447858E+02  0.58571746805E+02  0.74846900468E+02  0.00000000000E+00 0.  1.
</event>
<event>
 7    1  0.4096326E-006  0.7763329E+02  0.7561462E-02  0.1335905E+00
         -1   -1    0    0    0  501 -0.00000000000E+00  0.00000000000E+00  0.21112732959E+02  0.21112732959E+02  0.00000000000E+00 0.  1.
          1   -1    0    0  501    0  0.00000000000E+00 -0.00000000000E+00 -0.61627119870E+03  0.61627119870E+03  0.00000000000E+00 0. -1.
         23    2    1    2    0    0 -0.83952522907E+01 -0.32358832649E+02 -0.22482343367E+03  0.24506710207E+03  0.91622780342E+02 0.  0.
          5    1    1    2  502    0  0.18799096143E+02 -0.49938478071E+01 -0.34551965434E+03  0.34609196533E+03  0.41800000000E+01 0. -1.
         -5    1    1    2    0  502 -0.10403843853E+02  0.37352680456E+02 -0.24815377739E+02  0.46224864267E+02  0.41800000000E+01 0. -1.
        -11    1    3    3    0    0 -0.44530767925E+02  0.44967700176E+01 -0.85815594255E+02  0.96785982714E+02  0.00000000000E+00 0.  1.
         11    1    3    3    0    0  0.36135515634E+02 -0.36855602667E+02 -0.13900783942E+03  0.14828111936E+03  0.00000000000E+00 0. -1.
</event>
<event>
 7    1  0.4096326E-006  0.9543344E+02  0.7561462E-02  0.1290203E+00
         -1   -1    0    0    0  501 -0.00000000000E+00  0.00000000000E+00  0.18048420631E+04  0.18048420631E+04  0.00000000000E+00 0.  1.
          1   -1    0    0  501    0  0.00000000000E+00 -0.00000000000E+00 -0.12125995532E+02  0.12125995532E+02  0.00000000000E+00 0. -1.
         23    2    1    2    0    0 -0.33950268672E+02 -0.20608918806E+02  0.24018737386E+03  0.25890183525E+03  0.88106965992E+02 0.  0.
          5    1    1    2  502    0  0.10873147699E+02  0.62253838856E+02  0.44254771625E+03  0.44705672946E+03  0.41800000000E+01 0. -1.
         -5    1    1    2    0  502  0.23077120972E+02 -0.41644920050E+02  0.11099809774E+04  0.11110094939E+04  0.41800000000E+01 0. -1.
        -11    1    3    3    0    0  0.11195933621E+02 -0.31386088125E+02  0.17914242573E+03  0.18221537848E+03  0.00000000000E+00 0.  1.
         11    1    3    3    0    0 -0.45146202293E+02  0.10777169320E+02  0.61044948136E+02  0.76686456777E+02  0.00000000000E+00 0. -1.
</event>
<event>
 7    1  0.4096326E-006  0.1051834E+03  0.7561462E-02  0.1269759E+00
          1   -1    0    0  501    0  0.00000000000E+00  0.00000000000E+00  0.11992042928E+03  0.11992042928E+03  0.00000000000E+00 0. -1.
         -1   -1    0    0    0  501 -0.00000000000E+00 -0.00000000000E+00 -0.13732234505E+03  0.13732234505E+03  0.00000000000E+00 0.  1.
         23    2    1    2    0    0 -0.63904793407E+02 -0.15850614313E+02  0.87970378051E+01  0.11347886469E+03  0.92005436052E+02 0.  0.
          5    1    1    2  502    0 -0.14961795941E+02  0.34197882652E+02  0.27466591574E+02  0.46532102557E+02  0.41800000000E+01 0. -1.
         -5    1    1    2    0  502  0.78866589348E+02 -0.18347268339E+02 -0.53665545155E+02  0.97231807079E+02  0.41800000000E+01 0. -1.
        -11    1    3    3    0    0  0.53669515882E+01 -0.21560906192E+02 -0.27266758153E+02  0.35173185033E+02  0.00000000000E+00 0.  1.
         11    1    3    3    0    0 -0.69271744995E+02  0.57102918796E+01  0.36063795958E+02  0.78305679659E+02  0.00000000000E+00 0. -1.
</event>
<event>
 7    1  0.4096326E-006  0.1802746E+03  0.7561462E-02  0.1167538E+00
          1   -1    0    0  501    0  0.00000000000E+00  0.00000000000E+00  0.14561161389E+03  0.14561161389E+03  0.00000000000E+00 0. -1.
         -1   -1    0    0    0  501 -0.00000000000E+00 -0.00000000000E+00 -0.24559567079E+03  0.24559567079E+03  0.00000000000E+00 0.  1.
         23    2    1    2    0    0 -0.13621946582E+03 -0.50157591378E+02  0.11028336837E+02  0.16975019507E+03  0.87303938472E+02 0.  0.
          5    1    1    2  502    0  0.19274068337E+02 -0.39226635801E+02 -0.19147496012E+02  0.47899036212E+02  0.41800000000E+01 0.  1.
         -5    1    1    2    0  502  0.11694539748E+03  0.89384227179E+02 -0.91864897731E+02  0.17355805339E+03  0.41800000000E+01 0.  1.
        -11    1    3    3    0    0 -0.11512962125E+03 -0.16200338141E+00  0.75622909785E+01  0.11537783227E+03  0.00000000000E+00 0.  1.
         11    1    3    3    0    0 -0.21089844572E+02 -0.49995587996E+02  0.34660458584E+01  0.54372362806E+02  0.00000000000E+00 0. -1.
</event>
<event>
 7    1  0.4096326E-006  0.1313738E+03  0.7561462E-02  0.1225431E+00
          1   -1    0    0  501    0  0.00000000000E+00  0.00000000000E+00  0.80729572518E+03  0.80729572518E+03  0.00000000000E+00 0. -1.
         -1   -1    0    0    0  501 -0.00000000000E+00 -0.00000000000E+00 -0.29982805125E+02  0.29982805125E+02  0.00000000000E+00 0.  1.
         23    2    1    2    0    0  0.28862204444E+02  0.11876334330E+03  0.37513363543E+03  0.39871999266E+03  0.57572819603E+02 0.  0.
          5    1    1    2  502    0  0.63860500326E+01  0.41903880670E+01 -0.61399324589E+01  0.10654208454E+02  0.41800000000E+01 0.  1.
         -5    1    1    2    0  502 -0.35248254477E+02 -0.12295373137E+03  0.40831921708E+03  0.42790432919E+03  0.41800000000E+01 0.  1.
        -11    1    3    3    0    0  0.42333860899E+01  0.80181099748E+02  0.16298318235E+03  0.18168777626E+03  0.00000000000E+00 0.  1.
         11    1    3    3    0    0  0.24628818354E+02  0.38582243555E+02  0.21215045309E+03  0.21703221640E+03  0.00000000000E+00 0. -1.
</event>
<event>
 7    1  0.4096326E-006  0.1074612E+03  0.7561462E-02  0.1265345E+00
          2   -1    0    0  501    0  0.00000000000E+00  0.00000000000E+00  0.10988163633E+04  0.10988163633E+04  0.00000000000E+00 0. -1.
         -2   -1    0    0    0  501 -0.00000000000E+00 -0.00000000000E+00 -0.12084338098E+02  0.12084338098E+02  0.00000000000E+00 0.  1.
         23    2    1    2    0    0  0.32940582757E+02  0.21842776332E+01  0.39764974846E+03  0.40976864242E+03  0.93247867534E+02 0.  0.
          5    1    1    2  502    0  0.12390724584E+02 -0.50218725701E+02  0.16713065082E+03  0.17500164945E+03  0.41800000000E+01 0. -1.
         -5    1    1    2    0  502 -0.45331307341E+02  0.48034448068E+02  0.52195162590E+03  0.52613040950E+03  0.41800000000E+01 0. -1.
        -11    1    3    3    0    0 -0.18526807844E+02 -0.30640247731E+02  0.18946934707E+03  0.19282297806E+03  0.00000000000E+00 0. -1.
         11    1    3    3    0    0  0.51467390601E+02  0.32824525364E+02  0.20818040139E+03  0.21694566436E+03  0.00000000000E+00 0.  1.
</event>
<event>
 7    1  0.4096326E-006  0.1019431E+03  0.7561462E-02  0.1276262E+00
         -1   -1    0    0    0  501 -0.00000000000E+00  0.00000000000E+00  0.12104262122E+02  0.12104262122E+02  0.00000000000E+00 0.  1.
          1   -1    0    0  501    0  0.00000000000E+00 -0.00000000000E+00 -0.10390964978E+04  0.10390964978E+04  0.00000000000E+00 0. -1.
         23    2    1    2    0    0  0.16705579987E+02 -0.23828454184E+02 -0.51143106940E+03  0.51987947313E+03  0.88690789884E+02 0.  0.
          5    1    1    2  502    0 -0.47256585064E+01 -0.42528017205E+02 -0.34811639135E+03  0.35076125558E+03  0.41800000000E+01 0.  1.
         -5    1    1    2    0  502 -0.11979921480E+02  0.66356471389E+02 -0.16744477489E+03  0.18056003116E+03  0.41800000000E+01 0.  1.
        -11    1    3    3    0    0 -0.13773040557E+02  0.29135350332E+02 -0.17318791392E+03  0.17616077546E+03  0.00000000000E+00 0.  1.
         11    1    3    3    0    0  0.30478620544E+02 -0.52963804516E+02 -0.33824315548E+03  0.34371869767E+03  0.00000000000E+00 0. -1.
</event>
<event>
 7    1  0.4096326E-006  0.1115783E+03  0.7561462E-02  0.1257675E+00
          4   -1    0    0  501    0  0.00000000000E+00  0.00000000000E+00  0.51903152195E+02  0.51903152195E+02  0.00000000000E+00 0. -1.
         -4   -1    0    0    0  501 -0.00000000000E+00 -0.00000000000E+00 -0.40382483890E+03  0.40382483890E+03  0.00000000000E+00 0.  1.
         23    2    1    2    0    0 -0.86287050454E+02 -0.39155375469E+02 -0.20617296266E+03  0.24156108093E+03  0.82860526089E+02 0.  0.
          5    1    1    2  502    0  0.57823208698E+01  0.18911104380E+02 -0.12747249498E+03  0.12906500099E+03  0.41800000000E+01 0. -1.
         -5    1    1    2    0  502  0.80504729584E+02  0.20244271089E+02 -0.18276229071E+02  0.85101909182E+02  0.41800000000E+01 0. -1.
        -11    1    3    3    0    0 -0.87527477337E+01 -0.41346493101E+02 -0.40063416979E+02  0.58234186391E+02  0.00000000000E+00 0.  1.
         11    1    3    3    0    0 -0.77534302720E+02  0.21911176320E+01 -0.16610954568E+03  0.18332689454E+03  0.00000000000E+00 0. -1.
</event>
<event>
 7    1  0.4096326E-006  0.9950950E+02  0.7561462E-02  0.1281331E+00
          2   -1    0    0  501    0  0.00000000000E+00  0.00000000000E+00  0.20681356806E+03  0.20681356806E+03  0.00000000000E+00 0. -1.
         -2   -1    0    0    0  501 -0.00000000000E+00 -0.00000000000E+00 -0.67852660520E+02  0.67852660520E+02  0.00000000000E+00 0.  1.
         23    2    1    2    0    0 -0.28976998214E+02  0.33102864117E+02  0.79820162895E+02  0.12947612215E+03  0.91963806816E+02 0.  0.
          5    1    1    2  502    0 -0.13201624085E+02  0.22978691319E+02  0.69161315173E+02  0.74182633073E+02  0.41800000000E+01 0.  1.
         -5    1    1    2    0  502  0.42178622299E+02 -0.56081555436E+02 -0.10020570525E+02  0.71007473359E+02  0.41800000000E+01 0.  1.
        -11    1    3    3    0    0  0.27219083327E+02 -0.12086525907E+02  0.21473070660E+02  0.36715873532E+02  0.00000000000E+00 0.  1.
         11    1    3    3    0    0 -0.56196081541E+02  0.45189390025E+02  0.58347092235E+02  0.92760248617E+02  0.00000000000E+00 0. -1.
</event>
<event>
 7    1  0.4096326E-006  0.1200043E+03  0.7561462E-02  0.1243090E+00
         -1   -1    0    0    0  501 -0.00000000000E+00  0.00000000000E+00  0.47416771527E+02  0.47416771527E+02  0.00000000000E+00 0.  1.
          1   -1    0    0  501    0  0.00000000000E+00 -0.00000000000E+00 -0.44931779863E+03  0.44931779863E+03  0.00000000000E+00 0. -1.
         23    2    1    2    0    0  0.60423827877E+02 -0.47762007699E+01 -0.28921546669E+03  0.30968426140E+03  0.92654759822E+02 0.  0.
          5    1    1    2  502    0  0.32921701248E+02 -0.10707726032E+02 -0.79294697101E+02  0.86623410220E+02  0.41800000000E+01 0. -1.
         -5    1    1    2    0  502 -0.93345529125E+02  0.15483926802E+02 -0.33390863311E+02  0.10042689854E+03  0.41800000000E+01 0.  1.
        -11    1    3    3    0    0  0.85205055477E+02 -0.72890555015E+01 -0.23300375881E+03  0.24820109474E+03  0.00000000000E+00 0. -1.
         11    1    3    3    0    0 -0.24781227600E+02  0.25128547316E+01 -0.56211707872E+02  0.61483166657E+02  0.00000000000E+00 0.  1.
</event>
<event>
 7    1  0.4096326E-006  0.1430047E+03  0.7561462E-02  0.1209342E+00
          2   -1    0    0  501    0  0.00000000000E+00  0.00000000000E+00  0.11882928701E+04  0.11882928701E+04  0.00000000000E+00 0.  1.
         -2   -1    0    0    0  501 -0.00000000000E+00 -0.00000000000E+00 -0.21920120102E+02  0.21920120102E+02  0.00000000000E+00 0. -1.
         23    2    1    2    0    0 -0.66503927202E+02 -0.97309843885E+02  0.59100498386E+03  0.60972424216E+03  0.92654101249E+02 0.  0.
          5    1    1    2  502    0  0.45438314914E+02  0.10593983367E+03  0.26200737391E+03  0.28627473728E+03  0.41800000000E+01 0. -1.
         -5    1    1    2    0  502  0.21065612288E+02 -0.86299897843E+01  0.31336039221E+03  0.31421401075E+03  0.41800000000E+01 0. -1.
        -11    1    3    3    0    0  0.44236913428E+01 -0.72107558810E+02  0.34403015292E+03  0.35153351932E+03  0.00000000000E+00 0. -1.
         11    1    3    3    0    0 -0.70927618545E+02 -0.25202285074E+02  0.24697483094E+03  0.25819072284E+03  0.00000000000E+00 0.  1.
</event>
<event>
 7    1  0.4096326E-006  0.1930098E+03  0.7561462E-02  0.1155774E+00
         -2   -1    0    0    0  501 -0.00000000000E+00  0.00000000000E+00  0.26446744332E+02  0.26446744332E+02  0.00000000000E+00 0.  1.
          2   -1    0    0  501    0  0.00000000000E+00 -0.00000000000E+00 -0.15342497310E+04  0.15342497310E+04  0.00000000000E+00 0. -1.
         23    2    1    2    0    0 -0.91359079462E+02  0.13463097412E+03 -0.89895390625E+03  0.91818917431E+03  0.92093722186E+02 0.  0.
          5    1    1    2  502    0 -0.13433050456E+02 -0.79811724038E+02 -0.32554663247E+03  0.33548239962E+03  0.41800000000E+01 0. -1.
         -5    1    1    2    0  502  0.10479212992E+03 -0.54819250084E+02 -0.28330244798E+03  0.30702490144E+03  0.41800000000E+01 0. -1.
        -11    1    3    3    0    0 -0.10952586628E+03  0.10406000042E+03 -0.70564651907E+03  0.72163800410E+03  0.00000000000E+00 0.  1.
         11    1    3    3    0    0  0.18166786821E+02  0.30570973705E+02 -0.19330738717E+03  0.19655117021E+03  0.00000000000E+00 0. -1.
</event>
<event>
 7    1  0.4096326E-006  0.1363570E+03  0.7561462E-02  0.1218317E+00
         -3   -1    0    0    0  501 -0.00000000000E+00  0.00000000000E+00  0.76965877113E+03  0.76965877113E+03  0.00000000000E+00 0.  1.
          3   -1    0    0  501    0  0.00000000000E+00 -0.00000000000E+00 -0.31510677411E+02  0.31510677411E+02  0.00000000000E+00 0. -1.
         23    2    1    2    0    0 -0.39774506952E+02 -0.92683163433E+02  0.21565995366E+03  0.25453038866E+03  0.90024013192E+02 0.  0.
          5    1    1    2  502    0  0.83967420072E+02  0.68831449262E+02  0.31869310097E+03  0.33670619396E+03  0.41800000000E+01 0.  1.
         -5    1    1    2    0  502 -0.44192913119E+02  0.23851714172E+02  0.20379503908E+03  0.20993286592E+03  0.41800000000E+01 0.  1.
        -11    1    3    3    0    0 -0.52731197569E+02 -0.76985649702E+02  0.21476003049E+03  0.23415644376E+03  0.00000000000E+00 0.  1.
         11    1    3    3    0    0  0.12956690616E+02 -0.15697513732E+02  0.89992316770E+00  0.20373944900E+02  0.00000000000E+00 0. -1.
</event>
<event>
 7    1  0.4096326E-006  0.1161653E+03  0.7561462E-02  0.1249561E+00
         -2   -1    0    0    0  501 -0.00000000000E+00  0.00000000000E+00  0.50250699947E+02  0.50250699947E+02  0.00000000000E+00 0.  1.
          2   -1    0    0  501    0  0.00000000000E+00 -0.00000000000E+00 -0.29721296412E+03  0.29721296412E+03  0.00000000000E+00 0. -1.
         23    2    1    2    0    0  0.41165070195E+02 -0.29276923132E+02 -0.14708788438E+03  0.17961267308E+03  0.89856359642E+02 0.  0.
          5    1    1    2  502    0 -0.56477464932E+01  0.74542069532E+02 -0.71636525510E+02  0.10362278397E+03  0.41800000000E+01 0. -1.
         -5    1    1    2    0  502 -0.35517323702E+02 -0.45265146399E+02 -0.28237854280E+02  0.64228207011E+02  0.41800000000E+01 0. -1.
        -11    1    3    3    0    0  0.40834959310E+02 -0.58061797626E+02 -0.82080543024E+02  0.10851673506E+03  0.00000000000E+00 0.  1.
         11    1    3    3    0    0  0.33011088528E+00  0.28784874494E+02 -0.65007341355E+02  0.71095938020E+02  0.00000000000E+00 0. -1.
</event>
<event>
 7    1  0.4096326E-006  0.1006331E+03  0.7561462E-02  0.1278970E+00
          1   -1    0    0  501    0  0.00000000000E+00  0.00000000000E+00  0.92773012164E+02  0.92773012164E+02  0.00000000000E+00 0. -1.
         -1   -1    0    0    0  501 -0.00000000000E+00 -0.00000000000E+00 -0.13655996265E+03  0.13655996265E+03  0.00000000000E+00 0.  1.
         23    2    1    2    0    0  0.23349102532E+02 -0.27806729079E+02 -0.23977811712E+02  0.97583773362E+02  0.87345650137E+02 0.  0.
          5    1    1    2  502    0 -0.90495241538E+01  0.68869534660E+02 -0.43491802609E+02  0.82060441053E+02  0.41800000000E+01 0. -1.
         -5    1    1    2    0  502 -0.14299578378E+02 -0.41062805581E+02  0.23682663833E+02  0.49688760401E+02  0.41800000000E+01 0. -1.
        -11    1    3    3    0    0 -0.28061661485E+02 -0.23145517607E+02 -0.27856605389E+02  0.45816615920E+02  0.00000000000E+00 0.  1.
         11    1    3    3    0    0  0.51410764017E+02 -0.46612114720E+01  0.38787936766E+01  0.51767157442E+02  0.00000000000E+00 0. -1.
</event>
<event>
 7    1  0.4096326E-006  0.2361904E+03  0.7561462E-02  0.1122357E+00
          2   -1    0    0  501    0  0.00000000000E+00  0.00000000000E+00  0.33562810875E+03  0.33562810875E+03  0.00000000000E+00 0. -1.
         -2   -1    0    0    0  501 -0.00000000000E+00 -0.00000000000E+00 -0.17599949632E+03  0.17599949632E+03  0.00000000000E+00 0.  1.
         23    2    1    2    0    0  0.16470990447E+03  0.14119973245E+03  0.96884688233E+02  0.25345765889E+03  0.88246387809E+02 0.  0.
          5    1    1    2  502    0 -0.29194759029E+02 -0.91327702642E+02 -0.98840771143E+01  0.96479275521E+02  0.41800000000E+01 0. -1.
         -5    1    1    2    0  502 -0.13551514545E+03 -0.49872029805E+02  0.72628001314E+02  0.16169067066E+03  0.41800000000E+01 0. -1.
        -11    1    3    3    0    0  0.23145966946E+02  0.69518603101E+02  0.47307149778E+02  0.87215471008E+02  0.00000000000E+00 0.  1.
         11    1    3    3    0    0  0.14156393753E+03  0.71681129346E+02  0.49577538455E+02  0.16624218788E+03  0.00000000000E+00 0. -1.
</event>
<event>
 7    1  0.4096326E-006  0.1228112E+03  0.7561462E-02  0.1238530E+00
         -4   -1    0    0    0  501 -0.00000000000E+00  0.00000000000E+00  0.18612055366E+03  0.18612055366E+03  0.00000000000E+00 0.  1.
          4   -1    0    0  501    0  0.00000000000E+00 -0.00000000000E+00 -0.97480209269E+02  0.97480209269E+02  0.00000000000E+00 0. -1.
         23    2    1    2    0    0 -0.39258443030E+02  0.80472194549E+02  0.28813810387E+02  0.11854397466E+03  0.72148727051E+02 0.  0.
          5    1    1    2  502    0 -0.29394206709E+02 -0.77677446137E+02  0.45329370357E+02  0.94710238324E+02  0.41800000000E+01 0. -1.
         -5    1    1    2    0  502  0.68652649740E+02 -0.27947484124E+01  0.14497163646E+02  0.70346549942E+02  0.41800000000E+01 0. -1.
        -11    1    3    3    0    0 -0.31013384723E+02  0.32389179464E+02  0.48394192754E+02  0.65976411472E+02  0.00000000000E+00 0.  1.
         11    1    3    3    0    0 -0.82450583071E+01  0.48083015085E+02 -0.19580382367E+02  0.52567563191E+02  0.00000000000E+00 0. -1.
</event>
<event>
 7    1  0.4096326E-006  0.6226267E+02  0.7561462E-02  0.1388574E+00
         -1   -1    0    0    0  501 -0.00000000000E+00  0.00000000000E+00  0.64411029295E+02  0.64411029295E+02  0.00000000000E+00 0.  1.
          1   -1    0    0  501    0  0.00000000000E+00 -0.00000000000E+00 -0.18501488801E+03  0.18501488801E+03  0.00000000000E+00 0. -1.
         23    2    1    2    0    0  0.38435725070E+01  0.46386599542E+01 -0.69871837178E+02  0.11430452607E+03  0.90261624364E+02 0.  0.
          5    1    1    2  502    0  0.13730506351E+02 -0.78977971263E+01  0.39646428938E+02  0.42897712429E+02  0.41800000000E+01 0.  1.
         -5    1    1    2    0  502 -0.17574078858E+02  0.32591371721E+01 -0.90378450479E+02  0.92223678813E+02  0.41800000000E+01 0.  1.
        -11    1    3    3    0    0 -0.41529805970E+02 -0.88277017581E+01 -0.26108736198E+02  0.49842945419E+02  0.00000000000E+00 0.  1.
         11    1    3    3    0    0  0.45373378477E+02  0.13466361712E+02 -0.43763100980E+02  0.64461580647E+02  0.00000000000E+00 0. -1.
</event>
<event>
 7    1  0.4096326E-006  0.2119280E+03  0.7561462E-02  0.1140048E+00
          2   -1    0    0  501    0  0.00000000000E+00  0.00000000000E+00  0.11348517235E+04  0.11348517235E+04  0.00000000000E+00 0. -1.
         -2   -1    0    0    0  501 -0.00000000000E+00 -0.00000000000E+00 -0.55051238874E+02  0.55051238874E+02  0.00000000000E+00 0.  1.
         23    2    1    2    0    0 -0.75781769635E+02  0.18525173157E+03  0.76868198454E+03  0.79938555449E+03  0.89912127772E+02 0.  0.
          5    1    1    2  502    0 -0.54411846369E+01 -0.24102493092E+02 -0.58678600277E+01  0.25737926195E+02  0.41800000000E+01 0.  1.
         -5    1    1    2    0  502  0.81222954272E+02 -0.16114923848E+03  0.31698636016E+03  0.36477948173E+03  0.41800000000E+01 0.  1.
        -11    1    3    3    0    0 -0.20465683378E+02  0.15277794625E+03  0.57818223818E+03  0.59837667535E+03  0.00000000000E+00 0. -1.
         11    1    3    3    0    0 -0.55316086257E+02  0.32473785321E+02  0.19049974636E+03  0.20100887914E+03  0.00000000000E+00 0.  1.
</event>
<event>
 7    1  0.4096326E-006  0.8114222E+02  0.7561462E-02  0.1325841E+00
          1   -1    0    0  501    0  0.00000000000E+00  0.00000000000E+00  0.34287705861E+02  0.34287705861E+02  0.00000000000E+00 0. -1.
         -1   -1    0    0    0  501 -0.00000000000E+00 -0.00000000000E+00 -0.39888568925E+03  0.39888568925E+03  0.00000000000E+00 0.  1.
         23    2    1    2    0    0  0.23724449161E+02  0.56084359773E+01 -0.59718446389E+02  0.10272950522E+03  0.79954701939E+02 0.  0.
          5    1    1    2  502    0 -0.51065489077E+02  0.11853712765E+02 -0.28960903890E+03  0.29434514178E+03  0.41800000000E+01 0.  1.
         -5    1    1    2    0  502  0.27341039917E+02 -0.17462148743E+02 -0.15270498104E+02  0.36098748105E+02  0.41800000000E+01 0.  1.
        -11    1    3    3    0    0  0.21552748748E+02 -0.32400450111E+02 -0.10127726900E+02  0.40210458815E+02  0.00000000000E+00 0. -1.
         11    1    3    3    0    0  0.21717004130E+01  0.38008886088E+02 -0.49590719489E+02  0.62519046408E+02  0.00000000000E+00 0.  1.
</event>
<event>
 7    1  0.4096326E-006  0.1125901E+03  0.7561462E-02  0.1255847E+00
         -2   -1    0    0    0  501 -0.00000000000E+00  0.00000000000E+00  0.34028366236E+02  0.34028366236E+02  0.00000000000E+00 0. -1.
          2   -1    0    0  501    0  0.00000000000E+00 -0.00000000000E+00 -0.60633830446E+03  0.60633830446E+03  0.00000000000E+00 0.  1.
         23    2    1    2    0    0 -0.39452004975E+02 -0.81276266543E+02 -0.21523842809E+03  0.25138052881E+03  0.93286103671E+02 0.  0.
          5    1    1    2  502    0 -0.49587085221E+01  0.13995269867E+02  0.63693023167E+01  0.16688222819E+02  0.41800000000E+01 0. -1.
         -5    1    1    2    0  502  0.44410713497E+02  0.67280996677E+02 -0.36344081245E+03  0.37229791906E+03  0.41800000000E+01 0. -1.
        -11    1    3    3    0    0  0.18154850297E+01 -0.87305788753E+02 -0.15849241597E+03  0.18095701881E+03  0.00000000000E+00 0.  1.
         11    1    3    3    0    0 -0.41267490005E+02  0.60295222101E+01 -0.56746012117E+02  0.70423509999E+02  0.00000000000E+00 0. -1.
</event>
<event>
 7    1  0.4096326E-006  0.1182114E+03  0.7561462E-02  0.1246077E+00
         -1   -1    0    0    0  501 -0.00000000000E+00  0.00000000000E+00  0.10373505237E+03  0.10373505237E+03  0.00000000000E+00 0.  1.
          1   -1    0    0  501    0  0.00000000000E+00 -0.00000000000E+00 -0.17872996482E+03  0.17872996482E+03  0.00000000000E+00 0. -1.
         23    2    1    2    0    0 -0.28115555220E+02  0.65878039746E+02 -0.66456247634E+02  0.13806780601E+03  0.97549401031E+02 0.  0.
          5    1    1    2  502    0  0.26500192347E+02  0.19813078759E+02  0.34855096302E+02  0.48240734059E+02  0.41800000000E+01 0. -1.
         -5    1    1    2    0  502  0.16153628727E+01 -0.85691118504E+02 -0.43393761112E+02  0.96156477115E+02  0.41800000000E+01 0. -1.
        -11    1    3    3    0    0  0.13638741752E+02  0.73555539280E+02 -0.25386822697E+02  0.78999515201E+02  0.00000000000E+00 0.  1.
         11    1    3    3    0    0 -0.41754296972E+02 -0.76774995346E+01 -0.41069424937E+02  0.59068290811E+02  0.00000000000E+00 0. -1.
</event>
<event>
 7    1  0.4096326E-006  0.7878375E+02  0.7561462E-02  0.1332539E+00
          1   -1    0    0  501    0  0.00000000000E+00  0.00000000000E+00  0.71176264470E+02  0.71176264470E+02  0.00000000000E+00 0. -1.
         -1   -1    0    0    0  501 -0.00000000000E+00 -0.00000000000E+00 -0.23545639868E+03  0.23545639868E+03  0.00000000000E+00 0.  1.
         23    2    1    2    0    0 -0.25947750204E+02 -0.38637691740E+02 -0.11141131061E+02  0.10349119007E+03  0.91761346204E+02 0.  0.
          5    1    1    2  502    0 -0.25315942051E+02  0.11419948489E+02 -0.14090652335E+03  0.14367822684E+03  0.41800000000E+01 0.  1.
         -5    1    1    2    0  502  0.51263692255E+02  0.27217743251E+02 -0.12232479797E+02  0.59463246238E+02  0.41800000000E+01 0.  1.
        -11    1    3    3    0    0 -0.35387026775E+02 -0.42621435887E+01 -0.42881440729E+02  0.55760429436E+02  0.00000000000E+00 0.  1.
         11    1    3    3    0    0  0.94392765711E+01 -0.34375548152E+02  0.31740309667E+02  0.47730760634E+02  0.00000000000E+00 0. -1.
</event>
<event>
 7    1  0.4096326E-006  0.9919959E+02  0.7561462E-02  0.1281988E+00
         -1   -1    0    0    0  501 -0.00000000000E+00  0.00000000000E+00  0.10320741207E+03  0.10320741207E+03  0.00000000000E+00 0.  1.
          1   -1    0    0  501    0  0.00000000000E+00 -0.00000000000E+00 -0.15257918928E+03  0.15257918928E+03  0.00000000000E+00 0. -1.
         23    2    1    2    0    0  0.12833145579E+02  0.49195179353E+02 -0.60605177372E+02  0.12029511729E+03  0.90626003019E+02 0.  0.
          5    1    1    2  502    0  0.11846361308E+02  0.23651924091E+02 -0.36200746823E+02  0.45030170553E+02  0.41800000000E+01 0. -1.
         -5    1    1    2    0  502 -0.24679506887E+02 -0.72847103444E+02  0.47434146991E+02  0.90461313505E+02  0.41800000000E+01 0. -1.
        -11    1    3    3    0    0 -0.10400803961E+02 -0.19484867369E+02 -0.38692244447E+02  0.44552514629E+02  0.00000000000E+00 0. -1.
         11    1    3    3    0    0  0.23233949540E+02  0.68680046722E+02 -0.21912932925E+02  0.75742602664E+02  0.00000000000E+00 0.  1.
</event>
<event>
 7    1  0.4096326E-006  0.1372924E+03  0.7561462E-02  0.1217019E+00
         -1   -1    0    0    0  501 -0.00000000000E+00  0.00000000000E+00  0.23356678002E+03  0.23356678002E+03  0.00000000000E+00 0.  1.
          1   -1    0    0  501    0  0.00000000000E+00 -0.00000000000E+00 -0.95240525107E+02  0.95240525107E+02  0.00000000000E+00 0. -1.
         23    2    1    2    0    0  0.10430635142E+03  0.10128928332E+02  0.60465310542E+02  0.14799801571E+03  0.85234668644E+02 0.  0.
          5    1    1    2  502    0  0.26285230901E+02  0.13791065963E+02  0.19235629922E+02  0.35617253156E+02  0.41800000000E+01 0. -1.
         -5    1    1    2    0  502 -0.13059158232E+03 -0.23919994295E+02  0.58625314452E+02  0.14519203627E+03  0.41800000000E+01 0. -1.
        -11    1    3    3    0    0  0.72721459230E+02  0.24958998110E+02 -0.14817610813E+01  0.76899660825E+02  0.00000000000E+00 0. -1.
         11    1    3    3    0    0  0.31584892191E+02 -0.14830069778E+02  0.61947071624E+02  0.71098354883E+02  0.00000000000E+00 0.  1.
</event>
<event>
 7    1  0.4096326E-006  0.1853552E+03  0.7561462E-02  0.1162719E+00
          1   -1    0    0  501    0  0.00000000000E+00  0.00000000000E+00  0.81160399382E+03  0.81160399382E+03  0.00000000000E+00 0. -1.
         -1   -1    0    0    0  501 -0.00000000000E+00 -0.00000000000E+00 -0.48941670152E+02  0.48941670152E+02  0.00000000000E+00 0.  1.
         23    2    1    2    0    0 -0.11262520674E+03  0.11192748774E+03  0.47746107756E+03  0.51097398872E+03  0.88955814055E+02 0.  0.
          5    1    1    2  502    0  0.12634236245E+03 -0.45931861874E+02  0.18445179692E+03  0.22828067433E+03  0.41800000000E+01 0.  1.
         -5    1    1    2    0  502 -0.13717155711E+02 -0.65995625866E+02  0.10074944918E+03  0.12129100092E+03  0.41800000000E+01 0.  1.
        -11    1    3    3    0    0 -0.79042043736E+02  0.38469278584E+02  0.15151603783E+03  0.17517031652E+03  0.00000000000E+00 0.  1.
         11    1    3    3    0    0 -0.33583163003E+02  0.73458209156E+02  0.32594503974E+03  0.33580367219E+03  0.00000000000E+00 0. -1.
</event>
<event>
 7    1  0.4096326E-006  0.1522944E+03  0.7561462E-02  0.1197682E+00
         -1   -1    0    0    0  501 -0.00000000000E+00  0.00000000000E+00  0.59218702799E+02  0.59218702799E+02  0.00000000000E+00 0.  1.
          1   -1    0    0  501    0  0.00000000000E+00 -0.00000000000E+00 -0.43003239929E+03  0.43003239929E+03  0.00000000000E+00 0. -1.
         23    2    1    2    0    0  0.11497396970E+03 -0.13359507596E+02 -0.14968478449E+03  0.21007761335E+03  0.91266526028E+02 0.  0.
          5    1    1    2  502    0 -0.12390574887E+03 -0.27222645067E+02 -0.14814071760E+03  0.19508165372E+03  0.41800000000E+01 0.  1.
         -5    1    1    2    0  502  0.89317791768E+01  0.40582152663E+02 -0.72988194406E+02  0.84091835017E+02  0.41800000000E+01 0.  1.
        -11    1    3    3    0    0  0.11435529047E+03  0.78995827679E+01 -0.87062850872E+02  0.14394261311E+03  0.00000000000E+00 0.  1.
         11    1    3    3    0    0  0.61867922383E+00 -0.21259090364E+02 -0.62621933617E+02  0.66135000241E+02  0.00000000000E+00 0. -1.
</event>
<event>
 7    1  0.4096326E-006  0.1061484E+03  0.7561462E-02  0.1267873E+00
         -2   -1    0    0    0  501 -0.00000000000E+00  0.00000000000E+00  0.16203097077E+02  0.16203097077E+02  0.00000000000E+00 0.  1.
          2   -1    0    0  501    0  0.00000000000E+00 -0.00000000000E+00 -0.77407989136E+03  0.77407989136E+03  0.00000000000E+00 0. -1.
         23    2    1    2    0    0  0.36197694354E+02  0.30714462526E+02 -0.34910998931E+03  0.36017645637E+03  0.74804036026E+02 0.  0.
          5    1    1    2  502    0 -0.52471458792E+02  0.32021337505E+02 -0.26931128255E+03  0.27626917915E+03  0.41800000000E+01 0.  1.
         -5    1    1    2    0  502  0.16273764438E+02 -0.62735800031E+02 -0.13945552243E+03  0.15383735291E+03  0.41800000000E+01 0.  1.
        -11    1    3    3    0    0 -0.61081805556E-01  0.46279192762E+02 -0.14231694466E+03  0.14965253139E+03  0.00000000000E+00 0.  1.
         11    1    3    3    0    0  0.36258776160E+02 -0.15564730236E+02 -0.20679304465E+03  0.21052392498E+03  0.00000000000E+00 0. -1.
</event>
<event>
 7    1  0.4096326E-006  0.1290441E+03  0.7561462E-02  0.1228881E+00
         -2   -1    0    0    0  501 -0.00000000000E+00  0.00000000000E+00  0.29913995339E+03  0.29913995339E+03  0.00000000000E+00 0.  1.
          2   -1    0    0  501    0  0.00000000000E+00 -0.00000000000E+00 -0.17156985931E+03  0.17156985931E+03  0.00000000000E+00 0. -1.
         23    2    1    2    0    0  0.49675032223E+02  0.13349003022E+02 -0.11015599794E+03  0.15442926754E+03  0.95227359949E+02 0.  0.
          5    1    1    2  502    0 -0.11387164689E+02 -0.10502485674E+03  0.93745103178E+02  0.14129934473E+03  0.41800000000E+01 0. -1.
         -5    1    1    2    0  502 -0.38287867534E+02  0.91675853714E+02  0.14398098884E+03  0.17498120042E+03  0.41800000000E+01 0.  1.
        -11    1    3    3    0    0  0.24348969157E+02  0.12992948061E+02  0.11694480771E+02  0.29974153513E+02  0.00000000000E+00 0.  1.
         11    1    3    3    0    0  0.25326063066E+02  0.35605496186E+00 -0.12185047871E+03  0.12445511403E+03  0.00000000000E+00 0. -1.
</event>
<event>
 7    1  0.4096326E-006  0.1969183E+03  0.7561462E-02  0.1152365E+00
         -2   -1    0    0    0  501 -0.00000000000E+00  0.00000000000E+00  0.55643864420E+02  0.55643864420E+02  0.00000000000E+00 0.  1.
          2   -1    0    0  501    0  0.00000000000E+00 -0.00000000000E+00 -0.76797176520E+03  0.76797176520E+03  0.00000000000E+00 0. -1.
         23    2    1    2    0    0 -0.13562322394E+03  0.10157532558E+03 -0.42687128606E+03  0.46886991884E+03  0.94385911514E+02 0.  0.
          5    1    1    2  502    0 -0.75910832009E+00 -0.60318512657E+02 -0.45626039445E+02  0.75750294324E+02  0.41800000000E+01 0.  1.
         -5    1    1    2    0  502  0.13638233226E+03 -0.41256812927E+02 -0.23983057528E+03  0.27899541646E+03  0.41800000000E+01 0.  1.
        -11    1    3    3    0    0 -0.32469905524E+02  0.78738195460E+02 -0.23302161095E+03  0.24809891044E+03  0.00000000000E+00 0.  1.
         11    1    3    3    0    0 -0.10315331842E+03  0.22837130125E+02 -0.19384967511E+03  0.22077100840E+03  0.00000000000E+00 0. -1.
</event>
<event>
 7    1  0.4096326E-006  0.1052979E+03  0.7561462E-02  0.1269534E+00
          3   -1    0    0  501    0  0.00000000000E+00  0.00000000000E+00  0.10653632653E+03  0.10653632653E+03  0.00000000000E+00 0. -1.
         -3   -1    0    0    0  501 -0.00000000000E+00 -0.00000000000E+00 -0.16891893188E+03  0.16891893188E+03  0.00000000000E+00 0.  1.
         23    2    1    2    0    0 -0.76769354418E+02  0.12058380839E+02 -0.18903190044E+02  0.12190697779E+03  0.92005664569E+02 0.  0.
          5    1    1    2  502    0  0.71580608827E+02  0.30692909264E+02  0.16371941741E+02  0.79695364454E+02  0.41800000000E+01 0. -1.
         -5    1    1    2    0  502  0.51887455914E+01 -0.42751290103E+02 -0.59851357046E+02  0.73852916168E+02  0.41800000000E+01 0. -1.
        -11    1    3    3    0    0 -0.37651586815E+02 -0.16288611373E+02 -0.49831575533E+02  0.64545695210E+02  0.00000000000E+00 0.  1.
         11    1    3    3    0    0 -0.39117767604E+02  0.28346992211E+02  0.30928385489E+02  0.57361282575E+02  0.00000000000E+00 0. -1.
</event>
<event>
 7    1  0.4096326E-006  0.1591852E+03  0.7561462E-02  0.1189620E+00
          2   -1    0    0  501    0  0.00000000000E+00  0.00000000000E+00  0.89364281675E+02  0.89364281675E+02  0.00000000000E+00 0. -1.
         -2   -1    0    0    0  501 -0.00000000000E+00 -0.00000000000E+00 -0.33955667766E+03  0.33955667766E+03  0.00000000000E+00 0.  1.
         23    2    1    2    0    0 -0.21905020055E+02  0.13379369504E+03 -0.11102632933E+03  0.19783252608E+03  0.91816555353E+02 0.  0.
          5    1    1    2  502    0 -0.26258412743E+02 -0.10424234705E+03 -0.13725997106E+03  0.17439536466E+03  0.41800000000E+01 0. -1.
         -5    1    1    2    0  502  0.48163432798E+02 -0.29551347986E+02 -0.19060956033E+01  0.56693068598E+02  0.41800000000E+01 0. -1.
        -11    1    3    3    0    0 -0.48739229184E+02  0.74239904120E+02 -0.96053960007E+02  0.13081834374E+03  0.00000000000E+00 0.  1.
         11    1    3    3    0    0  0.26834209130E+02  0.59553790918E+02 -0.14972369319E+02  0.67014182345E+02  0.00000000000E+00 0. -1.
</event>
<event>
 7    1  0.4096326E-006  0.1585978E+03  0.7561462E-02  0.1190289E+00
         -1   -1    0    0    0  501 -0.00000000000E+00  0.00000000000E+00  0.69742715000E+03  0.69742715000E+03  0.00000000000E+00 0.  1.
          1   -1    0    0  501    0  0.00000000000E+00 -0.00000000000E+00 -0.39123118142E+02  0.39123118142E+02  0.00000000000E+00 0. -1.
         23    2    1    2    0    0  0.82038145059E+02  0.46486149211E+02  0.19580625379E+03  0.23614542629E+03  0.92376155047E+02 0.  0.
          5    1    1    2  502    0 -0.67686181655E+02  0.52649671199E+02  0.27064334478E+03  0.28393432258E+03  0.41800000000E+01 0. -1.
         -5    1    1    2    0  502 -0.14351963404E+02 -0.99135820411E+02  0.19185443329E+03  0.21647051927E+03  0.41800000000E+01 0.  1.
        -11    1    3    3    0    0  0.51864122888E+02 -0.21930628762E+02  0.70548160892E+02  0.90265623169E+02  0.00000000000E+00 0.  1.
         11    1    3    3    0    0  0.30174022171E+02  0.68416777974E+02  0.12525809290E+03  0.14587980312E+03  0.00000000000E+00 0. -1.
</event>
<event>
 7    1  0.4096326E-006  0.1500074E+03  0.7561462E-02  0.1200464E+00
         -1   -1    0    0    0  501 -0.00000000000E+00  0.00000000000E+00  0.98937372110E+03  0.98937372110E+03  0.00000000000E+00 0. -1.
          1   -1    0    0  501    0  0.00000000000E+00 -0.00000000000E+00 -0.27941412344E+02  0.27941412344E+02  0.00000000000E+00 0.  1.
         23    2    1    2    0    0 -0.11855548059E+03  0.17756293054E+02  0.33046229243E+03  0.36298984800E+03  0.90474389258E+02 0.  0.
          5    1    1    2  502    0  0.96215630536E+02  0.45071855248E+02  0.37583568307E+03  0.39058782977E+03  0.41800000000E+01 0. -1.
         -5    1    1    2    0  502  0.22339850056E+02 -0.62828148302E+02  0.25513433325E+03  0.26373745567E+03  0.41800000000E+01 0. -1.
        -11    1    3    3    0    0 -0.68011185233E+02 -0.10729034996E+02  0.27217614276E+03  0.28074986411E+03  0.00000000000E+00 0. -1.
         11    1    3    3    0    0 -0.50544295359E+02  0.28485328049E+02  0.58286149674E+02  0.82239983896E+02  0.00000000000E+00 0.  1.
</event>
<event>
 7    1  0.4096326E-006  0.1039032E+03  0.7561462E-02  0.1272296E+00
         -4   -1    0    0    0  501 -0.00000000000E+00  0.00000000000E+00  0.58850652310E+03  0.58850652310E+03  0.00000000000E+00 0.  1.
          4   -1    0    0  501    0  0.00000000000E+00 -0.00000000000E+00 -0.28740971443E+02  0.28740971443E+02  0.00000000000E+00 0. -1.
         23    2    1    2    0    0  0.12121301508E+01 -0.59727822162E+02  0.15872856205E+03  0.19292884716E+03  0.91966850842E+02 0.  0.
          5    1    1    2  502    0  0.37458687713E+02  0.44947554723E+02  0.72974470475E+02  0.93627889552E+02  0.41800000000E+01 0. -1.
         -5    1    1    2    0  502 -0.38670817864E+02  0.14780267439E+02  0.32806251913E+03  0.33069075783E+03  0.41800000000E+01 0. -1.
        -11    1    3    3    0    0  0.39395799083E+02 -0.56956218557E+02  0.83195256872E+02  0.10824735832E+03  0.00000000000E+00 0.  1.
         11    1    3    3    0    0 -0.38183668932E+02 -0.27716036052E+01  0.75533305182E+02  0.84681488835E+02  0.00000000000E+00 0. -1.
</event>
<event>
 7    1  0.4096326E-006  0.1391123E+03  0.7561462E-02  0.1214528E+00
         -1   -1    0    0    0  501 -0.00000000000E+00  0.00000000000E+00  0.19201145616E+02  0.19201145616E+02  0.00000000000E+00 0.  1.
          1   -1    0    0  501    0  0.00000000000E+00 -0.00000000000E+00 -0.11302918165E+04  0.11302918165E+04  0.00000000000E+00 0. -1.
         23    2    1    2    0    0  0.27420433662E+02  0.86258047445E+02 -0.65614764392E+03  0.66906116713E+03  0.94449901095E+02 0.  0.
          5    1    1    2  502    0 -0.62222314722E+02 -0.24338945247E+01 -0.21450044735E+03  0.22339528779E+03  0.41800000000E+01 0. -1.
         -5    1    1    2    0  502  0.34801881060E+02 -0.83824152921E+02 -0.24044257959E+03  0.25703650717E+03  0.41800000000E+01 0. -1.
        -11    1    3    3    0    0  0.38678935894E+02  0.99983645678E+02 -0.61460123424E+03  0.62388097152E+03  0.00000000000E+00 0. -1.
         11    1    3    3    0    0 -0.11258502232E+02 -0.13725598232E+02 -0.41546409672E+02  0.45180195617E+02  0.00000000000E+00 0.  1.
</event>
<event>
 7    1  0.4096326E-006  0.1735813E+03  0.7561462E-02  0.1174164E+00
         -1   -1    0    0    0  501 -0.00000000000E+00  0.00000000000E+00  0.10479150495E+03  0.10479150495E+03  0.00000000000E+00 0.  1.
          1   -1    0    0  501    0  0.00000000000E+00 -0.00000000000E+00 -0.31150445986E+03  0.31150445986E+03  0.00000000000E+00 0. -1.
         23    2    1    2    0    0  0.55653490346E+02  0.12635100115E+03 -0.14853915918E+03  0.22112073084E+03  0.88139714777E+02 0.  0.
          5    1    1    2  502    0 -0.93166887286E+02 -0.11120919491E+03 -0.51249568568E+02  0.15392057887E+03  0.41800000000E+01 0.  1.
         -5    1    1    2    0  502  0.37513396940E+02 -0.15141806236E+02 -0.69242271638E+01  0.41254655105E+02  0.41800000000E+01 0.  1.
        -11    1    3    3    0    0 -0.19801442619E+02  0.51044540868E+02 -0.69161764995E+02  0.88209931524E+02  0.00000000000E+00 0. -1.
         11    1    3    3    0    0  0.75454932965E+02  0.75306460282E+02 -0.79377394182E+02  0.13291079932E+03  0.00000000000E+00 0.  1.
</event>
<event>
 7    1  0.4096326E-006  0.1068051E+03  0.7561462E-02  0.1266603E+00
          3   -1    0    0  501    0  0.00000000000E+00  0.00000000000E+00  0.63262293200E+02  0.63262293200E+02  0.00000000000E+00 0. -1.
         -3   -1    0    0    0  501 -0.00000000000E+00 -0.00000000000E+00 -0.19323769994E+03  0.19323769994E+03  0.00000000000E+00 0.  1.
         23    2    1    2    0    0  0.16284090807E+02  0.20229346363E+02 -0.42864652106E+02  0.10187323757E+03  0.88692615620E+02 0.  0.
          5    1    1    2  502    0  0.52166612537E+02 -0.87513494546E+01 -0.59739301649E+02  0.79901177353E+02  0.41800000000E+01 0.  1.
         -5    1    1    2    0  502 -0.68450703344E+02 -0.11477996908E+02 -0.27371452987E+02  0.74725578218E+02  0.41800000000E+01 0.  1.
        -11    1    3    3    0    0 -0.27836785460E+02 -0.17570940617E+02 -0.24175459031E+02  0.40842103254E+02  0.00000000000E+00 0.  1.
         11    1    3    3    0    0  0.44120876267E+02  0.37800286980E+02 -0.18689193076E+02  0.61031134318E+02  0.00000000000E+00 0. -1.
</event>
<event>
 7    1  0.4096326E-006  0.5758626E+02  0.7561462E-02  0.1408250E+00
         -1   -1    0    0    0  501 -0.00000000000E+00  0.00000000000E+00  0.47338258696E+02  0.47338258696E+02  0.00000000000E+00 0.  1.
          1   -1    0    0  501    0  0.00000000000E+00 -0.00000000000E+00 -0.25953857796E+03  0.25953857796E+03  0.00000000000E+00 0. -1.
         23    2    1    2    0    0  0.22599984333E+02 -0.56112682835E+01 -0.83511253003E+02  0.12590864940E+03  0.91305054582E+02 0.  0.
          5    1    1    2  502    0  0.38638679456E+01  0.24491159300E+02  0.17832441857E+02  0.30825553392E+02  0.41800000000E+01 0. -1.
         -5    1    1    2    0  502 -0.26463852279E+02 -0.18879891016E+02 -0.14652150812E+03  0.15014263386E+03  0.41800000000E+01 0. -1.
        -11    1    3    3    0    0 -0.36694371835E+01  0.20137102803E+02 -0.86608616732E+02  0.88994495171E+02  0.00000000000E+00 0. -1.
         11    1    3    3    0    0  0.26269421517E+02 -0.25748371086E+02  0.30973637290E+01  0.36914154230E+02  0.00000000000E+00 0.  1.
</event>
<event>
 7    1  0.4096326E-006  0.2497295E+03  0.7561462E-02  0.1113476E+00
         -2   -1    0    0    0  501 -0.00000000000E+00  0.00000000000E+00  0.25692241409E+03  0.25692241409E+03  0.00000000000E+00 0.  1.
          2   -1    0    0  501    0  0.00000000000E+00 -0.00000000000E+00 -0.41804504679E+03  0.41804504679E+03  0.00000000000E+00 0. -1.
         23    2    1    2    0    0  0.56210530278E+02  0.22040345074E+03 -0.29414374588E+03  0.38329079760E+03  0.93026810534E+02 0.  0.
          5    1    1    2  502    0 -0.36677584500E+02  0.74297264774E+00  0.12191536982E+02  0.38883199291E+02  0.41800000000E+01 0.  1.
         -5    1    1    2    0  502 -0.19532945779E+02 -0.22114642339E+03  0.12082957620E+03  0.25279346398E+03  0.41800000000E+01 0.  1.
        -11    1    3    3    0    0  0.66636451383E+02  0.10333143615E+03 -0.18966246343E+03  0.22603020237E+03  0.00000000000E+00 0. -1.
         11    1    3    3    0    0 -0.10425921105E+02  0.11707201459E+03 -0.10448128244E+03  0.15726059523E+03  0.00000000000E+00 0.  1.
</event>
<event>
 7    1  0.4096326E-006  0.1097054E+03  0.7561462E-02  0.1261116E+00
          3   -1    0    0  501    0  0.00000000000E+00  0.00000000000E+00  0.47867242923E+02  0.47867242923E+02  0.00000000000E+00 0. -1.
         -3   -1    0    0    0  501 -0.00000000000E+00 -0.00000000000E+00 -0.27576472427E+03  0.27576472427E+03  0.00000000000E+00 0.  1.
         23    2    1    2    0    0 -0.20343343412E+02 -0.43840240200E+01 -0.51729949391E+02  0.10656788807E+03  0.90816605396E+02 0.  0.
          5    1    1    2  502    0 -0.17444977711E+01 -0.59030210971E+02 -0.74684816418E+02  0.95304266867E+02  0.41800000000E+01 0.  1.
         -5    1    1    2    0  502  0.22087841184E+02  0.63414234991E+02 -0.10148271553E+03  0.12175981225E+03  0.41800000000E+01 0.  1.
        -11    1    3    3    0    0 -0.32389894187E+02 -0.42223239929E+02 -0.25789468361E+02  0.59135470861E+02  0.00000000000E+00 0.  1.
         11    1    3    3    0    0  0.12046550775E+02  0.37839215909E+02 -0.25940481029E+02  0.47432417208E+02  0.00000000000E+00 0. -1.
</event>
<event>
 7    1  0.4096326E-006  0.8548463E+02  0.7561462E-02  0.1314170E+00
         -2   -1    0    0    0  501 -0.00000000000E+00  0.00000000000E+00  0.85767458857E+02  0.85767458857E+02  0.00000000000E+00 0.  1.
          2   -1    0    0  501    0  0.00000000000E+00 -0.00000000000E+00 -0.19972373422E+03  0.19972373422E+03  0.00000000000E+00 0. -1.
         23    2    1    2    0    0 -0.23170560626E+01 -0.42661510350E+02 -0.11274289336E+03  0.15330104619E+03  0.94683037260E+02 0.  0.
          5    1    1    2  502    0 -0.28060225013E+02  0.75484564757E+01  0.53062852545E+02  0.60642346122E+02  0.41800000000E+01 0.  1.
         -5    1    1    2    0  502  0.30377281075E+02  0.35113053874E+02 -0.54276234553E+02  0.71547800771E+02  0.41800000000E+01 0.  1.
        -11    1    3    3    0    0 -0.29824550547E+01 -0.68791710047E+02 -0.10583909441E+03  0.12626602201E+03  0.00000000000E+00 0. -1.
         11    1    3    3    0    0  0.66539899212E+00  0.26130199697E+02 -0.69037989452E+01  0.27035024171E+02  0.00000000000E+00 0.  1.
</event>
<event>
 7    1  0.4096326E-006  0.1137624E+03  0.7561462E-02  0.1253757E+00
          3   -1    0    0  501    0  0.00000000000E+00  0.00000000000E+00  0.10727881124E+03  0.10727881124E+03  0.00000000000E+00 0. -1.
         -3   -1    0    0    0  501 -0.00000000000E+00 -0.00000000000E+00 -0.18470787910E+03  0.18470787910E+03  0.00000000000E+00 0.  1.
         23    2    1    2    0    0  0.16454395326E+01  0.87792847995E+02 -0.17874957101E+02  0.12796125991E+03  0.91347021386E+02 0.  0.
          5    1    1    2  502    0  0.29619246507E+02 -0.92597141779E+02 -0.96714039959E+00  0.97313607424E+02  0.41800000000E+01 0.  1.
         -5    1    1    2    0  502 -0.31264686040E+02  0.48042937845E+01 -0.58586970364E+02  0.66711823003E+02  0.41800000000E+01 0.  1.
        -11    1    3    3    0    0  0.10072367047E+02 -0.40720952842E-01  0.27108690696E+02  0.28919463124E+02  0.00000000000E+00 0. -1.
         11    1    3    3    0    0 -0.84269275145E+01  0.87833568947E+02 -0.44983647797E+02  0.99041796786E+02  0.00000000000E+00 0.  1.
</event>
<event>
 7    1  0.4096326E-006  0.6569970E+02  0.7561462E-02  0.1375359E+00
          2   -1    0    0  501    0  0.00000000000E+00  0.00000000000E+00  0.32002370861E+02  0.32002370861E+02  0.00000000000E+00 0. -1.
         -2   -1    0    0    0  501 -0.00000000000E+00 -0.00000000000E+00 -0.51498221101E+03  0.51498221101E+03  0.00000000000E+00 0.  1.
         23    2    1    2    0    0  0.63862265022E+01 -0.47588357097E+02 -0.10977364620E+03  0.15045626412E+03  0.91002188946E+02 0.  0.
          5    1    1    2  502    0 -0.29898515684E+02  0.35440863452E+02 -0.36577225319E+03  0.36872318838E+03  0.41800000000E+01 0. -1.
         -5    1    1    2    0  502  0.23512289182E+02  0.12147493645E+02 -0.74339407622E+01  0.27805129377E+02  0.41800000000E+01 0. -1.
        -11    1    3    3    0    0  0.19813363852E+02 -0.28824263400E+02  0.32253540353E+01  0.35125638163E+02  0.00000000000E+00 0. -1.
         11    1    3    3    0    0 -0.13427137350E+02 -0.18764093697E+02 -0.11299900024E+03  0.11533062596E+03  0.00000000000E+00 0.  1.
</event>
<event>
 7    1  0.4096326E-006  0.1179532E+03  0.7561462E-02  0.1246512E+00
         -1   -1    0    0    0  501 -0.00000000000E+00  0.00000000000E+00  0.27396067644E+02  0.27396067644E+02  0.00000000000E+00 0.  1.
          1   -1    0    0  501    0  0.00000000000E+00 -0.00000000000E+00 -0.64615425362E+03  0.64615425362E+03  0.00000000000E+00 0. -1.
         23    2    1    2    0    0 -0.66935920911E+02 -0.41738109587E+02 -0.26753594429E+03  0.29246432793E+03  0.87962573413E+02 0.  0.
          5    1    1    2  502    0 -0.31282012087E+02 -0.20785233829E+01 -0.35617577102E+02  0.47633693310E+02  0.41800000000E+01 0.  1.
         -5    1    1    2    0  502  0.98217932999E+02  0.43816632970E+02 -0.31560466458E+03  0.33345230002E+03  0.41800000000E+01 0.  1.
        -11    1    3    3    0    0 -0.68490594385E+02 -0.15318222087E+02 -0.25240071220E+03  0.26197658095E+03  0.00000000000E+00 0. -1.
         11    1    3    3    0    0  0.15546734734E+01 -0.26419887500E+02 -0.15135232086E+02  0.30487746972E+02  0.00000000000E+00 0.  1.
</event>
<event>
 7    1  0.4096326E-006  0.1066208E+03  0.7561462E-02  0.1266959E+00
         -1   -1    0    0    0  501 -0.00000000000E+00  0.00000000000E+00  0.45966712243E+03  0.45966712243E+03  0.00000000000E+00 0.  1.
          1   -1    0    0  501    0  0.00000000000E+00 -0.00000000000E+00 -0.30996378669E+02  0.30996378669E+02  0.00000000000E+00 0. -1.
         23    2    1    2    0    0  0.30952720068E+02  0.73684483483E+01  0.10446985804E+03  0.14171367852E+03  0.90313069547E+02 0.  0.
          5    1    1    2  502    0  0.40711931463E+02  0.12905260959E+02  0.19585684555E+03  0.20050282660E+03  0.41800000000E+01 0. -1.
         -5    1    1    2    0  502 -0.71664651531E+02 -0.20273709308E+02  0.12834404016E+03  0.14844699597E+03  0.41800000000E+01 0. -1.
        -11    1    3    3    0    0  0.26339409505E+02  0.48048267731E+02  0.61194522095E+02  0.82141159351E+02  0.00000000000E+00 0.  1.
         11    1    3    3    0    0  0.46133105632E+01 -0.40679819383E+02  0.43275335944E+02  0.59572519172E+02  0.00000000000E+00 0. -1.
</event>
<event>
 7    1  0.4096326E-006  0.1134873E+03  0.7561462E-02  0.1254245E+00
          4   -1    0    0  501    0  0.00000000000E+00  0.00000000000E+00  0.81775783599E+02  0.81775783599E+02  0.00000000000E+00 0. -1.
         -4   -1    0    0    0  501 -0.00000000000E+00 -0.00000000000E+00 -0.24933381001E+03  0.24933381001E+03  0.00000000000E+00 0.  1.
         23    2    1    2    0    0 -0.53900418386E+02 -0.81338725717E+02 -0.47218365643E+02  0.14034744158E+03  0.89143630736E+02 0.  0.
          5    1    1    2  502    0  0.13341073081E+01  0.68015065842E+01  0.20994638719E+02  0.22500835297E+02  0.41800000000E+01 0. -1.
         -5    1    1    2    0  502  0.52566311078E+02  0.74537219133E+02 -0.14133429948E+03  0.16826131673E+03  0.41800000000E+01 0.  1.
        -11    1    3    3    0    0  0.10169862114E+02  0.11132058653E+02  0.55774467848E+01  0.16076589748E+02  0.00000000000E+00 0.  1.
         11    1    3    3    0    0 -0.64070280500E+02 -0.92470784370E+02 -0.52795812428E+02  0.12427085183E+03  0.00000000000E+00 0. -1.
</event>
<event>
 7    1  0.4096326E-006  0.1364501E+03  0.7561462E-02  0.1218187E+00
          2   -1    0    0  501    0  0.00000000000E+00  0.00000000000E+00  0.45202610455E+02  0.45202610455E+02  0.00000000000E+00 0.  1.
         -2   -1    0    0    0  501 -0.00000000000E+00 -0.00000000000E+00 -0.52090233554E+03  0.52090233554E+03  0.00000000000E+00 0. -1.
         23    2    1    2    0    0  0.96564147988E+02  0.13159828019E+02 -0.30563995733E+03  0.33358218551E+03  0.91452037843E+02 0.  0.
          5    1    1    2  502    0 -0.12433014496E+03 -0.15036170034E+02 -0.11226537361E+03  0.16824107069E+03  0.41800000000E+01 0. -1.
         -5    1    1    2    0  502  0.27765996975E+02  0.18763420153E+01 -0.57794394143E+02  0.64281689786E+02  0.41800000000E+01 0. -1.
        -11    1    3    3    0    0  0.49720834922E+02 -0.28028558701E+02 -0.72662634998E+02  0.92399242708E+02  0.00000000000E+00 0.  1.
         11    1    3    3    0    0  0.46843313066E+02  0.41188386720E+02 -0.23297732233E+03  0.24118294281E+03  0.00000000000E+00 0. -1.
</event>
<event>
 7    1  0.4096326E-006  0.1515865E+03  0.7561462E-02  0.1198537E+00
          3   -1    0    0  501    0  0.00000000000E+00  0.00000000000E+00  0.93713891195E+02  0.93713891195E+02  0.00000000000E+00 0. -1.
         -3   -1    0    0    0  501 -0.00000000000E+00 -0.00000000000E+00 -0.28907364426E+03  0.28907364426E+03  0.00000000000E+00 0.  1.
         23    2    1    2    0    0 -0.82247019661E+02 -0.67085339069E+02 -0.18938714801E+02  0.14187327064E+03  0.92218951639E+02 0.  0.
          5    1    1    2  502    0  0.67020734947E+02 -0.23156485705E+02 -0.92899316055E+02  0.11694339257E+03  0.41800000000E+01 0. -1.
         -5    1    1    2    0  502  0.15226284714E+02  0.90241824775E+02 -0.83521722208E+02  0.12397087225E+03  0.41800000000E+01 0. -1.
        -11    1    3    3    0    0  0.11813173982E+02  0.12585973135E+02 -0.38529792350E+01  0.17686244606E+02  0.00000000000E+00 0.  1.
         11    1    3    3    0    0 -0.94060193643E+02 -0.79671312204E+02 -0.15085735566E+02  0.12418702603E+03  0.00000000000E+00 0. -1.
</event>
<event>
 7    1  0.4096326E-006  0.1270905E+03  0.7561462E-02  0.1231838E+00
          4   -1    0    0  501    0  0.00000000000E+00  0.00000000000E+00  0.19932301014E+03  0.19932301014E+03  0.00000000000E+00 0. -1.
         -4   -1    0    0    0  501 -0.00000000000E+00 -0.00000000000E+00 -0.18599629678E+03  0.18599629678E+03  0.00000000000E+00 0.  1.
         23    2    1    2    0    0  0.42303349545E+02  0.45483474956E+02  0.76008545569E+02  0.13526538036E+03  0.93065053851E+02 0.  0.
          5    1    1    2  502    0 -0.77206926637E+02 -0.73653966870E+02  0.57800319721E+02  0.12142555627E+03  0.41800000000E+01 0. -1.
         -5    1    1    2    0  502  0.34903577092E+02  0.28170491914E+02 -0.12048215193E+03  0.12862837029E+03  0.41800000000E+01 0.  1.
        -11    1    3    3    0    0  0.14016012891E+02 -0.23738987699E+02 -0.14427518201E+01  0.27605609704E+02  0.00000000000E+00 0. -1.
         11    1    3    3    0    0  0.28287336654E+02  0.69222462655E+02  0.77451297390E+02  0.10765977066E+03  0.00000000000E+00 0.  1.
</event>
<event>
 7    1  0.4096326E-006  0.1636335E+03  0.7561462E-02  0.1184655E+00
          2   -1    0    0  501    0  0.00000000000E+00  0.00000000000E+00  0.99785022949E+03  0.99785022949E+03  0.00000000000E+00 0. -1.
         -2   -1    0    0    0  501 -0.00000000000E+00 -0.00000000000E+00 -0.28251993579E+02  0.28251993579E+02  0.00000000000E+00 0.  1.
         23    2    1    2    0    0 -0.11247370296E+03  0.65411161522E+02  0.45541231477E+03  0.48115958738E+03  0.84765666236E+02 0.  0.
          5    1    1    2  502    0 -0.24178638559E+02  0.70451488335E+01  0.82846797424E+02  0.86690858388E+02  0.41800000000E+01 0.  1.
         -5    1    1    2    0  502  0.13665234152E+03 -0.72456310355E+02  0.43133912372E+03  0.45825177731E+03  0.41800000000E+01 0.  1.
        -11    1    3    3    0    0 -0.12174200564E+02  0.42386645786E+02  0.21780114217E+03  0.22222100808E+03  0.00000000000E+00 0. -1.
         11    1    3    3    0    0 -0.10029950240E+03  0.23024515736E+02  0.23761117260E+03  0.25893857930E+03  0.00000000000E+00 0.  1.
</event>
<event>
 7    1  0.4096326E-006  0.1317347E+03  0.7561462E-02  0.1224904E+00
          2   -1    0    0  501    0  0.00000000000E+00  0.00000000000E+00  0.77254304773E+03  0.77254304773E+03  0.00000000000E+00 0. -1.
         -2   -1    0    0    0  501 -0.00000000000E+00 -0.00000000000E+00 -0.32578998964E+02  0.32578998964E+02  0.00000000000E+00 0.  1.
         23    2    1    2    0    0  0.95911650308E+02  0.63669116052E+02  0.35095000569E+03  0.38058520510E+03  0.91795374852E+02 0.  0.
          5    1    1    2  502    0 -0.38170755791E+02 -0.33860341314E+02  0.29321649601E+02  0.58997973244E+02  0.41800000000E+01 0.  1.
         -5    1    1    2    0  502 -0.57740894517E+02 -0.29808774738E+02  0.35969239348E+03  0.36553886835E+03  0.41800000000E+01 0.  1.
        -11    1    3    3    0    0  0.25986050590E+02 -0.23756024451E+02  0.78696273532E+02  0.86213264587E+02  0.00000000000E+00 0. -1.
         11    1    3    3    0    0  0.69925599719E+02  0.87425140502E+02  0.27225373216E+03  0.29437194051E+03  0.00000000000E+00 0.  1.
</event>
<event>
 7    1  0.4096326E-006  0.9839838E+02  0.7561462E-02  0.1283700E+00
         -4   -1    0    0    0  501 -0.00000000000E+00  0.00000000000E+00  0.29424308822E+03  0.29424308822E+03  0.00000000000E+00 0.  1.
          4   -1    0    0  501    0  0.00000000000E+00 -0.00000000000E+00 -0.44607234577E+02  0.44607234577E+02  0.00000000000E+00 0. -1.
         23    2    1    2    0    0 -0.33601470413E+02  0.97007998313E+01  0.78432850812E+02  0.12395155150E+03  0.89381825336E+02 0.  0.
          5    1    1    2  502    0  0.22538854381E+02 -0.59827374177E+02  0.14178023202E+03  0.15558412917E+03  0.41800000000E+01 0.  1.
         -5    1    1    2    0  502  0.11062616032E+02  0.50126574346E+02  0.29422770812E+02  0.59314642133E+02  0.41800000000E+01 0.  1.
        -11    1    3    3    0    0  0.16196417544E+02  0.24415402350E+02  0.63479733865E+02  0.69915037186E+02  0.00000000000E+00 0.  1.
         11    1    3    3    0    0 -0.49797887957E+02 -0.14714602519E+02  0.14953116947E+02  0.54036514309E+02  0.00000000000E+00 0. -1.
</event>
<event>
 7    1  0.4096326E-006  0.8626478E+02  0.7561462E-02  0.1312158E+00
         -4   -1    0    0    0  501 -0.00000000000E+00  0.00000000000E+00  0.28818166473E+03  0.28818166473E+03  0.00000000000E+00 0.  1.
          4   -1    0    0  501    0  0.00000000000E+00 -0.00000000000E+00 -0.41729054359E+02  0.41729054359E+02  0.00000000000E+00 0. -1.
         23    2    1    2    0    0  0.21904937254E+02  0.36331874135E+01  0.10616025706E+03  0.14066807538E+03  0.89579467094E+02 0.  0.
          5    1    1    2  502    0  0.93036679227E+00  0.46506523761E+02  0.10060651824E+02  0.47774590002E+02  0.41800000000E+01 0.  1.
         -5    1    1    2    0  502 -0.22835304046E+02 -0.50139711175E+02  0.13023170149E+03  0.14146805371E+03  0.41800000000E+01 0.  1.
        -11    1    3    3    0    0  0.29926732816E+02 -0.26141677437E+02  0.10210664224E+03  0.10956624948E+03  0.00000000000E+00 0.  1.
         11    1    3    3    0    0 -0.80217955627E+01  0.29774864850E+02  0.40536148184E+01  0.31101825895E+02  0.00000000000E+00 0. -1.
</event>
<event>
 7    1  0.4096326E-006  0.9560292E+02  0.7561462E-02  0.1289824E+00
         -2   -1    0    0    0  501 -0.00000000000E+00  0.00000000000E+00  0.38727820627E+02  0.38727820627E+02  0.00000000000E+00 0.  1.
          2   -1    0    0  501    0  0.00000000000E+00 -0.00000000000E+00 -0.39502856830E+03  0.39502856830E+03  0.00000000000E+00 0. -1.
         23    2    1    2    0    0  0.11099942747E+02  0.53095572575E+02 -0.11757098196E+03  0.15882988168E+03  0.91987210838E+02 0.  0.
          5    1    1    2  502    0  0.50963749063E+02 -0.68779323470E+01 -0.14136519238E+03  0.15048654322E+03  0.41800000000E+01 0.  1.
         -5    1    1    2    0  502 -0.62063691810E+02 -0.46217640228E+02 -0.97364573327E+02  0.12443996403E+03  0.41800000000E+01 0.  1.
        -11    1    3    3    0    0 -0.95435086765E+01  0.28220003225E+02  0.66065644348E+01  0.30513830201E+02  0.00000000000E+00 0.  1.
         11    1    3    3    0    0  0.20643451423E+02  0.24875569350E+02 -0.12417754640E+03  0.12831605148E+03  0.00000000000E+00 0. -1.
</event>
<event>
 7    1  0.4096326E-006  0.1308062E+03  0.7561462E-02  0.1226264E+00
         -2   -1    0    0    0  501 -0.00000000000E+00  0.00000000000E+00  0.20621111882E+03  0.20621111882E+03  0.00000000000E+00 0. -1.
          2   -1    0    0  501    0  0.00000000000E+00 -0.00000000000E+00 -0.14220706508E+03  0.14220706508E+03  0.00000000000E+00 0.  1.
         23    2    1    2    0    0 -0.11032520670E+03 -0.26195712692E+02 -0.39120501181E+02  0.15058018430E+03  0.91028081904E+02 0.  0.
          5    1    1    2  502    0 -0.14525286700E+02  0.33710949284E+01 -0.17027461981E+02  0.23016409282E+02  0.41800000000E+01 0.  1.
         -5    1    1    2    0  502  0.12485049340E+03  0.22824617764E+02  0.12015201690E+03  0.17482159032E+03  0.41800000000E+01 0.  1.
        -11    1    3    3    0    0 -0.49883912042E+02 -0.30624575845E+02  0.23829514040E+02  0.63199011587E+02  0.00000000000E+00 0. -1.
         11    1    3    3    0    0 -0.60441294654E+02  0.44288631525E+01 -0.62950015221E+02  0.87381172712E+02  0.00000000000E+00 0.  1.
</event>
<event>
 7    1  0.4096326E-006  0.1188820E+03  0.7561462E-02  0.1244953E+00
         -2   -1    0    0    0  501 -0.00000000000E+00  0.00000000000E+00  0.65017118785E+02  0.65017118785E+02  0.00000000000E+00 0.  1.
          2   -1    0    0  501    0  0.00000000000E+00 -0.00000000000E+00 -0.32980299818E+03  0.32980299818E+03  0.00000000000E+00 0. -1.
         23    2    1    2    0    0 -0.33694084257E+02 -0.94354741420E+02 -0.16291850611E+03  0.21182913989E+03  0.91055127991E+02 0.  0.
          5    1    1    2  502    0  0.28824955621E+02  0.41748949688E+02 -0.11723679741E+03  0.12781154852E+03  0.41800000000E+01 0. -1.
         -5    1    1    2    0  502  0.48691286367E+01  0.52605791732E+02  0.15369424127E+02  0.55179428553E+02  0.41800000000E+01 0.  1.
        -11    1    3    3    0    0 -0.45729374162E+02 -0.10702670356E+03 -0.12948979384E+03  0.17410771851E+03  0.00000000000E+00 0.  1.
         11    1    3    3    0    0  0.12035289905E+02  0.12671962136E+02 -0.33428712268E+02  0.37721421386E+02  0.00000000000E+00 0. -1.
</event>
<event>
 7    1  0.4096326E-006  0.1472180E+03  0.7561462E-02  0.1203934E+00
         -3   -1    0    0    0  501 -0.00000000000E+00  0.00000000000E+00  0.19704493449E+03  0.19704493449E+03  0.00000000000E+00 0.  1.
          3   -1    0    0  501    0  0.00000000000E+00 -0.00000000000E+00 -0.14409306935E+03  0.14409306935E+03  0.00000000000E+00 0. -1.
         23    2    1    2    0    0  0.87851074959E+02  0.88115601088E+02 -0.92174968150E+01  0.15407856737E+03  0.90405044922E+02 0.  0.
          5    1    1    2  502    0 -0.73102686290E+02 -0.15573840590E+02 -0.18888802837E+02  0.77206259631E+02  0.41800000000E+01 0.  1.
         -5    1    1    2    0  502 -0.14748388669E+02 -0.72541760498E+02  0.81058164783E+02  0.10985317684E+03  0.41800000000E+01 0.  1.
        -11    1    3    3    0    0  0.98488425192E+02  0.59888775960E+02 -0.27901101766E+02  0.11859640324E+03  0.00000000000E+00 0. -1.
         11    1    3    3    0    0 -0.10637350233E+02  0.28226825128E+02  0.18683604951E+02  0.35482164122E+02  0.00000000000E+00 0.  1.
</event>
<event>
 6    1  0.4096326E-006  0.6857094E+02  0.7561462E-02  0.1365021E+00
          2   -1    0    0  501    0  0.00000000000E+00  0.00000000000E+00  0.10516143786E+04  0.10516143786E+04  0.00000000000E+00 0. -1.
         -2   -1    0    0    0  501 -0.00000000000E+00 -0.00000000000E+00 -0.11856617691E+02  0.11856617691E+02  0.00000000000E+00 0.  1.
          5    1    1    2  502    0  0.23560097656E+02 -0.34583360050E+02  0.70607054649E+03  0.70732183341E+03  0.41800000000E+01 0. -1.
         -5    1    1    2    0  502 -0.37225536665E+01 -0.26696321771E+02  0.16726070668E+02  0.31996637978E+02  0.41800000000E+01 0.  1.
        -11    1    1    2    0    0 -0.16409765696E+02  0.17852345414E+02  0.10547403874E+03  0.10822550297E+03  0.00000000000E+00 0. -1.
         11    1    1    2    0    0 -0.34277782941E+01  0.43427336408E+02  0.21148710497E+03  0.21592702188E+03  0.00000000000E+00 0.  1.
</event>
<event>
 7    1  0.4096326E-006  0.1937905E+03  0.7561462E-02  0.1155086E+00
         -1   -1    0    0    0  501 -0.00000000000E+00  0.00000000000E+00  0.17208510099E+03  0.17208510099E+03  0.00000000000E+00 0.  1.
          1   -1    0    0  501    0  0.00000000000E+00 -0.00000000000E+00 -0.24095961628E+03  0.24095961628E+03  0.00000000000E+00 0. -1.
         23    2    1    2    0    0  0.13177013836E+03 -0.10411235240E+03 -0.71180126279E+02  0.20362693449E+03  0.90523846514E+02 0.  0.
          5    1    1    2  502    0 -0.22549383451E+02  0.92889663147E+02  0.21018630225E+02  0.97960295172E+02  0.41800000000E+01 0. -1.
         -5    1    1    2    0  502 -0.10922075490E+03  0.11222689257E+02 -0.18713019236E+02  0.11145748761E+03  0.41800000000E+01 0. -1.
        -11    1    3    3    0    0  0.10245548044E+03 -0.11187602728E+03 -0.33672552916E+02  0.15539373145E+03  0.00000000000E+00 0.  1.
         11    1    3    3    0    0  0.29314657911E+02  0.77636748791E+01 -0.37507573363E+02  0.48233203042E+02  0.00000000000E+00 0. -1.
</event>
<event>
 7    1  0.4096326E-006  0.1167022E+03  0.7561462E-02  0.1248639E+00
         -2   -1    0    0    0  501 -0.00000000000E+00  0.00000000000E+00  0.15820855137E+03  0.15820855137E+03  0.00000000000E+00 0.  1.
          2   -1    0    0  501    0  0.00000000000E+00 -0.00000000000E+00 -0.10372684232E+03  0.10372684232E+03  0.00000000000E+00 0. -1.
         23    2    1    2    0    0 -0.33748677355E+02 -0.40597605461E+02 -0.22533018240E+02  0.10583941608E+03  0.88921911212E+02 0.  0.
          5    1    1    2  502    0  0.77437536721E+02  0.37231512012E+02  0.71256430083E+02  0.11170366515E+03  0.41800000000E+01 0.  1.
         -5    1    1    2    0  502 -0.43688859366E+02  0.33660934493E+01  0.57582972084E+01  0.44392312449E+02  0.41800000000E+01 0.  1.
        -11    1    3    3    0    0 -0.25805086960E+02  0.25800657717E+02 -0.63780571248E+01  0.37043974737E+02  0.00000000000E+00 0.  1.
         11    1    3    3    0    0 -0.79435903943E+01 -0.66398263178E+02 -0.16154961115E+02  0.68795441347E+02  0.00000000000E+00 0. -1.
</event>
<event>
 7    1  0.4096326E-006  0.1357725E+03  0.7561462E-02  0.1219133E+00
          1   -1    0    0  501    0  0.00000000000E+00  0.00000000000E+00  0.35248137371E+03  0.35248137371E+03  0.00000000000E+00 0. -1.
         -1   -1    0    0    0  501 -0.00000000000E+00 -0.00000000000E+00 -0.56062799947E+02  0.56062799947E+02  0.00000000000E+00 0.  1.
         23    2    1    2    0    0  0.69192603425E+02 -0.23779658226E+02  0.18044072075E+03  0.22287472598E+03  0.10844907219E+03 0.  0.
          5    1    1    2  502    0 -0.36766243856E+02  0.74725002087E+02  0.78185815462E+02  0.11430694101E+03  0.41800000000E+01 0. -1.
         -5    1    1    2    0  502 -0.32426359570E+02 -0.50945343860E+02  0.37792037548E+02  0.71362506668E+02  0.41800000000E+01 0. -1.
        -11    1    3    3    0    0  0.21710433257E+02 -0.62623128951E+02  0.11800212110E+03  0.13534215816E+03  0.00000000000E+00 0.  1.
         11    1    3    3    0    0  0.47482170168E+02  0.38843470724E+02  0.62438599659E+02  0.87532567820E+02  0.00000000000E+00 0. -1.
</event>
<event>
 7    1  0.4096326E-006  0.7568446E+02  0.7561462E-02  0.1341764E+00
          1   -1    0    0  501    0  0.00000000000E+00  0.00000000000E+00  0.10165790176E+03  0.10165790176E+03  0.00000000000E+00 0. -1.
         -1   -1    0    0    0  501 -0.00000000000E+00 -0.00000000000E+00 -0.14644753292E+03  0.14644753292E+03  0.00000000000E+00 0.  1.
         23    2    1    2    0    0 -0.23314196874E+01 -0.45548527702E+02  0.89728300753E+01  0.10451345578E+03  0.93607942318E+02 0.  0.
          5    1    1    2  502    0 -0.68238632246E+01 -0.17069094643E+02 -0.74514232027E+02  0.76861968982E+02  0.41800000000E+01 0. -1.
         -5    1    1    2    0  502  0.91552829119E+01  0.62617622345E+02  0.20751770786E+02  0.66730009922E+02  0.41800000000E+01 0. -1.
        -11    1    3    3    0    0  0.24439777393E+02 -0.15938170316E+02 -0.34706181715E+02  0.45341449484E+02  0.00000000000E+00 0.  1.
         11    1    3    3    0    0 -0.26771197081E+02 -0.29610357386E+02  0.43679011790E+02  0.59172006292E+02  0.00000000000E+00 0. -1.
</event>
<event>
 7    1  0.4096326E-006  0.1827435E+03  0.7561462E-02  0.1165174E+00
         -1   -1    0    0    0  501 -0.00000000000E+00  0.00000000000E+00  0.22053953135E+03  0.22053953135E+03  0.00000000000E+00 0.  1.
          1   -1    0    0  501    0  0.00000000000E+00 -0.00000000000E+00 -0.20151230373E+03  0.20151230373E+03  0.00000000000E+00 0. -1.
         23    2    1    2    0    0 -0.41646296773E+02 -0.97933502473E+02 -0.68956183816E+02  0.15577124679E+03  0.90467348248E+02 0.  0.
          5    1    1    2  502    0 -0.57933074755E+02 -0.45218714289E+02  0.69231437626E+01  0.73934941618E+02  0.41800000000E+01 0. -1.
         -5    1    1    2    0  502  0.99579371529E+02  0.14315221676E+03  0.81060267670E+02  0.19234564667E+03  0.41800000000E+01 0.  1.
        -11    1    3    3    0    0 -0.33971462542E+02 -0.20592843884E+02  0.13976440321E+02  0.42112544100E+02  0.00000000000E+00 0.  1.
         11    1    3    3    0    0 -0.76748342314E+01 -0.77340658589E+02 -0.82932624137E+02  0.11365870269E+03  0.00000000000E+00 0. -1.
</event>
<event>
 7    1  0.4096326E-006  0.1464876E+03  0.7561462E-02  0.1204857E+00
         -2   -1    0    0    0  501 -0.00000000000E+00  0.00000000000E+00  0.15263758794E+03  0.15263758794E+03  0.00000000000E+00 0.  1.
          2   -1    0    0  501    0  0.00000000000E+00 -0.00000000000E+00 -0.20000860380E+03  0.20000860380E+03  0.00000000000E+00 0. -1.
         23    2    1    2    0    0  0.10249168962E+03 -0.43608299291E+02 -0.10227636918E+03  0.17638276077E+03  0.90797535194E+02 0.  0.
          5    1    1    2  502    0 -0.72730009697E+02  0.87009103153E+02  0.27418095085E+02  0.11674528976E+03  0.41800000000E+01 0.  1.
         -5    1    1    2    0  502 -0.29761679922E+02 -0.43400803862E+02  0.27487258235E+02  0.59518141209E+02  0.41800000000E+01 0.  1.
        -11    1    3    3    0    0  0.54282517159E+02  0.93584304999E+01 -0.87279997032E+02  0.10320838034E+03  0.00000000000E+00 0. -1.
         11    1    3    3    0    0  0.48209172460E+02 -0.52966729791E+02 -0.14996372146E+02  0.73174380431E+02  0.00000000000E+00 0.  1.
</event>
<event>
 7    1  0.4096326E-006  0.2118821E+03  0.7561462E-02  0.1140084E+00
         -2   -1    0    0    0  501 -0.00000000000E+00  0.00000000000E+00  0.11605563574E+04  0.11605563574E+04  0.00000000000E+00 0.  1.
          2   -1    0    0  501    0  0.00000000000E+00 -0.00000000000E+00 -0.47206162784E+02  0.47206162784E+02  0.00000000000E+00 0. -1.
         23    2    1    2    0    0  0.11346821867E+02 -0.20439273254E+03  0.45300142266E+03  0.50518607622E+03  0.89986350038E+02 0.  0.
          5    1    1    2  502    0  0.13636710275E+02  0.36824465003E+02  0.29314471516E+02  0.49181416513E+02  0.41800000000E+01 0.  1.
         -5    1    1    2    0  502 -0.24983532142E+02  0.16756826754E+03  0.63103430040E+03  0.65339502741E+03  0.41800000000E+01 0.  1.
        -11    1    3    3    0    0 -0.26913017673E+02 -0.10212979421E+03  0.29322464772E+03  0.31166568534E+03  0.00000000000E+00 0.  1.
         11    1    3    3    0    0  0.38259839540E+02 -0.10226293833E+03  0.15977677494E+03  0.19352039088E+03  0.00000000000E+00 0. -1.
</event>
<event>
 7    1  0.4096326E-006  0.1717363E+03  0.7561462E-02  0.1176049E+00
         -2   -1    0    0    0  501 -0.00000000000E+00  0.00000000000E+00  0.72372410365E+02  0.72372410365E+02  0.00000000000E+00 0.  1.
          2   -1    0    0  501    0  0.00000000000E+00 -0.00000000000E+00 -0.56754029609E+03  0.56754029609E+03  0.00000000000E+00 0. -1.
         23    2    1    2    0    0 -0.84901295465E+01 -0.41679632363E+02 -0.27551141751E+03  0.29376081094E+03  0.92626123810E+02 0.  0.
          5    1    1    2  502    0  0.52500022132E+02 -0.89241623827E+02 -0.17043415754E+03  0.19946326529E+03  0.41800000000E+01 0. -1.
         -5    1    1    2    0  502 -0.44009892586E+02  0.13092125619E+03 -0.49222310684E+02  0.14668863022E+03  0.41800000000E+01 0.  1.
        -11    1    3    3    0    0  0.20991086295E+02 -0.62265471390E+02 -0.16783351376E+03  0.18023790659E+03  0.00000000000E+00 0. -1.
         11    1    3    3    0    0 -0.29481215841E+02  0.20585839026E+02 -0.10767790375E+03  0.11352290435E+03  0.00000000000E+00 0.  1.
</event>
<event>
 7    1  0.4096326E-006  0.8929970E+02  0.7561462E-02  0.1304556E+00
          2   -1    0    0  501    0  0.00000000000E+00  0.00000000000E+00  0.18907042437E+02  0.18907042437E+02  0.00000000000E+00 0. -1.
         -2   -1    0    0    0  501 -0.00000000000E+00 -0.00000000000E+00 -0.85938317086E+03  0.85938317086E+03  0.00000000000E+00 0.  1.
         23    2    1    2    0    0  0.18342628731E+02 -0.46145358263E+02 -0.21659553250E+03  0.24005846674E+03  0.90821785021E+02 0.  0.
          5    1    1    2  502    0  0.31278554881E+01 -0.39071983095E+02 -0.30133572532E+03  0.30390310149E+03  0.41800000000E+01 0.  1.
         -5    1    1    2    0  502 -0.21470484219E+02  0.85217341358E+02 -0.32254487060E+03  0.33432864507E+03  0.41800000000E+01 0.  1.
        -11    1    3    3    0    0 -0.12697395209E+01 -0.99706384209E+01  0.72940117333E+01  0.12418875800E+02  0.00000000000E+00 0. -1.
         11    1    3    3    0    0  0.19612368252E+02 -0.36174719842E+02 -0.22388954424E+03  0.22763959094E+03  0.00000000000E+00 0.  1.
</event>
<event>
 7    1  0.4096326E-006  0.1988673E+03  0.7561462E-02  0.1150698E+00
          2   -1    0    0  501    0  0.00000000000E+00  0.00000000000E+00  0.25929616992E+03  0.25929616992E+03  0.00000000000E+00 0. -1.
         -2   -1    0    0    0  501 -0.00000000000E+00 -0.00000000000E+00 -0.15980826023E+03  0.15980826023E+03  0.00000000000E+00 0.  1.
         23    2    1    2    0    0  0.15612933838E+03 -0.59035493361E+02  0.87825108153E+02  0.21018926474E+03  0.92761617104E+02 0.  0.
          5    1    1    2  502    0  0.21070023974E+02  0.27465252841E+01 -0.49137002033E+01  0.22205993810E+02  0.41800000000E+01 0.  1.
         -5    1    1    2    0  502 -0.17719936236E+03  0.56288968077E+02  0.16576501741E+02  0.18670917159E+03  0.41800000000E+01 0.  1.
        -11    1    3    3    0    0  0.54440261434E+02 -0.69045860166E+02  0.30747113010E+02  0.93147505761E+02  0.00000000000E+00 0.  1.
         11    1    3    3    0    0  0.10168907695E+03  0.10010366805E+02  0.57077995143E+02  0.11704175898E+03  0.00000000000E+00 0. -1.
</event>
<event>
 7    1  0.4096326E-006  0.2371736E+03  0.7561462E-02  0.1121690E+00
         -1   -1    0    0    0  501 -0.00000000000E+00  0.00000000000E+00  0.11992222795E+03  0.11992222795E+03  0.00000000000E+00 0.  1.
          1   -1    0    0  501    0  0.00000000000E+00 -0.00000000000E+00 -0.71659938435E+03  0.71659938435E+03  0.00000000000E+00 0. -1.
         23    2    1    2    0    0 -0.16088512906E+03 -0.16341609446E+03 -0.49991010856E+03  0.55794691956E+03  0.93839244031E+02 0.  0.
          5    1    1    2  502    0  0.91217501803E+02  0.64975921072E+02 -0.11017917576E+03  0.15716051071E+03  0.41800000000E+01 0. -1.
         -5    1    1    2    0  502  0.69667627257E+02  0.98440173390E+02  0.13412127923E+02  0.12141418204E+03  0.41800000000E+01 0. -1.
        -11    1    3    3    0    0 -0.10967170080E+03 -0.57212003233E+02 -0.31752454477E+03  0.34076814963E+03  0.00000000000E+00 0. -1.
         11    1    3    3    0    0 -0.51213428259E+02 -0.10620409123E+03 -0.18238556379E+03  0.21717876992E+03  0.00000000000E+00 0.  1.
</event>
<event>
 7    1  0.4096326E-006  0.9585773E+02  0.7561462E-02  0.1289256E+00
          1   -1    0    0  501    0  0.00000000000E+00  0.00000000000E+00  0.12882155130E+02  0.12882155130E+02  0.00000000000E+00 0. -1.
         -1   -1    0    0    0  501 -0.00000000000E+00 -0.00000000000E+00 -0.11195835005E+04  0.11195835005E+04  0.00000000000E+00 0.  1.
         23    2    1    2    0    0 -0.71436863166E+02 -0.12275226816E+02 -0.40673969264E+03  0.41772944110E+03  0.61699285078E+02 0.  0.
          5    1    1    2  502    0  0.71097928213E+01 -0.22066445456E+02 -0.20113608399E+02  0.30975906957E+02  0.41800000000E+01 0.  1.
         -5    1    1    2    0  502  0.64327070344E+02  0.34341672272E+02 -0.67984804430E+03  0.68376030755E+03  0.41800000000E+01 0.  1.
        -11    1    3    3    0    0 -0.21933808000E+02  0.24920697551E+02 -0.14964972627E+03  0.15328787843E+03  0.00000000000E+00 0.  1.
         11    1    3    3    0    0 -0.49503055165E+02 -0.37195924367E+02 -0.25708996637E+03  0.26444156267E+03  0.00000000000E+00 0. -1.
</event>
<event>
 7    1  0.4096326E-006  0.8848722E+02  0.7561462E-02  0.1306557E+00
         -1   -1    0    0    0  501 -0.00000000000E+00  0.00000000000E+00  0.33212289376E+03  0.33212289376E+03  0.00000000000E+00 0.  1.
          1   -1    0    0  501    0  0.00000000000E+00 -0.00000000000E+00 -0.45300955797E+02  0.45300955797E+02  0.00000000000E+00 0. -1.
         23    2    1    2    0    0 -0.42246182986E+02 -0.37607006676E+02  0.13752240008E+03  0.17459717306E+03  0.91502652356E+02 0.  0.
          5    1    1    2  502    0  0.39812658235E+02  0.45697341448E+02  0.80727673441E+01  0.61285697710E+02  0.41800000000E+01 0.  1.
         -5    1    1    2    0  502  0.24335247511E+01 -0.80903347721E+01  0.14122677054E+03  0.14154097879E+03  0.41800000000E+01 0.  1.
        -11    1    3    3    0    0 -0.70532872870E+02 -0.19382303497E+02  0.84095549178E+02  0.11145681332E+03  0.00000000000E+00 0.  1.
         11    1    3    3    0    0  0.28286689883E+02 -0.18224703179E+02  0.53426850904E+02  0.63140359739E+02  0.00000000000E+00 0. -1.
</event>
<event>
 7    1  0.4096326E-006  0.9965922E+02  0.7561462E-02  0.1281014E+00
         -1   -1    0    0    0  501 -0.00000000000E+00  0.00000000000E+00  0.72582423033E+02  0.72582423033E+02  0.00000000000E+00 0.  1.
          1   -1    0    0  501    0  0.00000000000E+00 -0.00000000000E+00 -0.17116854812E+03  0.17116854812E+03  0.00000000000E+00 0. -1.
         23    2    1    2    0    0 -0.21511113956E+02 -0.10837640010E+02 -0.54463385492E+02  0.10896944918E+03  0.91257317682E+02 0.  0.
          5    1    1    2  502    0  0.30257281320E+02 -0.41800618954E+02  0.16094761229E+02  0.54215390405E+02  0.41800000000E+01 0.  1.
         -5    1    1    2    0  502 -0.87461673640E+01  0.52638258964E+02 -0.60217500819E+02  0.80566131564E+02  0.41800000000E+01 0.  1.
        -11    1    3    3    0    0 -0.52744150712E+01  0.40159425863E+02 -0.18789326514E+02  0.44650170558E+02  0.00000000000E+00 0.  1.
         11    1    3    3    0    0 -0.16236698885E+02 -0.50997065873E+02 -0.35674058977E+02  0.64319278621E+02  0.00000000000E+00 0. -1.
</event>
<event>
 7    1  0.4096326E-006  0.1357604E+03  0.7561462E-02  0.1219150E+00
         -4   -1    0    0    0  501 -0.00000000000E+00  0.00000000000E+00  0.41017476614E+03  0.41017476614E+03  0.00000000000E+00 0.  1.
          4   -1    0    0  501    0  0.00000000000E+00 -0.00000000000E+00 -0.51230905651E+02  0.51230905651E+02  0.00000000000E+00 0. -1.
         23    2    1    2    0    0 -0.88139345892E+02  0.31225023743E+02  0.12705690104E+03  0.18182989470E+03  0.90416304403E+02 0.  0.
          5    1    1    2  502    0 -0.53953173727E+00  0.39021651972E+02  0.35633209167E+02  0.53011115935E+02  0.41800000000E+01 0. -1.
         -5    1    1    2    0  502  0.88678877629E+02 -0.70246675715E+02  0.19625375028E+03  0.22656466116E+03  0.41800000000E+01 0. -1.
        -11    1    3    3    0    0 -0.23769091223E+02  0.47106800097E+02  0.21072566052E+02  0.56816136378E+02  0.00000000000E+00 0. -1.
         11    1    3    3    0    0 -0.64370254668E+02 -0.15881776354E+02  0.10598433499E+03  0.12501375832E+03  0.00000000000E+00 0.  1.
</event>
<event>
 7    1  0.4096326E-006  0.8599038E+02  0.7561462E-02  0.1312863E+00
         -2   -1    0    0    0  501 -0.00000000000E+00  0.00000000000E+00  0.10818242749E+03  0.10818242749E+03  0.00000000000E+00 0.  1.
          2   -1    0    0  501    0  0.00000000000E+00 -0.00000000000E+00 -0.18174231893E+03  0.18174231893E+03  0.00000000000E+00 0. -1.
         23    2    1    2    0    0 -0.37855104763E+01 -0.10413181767E+02 -0.13332465015E+03  0.16204038758E+03  0.91426803655E+02 0.  0.
          5    1    1    2  502    0  0.42958377963E+02 -0.76035570743E+01 -0.10751004066E+02  0.45125301171E+02  0.41800000000E+01 0. -1.
         -5    1    1    2    0  502 -0.39172867487E+02  0.18016738841E+02  0.70515762778E+02  0.82759057666E+02  0.41800000000E+01 0.  1.
        -11    1    3    3    0    0  0.33209234907E+02  0.18379817932E+02 -0.92095493118E+02  0.99610495647E+02  0.00000000000E+00 0. -1.
         11    1    3    3    0    0 -0.36994745383E+02 -0.28792999699E+02 -0.41229157028E+02  0.62429891934E+02  0.00000000000E+00 0.  1.
</event>
<event>
 7    1  0.4096326E-006  0.9296821E+02  0.7561462E-02  0.1295819E+00
          2   -1    0    0  501    0  0.00000000000E+00  0.00000000000E+00  0.64123619002E+02  0.64123619002E+02  0.00000000000E+00 0.  1.
         -2   -1    0    0    0  501 -0.00000000000E+00 -0.00000000000E+00 -0.26094608031E+03  0.26094608031E+03  0.00000000000E+00 0. -1.
         23    2    1    2    0    0 -0.54976373856E+02  0.62685279969E+00 -0.29891451925E+02  0.10934528527E+03  0.89666592921E+02 0.  0.
          5    1    1    2  502    0  0.40306029421E+02 -0.58434121702E+02 -0.12093583003E+03  0.14029280085E+03  0.41800000000E+01 0. -1.
         -5    1    1    2    0  502  0.14670344435E+02  0.57807268902E+02 -0.45995179351E+02  0.75431613183E+02  0.41800000000E+01 0. -1.
        -11    1    3    3    0    0 -0.28461742698E+02  0.16158124798E+01 -0.61673614334E+02  0.67943479102E+02  0.00000000000E+00 0. -1.
         11    1    3    3    0    0 -0.26514631158E+02 -0.98895968016E+00  0.31782162409E+02  0.41401806170E+02  0.00000000000E+00 0.  1.
</event>
<event>
 7    1  0.4096326E-006  0.1606558E+03  0.7561462E-02  0.1187958E+00
         -2   -1    0    0    0  501 -0.00000000000E+00  0.00000000000E+00  0.25382327021E+03  0.25382327021E+03  0.00000000000E+00 0.  1.
          2   -1    0    0  501    0  0.00000000000E+00 -0.00000000000E+00 -0.11831193011E+03  0.11831193011E+03  0.00000000000E+00 0. -1.
         23    2    1    2    0    0  0.12089733644E+03  0.59718036105E+02  0.73825034461E+02  0.17813756980E+03  0.90002490329E+02 0.  0.
          5    1    1    2  502    0 -0.31876082436E+02 -0.85343302673E+02  0.30891657215E+02  0.96287750146E+02  0.41800000000E+01 0.  1.
         -5    1    1    2    0  502 -0.89021254003E+02  0.25625266568E+02  0.30794648430E+02  0.97709880374E+02  0.41800000000E+01 0.  1.
        -11    1    3    3    0    0  0.10483862560E+03  0.40623789756E+02  0.93604883548E+02  0.14629868056E+03  0.00000000000E+00 0. -1.
         11    1    3    3    0    0  0.16058710843E+02  0.19094246350E+02 -0.19779849087E+02  0.31838889231E+02  0.00000000000E+00 0.  1.
</event>
<event>
 7    1  0.4096326E-006  0.1598950E+03  0.7561462E-02  0.1188815E+00
         -2   -1    0    0    0  501 -0.00000000000E+00  0.00000000000E+00  0.86659456495E+02  0.86659456495E+02  0.00000000000E+00 0.  1.
          2   -1    0    0  501    0  0.00000000000E+00 -0.00000000000E+00 -0.36604922802E+03  0.36604922802E+03  0.00000000000E+00 0. -1.
         23    2    1    2    0    0  0.13711105714E+03  0.27224927672E+00 -0.17319260325E+03  0.23887579332E+03  0.90920023667E+02 0.  0.
          5    1    1    2  502    0 -0.14718190908E+03  0.14130543259E+01 -0.12425651927E+03  0.19266983693E+03  0.41800000000E+01 0. -1.
         -5    1    1    2    0  502  0.10070851936E+02 -0.16853036027E+01  0.18059351002E+02  0.21163054259E+02  0.41800000000E+01 0. -1.
        -11    1    3    3    0    0  0.83583509363E+02  0.42089771334E+02 -0.77394545473E+02  0.12143997512E+03  0.00000000000E+00 0.  1.
         11    1    3    3    0    0  0.53527547778E+02 -0.41817522057E+02 -0.95798057779E+02  0.11743581820E+03  0.00000000000E+00 0. -1.
</event>
<event>
 7    1  0.4096326E-006  0.9140129E+02  0.7561462E-02  0.1299493E+00
         -2   -1    0    0    0  501 -0.00000000000E+00  0.00000000000E+00  0.11924100953E+03  0.11924100953E+03  0.00000000000E+00 0.  1.
          2   -1    0    0  501    0  0.00000000000E+00 -0.00000000000E+00 -0.14844467435E+03  0.14844467435E+03  0.00000000000E+00 0. -1.
         23    2    1    2    0    0  0.43860772204E+02 -0.61975607938E+02 -0.29022505245E+02  0.12135829568E+03  0.90115408243E+02 0.  0.
          5    1    1    2  502    0 -0.30167605905E+02  0.35175244208E+02  0.61765940059E+02  0.77329722633E+02  0.41800000000E+01 0.  1.
         -5    1    1    2    0  502 -0.13693166300E+02  0.26800363731E+02 -0.61947099640E+02  0.68997665564E+02  0.41800000000E+01 0.  1.
        -11    1    3    3    0    0  0.55062818767E+02 -0.14263418155E+02 -0.41945230156E+02  0.70673626204E+02  0.00000000000E+00 0.  1.
         11    1    3    3    0    0 -0.11202046562E+02 -0.47712189784E+02  0.12922724911E+02  0.50684669480E+02  0.00000000000E+00 0. -1.
</event>
<event>
 7    1  0.4096326E-006  0.1944701E+03  0.7561462E-02  0.1154490E+00
         -1   -1    0    0    0  501 -0.00000000000E+00  0.00000000000E+00  0.33033349875E+03  0.33033349875E+03  0.00000000000E+00 0.  1.
          1   -1    0    0  501    0  0.00000000000E+00 -0.00000000000E+00 -0.12438029483E+03  0.12438029483E+03  0.00000000000E+00 0. -1.
         23    2    1    2    0    0 -0.16598923487E+03  0.36462330040E+02  0.10307906526E+03  0.21995000013E+03  0.94184824983E+02 0.  0.
          5    1    1    2  502    0  0.17253334314E+03 -0.60195926907E+02  0.10297522669E+03  0.20979197750E+03  0.41800000000E+01 0.  1.
         -5    1    1    2    0  502 -0.65441082668E+01  0.23733596867E+02 -0.10108803264E+00  0.24971815954E+02  0.41800000000E+01 0.  1.
        -11    1    3    3    0    0 -0.57823777971E+02 -0.17357266664E+02 -0.11565413516E+01  0.60383785843E+02  0.00000000000E+00 0. -1.
         11    1    3    3    0    0 -0.10816545690E+03  0.53819596704E+02  0.10423560661E+03  0.15956621429E+03  0.00000000000E+00 0.  1.
</event>
<event>
 7    1  0.4096326E-006  0.1620111E+03  0.7561462E-02  0.1186445E+00
         -2   -1    0    0    0  501 -0.00000000000E+00  0.00000000000E+00  0.55596445802E+02  0.55596445802E+02  0.00000000000E+00 0. -1.
          2   -1    0    0  501    0  0.00000000000E+00 -0.00000000000E+00 -0.49832654928E+03  0.49832654928E+03  0.00000000000E+00 0.  1.
         23    2    1    2    0    0  0.87153172116E+02  0.86975613221E+02 -0.25180497585E+03  0.29457501923E+03  0.90599466792E+02 0.  0.
          5    1    1    2  502    0  0.19191457182E+02  0.14436473322E+02 -0.10305846483E+02  0.26465197193E+02  0.41800000000E+01 0. -1.
         -5    1    1    2    0  502 -0.10634462930E+03 -0.10141208654E+03 -0.18061928115E+03  0.23288277867E+03  0.41800000000E+01 0. -1.
        -11    1    3    3    0    0  0.10623160432E+03  0.71223654431E+02 -0.20478692385E+03  0.24144491481E+03  0.00000000000E+00 0. -1.
         11    1    3    3    0    0 -0.19078432207E+02  0.15751958791E+02 -0.47018052000E+02  0.53130104414E+02  0.00000000000E+00 0.  1.
</event>
<event>
 7    1  0.4096326E-006  0.7732251E+02  0.7561462E-02  0.1336826E+00
          2   -1    0    0  501    0  0.00000000000E+00  0.00000000000E+00  0.87792531629E+03  0.87792531629E+03  0.00000000000E+00 0. -1.
         -2   -1    0    0    0  501 -0.00000000000E+00 -0.00000000000E+00 -0.13680501501E+02  0.13680501501E+02  0.00000000000E+00 0.  1.
         23    2    1    2    0    0 -0.75379281096E+01  0.10946185678E+02  0.41630450240E+03  0.42633721884E+03  0.90979921452E+02 0.  0.
          5    1    1    2  502    0  0.91725007657E+01 -0.36738943724E+02  0.35737728015E+02  0.52235451179E+02  0.41800000000E+01 0.  1.
         -5    1    1    2    0  502 -0.16345726561E+01  0.25792758046E+02  0.41220258437E+03  0.41303314777E+03  0.41800000000E+01 0.  1.
        -11    1    3    3    0    0  0.22058176747E+01 -0.39211069725E+02  0.22084048747E+03  0.22430536001E+03  0.00000000000E+00 0.  1.
         11    1    3    3    0    0 -0.97437457844E+01  0.50157255403E+02  0.19546401493E+03  0.20203185883E+03  0.00000000000E+00 0. -1.
</event>
<event>
 7    1  0.4096326E-006  0.8855642E+02  0.7561462E-02  0.1306386E+00
         -2   -1    0    0    0  501 -0.00000000000E+00  0.00000000000E+00  0.72625134462E+02  0.72625134462E+02  0.00000000000E+00 0.  1.
          2   -1    0    0  501    0  0.00000000000E+00 -0.00000000000E+00 -0.17187902723E+03  0.17187902723E+03  0.00000000000E+00 0. -1.
         23    2    1    2    0    0 -0.23186895791E+02  0.88741707030E+01 -0.57308660141E+02  0.11025351541E+03  0.90857977587E+02 0.  0.
          5    1    1    2  502    0  0.53569528195E+02 -0.51820998477E+02 -0.27273618689E+02  0.79475989523E+02  0.41800000000E+01 0. -1.
         -5    1    1    2    0  502 -0.30382632404E+02  0.42946827774E+02 -0.14671613939E+02  0.54774656761E+02  0.41800000000E+01 0. -1.
        -11    1    3    3    0    0 -0.25889179056E+02 -0.12075371949E+02 -0.76533822777E+02  0.81691433019E+02  0.00000000000E+00 0. -1.
         11    1    3    3    0    0  0.27022832648E+01  0.20949542652E+02  0.19225162635E+02  0.28562082392E+02  0.00000000000E+00 0.  1.
</event>
<event>
 7    1  0.4096326E-006  0.1310720E+03  0.7561462E-02  0.1225874E+00
          1   -1    0    0  501    0  0.00000000000E+00  0.00000000000E+00  0.31770000683E+03  0.31770000683E+03  0.00000000000E+00 0. -1.
         -1   -1    0    0    0  501 -0.00000000000E+00 -0.00000000000E+00 -0.88941879677E+02  0.88941879677E+02  0.00000000000E+00 0.  1.
         23    2    1    2    0    0 -0.97908097555E+02 -0.45295768647E+02  0.19027910644E+03  0.23703653216E+03  0.91337161136E+02 0.  0.
          5    1    1    2  502    0  0.78049713395E+02  0.79207320450E+02 -0.43045480674E+01  0.11136228674E+03  0.41800000000E+01 0.  1.
         -5    1    1    2    0  502  0.19858384159E+02 -0.33911551803E+02  0.42783568775E+02  0.58243067607E+02  0.41800000000E+01 0.  1.
        -11    1    3    3    0    0 -0.44548442902E+02 -0.35791876677E+02  0.23706062246E+02  0.61867597240E+02  0.00000000000E+00 0.  1.
         11    1    3    3    0    0 -0.53359654652E+02 -0.95038919708E+01  0.16657304419E+03  0.17516893492E+03  0.00000000000E+00 0. -1.
</event>
<event>
 7    1  0.4096326E-006  0.6296975E+02  0.7561462E-02  0.1385775E+00
         -2   -1    0    0    0  501 -0.00000000000E+00  0.00000000000E+00  0.39628223818E+03  0.39628223818E+03  0.00000000000E+00 0.  1.
          2   -1    0    0  501    0  0.00000000000E+00 -0.00000000000E+00 -0.36507489911E+02  0.36507489911E+02  0.00000000000E+00 0. -1.
         23    2    1    2    0    0 -0.36422092360E+02 -0.23086601926E+02  0.10778963298E+03  0.14818402845E+03  0.92088768641E+02 0.  0.
          5    1    1    2  502    0  0.36411061506E+02  0.60212355993E+01  0.55604217161E+01  0.37555443917E+02  0.41800000000E+01 0. -1.
         -5    1    1    2    0  502  0.11030853651E-01  0.17065366327E+02  0.24642469358E+03  0.24705025573E+03  0.41800000000E+01 0. -1.
        -11    1    3    3    0    0 -0.50930786256E+02 -0.10458531837E+02  0.11611552248E+03  0.12722476346E+03  0.00000000000E+00 0.  1.
         11    1    3    3    0    0  0.14508693897E+02 -0.12628070089E+02 -0.83258895043E+01  0.20959264987E+02  0.00000000000E+00 0. -1.
</event>
<event>
 7    1  0.4096326E-006  0.1716235E+03  0.7561462E-02  0.1176165E+00
         -1   -1    0    0    0  501 -0.00000000000E+00  0.00000000000E+00  0.46051908756E+02  0.46051908756E+02  0.00000000000E+00 0.  1.
          1   -1    0    0  501    0  0.00000000000E+00 -0.00000000000E+00 -0.72464674782E+03  0.72464674782E+03  0.00000000000E+00 0. -1.
         23    2    1    2    0    0 -0.70502036486E+01  0.14595829748E+03 -0.29719447608E+03  0.34353819731E+03  0.91325825595E+02 0.  0.
          5    1    1    2  502    0  0.54338340819E+02 -0.12078718414E+03 -0.31503282915E+03  0.34176798413E+03  0.41800000000E+01 0. -1.
         -5    1    1    2    0  502 -0.47288137171E+02 -0.25171113340E+02 -0.66367533834E+02  0.85392475143E+02  0.41800000000E+01 0. -1.
        -11    1    3    3    0    0 -0.26617875313E+02  0.12698689120E+03 -0.17220915018E+03  0.21561580004E+03  0.00000000000E+00 0.  1.
         11    1    3    3    0    0  0.19567671664E+02  0.18971406278E+02 -0.12498532591E+03  0.12792239727E+03  0.00000000000E+00 0. -1.
</event>
<event>
 7    1  0.4096326E-006  0.1196391E+03  0.7561462E-02  0.1243694E+00
          1   -1    0    0  501    0  0.00000000000E+00  0.00000000000E+00  0.46827646088E+02  0.46827646088E+02  0.00000000000E+00 0. -1.
         -1   -1    0    0    0  501 -0.00000000000E+00 -0.00000000000E+00 -0.32370383043E+03  0.32370383043E+03  0.00000000000E+00 0.  1.
         23    2    1    2    0    0 -0.39579703406E+02  0.37767122563E+02 -0.93012867831E+02  0.14152045915E+03  0.91562756123E+02 0.  0.
          5    1    1    2  502    0  0.85145772901E+02 -0.21145165335E+02 -0.11991680738E+03  0.14864196497E+03  0.41800000000E+01 0.  1.
         -5    1    1    2    0  502 -0.45566069495E+02 -0.16621957228E+02 -0.63946509134E+02  0.80369052388E+02  0.41800000000E+01 0.  1.
        -11    1    3    3    0    0 -0.37779929127E+02  0.65155374373E+02 -0.83553552501E+02  0.11248885274E+03  0.00000000000E+00 0.  1.
         11    1    3    3    0    0 -0.17997742786E+01 -0.27388251810E+02 -0.94593153302E+01  0.29031606418E+02  0.00000000000E+00 0. -1.
</event>
<event>
 7    1  0.4096326E-006  0.1346863E+03  0.7561462E-02  0.1220663E+00
         -1   -1    0    0    0  501 -0.00000000000E+00  0.00000000000E+00  0.98742809262E+03  0.98742809262E+03  0.00000000000E+00 0.  1.
          1   -1    0    0  501    0  0.00000000000E+00 -0.00000000000E+00 -0.40847220694E+02  0.40847220694E+02  0.00000000000E+00 0. -1.
         23    2    1    2    0    0 -0.97601764630E+02 -0.54137155252E+02  0.18597906124E+03  0.24941802200E+03  0.12314301620E+03 0.  0.
          5    1    1    2  502    0 -0.73293743358E+01  0.43899127672E+02  0.41780458862E+03  0.42018924286E+03  0.41800000000E+01 0.  1.
         -5    1    1    2    0  502  0.10493113897E+03  0.10238027579E+02  0.34279722206E+03  0.35866804846E+03  0.41800000000E+01 0.  1.
        -11    1    3    3    0    0 -0.74681425575E+02 -0.18755010169E+02  0.21964060074E+02  0.80071753242E+02  0.00000000000E+00 0. -1.
         11    1    3    3    0    0 -0.22920339055E+02 -0.35382145082E+02  0.16401500117E+03  0.16934626875E+03  0.00000000000E+00 0.  1.
</event>
<event>
 7    1  0.4096326E-006  0.9405305E+02  0.7561462E-02  0.1293323E+00
         -1   -1    0    0    0  501 -0.00000000000E+00  0.00000000000E+00  0.24479564589E+02  0.24479564589E+02  0.00000000000E+00 0. -1.
          1   -1    0    0  501    0  0.00000000000E+00 -0.00000000000E+00 -0.66281034957E+03  0.66281034957E+03  0.00000000000E+00 0.  1.
         23    2    1    2    0    0 -0.22173800464E+02 -0.61685198788E+02 -0.32064089264E+03  0.33962449956E+03  0.90760550310E+02 0.  0.
          5    1    1    2  502    0  0.19458099891E+02 -0.13618182375E+02 -0.23293690774E+03  0.23418186934E+03  0.41800000000E+01 0. -1.
         -5    1    1    2    0  502  0.27157005728E+01  0.75303381164E+02 -0.84752984597E+02  0.11348354525E+03  0.41800000000E+01 0. -1.
        -11    1    3    3    0    0 -0.30657157042E+02 -0.70138970206E+02 -0.31835971249E+03  0.32743280678E+03  0.00000000000E+00 0.  1.
         11    1    3    3    0    0  0.84833565780E+01  0.84537714173E+01 -0.22811801513E+01  0.12191692782E+02  0.00000000000E+00 0. -1.
</event>
<event>
 7    1  0.4096326E-006  0.1322045E+03  0.7561462E-02  0.1224221E+00
         -2   -1    0    0    0  501 -0.00000000000E+00  0.00000000000E+00  0.42332983018E+03  0.42332983018E+03  0.00000000000E+00 0. -1.
          2   -1    0    0  501    0  0.00000000000E+00 -0.00000000000E+00 -0.61032606570E+02  0.61032606570E+02  0.00000000000E+00 0.  1.
         23    2    1    2    0    0 -0.10337759378E+03  0.30472690320E+02  0.93479759565E+02  0.16887485897E+03  0.90358955231E+02 0.  0.
          5    1    1    2  502    0  0.87914782411E+02 -0.62543527321E+02  0.25526784266E+03  0.27716393285E+03  0.41800000000E+01 0. -1.
         -5    1    1    2    0  502  0.15462811373E+02  0.32070837001E+02  0.13549621385E+02  0.38323644936E+02  0.41800000000E+01 0. -1.
        -11    1    3    3    0    0 -0.83483836516E+02  0.46030281233E+02  0.29031747819E+02  0.99655306589E+02  0.00000000000E+00 0.  1.
         11    1    3    3    0    0 -0.19893757267E+02 -0.15557590913E+02  0.64448011746E+02  0.69219552377E+02  0.00000000000E+00 0. -1.
</event>
<event>
 7    1  0.4096326E-006  0.1107717E+03  0.7561462E-02  0.1259147E+00
         -4   -1    0    0    0  501 -0.00000000000E+00  0.00000000000E+00  0.41768828659E+03  0.41768828659E+03  0.00000000000E+00 0.  1.
          4   -1    0    0  501    0  0.00000000000E+00 -0.00000000000E+00 -0.42378786202E+02  0.42378786202E+02  0.00000000000E+00 0. -1.
         23    2    1    2    0    0  0.14709670223E+02  0.75755258491E+02  0.20382455561E+03  0.23421256891E+03  0.85766219353E+02 0.  0.
          5    1    1    2  502    0 -0.41357976799E+02  0.85473441409E+00  0.12617924968E+03  0.13285288204E+03  0.41800000000E+01 0. -1.
         -5    1    1    2    0  502  0.26648306576E+02 -0.76609992905E+02  0.45305695102E+02  0.93001621840E+02  0.41800000000E+01 0. -1.
        -11    1    3    3    0    0 -0.24124692899E+02  0.34389048514E+02  0.15084397376E+03  0.15658388131E+03  0.00000000000E+00 0.  1.
         11    1    3    3    0    0  0.38834363122E+02  0.41366209977E+02  0.52980581846E+02  0.77628687608E+02  0.00000000000E+00 0. -1.
</event>
<event>
 7    1  0.4687284E-006  0.1525696E+03  0.7561462E-02  0.1197351E+00
         -2   -1    0    0    0  501 -0.00000000000E+00  0.00000000000E+00  0.18167398085E+02  0.18167398085E+02  0.00000000000E+00 0. -1.
          2   -1    0    0  501    0  0.00000000000E+00 -0.00000000000E+00 -0.15351777722E+04  0.15351777722E+04  0.00000000000E+00 0.  1.
         23    2    1    2    0    0 -0.10408368253E+03  0.69377624395E+02 -0.79925769464E+03  0.81411331709E+03  0.91219312017E+02 0.  0.
          5    1    1    2  502    0  0.76748309654E+01  0.18150242915E+02 -0.32110283560E+03  0.32173411037E+03  0.41800000000E+01 0.  1.
         -5    1    1    2    0  502  0.96408851560E+02 -0.87527867310E+02 -0.39664984387E+03  0.41749774282E+03  0.41800000000E+01 0.  1.
        -11    1    3    3    0    0 -0.17750325812E+02  0.65965989553E+02 -0.36761665517E+03  0.37390987016E+03  0.00000000000E+00 0.  1.
         11    1    3    3    0    0 -0.86333356713E+02  0.34116348418E+01 -0.43164103947E+03  0.44020344693E+03  0.00000000000E+00 0. -1.
</event>
<event>
 7    1  0.4096326E-006  0.2144643E+03  0.7561462E-02  0.1138079E+00
          2   -1    0    0  501    0  0.00000000000E+00  0.00000000000E+00  0.52870548943E+03  0.52870548943E+03  0.00000000000E+00 0. -1.
         -2   -1    0    0    0  501 -0.00000000000E+00 -0.00000000000E+00 -0.95291626493E+02  0.95291626493E+02  0.00000000000E+00 0.  1.
         23    2    1    2    0    0 -0.15561595463E+03 -0.11931149241E+03  0.20526708987E+03  0.29819190603E+03  0.91281307402E+02 0.  0.
          5    1    1    2  502    0  0.13733412816E+03  0.29907849028E+02  0.12650313646E+03  0.18914454295E+03  0.41800000000E+01 0. -1.
         -5    1    1    2    0  502  0.18281826468E+02  0.89403643381E+02  0.10164363660E+03  0.13666066695E+03  0.41800000000E+01 0. -1.
        -11    1    3    3    0    0 -0.37650202701E+02 -0.39295513435E+02  0.82900215317E+01  0.55049065356E+02  0.00000000000E+00 0.  1.
         11    1    3    3    0    0 -0.11796575193E+03 -0.80015978974E+02  0.19697706834E+03  0.24314284067E+03  0.00000000000E+00 0. -1.
</event>
<event>
 7    1  0.4096326E-006  0.1261276E+03  0.7561462E-02  0.1233317E+00
         -1   -1    0    0    0  501 -0.00000000000E+00  0.00000000000E+00  0.11456013246E+02  0.11456013246E+02  0.00000000000E+00 0.  1.
          1   -1    0    0  501    0  0.00000000000E+00 -0.00000000000E+00 -0.17450328009E+04  0.17450328009E+04  0.00000000000E+00 0. -1.
         23    2    1    2    0    0  0.39926709569E+02 -0.75458672770E+02 -0.63448485024E+03  0.64701210307E+03  0.93624157652E+02 0.  0.
          5    1    1    2  502    0  0.17000976507E+02 -0.11960115765E+02 -0.55809533731E+03  0.55849794583E+03  0.41800000000E+01 0. -1.
         -5    1    1    2    0  502 -0.56927686077E+02  0.87418788535E+02 -0.54099660009E+03  0.55097876524E+03  0.41800000000E+01 0. -1.
        -11    1    3    3    0    0  0.20631717228E+02  0.20312418726E+02 -0.13720886009E+03  0.14023028702E+03  0.00000000000E+00 0.  1.
         11    1    3    3    0    0  0.19294992341E+02 -0.95771091495E+02 -0.49727599015E+03  0.50678181605E+03  0.00000000000E+00 0. -1.
</event>
<event>
 7    1  0.4096326E-006  0.1736501E+03  0.7561462E-02  0.1174094E+00
          1   -1    0    0  501    0  0.00000000000E+00  0.00000000000E+00  0.13523751264E+03  0.13523751264E+03  0.00000000000E+00 0. -1.
         -1   -1    0    0    0  501 -0.00000000000E+00 -0.00000000000E+00 -0.28631772485E+03  0.28631772485E+03  0.00000000000E+00 0.  1.
         23    2    1    2    0    0 -0.14073622642E+03 -0.65927439572E+02 -0.15558911343E+02  0.18041652455E+03  0.90304650448E+02 0.  0.
          5    1    1    2  502    0  0.35005595526E+02  0.75930257610E+02 -0.24012904877E+02  0.87091260983E+02  0.41800000000E+01 0.  1.
         -5    1    1    2    0  502  0.10573063090E+03 -0.10002818038E+02 -0.11150839599E+03  0.15404745196E+03  0.41800000000E+01 0.  1.
        -11    1    3    3    0    0 -0.81163891975E+01 -0.11199972125E+02 -0.33105997434E+02  0.35879272781E+02  0.00000000000E+00 0.  1.
         11    1    3    3    0    0 -0.13261983723E+03 -0.54727467447E+02  0.17547086091E+02  0.14453725177E+03  0.00000000000E+00 0. -1.
</event>
<event>
 7    1  0.4096326E-006  0.8321173E+02  0.7561462E-02  0.1320176E+00
         -1   -1    0    0    0  501 -0.00000000000E+00  0.00000000000E+00  0.20089565774E+03  0.20089565774E+03  0.00000000000E+00 0.  1.
          1   -1    0    0  501    0  0.00000000000E+00 -0.00000000000E+00 -0.68615242192E+02  0.68615242192E+02  0.00000000000E+00 0. -1.
         23    2    1    2    0    0  0.26793209241E+02 -0.32496150421E+02  0.70195814515E+02  0.12364696318E+03  0.92667379781E+02 0.  0.
          5    1    1    2  502    0 -0.69631929725E+02  0.40034627760E+02  0.15346305390E+02  0.81880147449E+02  0.41800000000E+01 0.  1.
         -5    1    1    2    0  502  0.42838720484E+02 -0.75384773387E+01  0.46738295639E+02  0.63983789295E+02  0.41800000000E+01 0.  1.
        -11    1    3    3    0    0  0.11839099339E+02 -0.11377205838E+02  0.89732838891E+02  0.91222735441E+02  0.00000000000E+00 0.  1.
         11    1    3    3    0    0  0.14954109902E+02 -0.21118944583E+02 -0.19537024376E+02  0.32424227743E+02  0.00000000000E+00 0. -1.
</event>
<event>
 7    1  0.4096326E-006  0.8990181E+02  0.7561462E-02  0.1303090E+00
         -2   -1    0    0    0  501 -0.00000000000E+00  0.00000000000E+00  0.38693529448E+02  0.38693529448E+02  0.00000000000E+00 0.  1.
          2   -1    0    0  501    0  0.00000000000E+00 -0.00000000000E+00 -0.33518088824E+03  0.33518088824E+03  0.00000000000E+00 0. -1.
         23    2    1    2    0    0  0.28954757499E+02 -0.20769268708E+02 -0.11941878328E+03  0.15416972395E+03  0.90761872374E+02 0.  0.
          5    1    1    2  502    0  0.39559149765E+02 -0.14759840860E+02 -0.10805241452E+03  0.11608434828E+03  0.41800000000E+01 0.  1.
         -5    1    1    2    0  502 -0.68513907264E+02  0.35529109567E+02 -0.69016160993E+02  0.10362034546E+03  0.41800000000E+01 0.  1.
        -11    1    3    3    0    0  0.21488208976E+02 -0.36678084458E+02 -0.12781110032E+03  0.13469484909E+03  0.00000000000E+00 0. -1.
         11    1    3    3    0    0  0.74665485231E+01  0.15908815751E+02  0.83923170430E+01  0.19474874859E+02  0.00000000000E+00 0.  1.
</event>
<event>
 7    1  0.4096326E-006  0.1287137E+03  0.7561462E-02  0.1229377E+00
          1   -1    0    0  501    0  0.00000000000E+00  0.00000000000E+00  0.99954916073E+02  0.99954916073E+02  0.00000000000E+00 0. -1.
         -1   -1    0    0    0  501 -0.00000000000E+00 -0.00000000000E+00 -0.19644184953E+03  0.19644184953E+03  0.00000000000E+00 0.  1.
         23    2    1    2    0    0 -0.77928723052E+02  0.44111209915E+02 -0.48173999575E+02  0.13519911840E+03  0.89103213549E+02 0.  0.
          5    1    1    2  502    0 -0.12794250356E+02  0.26427550917E+02  0.11216478734E+02  0.31707886792E+02  0.41800000000E+01 0.  1.
         -5    1    1    2    0  502  0.90722973408E+02 -0.70538760832E+02 -0.59529412611E+02  0.12948976040E+03  0.41800000000E+01 0.  1.
        -11    1    3    3    0    0 -0.37297346129E+02  0.58747838757E+02 -0.58367791372E+02  0.90825104770E+02  0.00000000000E+00 0.  1.
         11    1    3    3    0    0 -0.40631376924E+02 -0.14636628841E+02  0.10193791797E+02  0.44374013631E+02  0.00000000000E+00 0. -1.
</event>
<event>
 7    1  0.4096326E-006  0.2870804E+03  0.7561462E-02  0.1091883E+00
         -2   -1    0    0    0  501 -0.00000000000E+00  0.00000000000E+00  0.31474191503E+03  0.31474191503E+03  0.00000000000E+00 0.  1.
          2   -1    0    0  501    0  0.00000000000E+00 -0.00000000000E+00 -0.48469728396E+03  0.48469728396E+03  0.00000000000E+00 0. -1.
         23    2    1    2    0    0  0.12951863672E+03  0.24440722076E+03 -0.34296833383E+03  0.45002025404E+03  0.91547715530E+02 0.  0.
          5    1    1    2  502    0 -0.13175418904E+03 -0.16708488292E+03  0.77629171788E+02  0.22653980917E+03  0.41800000000E+01 0. -1.
         -5    1    1    2    0  502  0.22355523190E+01 -0.77322337838E+02  0.95383793103E+02  0.12287913578E+03  0.41800000000E+01 0. -1.
        -11    1    3    3    0    0  0.12247611882E+03  0.17216400294E+03 -0.20643568860E+03  0.29539217511E+03  0.00000000000E+00 0.  1.
         11    1    3    3    0    0  0.70425178980E+01  0.72243217820E+02 -0.13653264523E+03  0.15462807893E+03  0.00000000000E+00 0. -1.
</event>
<event>
 7    1  0.4096326E-006  0.1136989E+03  0.7561462E-02  0.1253870E+00
         -1   -1    0    0    0  501 -0.00000000000E+00  0.00000000000E+00  0.28074850544E+02  0.28074850544E+02  0.00000000000E+00 0.  1.
          1   -1    0    0  501    0  0.00000000000E+00 -0.00000000000E+00 -0.64607354829E+03  0.64607354829E+03  0.00000000000E+00 0. -1.
         23    2    1    2    0    0 -0.43812264622E+02 -0.27627444577E+02 -0.43052035653E+03  0.44289395648E+03  0.90135947776E+02 0.  0.
          5    1    1    2  502    0  0.44514776847E+02  0.70638483364E+02 -0.81281488438E+02  0.11659980040E+03  0.41800000000E+01 0.  1.
         -5    1    1    2    0  502 -0.70251222570E+00 -0.43011038787E+02 -0.10619685278E+03  0.11465464196E+03  0.41800000000E+01 0.  1.
        -11    1    3    3    0    0 -0.11581821261E+02  0.31321599451E+02 -0.94606866230E+02  0.10032766475E+03  0.00000000000E+00 0.  1.
         11    1    3    3    0    0 -0.32230443361E+02 -0.58949044028E+02 -0.33591349030E+03  0.34256629174E+03  0.00000000000E+00 0. -1.
</event>
<event>
 7    1  0.4096326E-006  0.1351526E+03  0.7561462E-02  0.1220004E+00
          2   -1    0    0  501    0  0.00000000000E+00  0.00000000000E+00  0.23724649604E+03  0.23724649604E+03  0.00000000000E+00 0. -1.
         -2   -1    0    0    0  501 -0.00000000000E+00 -0.00000000000E+00 -0.90244005621E+02  0.90244005621E+02  0.00000000000E+00 0.  1.
         23    2    1    2    0    0  0.57270428442E+02  0.73423912147E+02  0.82756418201E+02  0.15883651791E+03  0.98536499928E+02 0.  0.
          5    1    1    2  502    0 -0.83717478507E+02 -0.88222476458E+02  0.65174542558E+02  0.13804714759E+03  0.41800000000E+01 0. -1.
         -5    1    1    2    0  502  0.26447050065E+02  0.14798564311E+02 -0.92847034010E+00  0.30606836164E+02  0.41800000000E+01 0. -1.
        -11    1    3    3    0    0  0.21103497209E+02 -0.12685422870E+02  0.56789418391E+02  0.61897621837E+02  0.00000000000E+00 0. -1.
         11    1    3    3    0    0  0.36166931233E+02  0.86109335018E+02  0.25966999810E+02  0.96938896069E+02  0.00000000000E+00 0.  1.
</event>
<event>
 7    1  0.4096326E-006  0.1614600E+03  0.7561462E-02  0.1187058E+00
          2   -1    0    0  501    0  0.00000000000E+00  0.00000000000E+00  0.33687423897E+03  0.33687423897E+03  0.00000000000E+00 0. -1.
         -2   -1    0    0    0  501 -0.00000000000E+00 -0.00000000000E+00 -0.10118913955E+03  0.10118913955E+03  0.00000000000E+00 0.  1.
         23    2    1    2    0    0  0.12395624918E+03 -0.77043805498E+02  0.15069545893E+03  0.22789286328E+03  0.89023233549E+02 0.  0.
          5    1    1    2  502    0 -0.75948939082E+02  0.45581883564E+01 -0.14936498134E+02  0.77650433388E+02  0.41800000000E+01 0.  1.
         -5    1    1    2    0  502 -0.48007310102E+02  0.72485617141E+02  0.99926138623E+02  0.13252008186E+03  0.41800000000E+01 0.  1.
        -11    1    3    3    0    0  0.54127033742E+02  0.20545679832E+01  0.15387393149E+02  0.56309225703E+02  0.00000000000E+00 0.  1.
         11    1    3    3    0    0  0.69829215441E+02 -0.79098373481E+02  0.13530806578E+03  0.17158363757E+03  0.00000000000E+00 0. -1.
</event>
<event>
 7    1  0.4096326E-006  0.1087502E+03  0.7561462E-02  0.1262902E+00
         -1   -1    0    0    0  501 -0.00000000000E+00  0.00000000000E+00  0.12891182364E+03  0.12891182364E+03  0.00000000000E+00 0.  1.
          1   -1    0    0  501    0  0.00000000000E+00 -0.00000000000E+00 -0.10131488411E+03  0.10131488411E+03  0.00000000000E+00 0. -1.
         23    2    1    2    0    0 -0.72149925648E+01  0.31229179296E+02 -0.11220110427E+02  0.95389211351E+02  0.89139738652E+02 0.  0.
          5    1    1    2  502    0 -0.37628995074E+02 -0.58951472019E+02  0.42291850103E+02  0.81836973970E+02  0.41800000000E+01 0.  1.
         -5    1    1    2    0  502  0.44843987639E+02  0.27722292723E+02 -0.34748001470E+01  0.53000522424E+02  0.41800000000E+01 0.  1.
        -11    1    3    3    0    0 -0.21969236166E+02 -0.26812998232E+02 -0.13251702239E+01  0.34689195552E+02  0.00000000000E+00 0.  1.
         11    1    3    3    0    0  0.14754243601E+02  0.58042177528E+02 -0.98949402033E+01  0.60700015799E+02  0.00000000000E+00 0. -1.
</event>
<event>
 7    1  0.4096326E-006  0.1459003E+03  0.7561462E-02  0.1205603E+00
          2   -1    0    0  501    0  0.00000000000E+00  0.00000000000E+00  0.10076481691E+04  0.10076481691E+04  0.00000000000E+00 0. -1.
         -2   -1    0    0    0  501 -0.00000000000E+00 -0.00000000000E+00 -0.23444188747E+02  0.23444188747E+02  0.00000000000E+00 0.  1.
         23    2    1    2    0    0  0.36430266552E+02  0.10133168677E+03  0.52495545960E+03  0.54308436693E+03  0.88131265602E+02 0.  0.
          5    1    1    2  502    0  0.32622313802E+02 -0.30812359260E+01  0.19425085422E+03  0.19703952938E+03  0.41800000000E+01 0. -1.
         -5    1    1    2    0  502 -0.69052580354E+02 -0.98250450841E+02  0.26499766658E+03  0.29096846158E+03  0.41800000000E+01 0. -1.
        -11    1    3    3    0    0 -0.29382593478E+01  0.99132237956E+02  0.35309030510E+03  0.36675413771E+03  0.00000000000E+00 0.  1.
         11    1    3    3    0    0  0.39368525900E+02  0.21994488116E+01  0.17186515450E+03  0.17633022922E+03  0.00000000000E+00 0. -1.
</event>
<event>
 7    1  0.4096326E-006  0.9587171E+02  0.7561462E-02  0.1289225E+00
          2   -1    0    0  501    0  0.00000000000E+00  0.00000000000E+00  0.29377087952E+03  0.29377087952E+03  0.00000000000E+00 0.  1.
         -2   -1    0    0    0  501 -0.00000000000E+00 -0.00000000000E+00 -0.80251961193E+02  0.80251961193E+02  0.00000000000E+00 0. -1.
         23    2    1    2    0    0 -0.25492265123E+02  0.36162430300E+02  0.21789503874E+03  0.24126434500E+03  0.93662475483E+02 0.  0.
          5    1    1    2  502    0 -0.12001739073E+02  0.25093223199E+02  0.39501200502E+02  0.48492564713E+02  0.41800000000E+01 0. -1.
         -5    1    1    2    0  502  0.37494004197E+02 -0.61255653499E+02 -0.43877320917E+02  0.84265930999E+02  0.41800000000E+01 0. -1.
        -11    1    3    3    0    0 -0.49165235678E+02  0.44760248203E+02  0.95884017585E+02  0.11668095409E+03  0.00000000000E+00 0. -1.
         11    1    3    3    0    0  0.23672970555E+02 -0.85978179028E+01  0.12201102115E+03  0.12458339091E+03  0.00000000000E+00 0.  1.
</event>
<event>
 7    1  0.4096326E-006  0.1132413E+03  0.7561462E-02  0.1254683E+00
         -1   -1    0    0    0  501 -0.00000000000E+00  0.00000000000E+00  0.20486529809E+03  0.20486529809E+03  0.00000000000E+00 0.  1.
          1   -1    0    0  501    0  0.00000000000E+00 -0.00000000000E+00 -0.76246348092E+02  0.76246348092E+02  0.00000000000E+00 0. -1.
         23    2    1    2    0    0  0.49603800699E+02 -0.35148519440E+02  0.55899337446E+02  0.12416886069E+03  0.92721165733E+02 0.  0.
          5    1    1    2  502    0 -0.81612190351E+02  0.31264794813E+02  0.12334303487E+02  0.88360876247E+02  0.41800000000E+01 0. -1.
         -5    1    1    2    0  502  0.32008389653E+02  0.38837246270E+01  0.60385309062E+02  0.68581909245E+02  0.41800000000E+01 0. -1.
        -11    1    3    3    0    0 -0.17788064199E+02 -0.34798184822E+02  0.37839677294E+02  0.54398254315E+02  0.00000000000E+00 0.  1.
         11    1    3    3    0    0  0.67391864898E+02 -0.35033461824E+00  0.18059660153E+02  0.69770606372E+02  0.00000000000E+00 0. -1.
</event>
<event>
 7    1  0.4096326E-006  0.1344043E+03  0.7561462E-02  0.1221063E+00
          1   -1    0    0  501    0  0.00000000000E+00  0.00000000000E+00  0.47641883494E+02  0.47641883494E+02  0.00000000000E+00 0.  1.
         -1   -1    0    0    0  501 -0.00000000000E+00 -0.00000000000E+00 -0.42862346391E+03  0.42862346391E+03  0.00000000000E+00 0. -1.
         23    2    1    2    0    0 -0.92896528823E+02  0.12713296771E+02 -0.16795839841E+03  0.21203518975E+03  0.89204849171E+02 0.  0.
          5    1    1    2  502    0  0.37468739390E+02 -0.67875975901E+02 -0.96923517589E+02  0.12418814435E+03  0.41800000000E+01 0. -1.
         -5    1    1    2    0  502  0.55427789434E+02  0.55162679129E+02 -0.11609966442E+03  0.14004201330E+03  0.41800000000E+01 0. -1.
        -11    1    3    3    0    0 -0.45169378664E+02  0.37832571345E+02 -0.34945639337E+02  0.68503824215E+02  0.00000000000E+00 0.  1.
         11    1    3    3    0    0 -0.47727150159E+02 -0.25119274574E+02 -0.13301275907E+03  0.14353136554E+03  0.00000000000E+00 0. -1.
</event>
<event>
 7    1  0.4096326E-006  0.1165638E+03  0.7561462E-02  0.1248876E+00
         -3   -1    0    0    0  501 -0.00000000000E+00  0.00000000000E+00  0.48069843661E+02  0.48069843661E+02  0.00000000000E+00 0.  1.
          3   -1    0    0  501    0  0.00000000000E+00 -0.00000000000E+00 -0.37080285356E+03  0.37080285356E+03  0.00000000000E+00 0. -1.
         23    2    1    2    0    0  0.23195776721E+02  0.40074036911E+02 -0.24225959084E+03  0.26309014300E+03  0.91557312621E+02 0.  0.
          5    1    1    2  502    0 -0.74133915924E+02 -0.33142893160E+02 -0.55725606222E+02  0.98575374440E+02  0.41800000000E+01 0.  1.
         -5    1    1    2    0  502  0.50938139202E+02 -0.69311437517E+01 -0.24747812837E+02  0.57207179788E+02  0.41800000000E+01 0.  1.
        -11    1    3    3    0    0 -0.10945062692E+02  0.59809797784E+02 -0.11832812776E+03  0.13303590540E+03  0.00000000000E+00 0.  1.
         11    1    3    3    0    0  0.34140839413E+02 -0.19735760872E+02 -0.12393146308E+03  0.13005423759E+03  0.00000000000E+00 0. -1.
</event>
<event>
 7    1  0.4096326E-006  0.9716503E+02  0.7561462E-02  0.1286373E+00
         -2   -1    0    0    0  501 -0.00000000000E+00  0.00000000000E+00  0.82794292241E+02  0.82794292241E+02  0.00000000000E+00 0.  1.
          2   -1    0    0  501    0  0.00000000000E+00 -0.00000000000E+00 -0.15519112001E+03  0.15519112001E+03  0.00000000000E+00 0. -1.
         23    2    1    2    0    0  0.94728965308E+01  0.16912202470E+02 -0.59358371309E+02  0.11073439001E+03  0.91449059728E+02 0.  0.
          5    1    1    2  502    0  0.28789103358E+02 -0.47217412789E+02  0.29102107541E+02  0.62631474563E+02  0.41800000000E+01 0. -1.
         -5    1    1    2    0  502 -0.38261999889E+02  0.30305210319E+02 -0.42140564001E+02  0.64619547679E+02  0.41800000000E+01 0. -1.
        -11    1    3    3    0    0  0.43216217033E+02  0.31135027122E+02 -0.19788789589E+02  0.56821013032E+02  0.00000000000E+00 0.  1.
         11    1    3    3    0    0 -0.33743320502E+02 -0.14222824652E+02 -0.39569581720E+02  0.53913376977E+02  0.00000000000E+00 0. -1.
</event>
<event>
 7    1  0.4096326E-006  0.1073297E+03  0.7561462E-02  0.1265596E+00
          1   -1    0    0  501    0  0.00000000000E+00  0.00000000000E+00  0.45363174176E+03  0.45363174176E+03  0.00000000000E+00 0. -1.
         -1   -1    0    0    0  501 -0.00000000000E+00 -0.00000000000E+00 -0.28030292331E+02  0.28030292331E+02  0.00000000000E+00 0.  1.
         23    2    1    2    0    0 -0.26679921594E+01 -0.68313910446E+01  0.24310015426E+03  0.26030046487E+03  0.92762389606E+02 0.  0.
          5    1    1    2  502    0 -0.15334820710E+02  0.61707549111E+02  0.68870020143E+02  0.93827130501E+02  0.41800000000E+01 0. -1.
         -5    1    1    2    0  502  0.18002812869E+02 -0.54876158067E+02  0.11363127502E+03  0.12753443872E+03  0.41800000000E+01 0. -1.
        -11    1    3    3    0    0  0.32252267412E+02 -0.35419156743E+02  0.12779527903E+03  0.13647841866E+03  0.00000000000E+00 0.  1.
         11    1    3    3    0    0 -0.34920259572E+02  0.28587765698E+02  0.11530487523E+03  0.12382204621E+03  0.00000000000E+00 0. -1.
</event>
<event>
 7    1  0.4096326E-006  0.1136241E+03  0.7561462E-02  0.1254002E+00
          3   -1    0    0  501    0  0.00000000000E+00  0.00000000000E+00  0.25811710598E+02  0.25811710598E+02  0.00000000000E+00 0. -1.
         -3   -1    0    0    0  501 -0.00000000000E+00 -0.00000000000E+00 -0.57082797216E+03  0.57082797216E+03  0.00000000000E+00 0.  1.
         23    2    1    2    0    0  0.40396528967E+02 -0.10574047655E+02 -0.16278302771E+03  0.19229880141E+03  0.93470984147E+02 0.  0.
          5    1    1    2  502    0 -0.68761263144E+01 -0.56076360971E+02 -0.14767518957E+03  0.15816849683E+03  0.41800000000E+01 0.  1.
         -5    1    1    2    0  502 -0.33520402653E+02  0.66650408626E+02 -0.23455804428E+03  0.24617238452E+03  0.41800000000E+01 0.  1.
        -11    1    3    3    0    0  0.56019701368E+02 -0.35599161510E+02 -0.14029472560E+03  0.15520347056E+03  0.00000000000E+00 0.  1.
         11    1    3    3    0    0 -0.15623172400E+02  0.25025113856E+02 -0.22488302104E+02  0.37095330850E+02  0.00000000000E+00 0. -1.
</event>
<event>
 7    1  0.4096326E-006  0.9998149E+02  0.7561462E-02  0.1280335E+00
          1   -1    0    0  501    0  0.00000000000E+00  0.00000000000E+00  0.27675906928E+03  0.27675906928E+03  0.00000000000E+00 0. -1.
         -1   -1    0    0    0  501 -0.00000000000E+00 -0.00000000000E+00 -0.55413294099E+02  0.55413294099E+02  0.00000000000E+00 0.  1.
         23    2    1    2    0    0 -0.50962268997E+01 -0.57226317769E+02  0.76177083649E+02  0.13212019424E+03  0.91389138733E+02 0.  0.
          5    1    1    2  502    0  0.26598013731E+02  0.84419228772E+02  0.57356787683E+02  0.10555251780E+03  0.41800000000E+01 0.  1.
         -5    1    1    2    0  502 -0.21501786831E+02 -0.27192911002E+02  0.87811903847E+02  0.94499651338E+02  0.41800000000E+01 0.  1.
        -11    1    3    3    0    0 -0.27649177586E+02 -0.26297772626E+02  0.84705499648E+02  0.92903560410E+02  0.00000000000E+00 0. -1.
         11    1    3    3    0    0  0.22552950686E+02 -0.30928545143E+02 -0.85284159996E+01  0.39216633828E+02  0.00000000000E+00 0.  1.
</event>
<event>
 7    1  0.4096326E-006  0.1203497E+03  0.7561462E-02  0.1242521E+00
         -2   -1    0    0    0  501 -0.00000000000E+00  0.00000000000E+00  0.23436167494E+03  0.23436167494E+03  0.00000000000E+00 0.  1.
          2   -1    0    0  501    0  0.00000000000E+00 -0.00000000000E+00 -0.76209299696E+02  0.76209299696E+02  0.00000000000E+00 0. -1.
         23    2    1    2    0    0 -0.49186843592E+02 -0.48418609964E+02  0.40056871664E+02  0.12521580841E+03  0.96492167218E+02 0.  0.
          5    1    1    2  502    0  0.51099655792E+02 -0.32933513133E+02  0.43348552286E+02  0.74782086723E+02  0.41800000000E+01 0. -1.
         -5    1    1    2    0  502 -0.19128122001E+01  0.81352123098E+02  0.74746951292E+02  0.11057307950E+03  0.41800000000E+01 0. -1.
        -11    1    3    3    0    0 -0.47932416756E+02  0.18775855720E+01 -0.15358915344E+02  0.50368027401E+02  0.00000000000E+00 0. -1.
         11    1    3    3    0    0 -0.12544268355E+01 -0.50296195536E+02  0.55415787008E+02  0.74847781008E+02  0.00000000000E+00 0.  1.
</event>
<event>
 7    1  0.4096326E-006  0.1203755E+03  0.7561462E-02  0.1242479E+00
          1   -1    0    0  501    0  0.00000000000E+00  0.00000000000E+00  0.45858608527E+03  0.45858608527E+03  0.00000000000E+00 0. -1.
         -1   -1    0    0    0  501 -0.00000000000E+00 -0.00000000000E+00 -0.70017571547E+02  0.70017571547E+02  0.00000000000E+00 0.  1.
         23    2    1    2    0    0  0.32875968322E+01  0.92689459469E+02  0.34158149602E+03  0.36594618403E+03  0.92933024253E+02 0.  0.
          5    1    1    2  502    0 -0.29602720995E+02 -0.35426822144E+02 -0.35770823174E+02  0.58552583274E+02  0.41800000000E+01 0. -1.
         -5    1    1    2    0  502  0.26315124163E+02 -0.57262637324E+02  0.82757840879E+02  0.10410488951E+03  0.41800000000E+01 0. -1.
        -11    1    3    3    0    0 -0.33853675460E+02  0.87391792490E+02  0.24883286759E+03  0.26589695886E+03  0.00000000000E+00 0. -1.
         11    1    3    3    0    0  0.37141272292E+02  0.52976669790E+01  0.92748628429E+02  0.10004922518E+03  0.00000000000E+00 0.  1.
</event>
<event>
 7    1  0.4096326E-006  0.1126681E+03  0.7561462E-02  0.1255707E+00
         -2   -1    0    0    0  501 -0.00000000000E+00  0.00000000000E+00  0.10762643915E+03  0.10762643915E+03  0.00000000000E+00 0.  1.
          2   -1    0    0  501    0  0.00000000000E+00 -0.00000000000E+00 -0.17438388048E+03  0.17438388048E+03  0.00000000000E+00 0. -1.
         23    2    1    2    0    0 -0.41769753405E+02  0.56406001658E+02 -0.39283436459E+02  0.13596713371E+03  0.10962446691E+03 0.  0.
          5    1    1    2  502    0  0.80267034578E+02 -0.70379301313E+01 -0.14641468326E+02  0.82001062769E+02  0.41800000000E+01 0.  1.
         -5    1    1    2    0  502 -0.38497281173E+02 -0.49368071527E+02 -0.12832536550E+02  0.64042123156E+02  0.41800000000E+01 0.  1.
        -11    1    3    3    0    0 -0.12139728284E+02  0.50186559565E+02 -0.73790192982E+02  0.90061403188E+02  0.00000000000E+00 0. -1.
         11    1    3    3    0    0 -0.29630025122E+02  0.62194420931E+01  0.34506756524E+02  0.45905730519E+02  0.00000000000E+00 0.  1.
</event>
<event>
 7    1  0.4096326E-006  0.1096278E+03  0.7561462E-02  0.1261261E+00
          1   -1    0    0  501    0  0.00000000000E+00  0.00000000000E+00  0.20341236412E+03  0.20341236412E+03  0.00000000000E+00 0. -1.
         -1   -1    0    0    0  501 -0.00000000000E+00 -0.00000000000E+00 -0.97100398109E+02  0.97100398109E+02  0.00000000000E+00 0.  1.
         23    2    1    2    0    0  0.68822247909E+02  0.37658734672E+02  0.92077904818E+02  0.15217123867E+03  0.92320437699E+02 0.  0.
          5    1    1    2  502    0 -0.22693731962E+02  0.16835841480E+02  0.57888287851E+02  0.64552128540E+02  0.41800000000E+01 0. -1.
         -5    1    1    2    0  502 -0.46128515948E+02 -0.54494576152E+02 -0.43654226657E+02  0.83789395025E+02  0.41800000000E+01 0. -1.
        -11    1    3    3    0    0 -0.17169556052E+02 -0.10977790020E+02  0.27169132631E+02  0.33962733940E+02  0.00000000000E+00 0.  1.
         11    1    3    3    0    0  0.85991803962E+02  0.48636524692E+02  0.64908772187E+02  0.11820850473E+03  0.00000000000E+00 0. -1.
</event>
<event>
 7    1  0.4096326E-006  0.1068010E+03  0.7561462E-02  0.1266611E+00
         -1   -1    0    0    0  501 -0.00000000000E+00  0.00000000000E+00  0.21842116573E+03  0.21842116573E+03  0.00000000000E+00 0.  1.
          1   -1    0    0  501    0  0.00000000000E+00 -0.00000000000E+00 -0.82977199425E+02  0.82977199425E+02  0.00000000000E+00 0. -1.
         23    2    1    2    0    0  0.60590179606E+02 -0.50630874770E+02  0.53919304082E+02  0.13249849237E+03  0.91727333898E+02 0.  0.
          5    1    1    2  502    0  0.69867123586E+01 -0.23603189558E+02 -0.15367928554E+02  0.29318429953E+02  0.41800000000E+01 0. -1.
         -5    1    1    2    0  502 -0.67576891965E+02  0.74234064328E+02  0.96892590772E+02  0.13958144282E+03  0.41800000000E+01 0. -1.
        -11    1    3    3    0    0 -0.29893156651E+01 -0.14966060991E+02 -0.22304584315E+02  0.27026162717E+02  0.00000000000E+00 0. -1.
         11    1    3    3    0    0  0.63579495271E+02 -0.35664813778E+02  0.76223888397E+02  0.10547232966E+03  0.00000000000E+00 0.  1.
</event>
<event>
 7    1  0.4096326E-006  0.1200773E+03  0.7561462E-02  0.1242970E+00
         -1   -1    0    0    0  501 -0.00000000000E+00  0.00000000000E+00  0.18711866771E+03  0.18711866771E+03  0.00000000000E+00 0.  1.
          1   -1    0    0  501    0  0.00000000000E+00 -0.00000000000E+00 -0.10760708544E+03  0.10760708544E+03  0.00000000000E+00 0. -1.
         23    2    1    2    0    0 -0.10344629241E+02 -0.74379319474E+02 -0.19192863684E+02  0.11857275493E+03  0.89732032602E+02 0.  0.
          5    1    1    2  502    0  0.55839366967E+02  0.79518716240E-01  0.55410278951E+02  0.78776980394E+02  0.41800000000E+01 0.  1.
         -5    1    1    2    0  502 -0.45494737727E+02  0.74299800758E+02  0.43294166998E+02  0.97376017836E+02  0.41800000000E+01 0.  1.
        -11    1    3    3    0    0 -0.11637194207E+02  0.82705754683E+01  0.21992887043E+02  0.26220484131E+02  0.00000000000E+00 0.  1.
         11    1    3    3    0    0  0.12925649660E+01 -0.82649894942E+02 -0.41185750726E+02  0.92352270795E+02  0.00000000000E+00 0. -1.
</event>
<event>
 7    1  0.4096326E-006  0.7896233E+02  0.7561462E-02  0.1332022E+00
         -1   -1    0    0    0  501 -0.00000000000E+00  0.00000000000E+00  0.16404552961E+03  0.16404552961E+03  0.00000000000E+00 0.  1.
          1   -1    0    0  501    0  0.00000000000E+00 -0.00000000000E+00 -0.97353090785E+02  0.97353090785E+02  0.00000000000E+00 0. -1.
         23    2    1    2    0    0 -0.29828968738E+02  0.52356178225E+02  0.66780124982E+00  0.10765144558E+03  0.89204545868E+02 0.  0.
          5    1    1    2  502    0  0.53785361191E+02 -0.28955199761E+02 -0.17485950660E+02  0.63674952235E+02  0.41800000000E+01 0.  1.
         -5    1    1    2    0  502 -0.23956392453E+02 -0.23400978464E+02  0.83510588235E+02  0.90072222576E+02  0.41800000000E+01 0.  1.
        -11    1    3    3    0    0 -0.18566171648E+02  0.46885459502E+02  0.41269894254E+02  0.65162513873E+02  0.00000000000E+00 0.  1.
         11    1    3    3    0    0 -0.11262797090E+02  0.54707187222E+01 -0.40602093005E+02  0.42488931712E+02  0.00000000000E+00 0. -1.
</event>
<event>
 7    1  0.4096326E-006  0.1065352E+03  0.7561462E-02  0.1267124E+00
         -2   -1    0    0    0  501 -0.00000000000E+00  0.00000000000E+00  0.80105883165E+02  0.80105883165E+02  0.00000000000E+00 0. -1.
          2   -1    0    0  501    0  0.00000000000E+00 -0.00000000000E+00 -0.18072631553E+03  0.18072631553E+03  0.00000000000E+00 0.  1.
         23    2    1    2    0    0 -0.22326088303E+02  0.14052183230E+02 -0.95324838095E+02  0.13288446202E+03  0.88744224685E+02 0.  0.
          5    1    1    2  502    0  0.29395174201E+02 -0.66689624498E+02 -0.12906667275E+02  0.74132561956E+02  0.41800000000E+01 0. -1.
         -5    1    1    2    0  502 -0.70690858980E+01  0.52637441269E+02  0.76110730005E+01  0.53815174728E+02  0.41800000000E+01 0. -1.
        -11    1    3    3    0    0 -0.52923632288E+02 -0.47250138470E+00 -0.79485360298E+02  0.95493751700E+02  0.00000000000E+00 0. -1.
         11    1    3    3    0    0  0.30597543985E+02  0.14524684614E+02 -0.15839477798E+02  0.37390710316E+02  0.00000000000E+00 0.  1.
</event>
<event>
 7    1  0.4096326E-006  0.9995125E+02  0.7561462E-02  0.1280399E+00
          1   -1    0    0  501    0  0.00000000000E+00  0.00000000000E+00  0.28375768923E+02  0.28375768923E+02  0.00000000000E+00 0. -1.
         -1   -1    0    0    0  501 -0.00000000000E+00 -0.00000000000E+00 -0.53545781281E+03  0.53545781281E+03  0.00000000000E+00 0.  1.
         23    2    1    2    0    0  0.51841308586E+02 -0.20210835655E+02 -0.18478528189E+03  0.21366366755E+03  0.91709123185E+02 0.  0.
          5    1    1    2  502    0 -0.22468716065E+02  0.48695019651E+02 -0.45850469261E+02  0.70680874866E+02  0.41800000000E+01 0.  1.
         -5    1    1    2    0  502 -0.29372592521E+02 -0.28484183995E+02 -0.27644629273E+03  0.27948903931E+03  0.41800000000E+01 0.  1.
        -11    1    3    3    0    0  0.29149769406E+02  0.34847144128E+02 -0.10223909320E+03  0.11187879463E+03  0.00000000000E+00 0.  1.
         11    1    3    3    0    0  0.22691539179E+02 -0.55057979783E+02 -0.82546188694E+02  0.10178487292E+03  0.00000000000E+00 0. -1.
</event>
<event>
 7    1  0.4096326E-006  0.9958388E+02  0.7561462E-02  0.1281173E+00
          1   -1    0    0  501    0  0.00000000000E+00  0.00000000000E+00  0.29154904020E+03  0.29154904020E+03  0.00000000000E+00 0. -1.
         -1   -1    0    0    0  501 -0.00000000000E+00 -0.00000000000E+00 -0.37215476606E+02  0.37215476606E+02  0.00000000000E+00 0.  1.
         23    2    1    2    0    0  0.10578314564E+02 -0.24312818959E+01  0.93757684454E+02  0.13053428008E+03  0.90171409061E+02 0.  0.
          5    1    1    2  502    0  0.11294050777E+02 -0.53224985383E+02  0.59664988067E+02  0.80856897374E+02  0.41800000000E+01 0. -1.
         -5    1    1    2    0  502 -0.21872365342E+02  0.55656267279E+02  0.10091089108E+03  0.11737333935E+03  0.41800000000E+01 0.  1.
        -11    1    3    3    0    0 -0.33182126817E+02  0.16397221945E+02  0.65251008477E+02  0.75017441538E+02  0.00000000000E+00 0. -1.
         11    1    3    3    0    0  0.43760441382E+02 -0.18828503841E+02  0.28506675977E+02  0.55516838546E+02  0.00000000000E+00 0.  1.
</event>
<event>
 7    1  0.4096326E-006  0.2287156E+03  0.7561462E-02  0.1127547E+00
         -1   -1    0    0    0  501 -0.00000000000E+00  0.00000000000E+00  0.28910329606E+03  0.28910329606E+03  0.00000000000E+00 0.  1.
          1   -1    0    0  501    0  0.00000000000E+00 -0.00000000000E+00 -0.19656750375E+03  0.19656750375E+03  0.00000000000E+00 0. -1.
         23    2    1    2    0    0 -0.18308981716E+03  0.10089037090E+03  0.10022838002E+02  0.22846189502E+03  0.91616767591E+02 0.  0.
          5    1    1    2  502    0  0.48345003552E+02 -0.97122716695E+02  0.41746175477E+02  0.11631971902E+03  0.41800000000E+01 0. -1.
         -5    1    1    2    0  502  0.13474481361E+03 -0.37676542037E+01  0.40766778832E+02  0.14088918578E+03  0.41800000000E+01 0. -1.
        -11    1    3    3    0    0 -0.10621951110E+03  0.32423352225E+02 -0.34517711816E+02  0.11629845544E+03  0.00000000000E+00 0. -1.
         11    1    3    3    0    0 -0.76870306062E+02  0.68467018674E+02  0.44540549818E+02  0.11216343958E+03  0.00000000000E+00 0.  1.
</event>
<event>
 7    1  0.4096326E-006  0.8801929E+02  0.7561462E-02  0.1307720E+00
          4   -1    0    0  501    0  0.00000000000E+00  0.00000000000E+00  0.20090567662E+03  0.20090567662E+03  0.00000000000E+00 0. -1.
         -4   -1    0    0    0  501 -0.00000000000E+00 -0.00000000000E+00 -0.68450509908E+02  0.68450509908E+02  0.00000000000E+00 0.  1.
         23    2    1    2    0    0 -0.17177336349E+02  0.39675794231E+02  0.67523601534E+02  0.12193592783E+03  0.91867862712E+02 0.  0.
          5    1    1    2  502    0 -0.28658626199E+02 -0.65426239726E+02  0.11725178843E+02  0.72504220010E+02  0.41800000000E+01 0. -1.
         -5    1    1    2    0  502  0.45835962549E+02  0.25750445495E+02  0.53206386332E+02  0.74916038686E+02  0.41800000000E+01 0. -1.
        -11    1    3    3    0    0 -0.23898991507E+02  0.20698294621E+02 -0.16410234741E+02  0.35621299801E+02  0.00000000000E+00 0.  1.
         11    1    3    3    0    0  0.67216551577E+01  0.18977499610E+02  0.83933836275E+02  0.86314628026E+02  0.00000000000E+00 0. -1.
</event>
<event>
 7    1  0.4096326E-006  0.1001834E+03  0.7561462E-02  0.1279911E+00
          2   -1    0    0  501    0  0.00000000000E+00  0.00000000000E+00  0.86930327691E+02  0.86930327691E+02  0.00000000000E+00 0. -1.
         -2   -1    0    0    0  501 -0.00000000000E+00 -0.00000000000E+00 -0.14666840703E+03  0.14666840703E+03  0.00000000000E+00 0.  1.
         23    2    1    2    0    0  0.29125422591E+02  0.88643837974E+01 -0.31718956889E+02  0.10184311401E+03  0.91864357090E+02 0.  0.
          5    1    1    2  502    0 -0.33892263908E+02 -0.57084937313E+02  0.13420606957E+02  0.67859860830E+02  0.41800000000E+01 0.  1.
         -5    1    1    2    0  502  0.47668413171E+01  0.48220553515E+02 -0.41439729407E+02  0.63895759881E+02  0.41800000000E+01 0.  1.
        -11    1    3    3    0    0  0.38347735834E+02 -0.27826238082E+02 -0.41259578316E+02  0.62826755226E+02  0.00000000000E+00 0.  1.
         11    1    3    3    0    0 -0.92223132425E+01  0.36690621879E+02  0.95406214278E+01  0.39016358783E+02  0.00000000000E+00 0. -1.
</event>
<event>
 7    1  0.4096326E-006  0.1291715E+03  0.7561462E-02  0.1228690E+00
          2   -1    0    0  501    0  0.00000000000E+00  0.00000000000E+00  0.45312734882E+03  0.45312734882E+03  0.00000000000E+00 0. -1.
         -2   -1    0    0    0  501 -0.00000000000E+00 -0.00000000000E+00 -0.40754775272E+02  0.40754775272E+02  0.00000000000E+00 0.  1.
         23    2    1    2    0    0 -0.53027448268E+02  0.47375024937E+02  0.23037846839E+03  0.26188046698E+03  0.10222933546E+03 0.  0.
          5    1    1    2  502    0  0.84622117639E+02 -0.56312792184E+01  0.77094251547E+02  0.11468918921E+03  0.41800000000E+01 0. -1.
         -5    1    1    2    0  502 -0.31594669371E+02 -0.41743745719E+02  0.10489985361E+03  0.11731246791E+03  0.41800000000E+01 0. -1.
        -11    1    3    3    0    0  0.20357053540E+02  0.42788525683E+02  0.61082559063E+02  0.77306833984E+02  0.00000000000E+00 0.  1.
         11    1    3    3    0    0 -0.73384501808E+02  0.45864992542E+01  0.16929590933E+03  0.18457363300E+03  0.00000000000E+00 0. -1.
</event>
<event>
 7    1  0.4096326E-006  0.1503455E+03  0.7561462E-02  0.1200049E+00
         -1   -1    0    0    0  501 -0.00000000000E+00  0.00000000000E+00  0.66615755958E+02  0.66615755958E+02  0.00000000000E+00 0.  1.
          1   -1    0    0  501    0  0.00000000000E+00 -0.00000000000E+00 -0.36395784403E+03  0.36395784403E+03  0.00000000000E+00 0. -1.
         23    2    1    2    0    0 -0.10361801175E+03 -0.28400986990E+02 -0.17633446199E+03  0.22604040139E+03  0.91962558427E+02 0.  0.
          5    1    1    2  502    0  0.14409873418E+01 -0.40652605062E+02 -0.22730284373E+02  0.46785136213E+02  0.41800000000E+01 0. -1.
         -5    1    1    2    0  502  0.10217702441E+03  0.69053592052E+02 -0.98277341711E+02  0.15774806239E+03  0.41800000000E+01 0. -1.
        -11    1    3    3    0    0 -0.69247888999E+02  0.24384626103E+02 -0.64678915080E+02  0.97842946485E+02  0.00000000000E+00 0.  1.
         11    1    3    3    0    0 -0.34370122756E+02 -0.52785613093E+02 -0.11165554691E+03  0.12819745490E+03  0.00000000000E+00 0. -1.
</event>
<event>
 7    1  0.4096326E-006  0.1042183E+03  0.7561462E-02  0.1271668E+00
         -4   -1    0    0    0  501 -0.00000000000E+00  0.00000000000E+00  0.23057622921E+03  0.23057622921E+03  0.00000000000E+00 0.  1.
          4   -1    0    0  501    0  0.00000000000E+00 -0.00000000000E+00 -0.59022166543E+02  0.59022166543E+02  0.00000000000E+00 0. -1.
         23    2    1    2    0    0 -0.14142324520E+01  0.12816507327E+02  0.20305742666E+02  0.92901217405E+02  0.89733216239E+02 0.  0.
          5    1    1    2  502    0  0.24434282382E+01 -0.65474543227E+02  0.11566189181E+03  0.13299635999E+03  0.41800000000E+01 0. -1.
         -5    1    1    2    0  502 -0.10291957862E+01  0.52658035899E+02  0.35586428195E+02  0.63700818366E+02  0.41800000000E+01 0. -1.
        -11    1    3    3    0    0  0.18320553642E+02 -0.34289365693E+02  0.30668132447E+01  0.38997546447E+02  0.00000000000E+00 0.  1.
         11    1    3    3    0    0 -0.19734786094E+02  0.47105873021E+02  0.17238929421E+02  0.53903670958E+02  0.00000000000E+00 0. -1.
</event>
<event>
 7    1  0.4096326E-006  0.1402403E+03  0.7561462E-02  0.1213006E+00
         -1   -1    0    0    0  501 -0.00000000000E+00  0.00000000000E+00  0.56779302358E+03  0.56779302358E+03  0.00000000000E+00 0.  1.
          1   -1    0    0  501    0  0.00000000000E+00 -0.00000000000E+00 -0.49748131846E+02  0.49748131846E+02  0.00000000000E+00 0. -1.
         23    2    1    2    0    0 -0.43928651326E+02 -0.85988472438E+02  0.84798495409E+02  0.15637580488E+03  0.89100301508E+02 0.  0.
          5    1    1    2  502    0  0.79910853168E+02  0.36139790013E+02  0.32455218322E+03  0.33621930479E+03  0.41800000000E+01 0. -1.
         -5    1    1    2    0  502 -0.35982201842E+02  0.49848682425E+02  0.10869421310E+03  0.12494604575E+03  0.41800000000E+01 0. -1.
        -11    1    3    3    0    0 -0.17925444522E+02 -0.99948956984E+02  0.70215711736E+02  0.12345591010E+03  0.00000000000E+00 0.  1.
         11    1    3    3    0    0 -0.26003206804E+02  0.13960484546E+02  0.14582783673E+02  0.32919894783E+02  0.00000000000E+00 0. -1.
</event>
<event>
 7    1  0.4096326E-006  0.1478868E+03  0.7561462E-02  0.1203094E+00
         -1   -1    0    0    0  501 -0.00000000000E+00  0.00000000000E+00  0.65814964573E+02  0.65814964573E+02  0.00000000000E+00 0.  1.
          1   -1    0    0  501    0  0.00000000000E+00 -0.00000000000E+00 -0.42138275731E+03  0.42138275731E+03  0.00000000000E+00 0. -1.
         23    2    1    2    0    0  0.42431338715E+02  0.11799710589E+03 -0.19192435600E+03  0.24605191273E+03  0.89346795283E+02 0.  0.
          5    1    1    2  502    0  0.28078543434E+02 -0.84020645920E+02 -0.12629017668E+03  0.15431965095E+03  0.41800000000E+01 0.  1.
         -5    1    1    2    0  502 -0.70509882150E+02 -0.33976459969E+02 -0.37353260059E+02  0.86826158211E+02  0.41800000000E+01 0.  1.
        -11    1    3    3    0    0  0.30317051507E+02  0.42279886738E+02 -0.16466055443E+02  0.54569619904E+02  0.00000000000E+00 0.  1.
         11    1    3    3    0    0  0.12114287209E+02  0.75717219150E+02 -0.17545830056E+03  0.19148229282E+03  0.00000000000E+00 0. -1.
</event>
<event>
 7    1  0.4096326E-006  0.2256517E+03  0.7561462E-02  0.1129738E+00
          1   -1    0    0  501    0  0.00000000000E+00  0.00000000000E+00  0.94060765273E+02  0.94060765273E+02  0.00000000000E+00 0. -1.
         -1   -1    0    0    0  501 -0.00000000000E+00 -0.00000000000E+00 -0.87936130065E+03  0.87936130065E+03  0.00000000000E+00 0.  1.
         23    2    1    2    0    0  0.19547160403E+02 -0.22226753624E+03 -0.14058963871E+03  0.27981763140E+03  0.93528130442E+02 0.  0.
          5    1    1    2  502    0 -0.26464993652E+02  0.19218741870E+03 -0.62990722024E+03  0.65911833407E+03  0.41800000000E+01 0. -1.
         -5    1    1    2    0  502  0.69178332488E+01  0.30080117543E+02 -0.14803676421E+02  0.34486100444E+02  0.41800000000E+01 0. -1.
        -11    1    3    3    0    0  0.28818827999E+02 -0.11952184617E+03 -0.12526908677E+03  0.17552304880E+03  0.00000000000E+00 0.  1.
         11    1    3    3    0    0 -0.92716675957E+01 -0.10274569007E+03 -0.15320551935E+02  0.10429458260E+03  0.00000000000E+00 0. -1.
</event>
<event>
 7    1  0.4096326E-006  0.1328785E+03  0.7561462E-02  0.1223246E+00
         -3   -1    0    0    0  501 -0.00000000000E+00  0.00000000000E+00  0.75086706227E+02  0.75086706227E+02  0.00000000000E+00 0.  1.
          3   -1    0    0  501    0  0.00000000000E+00 -0.00000000000E+00 -0.30992138491E+03  0.30992138491E+03  0.00000000000E+00 0. -1.
         23    2    1    2    0    0  0.10545510112E+03 -0.64991672166E+00 -0.13571134610E+03  0.19371218298E+03  0.89362406136E+02 0.  0.
          5    1    1    2  502    0 -0.12235837860E+03 -0.60695104306E+01 -0.11402375436E+03  0.16741356196E+03  0.41800000000E+01 0. -1.
         -5    1    1    2    0  502  0.16903277476E+02  0.67194271523E+01  0.14900421775E+02  0.23882346195E+02  0.41800000000E+01 0. -1.
        -11    1    3    3    0    0  0.79742210077E+02  0.29376765517E+02 -0.48230150802E+02  0.97713672874E+02  0.00000000000E+00 0.  1.
         11    1    3    3    0    0  0.25712891047E+02 -0.30026682238E+02 -0.87481195295E+02  0.95998510105E+02  0.00000000000E+00 0. -1.
</event>
<event>
 6    1  0.4096326E-006  0.1618381E+03  0.7561462E-02  0.1186637E+00
         -2   -1    0    0    0  501 -0.00000000000E+00  0.00000000000E+00  0.14744171266E+03  0.14744171266E+03  0.00000000000E+00 0.  1.
          2   -1    0    0  501    0  0.00000000000E+00 -0.00000000000E+00 -0.30037168680E+03  0.30037168680E+03  0.00000000000E+00 0. -1.
          5    1    1    2  502    0 -0.55205200631E+02  0.41352986755E+02 -0.46556509243E+02  0.83322653841E+02  0.41800000000E+01 0. -1.
         -5    1    1    2    0  502  0.81309432606E+02  0.34113604504E+02  0.27225482673E+01  0.88316739705E+02  0.41800000000E+01 0.  1.
        -11    1    1    2    0    0 -0.40088776025E+02  0.36046962327E+02  0.55172110241E+02  0.77139193700E+02  0.00000000000E+00 0.  1.
         11    1    1    2    0    0  0.13984544050E+02 -0.11151355359E+03 -0.16426812340E+03  0.19903481221E+03  0.00000000000E+00 0. -1.
</event>
<event>
 7    1  0.4096326E-006  0.1167217E+03  0.7561462E-02  0.1248605E+00
         -1   -1    0    0    0  501 -0.00000000000E+00  0.00000000000E+00  0.40216035366E+03  0.40216035366E+03  0.00000000000E+00 0.  1.
          1   -1    0    0  501    0  0.00000000000E+00 -0.00000000000E+00 -0.54900977214E+02  0.54900977214E+02  0.00000000000E+00 0. -1.
         23    2    1    2    0    0 -0.52534844846E+02  0.80087052617E+02  0.11196308053E+03  0.17389044756E+03  0.92348851809E+02 0.  0.
          5    1    1    2  502    0 -0.25002328670E+02 -0.29572269876E+02  0.10962324681E+02  0.40463323479E+02  0.41800000000E+01 0. -1.
         -5    1    1    2    0  502  0.77537173516E+02 -0.50514782741E+02  0.22433397124E+03  0.24270755984E+03  0.41800000000E+01 0. -1.
        -11    1    3    3    0    0 -0.36063986207E+02  0.23796072480E+02  0.10656525372E+03  0.11499137996E+03  0.00000000000E+00 0.  1.
         11    1    3    3    0    0 -0.16470858640E+02  0.56290980137E+02  0.53978268139E+01  0.58899067594E+02  0.00000000000E+00 0. -1.
</event>
<event>
 7    1  0.4096326E-006  0.1451784E+03  0.7561462E-02  0.1206526E+00
          1   -1    0    0  501    0  0.00000000000E+00  0.00000000000E+00  0.22896035417E+03  0.22896035417E+03  0.00000000000E+00 0. -1.
         -1   -1    0    0    0  501 -0.00000000000E+00 -0.00000000000E+00 -0.11997296188E+03  0.11997296188E+03  0.00000000000E+00 0.  1.
         23    2    1    2    0    0  0.54080683580E+02 -0.10373244419E+03  0.98633480836E+02  0.17734955849E+03  0.89661374302E+02 0.  0.
          5    1    1    2  502    0 -0.84354956713E+02  0.28700347200E+02  0.14906136612E+02  0.90438564563E+02  0.41800000000E+01 0.  1.
         -5    1    1    2    0  502  0.30274273134E+02  0.75032096991E+02 -0.45522251616E+01  0.81145192998E+02  0.41800000000E+01 0.  1.
        -11    1    3    3    0    0  0.19016810419E+02 -0.65750280538E+02  0.28463816490E+01  0.68504309045E+02  0.00000000000E+00 0.  1.
         11    1    3    3    0    0  0.35063873161E+02 -0.37982163654E+02  0.95787099187E+02  0.10884524945E+03  0.00000000000E+00 0. -1.
</event>
<event>
 7    1  0.4096326E-006  0.8603340E+02  0.7561462E-02  0.1312752E+00
         -2   -1    0    0    0  501 -0.00000000000E+00  0.00000000000E+00  0.23020828932E+02  0.23020828932E+02  0.00000000000E+00 0.  1.
          2   -1    0    0  501    0  0.00000000000E+00 -0.00000000000E+00 -0.76764305562E+03  0.76764305562E+03  0.00000000000E+00 0. -1.
         23    2    1    2    0    0  0.21640106106E+02  0.36581223243E+02 -0.52505763968E+03  0.53441577985E+03  0.90045658830E+02 0.  0.
          5    1    1    2  502    0  0.18502456498E+02 -0.27029048556E+02 -0.22493868014E+00  0.33021710430E+02  0.41800000000E+01 0.  1.
         -5    1    1    2    0  502 -0.40142562604E+02 -0.95521746870E+01 -0.21933964833E+03  0.22322639428E+03  0.41800000000E+01 0.  1.
        -11    1    3    3    0    0  0.36572304299E+02  0.59722383348E+02 -0.42051186520E+03  0.42630332545E+03  0.00000000000E+00 0. -1.
         11    1    3    3    0    0 -0.14932198193E+02 -0.23141160105E+02 -0.10454577448E+03  0.10811245440E+03  0.00000000000E+00 0.  1.
</event>
<event>
 7    1  0.4096326E-006  0.7388085E+02  0.7561462E-02  0.1347372E+00
         -1   -1    0    0    0  501 -0.00000000000E+00  0.00000000000E+00  0.33564216151E+02  0.33564216151E+02  0.00000000000E+00 0.  1.
          1   -1    0    0  501    0  0.00000000000E+00 -0.00000000000E+00 -0.37336262565E+03  0.37336262565E+03  0.00000000000E+00 0. -1.
         23    2    1    2    0    0  0.22804178868E+02 -0.16177219290E+02 -0.15242305594E+03  0.17990498044E+03  0.91385343502E+02 0.  0.
          5    1    1    2  502    0 -0.45101157562E+02  0.21258016457E+02 -0.13808894577E+02  0.51905449103E+02  0.41800000000E+01 0.  1.
         -5    1    1    2    0  502  0.22296978694E+02 -0.50807971669E+01 -0.17356645898E+03  0.17511641226E+03  0.41800000000E+01 0.  1.
        -11    1    3    3    0    0 -0.67343977330E+01  0.23821947871E+02 -0.11509990849E+03  0.11773201029E+03  0.00000000000E+00 0.  1.
         11    1    3    3    0    0  0.29538576601E+02 -0.39999167161E+02 -0.37323147450E+02  0.62172970146E+02  0.00000000000E+00 0. -1.
</event>
<event>
 7    1  0.4096326E-006  0.9549409E+02  0.7561462E-02  0.1290067E+00
          2   -1    0    0  501    0  0.00000000000E+00  0.00000000000E+00  0.35736122373E+03  0.35736122373E+03  0.00000000000E+00 0. -1.
         -2   -1    0    0    0  501 -0.00000000000E+00 -0.00000000000E+00 -0.48257777976E+02  0.48257777976E+02  0.00000000000E+00 0.  1.
         23    2    1    2    0    0 -0.71704462578E+02 -0.17708803807E+02  0.13965156484E+03  0.18242404171E+03  0.91218637065E+02 0.  0.
          5    1    1    2  502    0  0.63885056565E+02 -0.25584145465E+02  0.26994530137E+02  0.74040705080E+02  0.41800000000E+01 0. -1.
         -5    1    1    2    0  502  0.78194060127E+01  0.43292949272E+02  0.14245735078E+03  0.14915425492E+03  0.41800000000E+01 0. -1.
        -11    1    3    3    0    0 -0.39445988558E+02 -0.22229715893E+02  0.69814379451E+01  0.45813608871E+02  0.00000000000E+00 0.  1.
         11    1    3    3    0    0 -0.32258474020E+02  0.45209120859E+01  0.13267012689E+03  0.13661043284E+03  0.00000000000E+00 0. -1.
</event>
<event>
 7    1  0.4096326E-006  0.1632403E+03  0.7561462E-02  0.1185086E+00
         -1   -1    0    0    0  501 -0.00000000000E+00  0.00000000000E+00  0.62905889976E+02  0.62905889976E+02  0.00000000000E+00 0.  1.
          1   -1    0    0  501    0  0.00000000000E+00 -0.00000000000E+00 -0.51643581297E+03  0.51643581297E+03  0.00000000000E+00 0. -1.
         23    2    1    2    0    0 -0.26312421036E+02 -0.13103345723E+03 -0.30268223887E+03  0.34214061598E+03  0.87072113563E+02 0.  0.
          5    1    1    2  502    0 -0.18238200565E+02  0.13665759702E+03 -0.11199359324E+03  0.17767376877E+03  0.41800000000E+01 0.  1.
         -5    1    1    2    0  502  0.44550621601E+02 -0.56241397916E+01 -0.38854090881E+02  0.59527318196E+02  0.41800000000E+01 0.  1.
        -11    1    3    3    0    0 -0.37563137071E+02 -0.12532557328E+03 -0.30243599053E+03  0.32952240736E+03  0.00000000000E+00 0. -1.
         11    1    3    3    0    0  0.11250716036E+02 -0.57078839444E+01 -0.24624834017E+00  0.12618208616E+02  0.00000000000E+00 0.  1.
</event>
<event>
 7    1  0.4096326E-006  0.1936176E+03  0.7561462E-02  0.1155238E+00
          1   -1    0    0  501    0  0.00000000000E+00  0.00000000000E+00  0.10211996338E+04  0.10211996338E+04  0.00000000000E+00 0. -1.
         -1   -1    0    0    0  501 -0.00000000000E+00 -0.00000000000E+00 -0.45856474797E+02  0.45856474797E+02  0.00000000000E+00 0.  1.
         23    2    1    2    0    0 -0.83967334813E+02 -0.16143783503E+03  0.57354445011E+03  0.60857605668E+03  0.91098258020E+02 0.  0.
          5    1    1    2  502    0 -0.15844169857E+01  0.12179078152E+02 -0.71390429027E+01  0.14808060487E+02  0.41800000000E+01 0. -1.
         -5    1    1    2    0  502  0.85551751799E+02  0.14925875688E+03  0.40893775182E+03  0.44367199146E+03  0.41800000000E+01 0. -1.
        -11    1    3    3    0    0  0.14103914481E+02 -0.10064446172E+01  0.61332259456E+02  0.62941078673E+02  0.00000000000E+00 0. -1.
         11    1    3    3    0    0 -0.98071249294E+02 -0.16043139041E+03  0.51221219065E+03  0.54563497800E+03  0.00000000000E+00 0.  1.
</event>
<event>
 7    1  0.4096326E-006  0.1765307E+03  0.7561462E-02  0.1171204E+00
         -2   -1    0    0    0  501 -0.00000000000E+00  0.00000000000E+00  0.66040258376E+02  0.66040258376E+02  0.00000000000E+00 0.  1.
          2   -1    0    0  501    0  0.00000000000E+00 -0.00000000000E+00 -0.54097529603E+03  0.54097529603E+03  0.00000000000E+00 0. -1.
         23    2    1    2    0    0 -0.53452923253E+02  0.14346741597E+03 -0.19943282265E+03  0.26790959076E+03  0.92530987365E+02 0.  0.
          5    1    1    2  502    0  0.69320566007E+02 -0.15947860474E+03 -0.23240385106E+03  0.29028914659E+03  0.41800000000E+01 0. -1.
         -5    1    1    2    0  502 -0.15867642754E+02  0.16011188776E+02 -0.43098363938E+02  0.48816817048E+02  0.41800000000E+01 0. -1.
        -11    1    3    3    0    0 -0.47637803633E+02  0.85024509652E+02 -0.54807984404E+02  0.11181432257E+03  0.00000000000E+00 0. -1.
         11    1    3    3    0    0 -0.58151196198E+01  0.58442906315E+02 -0.14462483825E+03  0.15609526820E+03  0.00000000000E+00 0.  1.
</event>
<event>
 7    1  0.4096326E-006  0.2184049E+03  0.7561462E-02  0.1135078E+00
         -2   -1    0    0    0  501 -0.00000000000E+00  0.00000000000E+00  0.41949162310E+02  0.41949162310E+02  0.00000000000E+00 0.  1.
          2   -1    0    0  501    0  0.00000000000E+00 -0.00000000000E+00 -0.14811524720E+04  0.14811524720E+04  0.00000000000E+00 0. -1.
         23    2    1    2    0    0 -0.41135903764E+02 -0.20428642849E+03 -0.95036382417E+03  0.97717479775E+03  0.90851965468E+02 0.  0.
          5    1    1    2  502    0 -0.18202118342E+02  0.16392737561E+02 -0.16477025306E+03  0.16663357300E+03  0.41800000000E+01 0. -1.
         -5    1    1    2    0  502  0.59338022106E+02  0.18789369093E+03 -0.32406923249E+03  0.37929326359E+03  0.41800000000E+01 0. -1.
        -11    1    3    3    0    0 -0.34399124724E+02 -0.51449990680E+02 -0.14906257668E+03  0.16140028838E+03  0.00000000000E+00 0.  1.
         11    1    3    3    0    0 -0.67367790401E+01 -0.15283643781E+03 -0.80130124748E+03  0.81577450937E+03  0.00000000000E+00 0. -1.
</event>
<event>
 7    1  0.4096326E-006  0.1146095E+03  0.7561462E-02  0.1252264E+00
         -1   -1    0    0    0  501 -0.00000000000E+00  0.00000000000E+00  0.70422269589E+03  0.70422269589E+03  0.00000000000E+00 0.  1.
          1   -1    0    0  501    0  0.00000000000E+00 -0.00000000000E+00 -0.19606341119E+02  0.19606341119E+02  0.00000000000E+00 0. -1.
         23    2    1    2    0    0 -0.32778439411E+02 -0.13224325100E+02  0.26793093738E+03  0.28733960470E+03  0.97610206238E+02 0.  0.
          5    1    1    2  502    0 -0.45395634021E+02  0.12530129825E+02  0.21511870990E+03  0.22025280814E+03  0.41800000000E+01 0. -1.
         -5    1    1    2    0  502  0.78174073432E+02  0.69419527463E+00  0.20156670749E+03  0.21623662417E+03  0.41800000000E+01 0. -1.
        -11    1    3    3    0    0 -0.38160260916E+02 -0.52002723665E+02  0.15888114648E+03  0.17147509291E+03  0.00000000000E+00 0.  1.
         11    1    3    3    0    0  0.53818215055E+01  0.38778398565E+02  0.10904979089E+03  0.11586451179E+03  0.00000000000E+00 0. -1.
</event>
<event>
 7    1  0.4096326E-006  0.1116887E+03  0.7561462E-02  0.1257474E+00
         -2   -1    0    0    0  501 -0.00000000000E+00  0.00000000000E+00  0.22071733254E+02  0.22071733254E+02  0.00000000000E+00 0.  1.
          2   -1    0    0  501    0  0.00000000000E+00 -0.00000000000E+00 -0.67420340960E+03  0.67420340960E+03  0.00000000000E+00 0. -1.
         23    2    1    2    0    0 -0.56579076090E+02 -0.18303855943E+01 -0.24745822086E+03  0.26894387581E+03  0.88829584612E+02 0.  0.
          5    1    1    2  502    0  0.71236228013E+02 -0.46098677644E+02 -0.21703664332E+03  0.23307094458E+03  0.41800000000E+01 0. -1.
         -5    1    1    2    0  502 -0.14657151923E+02  0.47929063238E+02 -0.18763681217E+03  0.19426032247E+03  0.41800000000E+01 0. -1.
        -11    1    3    3    0    0 -0.72226778854E+02  0.96904520731E+00 -0.24132836732E+03  0.25190678336E+03  0.00000000000E+00 0. -1.
         11    1    3    3    0    0  0.15647702764E+02 -0.27994308016E+01 -0.61298535424E+01  0.17037092447E+02  0.00000000000E+00 0.  1.
</event>
<event>
 7    1  0.4096326E-006  0.1006515E+03  0.7561462E-02  0.1278932E+00
          1   -1    0    0  501    0  0.00000000000E+00  0.00000000000E+00  0.25513761488E+03  0.25513761488E+03  0.00000000000E+00 0. -1.
         -1   -1    0    0    0  501 -0.00000000000E+00 -0.00000000000E+00 -0.51553653814E+02  0.51553653814E+02  0.00000000000E+00 0.  1.
         23    2    1    2    0    0 -0.35248758307E+01  0.32030299087E+02  0.11703781234E+03  0.15119822245E+03  0.90137052011E+02 0.  0.
          5    1    1    2  502    0 -0.46709172985E+02  0.23759946872E+02  0.24459856655E+02  0.57983091535E+02  0.41800000000E+01 0. -1.
         -5    1    1    2    0  502  0.50234048816E+02 -0.55790245959E+02  0.62086292072E+02  0.97509954712E+02  0.41800000000E+01 0. -1.
        -11    1    3    3    0    0  0.13491355439E+02 -0.16965172004E+02 -0.15835509262E+01  0.21733415890E+02  0.00000000000E+00 0.  1.
         11    1    3    3    0    0 -0.17016231270E+02  0.48995471091E+02  0.11862136327E+03  0.12946480656E+03  0.00000000000E+00 0. -1.
</event>
<event>
 7    1  0.4096326E-006  0.1209821E+03  0.7561462E-02  0.1241486E+00
         -3   -1    0    0    0  501 -0.00000000000E+00  0.00000000000E+00  0.25423181968E+03  0.25423181968E+03  0.00000000000E+00 0.  1.
          3   -1    0    0  501    0  0.00000000000E+00 -0.00000000000E+00 -0.91860673762E+02  0.91860673762E+02  0.00000000000E+00 0. -1.
         23    2    1    2    0    0 -0.78461734880E+02  0.68359182136E+02  0.10302801788E+03  0.17289076973E+03  0.91908781778E+02 0.  0.
          5    1    1    2  502    0  0.97205340985E+02 -0.65580818922E+02  0.71876342082E+01  0.11755363292E+03  0.41800000000E+01 0.  1.
         -5    1    1    2    0  502 -0.18743606106E+02 -0.27783632146E+01  0.52155493839E+02  0.55648090800E+02  0.41800000000E+01 0.  1.
        -11    1    3    3    0    0 -0.69970461667E+02  0.53377574191E+02  0.11993382190E+03  0.14875870585E+03  0.00000000000E+00 0.  1.
         11    1    3    3    0    0 -0.84912732130E+01  0.14981607945E+02 -0.16905804021E+02  0.24132063878E+02  0.00000000000E+00 0. -1.
</event>
<event>
 7    1  0.4096326E-006  0.1343426E+03  0.7561462E-02  0.1221151E+00
         -2   -1    0    0    0  501 -0.00000000000E+00  0.00000000000E+00  0.15226850666E+02  0.15226850666E+02  0.00000000000E+00 0.  1.
          2   -1    0    0  501    0  0.00000000000E+00 -0.00000000000E+00 -0.12291511815E+04  0.12291511815E+04  0.00000000000E+00 0. -1.
         23    2    1    2    0    0  0.82134564160E+02 -0.13562982689E+02 -0.55900574638E+03  0.57244344435E+03  0.90961702760E+02 0.  0.
          5    1    1    2  502    0  0.32190056872E+02  0.75386703860E+01 -0.10316699042E+03  0.10841555066E+03  0.41800000000E+01 0. -1.
         -5    1    1    2    0  502 -0.11432462103E+03  0.60243123028E+01 -0.55175159400E+03  0.56351903712E+03  0.41800000000E+01 0. -1.
        -11    1    3    3    0    0  0.84651677562E+01  0.32721595070E+02 -0.10958530537E+03  0.11467912191E+03  0.00000000000E+00 0. -1.
         11    1    3    3    0    0  0.73669396404E+02 -0.46284577759E+02 -0.44942044100E+03  0.45776432244E+03  0.00000000000E+00 0.  1.
</event>
<event>
 7    1  0.4096326E-006  0.9086807E+02  0.7561462E-02  0.1300763E+00
         -1   -1    0    0    0  501 -0.00000000000E+00  0.00000000000E+00  0.13829986052E+03  0.13829986052E+03  0.00000000000E+00 0.  1.
          1   -1    0    0  501    0  0.00000000000E+00 -0.00000000000E+00 -0.12495192782E+03  0.12495192782E+03  0.00000000000E+00 0. -1.
         23    2    1    2    0    0  0.65497945841E+02 -0.35639326614E+02  0.15106294178E+02  0.11761301689E+03  0.89691020220E+02 0.  0.
          5    1    1    2  502    0 -0.63503710083E+02  0.22146758089E+02  0.55083812567E+02  0.87033895093E+02  0.41800000000E+01 0. -1.
         -5    1    1    2    0  502 -0.19942357577E+01  0.13492568526E+02 -0.56842174044E+02  0.58604876347E+02  0.41800000000E+01 0. -1.
        -11    1    3    3    0    0  0.29775776813E+02  0.18623868469E+02 -0.23297316000E+02  0.42145109970E+02  0.00000000000E+00 0.  1.
         11    1    3    3    0    0  0.35722169028E+02 -0.54263195083E+02  0.38403610178E+02  0.75467906924E+02  0.00000000000E+00 0. -1.
</event>
<event>
 7    1  0.4096326E-006  0.1053344E+03  0.7561462E-02  0.1269462E+00
          1   -1    0    0  501    0  0.00000000000E+00  0.00000000000E+00  0.56260223329E+03  0.56260223329E+03  0.00000000000E+00 0. -1.
         -1   -1    0    0    0  501 -0.00000000000E+00 -0.00000000000E+00 -0.28193174231E+02  0.28193174231E+02  0.00000000000E+00 0.  1.
         23    2    1    2    0    0  0.47186678673E+02  0.12469456847E+02  0.33462219724E+03  0.35008070836E+03  0.90567198690E+02 0.  0.
          5    1    1    2  502    0  0.35180490604E+02  0.11614654214E+02  0.11130013711E+03  0.11737870349E+03  0.41800000000E+01 0. -1.
         -5    1    1    2    0  502 -0.82367169277E+02 -0.24084111061E+02  0.88486724708E+02  0.12333599568E+03  0.41800000000E+01 0. -1.
        -11    1    3    3    0    0  0.17714262583E+02 -0.30553912881E+02  0.53123870611E+02  0.63792494229E+02  0.00000000000E+00 0.  1.
         11    1    3    3    0    0  0.29472416090E+02  0.43023369729E+02  0.28149832663E+03  0.28628821413E+03  0.00000000000E+00 0. -1.
</event>
<event>
 7    1  0.4096326E-006  0.9881298E+02  0.7561462E-02  0.1282812E+00
          2   -1    0    0  501    0  0.00000000000E+00  0.00000000000E+00  0.68051829720E+03  0.68051829720E+03  0.00000000000E+00 0. -1.
         -2   -1    0    0    0  501 -0.00000000000E+00 -0.00000000000E+00 -0.22560203944E+02  0.22560203944E+02  0.00000000000E+00 0.  1.
         23    2    1    2    0    0 -0.54261335611E+02  0.39793252745E+02  0.32987165479E+03  0.34556512927E+03  0.77924029875E+02 0.  0.
          5    1    1    2  502    0  0.40500308590E+02  0.11435863828E+02  0.28749424110E+03  0.29058813645E+03  0.41800000000E+01 0. -1.
         -5    1    1    2    0  502  0.13761027021E+02 -0.51229116573E+02  0.40592197370E+02  0.66925235426E+02  0.41800000000E+01 0. -1.
        -11    1    3    3    0    0 -0.68050823316E+02  0.93312021048E+01  0.24153063880E+03  0.25110761710E+03  0.00000000000E+00 0. -1.
         11    1    3    3    0    0  0.13789487705E+02  0.30462050640E+02  0.88341015985E+02  0.94457512171E+02  0.00000000000E+00 0.  1.
</event>
<event>
 7    1  0.4096326E-006  0.1417365E+03  0.7561462E-02  0.1211011E+00
         -1   -1    0    0    0  501 -0.00000000000E+00  0.00000000000E+00  0.23695756477E+03  0.23695756477E+03  0.00000000000E+00 0.  1.
          1   -1    0    0  501    0  0.00000000000E+00 -0.00000000000E+00 -0.11449134690E+03  0.11449134690E+03  0.00000000000E+00 0. -1.
         23    2    1    2    0    0 -0.91155771424E+02 -0.69629761040E+02  0.77472952820E+01  0.14659539801E+03  0.90953349842E+02 0.  0.
          5    1    1    2  502    0  0.12031708495E+03  0.46902465068E+02  0.10475708580E+03  0.16633568945E+03  0.41800000000E+01 0.  1.
         -5    1    1    2    0  502 -0.29161313531E+02  0.22727295971E+02  0.99618367939E+01  0.38517824203E+02  0.41800000000E+01 0.  1.
        -11    1    3    3    0    0 -0.40016126916E+02 -0.45259307971E+02  0.47950761762E+02  0.77129572311E+02  0.00000000000E+00 0.  1.
         11    1    3    3    0    0 -0.51139644508E+02 -0.24370453069E+02 -0.40203466480E+02  0.69465825700E+02  0.00000000000E+00 0. -1.
</event>
<event>
 7    1  0.4096326E-006  0.1392906E+03  0.7561462E-02  0.1214287E+00
         -1   -1    0    0    0  501 -0.00000000000E+00  0.00000000000E+00  0.45210663251E+02  0.45210663251E+02  0.00000000000E+00 0.  1.
          1   -1    0    0  501    0  0.00000000000E+00 -0.00000000000E+00 -0.59047964657E+03  0.59047964657E+03  0.00000000000E+00 0. -1.
         23    2    1    2    0    0  0.11791618072E+03 -0.37678604734E+02 -0.28121948249E+03  0.31836675322E+03  0.83361197773E+02 0.  0.
          5    1    1    2  502    0 -0.17175727464E+02  0.20565942780E+02 -0.18782599345E+03  0.18977365421E+03  0.41800000000E+01 0.  1.
         -5    1    1    2    0  502 -0.10074045326E+03  0.17112661954E+02 -0.76223507378E+02  0.12754990239E+03  0.41800000000E+01 0.  1.
        -11    1    3    3    0    0  0.87783195003E+02 -0.64436732419E+02 -0.20881040605E+03  0.23549897555E+03  0.00000000000E+00 0.  1.
         11    1    3    3    0    0  0.30132985721E+02  0.26758127685E+02 -0.72409076447E+02  0.82867777679E+02  0.00000000000E+00 0. -1.
</event>
<event>
 7    1  0.4096326E-006  0.1622726E+03  0.7561462E-02  0.1186155E+00
         -2   -1    0    0    0  501 -0.00000000000E+00  0.00000000000E+00  0.26604274489E+02  0.26604274489E+02  0.00000000000E+00 0.  1.
          2   -1    0    0  501    0  0.00000000000E+00 -0.00000000000E+00 -0.99658534384E+03  0.99658534384E+03  0.00000000000E+00 0. -1.
         23    2    1    2    0    0  0.11127856280E+03  0.44201498523E+02 -0.46075413627E+03  0.48532572110E+03  0.94392745765E+02 0.  0.
          5    1    1    2  502    0 -0.80247532688E+02  0.34848985146E+02 -0.27978088213E+03  0.29317048398E+03  0.41800000000E+01 0.  1.
         -5    1    1    2    0  502 -0.31031030110E+02 -0.79050483668E+02 -0.22944605094E+03  0.24469341325E+03  0.41800000000E+01 0.  1.
        -11    1    3    3    0    0 -0.12184100666E+02  0.23878911591E+02 -0.66795999095E+02  0.71974719332E+02  0.00000000000E+00 0.  1.
         11    1    3    3    0    0  0.12346266346E+03  0.20322586932E+02 -0.39395813718E+03  0.41335100176E+03  0.00000000000E+00 0. -1.
</event>
<event>
 7    1  0.4096326E-006  0.1047727E+03  0.7561462E-02  0.1270568E+00
          1   -1    0    0  501    0  0.00000000000E+00  0.00000000000E+00  0.69942691675E+02  0.69942691675E+02  0.00000000000E+00 0. -1.
         -1   -1    0    0    0  501 -0.00000000000E+00 -0.00000000000E+00 -0.29224326001E+03  0.29224326001E+03  0.00000000000E+00 0.  1.
         23    2    1    2    0    0  0.12938719354E+01  0.60498528912E+02 -0.13535899898E+02  0.11140305652E+03  0.92550928195E+02 0.  0.
          5    1    1    2  502    0 -0.31085547320E+02  0.18392605926E+01 -0.61380620803E+00  0.31425201507E+02  0.41800000000E+01 0.  1.
         -5    1    1    2    0  502  0.29791675385E+02 -0.62337789505E+02 -0.20815086223E+03  0.21935769367E+03  0.41800000000E+01 0.  1.
        -11    1    3    3    0    0  0.20485734912E+02  0.79383236409E+02 -0.17267434160E+01  0.82002104854E+02  0.00000000000E+00 0.  1.
         11    1    3    3    0    0 -0.19191862977E+02 -0.18884707497E+02 -0.11809156482E+02  0.29400951661E+02  0.00000000000E+00 0. -1.
</event>
<event>
 7    1  0.4096326E-006  0.1162850E+03  0.7561462E-02  0.1249355E+00
          2   -1    0    0  501    0  0.00000000000E+00  0.00000000000E+00  0.33043029056E+03  0.33043029056E+03  0.00000000000E+00 0. -1.
         -2   -1    0    0    0  501 -0.00000000000E+00 -0.00000000000E+00 -0.68404063765E+02  0.68404063765E+02  0.00000000000E+00 0.  1.
         23    2    1    2    0    0  0.54666828168E+02  0.46276911474E+02  0.21998589633E+03  0.24869045497E+03  0.91231207242E+02 0.  0.
          5    1    1    2  502    0  0.13397826178E+02 -0.70404976042E+02  0.21923726779E+02  0.75063203992E+02  0.41800000000E+01 0. -1.
         -5    1    1    2    0  502 -0.68064654346E+02  0.24128064568E+02  0.20116603684E+02  0.75080695354E+02  0.41800000000E+01 0. -1.
        -11    1    3    3    0    0  0.31949866770E+02 -0.50203530816E+01  0.14071964541E+02  0.35270641017E+02  0.00000000000E+00 0.  1.
         11    1    3    3    0    0  0.22716961398E+02  0.51297264556E+02  0.20591393179E+03  0.21341981396E+03  0.00000000000E+00 0. -1.
</event>
<event>
 7    1  0.4882080E-006  0.2115747E+03  0.7561462E-02  0.1140325E+00
          2   -1    0    0  501    0  0.00000000000E+00  0.00000000000E+00  0.94668579567E+03  0.94668579567E+03  0.00000000000E+00 0.  1.
         -2   -1    0    0    0  501 -0.00000000000E+00 -0.00000000000E+00 -0.57015277845E+02  0.57015277845E+02  0.00000000000E+00 0. -1.
         23    2    1    2    0    0 -0.56509440198E+02 -0.18539110533E+03  0.58068294890E+03  0.61810538847E+03  0.85430704928E+02 0.  0.
          5    1    1    2  502    0  0.84170274786E+02  0.17421094948E+03  0.29392440392E+03  0.35191350883E+03  0.41800000000E+01 0. -1.
         -5    1    1    2    0  502 -0.27660834589E+02  0.11180155850E+02  0.15063165014E+02  0.33682176224E+02  0.41800000000E+01 0. -1.
        -11    1    3    3    0    0 -0.20547814081E+02 -0.14043035801E+03  0.30402953970E+03  0.33552475188E+03  0.00000000000E+00 0. -1.
         11    1    3    3    0    0 -0.35961626117E+02 -0.44960747318E+02  0.27665340919E+03  0.28258063658E+03  0.00000000000E+00 0.  1.
</event>
<event>
 7    1  0.4096326E-006  0.1572250E+03  0.7561462E-02  0.1191866E+00
          2   -1    0    0  501    0  0.00000000000E+00  0.00000000000E+00  0.85751630340E+02  0.85751630340E+02  0.00000000000E+00 0. -1.
         -2   -1    0    0    0  501 -0.00000000000E+00 -0.00000000000E+00 -0.45330188366E+03  0.45330188366E+03  0.00000000000E+00 0.  1.
         23    2    1    2    0    0 -0.78213728556E+02  0.13300505193E+03 -0.11395017529E+03  0.21692339652E+03  0.10130837249E+03 0.  0.
          5    1    1    2  502    0  0.49114579081E+02 -0.10206264043E+03 -0.69072796760E+02  0.13273111204E+03  0.41800000000E+01 0.  1.
         -5    1    1    2    0  502  0.29099149475E+02 -0.30942411492E+02 -0.18452728127E+03  0.18939900544E+03  0.41800000000E+01 0.  1.
        -11    1    3    3    0    0 -0.30815122599E+02  0.22409288659E+02 -0.85023346361E+02  0.93170367743E+02  0.00000000000E+00 0.  1.
         11    1    3    3    0    0 -0.47398605958E+02  0.11059576327E+03 -0.28926828929E+02  0.12375302878E+03  0.00000000000E+00 0. -1.
</event>
<event>
 7    1  0.4096326E-006  0.7257801E+02  0.7561462E-02  0.1351540E+00
         -2   -1    0    0    0  501 -0.00000000000E+00  0.00000000000E+00  0.25125663663E+02  0.25125663663E+02  0.00000000000E+00 0.  1.
          2   -1    0    0  501    0  0.00000000000E+00 -0.00000000000E+00 -0.68639204934E+03  0.68639204934E+03  0.00000000000E+00 0. -1.
         23    2    1    2    0    0 -0.34538300379E+02 -0.30516142190E+02 -0.31621982455E+03  0.33227348088E+03  0.91030541752E+02 0.  0.
          5    1    1    2  502    0  0.22272235687E+02  0.23113388450E+02 -0.35801347852E+03  0.35947378821E+03  0.41800000000E+01 0. -1.
         -5    1    1    2    0  502  0.12266064692E+02  0.74027537404E+01  0.12966917389E+02  0.19770443914E+02  0.41800000000E+01 0.  1.
        -11    1    3    3    0    0  0.28752181537E+02 -0.16093793525E+02 -0.15524819542E+03  0.15870633357E+03  0.00000000000E+00 0.  1.
         11    1    3    3    0    0 -0.63290481916E+02 -0.14422348665E+02 -0.16097162913E+03  0.17356714731E+03  0.00000000000E+00 0. -1.
</event>
<event>
 7    1  0.4096326E-006  0.1777087E+03  0.7561462E-02  0.1170039E+00
          2   -1    0    0  501    0  0.00000000000E+00  0.00000000000E+00  0.39893542190E+03  0.39893542190E+03  0.00000000000E+00 0.  1.
         -2   -1    0    0    0  501 -0.00000000000E+00 -0.00000000000E+00 -0.17120896459E+03  0.17120896459E+03  0.00000000000E+00 0. -1.
         23    2    1    2    0    0  0.13999820007E+03 -0.33768589955E+02  0.31656797878E+03  0.35971130849E+03  0.91853832690E+02 0.  0.
          5    1    1    2  502    0 -0.15619371835E+03  0.48905284890E+02 -0.91762886224E+02  0.18768618551E+03  0.41800000000E+01 0. -1.
         -5    1    1    2    0  502  0.16195518280E+02 -0.15136694935E+02  0.29213647507E+01  0.22746892489E+02  0.41800000000E+01 0. -1.
        -11    1    3    3    0    0  0.67523112723E+02  0.28780011527E+02  0.11285936264E+03  0.13462873226E+03  0.00000000000E+00 0. -1.
         11    1    3    3    0    0  0.72475087350E+02 -0.62548601482E+02  0.20370861614E+03  0.22508257623E+03  0.00000000000E+00 0.  1.
</event>
<event>
 7    1  0.4096326E-006  0.1040336E+03  0.7561462E-02  0.1272035E+00
          3   -1    0    0  501    0  0.00000000000E+00  0.00000000000E+00  0.43166763060E+03  0.43166763060E+03  0.00000000000E+00 0. -1.
         -3   -1    0    0    0  501 -0.00000000000E+00 -0.00000000000E+00 -0.38175541585E+02  0.38175541585E+02  0.00000000000E+00 0.  1.
         23    2    1    2    0    0 -0.93653718943E+01  0.83141629956E+01  0.30771029865E+03  0.32138572297E+03  0.91903860274E+02 0.  0.
          5    1    1    2  502    0  0.53935727700E+02  0.25189165749E+02  0.66409549374E+02  0.89281898735E+02  0.41800000000E+01 0. -1.
         -5    1    1    2    0  502 -0.44570355806E+02 -0.33503328745E+02  0.19372240984E+02  0.59175550478E+02  0.41800000000E+01 0.  1.
        -11    1    3    3    0    0 -0.34230311220E+02 -0.30854380762E+02  0.14097416225E+03  0.14831527716E+03  0.00000000000E+00 0.  1.
         11    1    3    3    0    0  0.24864939326E+02  0.39168543758E+02  0.16673613641E+03  0.17307044581E+03  0.00000000000E+00 0. -1.
</event>
<event>
 7    1  0.4096326E-006  0.9394908E+02  0.7561462E-02  0.1293561E+00
          2   -1    0    0  501    0  0.00000000000E+00  0.00000000000E+00  0.10239204224E+03  0.10239204224E+03  0.00000000000E+00 0. -1.
         -2   -1    0    0    0  501 -0.00000000000E+00 -0.00000000000E+00 -0.16132389838E+03  0.16132389838E+03  0.00000000000E+00 0.  1.
         23    2    1    2    0    0  0.52320189106E+02  0.99576408637E+01  0.23236813879E+02  0.10485736239E+03  0.87284363597E+02 0.  0.
          5    1    1    2  502    0  0.16602746355E+02  0.94379583468E+00 -0.87107870830E+02  0.88779476781E+02  0.41800000000E+01 0.  1.
         -5    1    1    2    0  502 -0.68922935461E+02 -0.10901436698E+02  0.49392008176E+01  0.70079101446E+02  0.41800000000E+01 0.  1.
        -11    1    3    3    0    0  0.19683062754E+02  0.47311837379E+02  0.31454824285E+01  0.51339331660E+02  0.00000000000E+00 0.  1.
         11    1    3    3    0    0  0.32637126351E+02 -0.37354196515E+02  0.20091331450E+02  0.53518030730E+02  0.00000000000E+00 0. -1.
</event>
<event>
 7    1  0.4096326E-006  0.1245698E+03  0.7561462E-02  0.1235743E+00
          1   -1    0    0  501    0  0.00000000000E+00  0.00000000000E+00  0.19182371475E+03  0.19182371475E+03  0.00000000000E+00 0. -1.
         -1   -1    0    0    0  501 -0.00000000000E+00 -0.00000000000E+00 -0.92325481113E+02  0.92325481113E+02  0.00000000000E+00 0.  1.
         23    2    1    2    0    0  0.75598200200E+01 -0.64326861274E+02  0.76899300219E+02  0.14147701454E+03  0.99534653812E+02 0.  0.
          5    1    1    2  502    0  0.13164870625E+02 -0.35228562564E+02 -0.22518910644E+01  0.37906580593E+02  0.41800000000E+01 0. -1.
         -5    1    1    2    0  502 -0.20724690645E+02  0.99555423839E+02  0.24850824481E+02  0.10476560073E+03  0.41800000000E+01 0. -1.
        -11    1    3    3    0    0 -0.26594605484E+02 -0.70018450880E+02  0.24755715851E+02  0.78884104684E+02  0.00000000000E+00 0.  1.
         11    1    3    3    0    0  0.34154425504E+02  0.56915896057E+01  0.52143584368E+02  0.62592909858E+02  0.00000000000E+00 0. -1.
</event>
<event>
 7    1  0.4096326E-006  0.1202635E+03  0.7561462E-02  0.1242663E+00
         -2   -1    0    0    0  501 -0.00000000000E+00  0.00000000000E+00  0.77720453179E+02  0.77720453179E+02  0.00000000000E+00 0.  1.
          2   -1    0    0  501    0  0.00000000000E+00 -0.00000000000E+00 -0.30745388373E+03  0.30745388373E+03  0.00000000000E+00 0. -1.
         23    2    1    2    0    0 -0.20406297178E+02  0.80682066979E+02 -0.17453218038E+03  0.21191714958E+03  0.86725909641E+02 0.  0.
          5    1    1    2  502    0  0.24659449426E+02  0.16063265129E+02  0.31427388634E+02  0.43258179445E+02  0.41800000000E+01 0. -1.
         -5    1    1    2    0  502 -0.42531522471E+01 -0.96745332107E+02 -0.86628638805E+02  0.12999900788E+03  0.41800000000E+01 0.  1.
        -11    1    3    3    0    0 -0.31707444613E+02  0.92342510557E+02 -0.16820925254E+03  0.19449126957E+03  0.00000000000E+00 0. -1.
         11    1    3    3    0    0  0.11301147434E+02 -0.11660443578E+02 -0.63229278425E+01  0.17425880014E+02  0.00000000000E+00 0.  1.
</event>
<event>
 7    1  0.4096326E-006  0.1853035E+03  0.7561462E-02  0.1162767E+00
          1   -1    0    0  501    0  0.00000000000E+00  0.00000000000E+00  0.87185012339E+02  0.87185012339E+02  0.00000000000E+00 0. -1.
         -1   -1    0    0    0  501 -0.00000000000E+00 -0.00000000000E+00 -0.82426796194E+03  0.82426796194E+03  0.00000000000E+00 0.  1.
         23    2    1    2    0    0  0.27854539184E+01  0.14166307265E+02 -0.32227494492E+02  0.97355698311E+02  0.90725286317E+02 0.  0.
          5    1    1    2  502    0  0.13746026947E+03  0.20186546532E+01 -0.53455623484E+02  0.14756143375E+03  0.41800000000E+01 0. -1.
         -5    1    1    2    0  502 -0.14024572338E+03 -0.16184961918E+02 -0.65139983163E+03  0.66653584222E+03  0.41800000000E+01 0.  1.
        -11    1    3    3    0    0 -0.36156681138E+02  0.32656424082E+02 -0.18474296790E+02  0.52106115443E+02  0.00000000000E+00 0.  1.
         11    1    3    3    0    0  0.38942135056E+02 -0.18490116817E+02 -0.13753197702E+02  0.45249582868E+02  0.00000000000E+00 0. -1.
</event>
<event>
 7    1  0.4096326E-006  0.7640261E+02  0.7561462E-02  0.1339582E+00
          1   -1    0    0  501    0  0.00000000000E+00  0.00000000000E+00  0.91288921052E+02  0.91288921052E+02  0.00000000000E+00 0. -1.
         -1   -1    0    0    0  501 -0.00000000000E+00 -0.00000000000E+00 -0.25626752444E+03  0.25626752444E+03  0.00000000000E+00 0.  1.
         23    2    1    2    0    0  0.22045038107E+02  0.54407578876E+02  0.25209166842E+02  0.11246019475E+03  0.92550661624E+02 0.  0.
          5    1    1    2  502    0  0.52471552899E+01  0.17137879613E+01  0.17168632483E+02  0.18512267531E+02  0.41800000000E+01 0.  1.
         -5    1    1    2    0  502 -0.27292193397E+02 -0.56121366837E+02 -0.20735640271E+03  0.21658398320E+03  0.41800000000E+01 0.  1.
        -11    1    3    3    0    0  0.40226667852E+02  0.21186919489E+02 -0.23164176295E+02  0.51025968166E+02  0.00000000000E+00 0.  1.
         11    1    3    3    0    0 -0.18181629745E+02  0.33220659387E+02  0.48373343136E+02  0.61434226588E+02  0.00000000000E+00 0. -1.
</event>
<event>
 7    1  0.4096326E-006  0.1710608E+03  0.7561462E-02  0.1176746E+00
         -1   -1    0    0    0  501 -0.00000000000E+00  0.00000000000E+00  0.65836411938E+02  0.65836411938E+02  0.00000000000E+00 0.  1.
          1   -1    0    0  501    0  0.00000000000E+00 -0.00000000000E+00 -0.57007050360E+03  0.57007050360E+03  0.00000000000E+00 0. -1.
         23    2    1    2    0    0  0.97902828447E+02  0.12717528506E+03 -0.24271610212E+03  0.30455147837E+03  0.89899832061E+02 0.  0.
          5    1    1    2  502    0 -0.11230934726E+03 -0.99298744994E+02 -0.25939517552E+03  0.29962803561E+03  0.41800000000E+01 0.  1.
         -5    1    1    2    0  502  0.14406518818E+02 -0.27876540064E+02 -0.21228140315E+01  0.31727401561E+02  0.41800000000E+01 0.  1.
        -11    1    3    3    0    0  0.25944472397E+02  0.33459064358E+02 -0.99187567534E+01  0.43485703067E+02  0.00000000000E+00 0.  1.
         11    1    3    3    0    0  0.71958356050E+02  0.93716220699E+02 -0.23279734536E+03  0.26106577530E+03  0.00000000000E+00 0. -1.
</event>
<event>
 7    1  0.4096326E-006  0.7862715E+02  0.7561462E-02  0.1332993E+00
          4   -1    0    0  501    0  0.00000000000E+00  0.00000000000E+00  0.18963746956E+02  0.18963746956E+02  0.00000000000E+00 0. -1.
         -4   -1    0    0    0  501 -0.00000000000E+00 -0.00000000000E+00 -0.60450553125E+03  0.60450553125E+03  0.00000000000E+00 0.  1.
         23    2    1    2    0    0  0.25642181871E+02  0.16609785548E+02 -0.23808526690E+03  0.25292064515E+03  0.79692232780E+02 0.  0.
          5    1    1    2  502    0  0.23804520685E+02 -0.21185823750E+02 -0.30005540175E+03  0.30177178605E+03  0.41800000000E+01 0.  1.
         -5    1    1    2    0  502 -0.49446702556E+02  0.45760382022E+01 -0.47401115645E+02  0.68776847003E+02  0.41800000000E+01 0.  1.
        -11    1    3    3    0    0  0.34344188711E+02 -0.18568386090E+02 -0.18204309487E+03  0.18618269697E+03  0.00000000000E+00 0.  1.
         11    1    3    3    0    0 -0.87020068400E+01  0.35178171639E+02 -0.56042172027E+02  0.66737948188E+02  0.00000000000E+00 0. -1.
</event>
<event>
 7    1  0.4096326E-006  0.1111366E+03  0.7561462E-02  0.1258480E+00
         -1   -1    0    0    0  501 -0.00000000000E+00  0.00000000000E+00  0.10842833846E+04  0.10842833846E+04  0.00000000000E+00 0.  1.
          1   -1    0    0  501    0  0.00000000000E+00 -0.00000000000E+00 -0.14078380287E+02  0.14078380287E+02  0.00000000000E+00 0. -1.
         23    2    1    2    0    0 -0.26785367321E+02 -0.31148552062E+02  0.25599278250E+03  0.27357220414E+03  0.87302680301E+02 0.  0.
          5    1    1    2  502    0 -0.30417331875E+02  0.56299763771E+02  0.52315721368E+03  0.52707287931E+03  0.41800000000E+01 0. -1.
         -5    1    1    2    0  502  0.57202699196E+02 -0.25151211709E+02  0.29105500809E+03  0.29771668139E+03  0.41800000000E+01 0. -1.
        -11    1    3    3    0    0  0.23278225024E+02 -0.38427254337E+02  0.13984950703E+03  0.14688912231E+03  0.00000000000E+00 0. -1.
         11    1    3    3    0    0 -0.50063592345E+02  0.72787022751E+01  0.11614327547E+03  0.12668308183E+03  0.00000000000E+00 0.  1.
</event>
<event>
 7    1  0.4096326E-006  0.1179510E+03  0.7561462E-02  0.1246516E+00
          2   -1    0    0  501    0  0.00000000000E+00  0.00000000000E+00  0.15439181662E+03  0.15439181662E+03  0.00000000000E+00 0. -1.
         -2   -1    0    0    0  501 -0.00000000000E+00 -0.00000000000E+00 -0.12957295252E+03  0.12957295252E+03  0.00000000000E+00 0.  1.
         23    2    1    2    0    0 -0.95431797744E+02 -0.16125176795E+02  0.29570939690E+01  0.13169629727E+03  0.89263211704E+02 0.  0.
          5    1    1    2  502    0  0.49761655869E+02  0.42002529965E+02  0.58888024538E+02  0.87895999638E+02  0.41800000000E+01 0. -1.
         -5    1    1    2    0  502  0.45670141875E+02 -0.25877353170E+02 -0.37026254404E+02  0.64372472232E+02  0.41800000000E+01 0.  1.
        -11    1    3    3    0    0  0.44011755682E+01 -0.17605634742E+02 -0.22257187001E+02  0.28717783589E+02  0.00000000000E+00 0. -1.
         11    1    3    3    0    0 -0.99832973313E+02  0.14804579467E+01  0.25214280970E+02  0.10297851369E+03  0.00000000000E+00 0.  1.
</event>
<event>
 7    1  0.4096326E-006  0.1285176E+03  0.7561462E-02  0.1229672E+00
         -1   -1    0    0    0  501 -0.00000000000E+00  0.00000000000E+00  0.10749517259E+03  0.10749517259E+03  0.00000000000E+00 0.  1.
          1   -1    0    0  501    0  0.00000000000E+00 -0.00000000000E+00 -0.21226224107E+03  0.21226224107E+03  0.00000000000E+00 0. -1.
         23    2    1    2    0    0  0.70064626575E+02  0.65903882729E+02 -0.90943565220E+02  0.16135614163E+03  0.92264287416E+02 0.  0.
          5    1    1    2  502    0 -0.58318926461E+02 -0.95641839370E+02  0.17489130774E+02  0.11345395858E+03  0.41800000000E+01 0.  1.
         -5    1    1    2    0  502 -0.11745700115E+02  0.29737956641E+02 -0.31312634027E+02  0.44947313446E+02  0.41800000000E+01 0.  1.
        -11    1    3    3    0    0  0.22367376977E+02  0.60725766124E+02 -0.75589539737E+01  0.65154094341E+02  0.00000000000E+00 0.  1.
         11    1    3    3    0    0  0.47697249598E+02  0.51781166046E+01 -0.83384611246E+02  0.96202047294E+02  0.00000000000E+00 0. -1.
</event>
<event>
 7    1  0.4096326E-006  0.1832041E+03  0.7561462E-02  0.1164738E+00
          1   -1    0    0  501    0  0.00000000000E+00  0.00000000000E+00  0.13307386329E+03  0.13307386329E+03  0.00000000000E+00 0. -1.
         -1   -1    0    0    0  501 -0.00000000000E+00 -0.00000000000E+00 -0.27279457631E+03  0.27279457631E+03  0.00000000000E+00 0.  1.
         23    2    1    2    0    0 -0.14643717099E+03 -0.54809716606E+02 -0.58989779814E+02  0.18996937789E+03  0.90336151860E+02 0.  0.
          5    1    1    2  502    0  0.15073404561E+03  0.79560171646E+02 -0.84279475477E+02  0.19018694961E+03  0.41800000000E+01 0.  1.
         -5    1    1    2    0  502 -0.42968746205E+01 -0.24750455039E+02  0.35485422624E+01  0.25712112094E+02  0.41800000000E+01 0.  1.
        -11    1    3    3    0    0 -0.57970417315E+02  0.12480227580E+02  0.85444230801E+01  0.59911038464E+02  0.00000000000E+00 0. -1.
         11    1    3    3    0    0 -0.88466753671E+02 -0.67289944187E+02 -0.67534202894E+02  0.13005833943E+03  0.00000000000E+00 0.  1.
</event>
<event>
 7    1  0.4096326E-006  0.1713882E+03  0.7561462E-02  0.1176408E+00
          1   -1    0    0  501    0  0.00000000000E+00  0.00000000000E+00  0.35625244721E+03  0.35625244721E+03  0.00000000000E+00 0. -1.
         -1   -1    0    0    0  501 -0.00000000000E+00 -0.00000000000E+00 -0.10097979588E+03  0.10097979588E+03  0.00000000000E+00 0.  1.
         23    2    1    2    0    0 -0.14667049909E+03  0.53604153283E+00  0.18153933045E+03  0.25084362518E+03  0.91942771080E+02 0.  0.
          5    1    1    2  502    0  0.56263283483E+02  0.44881203152E+02  0.76464719055E+02  0.10509141318E+03  0.41800000000E+01 0. -1.
         -5    1    1    2    0  502  0.90407215604E+02 -0.45417244685E+02 -0.27313981760E+01  0.10129720472E+03  0.41800000000E+01 0. -1.
        -11    1    3    3    0    0 -0.10580866027E+03  0.39519982312E+02  0.14407960487E+03  0.18307439507E+03  0.00000000000E+00 0. -1.
         11    1    3    3    0    0 -0.40861838815E+02 -0.38983940779E+02  0.37459725571E+02  0.67769230111E+02  0.00000000000E+00 0.  1.
</event>
<event>
 7    1  0.4096326E-006  0.7279023E+02  0.7561462E-02  0.1350854E+00
          2   -1    0    0  501    0  0.00000000000E+00  0.00000000000E+00  0.50622623708E+03  0.50622623708E+03  0.00000000000E+00 0. -1.
         -2   -1    0    0    0  501 -0.00000000000E+00 -0.00000000000E+00 -0.25418283072E+02  0.25418283072E+02  0.00000000000E+00 0.  1.
         23    2    1    2    0    0 -0.12463867299E+02  0.11314196665E+02  0.19593765333E+03  0.21519079254E+03  0.87362201036E+02 0.  0.
          5    1    1    2  502    0  0.33781463437E+02 -0.65746991903E+01  0.29126257432E+03  0.29331855301E+03  0.41800000000E+01 0. -1.
         -5    1    1    2    0  502 -0.21317596138E+02 -0.47394974749E+01 -0.63922736377E+01  0.23135174598E+02  0.41800000000E+01 0.  1.
        -11    1    3    3    0    0 -0.69623103475E+01 -0.38214912344E+02  0.94542884551E+02  0.10221159577E+03  0.00000000000E+00 0.  1.
         11    1    3    3    0    0 -0.55015569510E+01  0.49529109009E+02  0.10139476878E+03  0.11297919677E+03  0.00000000000E+00 0. -1.
</event>
<event>
 7    1  0.4096326E-006  0.1058899E+03  0.7561462E-02  0.1268376E+00
         -2   -1    0    0    0  501 -0.00000000000E+00  0.00000000000E+00  0.11522031369E+03  0.11522031369E+03  0.00000000000E+00 0.  1.
          2   -1    0    0  501    0  0.00000000000E+00 -0.00000000000E+00 -0.21777783069E+03  0.21777783069E+03  0.00000000000E+00 0. -1.
         23    2    1    2    0    0  0.75107593147E+02 -0.31119811037E+02 -0.13375822534E+03  0.18059021204E+03  0.90066467955E+02 0.  0.
          5    1    1    2  502    0  0.31183206554E+01  0.66237281752E+01 -0.41752130497E+02  0.42594723848E+02  0.41800000000E+01 0.  1.
         -5    1    1    2    0  502 -0.78225913802E+02  0.24496082862E+02  0.72952838840E+02  0.10981320850E+03  0.41800000000E+01 0.  1.
        -11    1    3    3    0    0  0.30597059903E+02 -0.60598002735E+02 -0.72019513837E+02  0.98970239888E+02  0.00000000000E+00 0.  1.
         11    1    3    3    0    0  0.44510533244E+02  0.29478191698E+02 -0.61738711503E+02  0.81619972148E+02  0.00000000000E+00 0. -1.
</event>
<event>
 7    1  0.4096326E-006  0.1229499E+03  0.7561462E-02  0.1238308E+00
          1   -1    0    0  501    0  0.00000000000E+00  0.00000000000E+00  0.95207544147E+02  0.95207544147E+02  0.00000000000E+00 0. -1.
         -1   -1    0    0    0  501 -0.00000000000E+00 -0.00000000000E+00 -0.32099149818E+03  0.32099149818E+03  0.00000000000E+00 0.  1.
         23    2    1    2    0    0 -0.36019893930E+02  0.86448055876E+02  0.11962015446E+02  0.13169521552E+03  0.91814164772E+02 0.  0.
          5    1    1    2  502    0  0.61981054652E+02 -0.79389574423E+02 -0.23668373960E+03  0.25725672130E+03  0.41800000000E+01 0. -1.
         -5    1    1    2    0  502 -0.25961160722E+02 -0.70584814532E+01 -0.10622298800E+01  0.27247105512E+02  0.41800000000E+01 0. -1.
        -11    1    3    3    0    0  0.12035421363E+02  0.63470327580E+02 -0.22322379194E+02  0.68349268200E+02  0.00000000000E+00 0.  1.
         11    1    3    3    0    0 -0.48055315294E+02  0.22977728296E+02  0.34284394640E+02  0.63345947317E+02  0.00000000000E+00 0. -1.
</event>
<event>
 7    1  0.4096326E-006  0.1030096E+03  0.7561462E-02  0.1274092E+00
          1   -1    0    0  501    0  0.00000000000E+00  0.00000000000E+00  0.63153001347E+03  0.63153001347E+03  0.00000000000E+00 0. -1.
         -1   -1    0    0    0  501 -0.00000000000E+00 -0.00000000000E+00 -0.20103005327E+02  0.20103005327E+02  0.00000000000E+00 0.  1.
         23    2    1    2    0    0 -0.17747431812E+02 -0.20372300018E+02  0.28314886297E+03  0.29929161276E+03  0.93124588202E+02 0.  0.
          5    1    1    2  502    0  0.29386385548E+00  0.71912633074E+02  0.16086143767E+03  0.17625375933E+03  0.41800000000E+01 0. -1.
         -5    1    1    2    0  502  0.17453567956E+02 -0.51540333056E+02  0.16741670751E+03  0.17608764670E+03  0.41800000000E+01 0. -1.
        -11    1    3    3    0    0 -0.34532545485E+02  0.16963092309E+02  0.22448166800E+03  0.22775482973E+03  0.00000000000E+00 0. -1.
         11    1    3    3    0    0  0.16785113673E+02 -0.37335392327E+02  0.58667194965E+02  0.71536783030E+02  0.00000000000E+00 0.  1.
</event>
<event>
 7    1  0.4096326E-006  0.1163237E+03  0.7561462E-02  0.1249288E+00
         -2   -1    0    0    0  501 -0.00000000000E+00  0.00000000000E+00  0.43809316142E+03  0.43809316142E+03  0.00000000000E+00 0.  1.
          2   -1    0    0  501    0  0.00000000000E+00 -0.00000000000E+00 -0.51869587503E+02  0.51869587503E+02  0.00000000000E+00 0. -1.
         23    2    1    2    0    0 -0.79614011988E+02 -0.37064744328E+02  0.10805811741E+03  0.16437839547E+03  0.87358536978E+02 0.  0.
          5    1    1    2  502    0 -0.13396994324E+01 -0.22966020107E+02 -0.59225487322E+01  0.24120154593E+02  0.41800000000E+01 0. -1.
         -5    1    1    2    0  502  0.80953711420E+02  0.60030764435E+02  0.28408800524E+03  0.30146419886E+03  0.41800000000E+01 0.  1.
        -11    1    3    3    0    0  0.10912036880E+02 -0.10261177093E+01 -0.74579102066E+01  0.13256918612E+02  0.00000000000E+00 0.  1.
         11    1    3    3    0    0 -0.90526048868E+02 -0.36038626618E+02  0.11551602762E+03  0.15112147686E+03  0.00000000000E+00 0. -1.
</event>
<event>
 7    1  0.4096326E-006  0.9149989E+02  0.7561462E-02  0.1299260E+00
          3   -1    0    0  501    0  0.00000000000E+00  0.00000000000E+00  0.38997696058E+03  0.38997696058E+03  0.00000000000E+00 0. -1.
         -3   -1    0    0    0  501 -0.00000000000E+00 -0.00000000000E+00 -0.37529445148E+02  0.37529445148E+02  0.00000000000E+00 0.  1.
         23    2    1    2    0    0 -0.21627951895E+02 -0.27339481315E+02  0.24811392505E+03  0.26631569929E+03  0.90268025038E+02 0.  0.
          5    1    1    2  502    0  0.20101324275E+02 -0.28597732511E+02  0.98704919744E+02  0.10479516747E+03  0.41800000000E+01 0. -1.
         -5    1    1    2    0  502  0.15266276203E+01  0.55937213827E+02  0.56286706373E+01  0.56395538970E+02  0.41800000000E+01 0.  1.
        -11    1    3    3    0    0 -0.14350371286E+02  0.30330402785E+02  0.13540608073E+03  0.13950151679E+03  0.00000000000E+00 0.  1.
         11    1    3    3    0    0 -0.72775806093E+01 -0.57669884100E+02  0.11270784433E+03  0.12681418251E+03  0.00000000000E+00 0. -1.
</event>
<event>
 7    1  0.4096326E-006  0.2001809E+03  0.7561462E-02  0.1149586E+00
         -1   -1    0    0    0  501 -0.00000000000E+00  0.00000000000E+00  0.14022472366E+03  0.14022472366E+03  0.00000000000E+00 0.  1.
          1   -1    0    0  501    0  0.00000000000E+00 -0.00000000000E+00 -0.35279415338E+03  0.35279415338E+03  0.00000000000E+00 0. -1.
         23    2    1    2    0    0 -0.13987760864E+03 -0.10451985141E+03 -0.19624303063E+03  0.27756890103E+03  0.89682902532E+02 0.  0.
          5    1    1    2  502    0  0.12656547392E+03  0.23258875339E+02 -0.29142518686E+02  0.13200967111E+03  0.41800000000E+01 0.  1.
         -5    1    1    2    0  502  0.13312134725E+02  0.81260976067E+02  0.12816119598E+02  0.83440304912E+02  0.41800000000E+01 0.  1.
        -11    1    3    3    0    0 -0.51599750205E+02  0.96505352395E+00 -0.90071611713E+02  0.10380925193E+03  0.00000000000E+00 0. -1.
         11    1    3    3    0    0 -0.88277858439E+02 -0.10548490493E+03 -0.10617141892E+03  0.17375964910E+03  0.00000000000E+00 0.  1.
</event>
<event>
 7    1  0.4096326E-006  0.2813438E+03  0.7561462E-02  0.1094957E+00
          2   -1    0    0  501    0  0.00000000000E+00  0.00000000000E+00  0.24295056251E+03  0.24295056251E+03  0.00000000000E+00 0.  1.
         -2   -1    0    0    0  501 -0.00000000000E+00 -0.00000000000E+00 -0.37099620176E+03  0.37099620176E+03  0.00000000000E+00 0. -1.
         23    2    1    2    0    0  0.20918251762E+03 -0.16478199572E+03  0.24531970538E+02  0.28252846723E+03  0.91159669967E+02 0.  0.
          5    1    1    2  502    0 -0.46634234432E+02 -0.17395283717E+02 -0.23197880355E+02  0.55072332161E+02  0.41800000000E+01 0.  1.
         -5    1    1    2    0  502 -0.16254828318E+03  0.18217727944E+03 -0.12937972943E+03  0.27634596487E+03  0.41800000000E+01 0.  1.
        -11    1    3    3    0    0  0.10759208625E+03 -0.62680952875E+02  0.53645965940E+02  0.13558336379E+03  0.00000000000E+00 0.  1.
         11    1    3    3    0    0  0.10159043137E+03 -0.10210104285E+03 -0.29113995403E+02  0.14694510344E+03  0.00000000000E+00 0. -1.
</event>
<event>
 7    1  0.4096326E-006  0.1045867E+03  0.7561462E-02  0.1270936E+00
         -2   -1    0    0    0  501 -0.00000000000E+00  0.00000000000E+00  0.32951908193E+03  0.32951908193E+03  0.00000000000E+00 0.  1.
          2   -1    0    0  501    0  0.00000000000E+00 -0.00000000000E+00 -0.45338383117E+02  0.45338383117E+02  0.00000000000E+00 0. -1.
         23    2    1    2    0    0  0.25550978770E+02 -0.21896400809E+02  0.55719569369E+02  0.11222727175E+03  0.91422017205E+02 0.  0.
          5    1    1    2  502    0 -0.21664945926E+02 -0.45531527037E+02  0.47374162419E+02  0.69312866779E+02  0.41800000000E+01 0. -1.
         -5    1    1    2    0  502 -0.38860328438E+01  0.67427927846E+02  0.18108696702E+03  0.19331732652E+03  0.41800000000E+01 0. -1.
        -11    1    3    3    0    0 -0.22297871547E+02 -0.34817459473E+02  0.55703682154E+01  0.41719055139E+02  0.00000000000E+00 0. -1.
         11    1    3    3    0    0  0.47848850317E+02  0.12921058664E+02  0.50149201154E+02  0.70508216614E+02  0.00000000000E+00 0.  1.
</event>
<event>
 7    1  0.4096326E-006  0.7732332E+02  0.7561462E-02  0.1336824E+00
          4   -1    0    0  501    0  0.00000000000E+00  0.00000000000E+00  0.28136211278E+03  0.28136211278E+03  0.00000000000E+00 0.  1.
         -4   -1    0    0    0  501 -0.00000000000E+00 -0.00000000000E+00 -0.62132018520E+02  0.62132018520E+02  0.00000000000E+00 0. -1.
         23    2    1    2    0    0 -0.75801480643E+01 -0.53997730722E+01  0.19464690300E+03  0.21567059860E+03  0.92410897932E+02 0.  0.
          5    1    1    2  502    0 -0.30973552026E+02 -0.60219818145E+01  0.63926675974E+02  0.71412306300E+02  0.41800000000E+01 0.  1.
         -5    1    1    2    0  502  0.38553700091E+02  0.11421754887E+02 -0.39343484713E+02  0.56411226407E+02  0.41800000000E+01 0.  1.
        -11    1    3    3    0    0  0.27520093919E+02  0.24068783274E+02  0.13823608173E+03  0.14298907717E+03  0.00000000000E+00 0.  1.
         11    1    3    3    0    0 -0.35100241983E+02 -0.29468556346E+02  0.56410821273E+02  0.72681521428E+02  0.00000000000E+00 0. -1.
</event>
<event>
 7    1  0.4096326E-006  0.1351425E+03  0.7561462E-02  0.1220019E+00
         -2   -1    0    0    0  501 -0.00000000000E+00  0.00000000000E+00  0.41420615628E+02  0.41420615628E+02  0.00000000000E+00 0.  1.
          2   -1    0    0  501    0  0.00000000000E+00 -0.00000000000E+00 -0.64530555887E+03  0.64530555887E+03  0.00000000000E+00 0. -1.
         23    2    1    2    0    0  0.11479502113E+03 -0.38303855174E+02 -0.30844678754E+03  0.34383118828E+03  0.91844341625E+02 0.  0.
          5    1    1    2  502    0  0.47201908962E+01  0.22872777570E+02  0.77279898482E-01  0.23725988452E+02  0.41800000000E+01 0.  1.
         -5    1    1    2    0  502 -0.11951521202E+03  0.15431077604E+02 -0.29551543560E+03  0.31916899777E+03  0.41800000000E+01 0.  1.
        -11    1    3    3    0    0  0.85743227344E+02 -0.11609537335E+02 -0.10249266081E+03  0.13413212856E+03  0.00000000000E+00 0.  1.
         11    1    3    3    0    0  0.29051793785E+02 -0.26694317839E+02 -0.20595412673E+03  0.20969905971E+03  0.00000000000E+00 0. -1.
</event>
<event>
 7    1  0.4096326E-006  0.1200911E+03  0.7561462E-02  0.1242947E+00
         -2   -1    0    0    0  501 -0.00000000000E+00  0.00000000000E+00  0.77257702808E+02  0.77257702808E+02  0.00000000000E+00 0. -1.
          2   -1    0    0  501    0  0.00000000000E+00 -0.00000000000E+00 -0.27412156359E+03  0.27412156359E+03  0.00000000000E+00 0.  1.
         23    2    1    2    0    0  0.72129050224E+02  0.39108823845E+02 -0.14849749222E+03  0.19416095014E+03  0.94418585972E+02 0.  0.
          5    1    1    2  502    0  0.14527613429E+02  0.15379374393E+02  0.23637849681E+02  0.31996828690E+02  0.41800000000E+01 0. -1.
         -5    1    1    2    0  502 -0.86656663653E+02 -0.54488198238E+02 -0.72004218245E+02  0.12522148756E+03  0.41800000000E+01 0. -1.
        -11    1    3    3    0    0  0.28412460935E+02 -0.25487534456E+02 -0.18164038281E+02  0.42270730248E+02  0.00000000000E+00 0. -1.
         11    1    3    3    0    0  0.43716589290E+02  0.64596358301E+02 -0.13033345394E+03  0.15189021990E+03  0.00000000000E+00 0.  1.
</event>
<event>
 7    1  0.4096326E-006  0.7341439E+02  0.7561462E-02  0.1348853E+00
         -1   -1    0    0    0  501 -0.00000000000E+00  0.00000000000E+00  0.14568921176E+03  0.14568921176E+03  0.00000000000E+00 0.  1.
          1   -1    0    0  501    0  0.00000000000E+00 -0.00000000000E+00 -0.10487355043E+03  0.10487355043E+03  0.00000000000E+00 0. -1.
         23    2    1    2    0    0  0.51623286615E+02 -0.28977676153E+02  0.22147252832E+02  0.11092286664E+03  0.91152137106E+02 0.  0.
          5    1    1    2  502    0 -0.57902899975E+01  0.35510632631E+02 -0.46904164226E+02  0.59262176048E+02  0.41800000000E+01 0.  1.
         -5    1    1    2    0  502 -0.45832996618E+02 -0.65329564786E+01  0.65572572722E+02  0.80377719504E+02  0.41800000000E+01 0.  1.
        -11    1    3    3    0    0  0.36016005304E+02 -0.62533754538E+01  0.56241748989E+02  0.67077504963E+02  0.00000000000E+00 0.  1.
         11    1    3    3    0    0  0.15607281312E+02 -0.22724300699E+02 -0.34094496158E+02  0.43845361675E+02  0.00000000000E+00 0. -1.
</event>
<event>
 7    1  0.4096326E-006  0.8444786E+02  0.7561462E-02  0.1316883E+00
          1   -1    0    0  501    0  0.00000000000E+00  0.00000000000E+00  0.74820591425E+03  0.74820591425E+03  0.00000000000E+00 0. -1.
         -1   -1    0    0    0  501 -0.00000000000E+00 -0.00000000000E+00 -0.17249848062E+02  0.17249848062E+02  0.00000000000E+00 0.  1.
         23    2    1    2    0    0  0.19274591401E+02 -0.23111077521E+02  0.29199502840E+03  0.30802651894E+03  0.93346708457E+02 0.  0.
          5    1    1    2  502    0 -0.34800023827E+02 -0.81525028143E+01  0.41083241937E+03  0.41240544876E+03  0.41800000000E+01 0.  1.
         -5    1    1    2    0  502  0.15525432426E+02  0.31263580336E+02  0.28128618411E+02  0.45023794611E+02  0.41800000000E+01 0.  1.
        -11    1    3    3    0    0  0.51715635885E+01  0.36313070651E+02  0.97696863745E+02  0.10435545676E+03  0.00000000000E+00 0.  1.
         11    1    3    3    0    0  0.14103027813E+02 -0.59424148172E+02  0.19429816466E+03  0.20367106218E+03  0.00000000000E+00 0. -1.
</event>
<event>
 7    1  0.4096326E-006  0.9586401E+02  0.7561462E-02  0.1289242E+00
          1   -1    0    0  501    0  0.00000000000E+00  0.00000000000E+00  0.47571747741E+03  0.47571747741E+03  0.00000000000E+00 0. -1.
         -1   -1    0    0    0  501 -0.00000000000E+00 -0.00000000000E+00 -0.59385177649E+02  0.59385177649E+02  0.00000000000E+00 0.  1.
         23    2    1    2    0    0  0.47113870326E+02  0.26354336823E+01  0.29525488044E+03  0.31230037649E+03  0.90163287682E+02 0.  0.
          5    1    1    2  502    0  0.21925181441E+02 -0.13762623880E+02  0.14608349122E+03  0.14841826776E+03  0.41800000000E+01 0. -1.
         -5    1    1    2    0  502 -0.69039051767E+02  0.11127190198E+02 -0.25006071907E+02  0.74384010801E+02  0.41800000000E+01 0.  1.
        -11    1    3    3    0    0  0.18085841197E+02 -0.39984642793E+02  0.19116547942E+03  0.19613798671E+03  0.00000000000E+00 0.  1.
         11    1    3    3    0    0  0.29028029128E+02  0.42620076476E+02  0.10408940102E+03  0.11616238978E+03  0.00000000000E+00 0. -1.
</event>
<event>
 7    1  0.4096326E-006  0.9111433E+02  0.7561462E-02  0.1300175E+00
          2   -1    0    0  501    0  0.00000000000E+00  0.00000000000E+00  0.16817196530E+03  0.16817196530E+03  0.00000000000E+00 0. -1.
         -2   -1    0    0    0  501 -0.00000000000E+00 -0.00000000000E+00 -0.70554478088E+02  0.70554478088E+02  0.00000000000E+00 0.  1.
         23    2    1    2    0    0  0.11289791607E+02  0.85164819125E+00  0.41119397582E+02  0.10100167654E+03  0.91555169747E+02 0.  0.
          5    1    1    2  502    0 -0.47404915710E+02 -0.31922163599E+02  0.67609123035E+02  0.88626838373E+02  0.41800000000E+01 0. -1.
         -5    1    1    2    0  502  0.36115124103E+02  0.31070515408E+02 -0.11111033410E+02  0.49097928471E+02  0.41800000000E+01 0. -1.
        -11    1    3    3    0    0 -0.32049280485E+02  0.83466849200E+01  0.46073190982E+02  0.56741188356E+02  0.00000000000E+00 0. -1.
         11    1    3    3    0    0  0.43339072092E+02 -0.74950367288E+01 -0.49537933996E+01  0.44260488185E+02  0.00000000000E+00 0.  1.
</event>
<event>
 7    1  0.4096326E-006  0.1533069E+03  0.7561462E-02  0.1196467E+00
          2   -1    0    0  501    0  0.00000000000E+00  0.00000000000E+00  0.71640882432E+03  0.71640882432E+03  0.00000000000E+00 0.  1.
         -2   -1    0    0    0  501 -0.00000000000E+00 -0.00000000000E+00 -0.42894868779E+02  0.42894868779E+02  0.00000000000E+00 0. -1.
         23    2    1    2    0    0  0.93844632034E+02  0.75130558512E+02  0.45858123519E+03  0.48308826621E+03  0.92876842631E+02 0.  0.
          5    1    1    2  502    0  0.14875196216E+02  0.84212766656E+01  0.86584837331E+02  0.88354942243E+02  0.41800000000E+01 0. -1.
         -5    1    1    2    0  502 -0.10871982825E+03 -0.83551835178E+02  0.12834788303E+03  0.18786048465E+03  0.41800000000E+01 0. -1.
        -11    1    3    3    0    0 -0.11686514017E+02 -0.10671688282E+02  0.43292844763E+02  0.46094793072E+02  0.00000000000E+00 0.  1.
         11    1    3    3    0    0  0.10553114605E+03  0.85802246795E+02  0.41528839042E+03  0.43699347313E+03  0.00000000000E+00 0. -1.
</event>
<event>
 7    1  0.4096326E-006  0.2232439E+03  0.7561462E-02  0.1131487E+00
          1   -1    0    0  501    0  0.00000000000E+00  0.00000000000E+00  0.34842266391E+03  0.34842266391E+03  0.00000000000E+00 0. -1.
         -1   -1    0    0    0  501 -0.00000000000E+00 -0.00000000000E+00 -0.18823197214E+03  0.18823197214E+03  0.00000000000E+00 0.  1.
         23    2    1    2    0    0 -0.21088061281E+03  0.22768999823E+02  0.17569652351E+03  0.28992181153E+03  0.90533575078E+02 0.  0.
          5    1    1    2  502    0  0.13853038949E+03  0.32343345235E+02  0.29232638831E+02  0.14528861058E+03  0.41800000000E+01 0.  1.
         -5    1    1    2    0  502  0.72350223320E+02 -0.55112345059E+02 -0.44738470566E+02  0.10144421394E+03  0.41800000000E+01 0.  1.
        -11    1    3    3    0    0 -0.60582754279E+02 -0.28913840388E+01  0.10632946752E+03  0.12241154308E+03  0.00000000000E+00 0. -1.
         11    1    3    3    0    0 -0.15029785853E+03  0.25660383862E+02  0.69367055997E+02  0.16751026845E+03  0.00000000000E+00 0.  1.
</event>
<event>
 7    1  0.4096326E-006  0.1302170E+03  0.7561462E-02  0.1227134E+00
         -2   -1    0    0    0  501 -0.00000000000E+00  0.00000000000E+00  0.21642476046E+03  0.21642476046E+03  0.00000000000E+00 0.  1.
          2   -1    0    0  501    0  0.00000000000E+00 -0.00000000000E+00 -0.37500475087E+03  0.37500475087E+03  0.00000000000E+00 0. -1.
         23    2    1    2    0    0  0.79330061699E+02 -0.47763568395E+02 -0.33330234696E+03  0.35744199001E+03  0.89998358781E+02 0.  0.
          5    1    1    2  502    0 -0.45106391322E+02 -0.29574426636E+02  0.12398793100E+03  0.13527643062E+03  0.41800000000E+01 0.  1.
         -5    1    1    2    0  502 -0.34223670377E+02  0.77337995031E+02  0.50734425547E+02  0.98711090689E+02  0.41800000000E+01 0.  1.
        -11    1    3    3    0    0  0.58401928027E+02  0.10868397859E+02 -0.10329680471E+03  0.11916013231E+03  0.00000000000E+00 0.  1.
         11    1    3    3    0    0  0.20928133673E+02 -0.58631966254E+02 -0.23000554225E+03  0.23828185770E+03  0.00000000000E+00 0. -1.
</event>
<event>
 7    1  0.4096326E-006  0.9992944E+02  0.7561462E-02  0.1280444E+00
          1   -1    0    0  501    0  0.00000000000E+00  0.00000000000E+00  0.19936037485E+03  0.19936037485E+03  0.00000000000E+00 0. -1.
         -1   -1    0    0    0  501 -0.00000000000E+00 -0.00000000000E+00 -0.12442670482E+03  0.12442670482E+03  0.00000000000E+00 0.  1.
         23    2    1    2    0    0 -0.92119360989E+01 -0.39650856481E+02  0.14343959485E+03  0.17547411040E+03  0.92515922230E+02 0.  0.
          5    1    1    2  502    0 -0.15424520534E+02  0.65187047100E+02 -0.85542764440E+02  0.10873041843E+03  0.41800000000E+01 0.  1.
         -5    1    1    2    0  502  0.24636456633E+02 -0.25536190620E+02  0.17036839623E+02  0.39582550842E+02  0.41800000000E+01 0.  1.
        -11    1    3    3    0    0 -0.48424417518E+02 -0.28740123314E+02  0.10667877000E+03  0.12062868178E+03  0.00000000000E+00 0.  1.
         11    1    3    3    0    0  0.39212481419E+02 -0.10910733167E+02  0.36760824850E+02  0.54845428624E+02  0.00000000000E+00 0. -1.
</event>
<event>
 7    1  0.4096326E-006  0.1110272E+03  0.7561462E-02  0.1258679E+00
          1   -1    0    0  501    0  0.00000000000E+00  0.00000000000E+00  0.60109304212E+03  0.60109304212E+03  0.00000000000E+00 0. -1.
         -1   -1    0    0    0  501 -0.00000000000E+00 -0.00000000000E+00 -0.20682474361E+02  0.20682474361E+02  0.00000000000E+00 0.  1.
         23    2    1    2    0    0  0.28616961123E+02 -0.76364555315E+01  0.21744073716E+03  0.23671470723E+03  0.88747577581E+02 0.  0.
          5    1    1    2  502    0  0.47042566312E+02  0.20766336651E+02  0.15116780425E+03  0.15972921219E+03  0.41800000000E+01 0. -1.
         -5    1    1    2    0  502 -0.75659527435E+02 -0.13129881119E+02  0.21180202635E+03  0.22533159706E+03  0.41800000000E+01 0. -1.
        -11    1    3    3    0    0 -0.28866644053E+02 -0.19536365104E+02  0.80504959086E+02  0.87726855283E+02  0.00000000000E+00 0. -1.
         11    1    3    3    0    0  0.57483605176E+02  0.11899909573E+02  0.13693577807E+03  0.14898785195E+03  0.00000000000E+00 0.  1.
</event>
<event>
 7    1  0.4096326E-006  0.1739578E+03  0.7561462E-02  0.1173782E+00
         -1   -1    0    0    0  501 -0.00000000000E+00  0.00000000000E+00  0.28426124990E+02  0.28426124990E+02  0.00000000000E+00 0.  1.
          1   -1    0    0  501    0  0.00000000000E+00 -0.00000000000E+00 -0.12172462025E+04  0.12172462025E+04  0.00000000000E+00 0. -1.
         23    2    1    2    0    0 -0.60324661286E+02 -0.13588491493E+03 -0.65147072470E+03  0.67427512667E+03  0.90161335612E+02 0.  0.
          5    1    1    2  502    0  0.80415741526E+02  0.38485516991E+02 -0.18739767343E+03  0.20756489807E+03  0.41800000000E+01 0. -1.
         -5    1    1    2    0  502 -0.20091080240E+02  0.97399397938E+02 -0.34995167937E+03  0.36383230274E+03  0.41800000000E+01 0. -1.
        -11    1    3    3    0    0 -0.39769951557E+02 -0.26407273162E+02 -0.90161637318E+02  0.10202016451E+03  0.00000000000E+00 0.  1.
         11    1    3    3    0    0 -0.20554709729E+02 -0.10947764177E+03 -0.56130908739E+03  0.57225496216E+03  0.00000000000E+00 0. -1.
</event>
<event>
 7    1  0.4096326E-006  0.9721580E+02  0.7561462E-02  0.1286262E+00
         -2   -1    0    0    0  501 -0.00000000000E+00  0.00000000000E+00  0.10861218792E+03  0.10861218792E+03  0.00000000000E+00 0.  1.
          2   -1    0    0  501    0  0.00000000000E+00 -0.00000000000E+00 -0.12747209459E+03  0.12747209459E+03  0.00000000000E+00 0. -1.
         23    2    1    2    0    0  0.19104255214E+02  0.36687766888E+02 -0.31916788334E+02  0.10368733208E+03  0.89562361788E+02 0.  0.
          5    1    1    2  502    0 -0.60138772636E+02 -0.53695802062E+02  0.27839779268E+02  0.85395765954E+02  0.41800000000E+01 0. -1.
         -5    1    1    2    0  502  0.41034517422E+02  0.17008035173E+02 -0.14782897605E+02  0.47001184475E+02  0.41800000000E+01 0. -1.
        -11    1    3    3    0    0 -0.14201612528E+02 -0.55920131214E+01  0.22474711762E+02  0.27167426781E+02  0.00000000000E+00 0.  1.
         11    1    3    3    0    0  0.33305867743E+02  0.42279780010E+02 -0.54391500095E+02  0.76519905295E+02  0.00000000000E+00 0. -1.
</event>
<event>
 7    1  0.4096326E-006  0.7250337E+02  0.7561462E-02  0.1351781E+00
          2   -1    0    0  501    0  0.00000000000E+00  0.00000000000E+00  0.82250796806E+02  0.82250796806E+02  0.00000000000E+00 0. -1.
         -2   -1    0    0    0  501 -0.00000000000E+00 -0.00000000000E+00 -0.17724658947E+03  0.17724658947E+03  0.00000000000E+00 0.  1.
         23    2    1    2    0    0 -0.17771113286E+02  0.11605076802E+02  0.15451599898E+02  0.91281068204E+02  0.87424202587E+02 0.  0.
          5    1    1    2  502    0 -0.86742060426E+01  0.30970061420E+02  0.12981610429E+02  0.34933954316E+02  0.41800000000E+01 0.  1.
         -5    1    1    2    0  502  0.26445319329E+02 -0.42575138222E+02 -0.12342900299E+03  0.13328236376E+03  0.41800000000E+01 0.  1.
        -11    1    3    3    0    0  0.21611863635E+02  0.17460967711E+01  0.38800285874E+02  0.44447538600E+02  0.00000000000E+00 0. -1.
         11    1    3    3    0    0 -0.39382976921E+02  0.98589800308E+01 -0.23348685975E+02  0.46833529604E+02  0.00000000000E+00 0.  1.
</event>
<event>
 7    1  0.4096326E-006  0.9707442E+02  0.7561462E-02  0.1286571E+00
          2   -1    0    0  501    0  0.00000000000E+00  0.00000000000E+00  0.33443871548E+03  0.33443871548E+03  0.00000000000E+00 0. -1.
         -2   -1    0    0    0  501 -0.00000000000E+00 -0.00000000000E+00 -0.47053301536E+02  0.47053301536E+02  0.00000000000E+00 0.  1.
         23    2    1    2    0    0 -0.60877595907E+02  0.29223759941E+02  0.16557208791E+03  0.19428948507E+03  0.75988011480E+02 0.  0.
          5    1    1    2  502    0  0.73691609600E+02 -0.29401763138E+02  0.14212509919E+03  0.16282485444E+03  0.41800000000E+01 0.  1.
         -5    1    1    2    0  502 -0.12814013693E+02  0.17800319738E+00 -0.20311773153E+02  0.24377677508E+02  0.41800000000E+01 0.  1.
        -11    1    3    3    0    0 -0.38220438509E+02  0.54951596916E+02  0.11780510669E+03  0.13549362747E+03  0.00000000000E+00 0.  1.
         11    1    3    3    0    0 -0.22657157398E+02 -0.25727836975E+02  0.47766981217E+02  0.58795857604E+02  0.00000000000E+00 0. -1.
</event>
<event>
 7    1  0.4096326E-006  0.8375244E+02  0.7561462E-02  0.1318728E+00
         -3   -1    0    0    0  501 -0.00000000000E+00  0.00000000000E+00  0.31195086380E+03  0.31195086380E+03  0.00000000000E+00 0.  1.
          3   -1    0    0  501    0  0.00000000000E+00 -0.00000000000E+00 -0.41656565739E+02  0.41656565739E+02  0.00000000000E+00 0. -1.
         23    2    1    2    0    0 -0.19945333357E+02  0.30433903096E+02  0.85296291503E+02  0.12712224547E+03  0.86951533451E+02 0.  0.
          5    1    1    2  502    0 -0.23049465754E+02 -0.11857825763E+02 -0.83107376788E+01  0.27539547276E+02  0.41800000000E+01 0.  1.
         -5    1    1    2    0  502  0.42994799112E+02 -0.18576077334E+02  0.19330874424E+03  0.19894563679E+03  0.41800000000E+01 0.  1.
        -11    1    3    3    0    0  0.25215243896E+02 -0.15671705105E+02  0.28405441342E+02  0.41088684129E+02  0.00000000000E+00 0. -1.
         11    1    3    3    0    0 -0.45160577253E+02  0.46105608202E+02  0.56890850161E+02  0.86033561344E+02  0.00000000000E+00 0.  1.
</event>
<event>
 7    1  0.4096326E-006  0.6994944E+02  0.7561462E-02  0.1360265E+00
         -2   -1    0    0    0  501 -0.00000000000E+00  0.00000000000E+00  0.14273468990E+03  0.14273468990E+03  0.00000000000E+00 0.  1.
          2   -1    0    0  501    0  0.00000000000E+00 -0.00000000000E+00 -0.10031898260E+03  0.10031898260E+03  0.00000000000E+00 0. -1.
         23    2    1    2    0    0 -0.16334108842E+02  0.56162171228E+01 -0.23435502315E+02  0.10063891796E+03  0.96335995520E+02 0.  0.
          5    1    1    2  502    0  0.42115390084E+02 -0.44576728226E+02 -0.12119152295E+00  0.61467697766E+02  0.41800000000E+01 0.  1.
         -5    1    1    2    0  502 -0.25781281242E+02  0.38960511104E+02  0.65972401143E+02  0.80947056775E+02  0.41800000000E+01 0.  1.
        -11    1    3    3    0    0 -0.46801171858E+01  0.15533893338E+02  0.35882035743E+02  0.39379256318E+02  0.00000000000E+00 0.  1.
         11    1    3    3    0    0 -0.11653991656E+02 -0.99176762152E+01 -0.59317538058E+02  0.61259661641E+02  0.00000000000E+00 0. -1.
</event>
<event>
 7    1  0.4096326E-006  0.1239085E+03  0.7561462E-02  0.1236785E+00
          2   -1    0    0  501    0  0.00000000000E+00  0.00000000000E+00  0.41265949187E+03  0.41265949187E+03  0.00000000000E+00 0.  1.
         -2   -1    0    0    0  501 -0.00000000000E+00 -0.00000000000E+00 -0.48149821885E+02  0.48149821885E+02  0.00000000000E+00 0. -1.
         23    2    1    2    0    0  0.22319485338E+02 -0.74340050257E+02  0.23977536413E+03  0.26785491254E+03  0.90716186147E+02 0.  0.
          5    1    1    2  502    0  0.22960237945E+02  0.89851715351E+02  0.10720128549E+03  0.14181005356E+03  0.41800000000E+01 0.  1.
         -5    1    1    2    0  502 -0.45279723283E+02 -0.15511665094E+02  0.17533020359E+02  0.51144347660E+02  0.41800000000E+01 0.  1.
        -11    1    3    3    0    0 -0.26947336963E+01 -0.81006612550E+02  0.11669230266E+03  0.14207894413E+03  0.00000000000E+00 0. -1.
         11    1    3    3    0    0  0.25014219035E+02  0.66665622923E+01  0.12308306148E+03  0.12577596841E+03  0.00000000000E+00 0.  1.
</event>
<event>
 7    1  0.4096326E-006  0.1031408E+03  0.7561462E-02  0.1273827E+00
         -3   -1    0    0    0  501 -0.00000000000E+00  0.00000000000E+00  0.17723854704E+03  0.17723854704E+03  0.00000000000E+00 0.  1.
          3   -1    0    0  501    0  0.00000000000E+00 -0.00000000000E+00 -0.62349592090E+02  0.62349592090E+02  0.00000000000E+00 0. -1.
         23    2    1    2    0    0 -0.11637519245E+02 -0.23358306411E+01  0.30275219593E+02  0.97757743113E+02  0.92190560570E+02 0.  0.
          5    1    1    2  502    0 -0.34333247766E+02  0.40964801853E+02  0.38476043307E+02  0.65990644803E+02  0.41800000000E+01 0. -1.
         -5    1    1    2    0  502  0.45970767011E+02 -0.38628971212E+02  0.46137692051E+02  0.75839751214E+02  0.41800000000E+01 0.  1.
        -11    1    3    3    0    0  0.17810020960E+02  0.38331987408E+02  0.89376757485E+01  0.43202085054E+02  0.00000000000E+00 0. -1.
         11    1    3    3    0    0 -0.29447540205E+02 -0.40667818049E+02  0.21337543845E+02  0.54555658059E+02  0.00000000000E+00 0.  1.
</event>
<event>
 7    1  0.4096326E-006  0.1605728E+03  0.7561462E-02  0.1188052E+00
          2   -1    0    0  501    0  0.00000000000E+00  0.00000000000E+00  0.11470398660E+04  0.11470398660E+04  0.00000000000E+00 0. -1.
         -2   -1    0    0    0  501 -0.00000000000E+00 -0.00000000000E+00 -0.26754968364E+02  0.26754968364E+02  0.00000000000E+00 0.  1.
         23    2    1    2    0    0  0.84472158875E+02  0.10767692884E+03  0.48518690565E+03  0.51218481821E+03  0.90537770909E+02 0.  0.
          5    1    1    2  502    0 -0.51394536990E+02  0.10751008277E+02  0.10561641160E+03  0.11802237673E+03  0.41800000000E+01 0.  1.
         -5    1    1    2    0  502 -0.33077621886E+02 -0.11842793712E+03  0.52948158042E+03  0.54358763945E+03  0.41800000000E+01 0.  1.
        -11    1    3    3    0    0  0.73650652617E+02  0.55678564183E+02  0.17882766188E+03  0.20125569257E+03  0.00000000000E+00 0.  1.
         11    1    3    3    0    0  0.10821506258E+02  0.51998364658E+02  0.30635924377E+03  0.31092912564E+03  0.00000000000E+00 0. -1.
</event>
<event>
 7    1  0.4096326E-006  0.2309522E+03  0.7561462E-02  0.1125971E+00
          1   -1    0    0  501    0  0.00000000000E+00  0.00000000000E+00  0.16724608877E+03  0.16724608877E+03  0.00000000000E+00 0. -1.
         -1   -1    0    0    0  501 -0.00000000000E+00 -0.00000000000E+00 -0.35614137967E+03  0.35614137967E+03  0.00000000000E+00 0.  1.
         23    2    1    2    0    0  0.20377767260E+03 -0.70516990797E+02 -0.56981961382E+02  0.24134551997E+03  0.92210250201E+02 0.  0.
          5    1    1    2  502    0 -0.21381134356E+02  0.59194633435E+02 -0.55136115450E+02  0.83777211464E+02  0.41800000000E+01 0.  1.
         -5    1    1    2    0  502 -0.18239653825E+03  0.11322357362E+02 -0.76777214067E+02  0.19826473701E+03  0.41800000000E+01 0.  1.
        -11    1    3    3    0    0  0.39673478730E+02 -0.83155328478E+01  0.25020197772E+02  0.47635525584E+02  0.00000000000E+00 0. -1.
         11    1    3    3    0    0  0.16410419387E+03 -0.62201457949E+02 -0.82002159154E+02  0.19370999438E+03  0.00000000000E+00 0.  1.
</event>
<event>
 7    1  0.4096326E-006  0.1583661E+03  0.7561462E-02  0.1190554E+00
         -4   -1    0    0    0  501 -0.00000000000E+00  0.00000000000E+00  0.18460520035E+03  0.18460520035E+03  0.00000000000E+00 0. -1.
          4   -1    0    0  501    0  0.00000000000E+00 -0.00000000000E+00 -0.15558085132E+03  0.15558085132E+03  0.00000000000E+00 0.  1.
         23    2    1    2    0    0  0.11924486987E+03  0.22619169820E+01  0.52815997852E+02  0.16571986386E+03  0.10222078258E+03 0.  0.
          5    1    1    2  502    0 -0.81283072566E+02  0.55129647018E+02 -0.35547194789E+02  0.10453368511E+03  0.41800000000E+01 0.  1.
         -5    1    1    2    0  502 -0.37961797299E+02 -0.57391564000E+02  0.11755545967E+02  0.69932502697E+02  0.41800000000E+01 0.  1.
        -11    1    3    3    0    0  0.33484064671E+02  0.43038283743E+02 -0.46450421277E+01  0.54727076213E+02  0.00000000000E+00 0.  1.
         11    1    3    3    0    0  0.85760805194E+02 -0.40776366762E+02  0.57461039979E+02  0.11099278765E+03  0.00000000000E+00 0. -1.
</event>
<event>
 7    1  0.4096326E-006  0.1201665E+03  0.7561462E-02  0.1242823E+00
         -2   -1    0    0    0  501 -0.00000000000E+00  0.00000000000E+00  0.17459583579E+03  0.17459583579E+03  0.00000000000E+00 0.  1.
          2   -1    0    0  501    0  0.00000000000E+00 -0.00000000000E+00 -0.97243943550E+02  0.97243943550E+02  0.00000000000E+00 0. -1.
         23    2    1    2    0    0 -0.41590281210E+02  0.54174704179E+02  0.15746847358E+02  0.11657552917E+03  0.93151708177E+02 0.  0.
          5    1    1    2  502    0 -0.14195918981E+02  0.31443339701E+02 -0.20268919010E+01  0.34810751472E+02  0.41800000000E+01 0.  1.
         -5    1    1    2    0  502  0.55786200191E+02 -0.85618043879E+02  0.63631936786E+02  0.12045349870E+03  0.41800000000E+01 0.  1.
        -11    1    3    3    0    0 -0.54274415591E+02  0.66353060142E+02  0.33080348979E+02  0.91884439740E+02  0.00000000000E+00 0.  1.
         11    1    3    3    0    0  0.12684134381E+02 -0.12178355963E+02 -0.17333501621E+02  0.24691089433E+02  0.00000000000E+00 0. -1.
</event>
<event>
 7    1  0.4096326E-006  0.1602511E+03  0.7561462E-02  0.1188414E+00
         -1   -1    0    0    0  501 -0.00000000000E+00  0.00000000000E+00  0.11203081648E+04  0.11203081648E+04  0.00000000000E+00 0.  1.
          1   -1    0    0  501    0  0.00000000000E+00 -0.00000000000E+00 -0.27592852375E+02  0.27592852375E+02  0.00000000000E+00 0. -1.
         23    2    1    2    0    0 -0.76453669152E+00  0.13632938442E+02  0.23090287736E+03  0.24934787348E+03  0.93122401741E+02 0.  0.
          5    1    1    2  502    0  0.12200789966E+03 -0.42854917055E+02  0.42333095296E+03  0.44266131481E+03  0.41800000000E+01 0. -1.
         -5    1    1    2    0  502 -0.12124336297E+03  0.29221978613E+02  0.43848148205E+03  0.45589182884E+03  0.41800000000E+01 0.  1.
        -11    1    3    3    0    0  0.30051595972E+02  0.18272172086E+02  0.20728074224E+03  0.21024337516E+03  0.00000000000E+00 0.  1.
         11    1    3    3    0    0 -0.30816132663E+02 -0.46392336431E+01  0.23622135119E+02  0.39104498318E+02  0.00000000000E+00 0. -1.
</event>
<event>
 7    1  0.4096326E-006  0.1836940E+03  0.7561462E-02  0.1164275E+00
          2   -1    0    0  501    0  0.00000000000E+00  0.00000000000E+00  0.75286367318E+03  0.75286367318E+03  0.00000000000E+00 0. -1.
         -2   -1    0    0    0  501 -0.00000000000E+00 -0.00000000000E+00 -0.62990764413E+02  0.62990764413E+02  0.00000000000E+00 0.  1.
         23    2    1    2    0    0 -0.69831859302E+02  0.54779226319E+02  0.28599174435E+03  0.31326720390E+03  0.92020709585E+02 0.  0.
          5    1    1    2  502    0 -0.80551386654E+02  0.12707129947E+02  0.18944662291E+02  0.83823443455E+02  0.41800000000E+01 0. -1.
         -5    1    1    2    0  502  0.15038324596E+03 -0.67486356266E+02  0.38493650213E+03  0.41876379024E+03  0.41800000000E+01 0.  1.
        -11    1    3    3    0    0 -0.27823283488E+01  0.53718671993E+02  0.78129710004E+02  0.94856147176E+02  0.00000000000E+00 0.  1.
         11    1    3    3    0    0 -0.67049530953E+02  0.10605543266E+01  0.20786203434E+03  0.21841105672E+03  0.00000000000E+00 0. -1.
</event>
<event>
 7    1  0.4096326E-006  0.1166292E+03  0.7561462E-02  0.1248764E+00
          2   -1    0    0  501    0  0.00000000000E+00  0.00000000000E+00  0.37038508317E+03  0.37038508317E+03  0.00000000000E+00 0.  1.
         -2   -1    0    0    0  501 -0.00000000000E+00 -0.00000000000E+00 -0.48863674949E+02  0.48863674949E+02  0.00000000000E+00 0. -1.
         23    2    1    2    0    0 -0.54820849772E+02 -0.51555667352E+02  0.10394367118E+03  0.15723428400E+03  0.90857145454E+02 0.  0.
          5    1    1    2  502    0  0.90397495368E+02  0.17966069817E+02  0.10870057274E+03  0.14257550192E+03  0.41800000000E+01 0.  1.
         -5    1    1    2    0  502 -0.35576645596E+02  0.33589597535E+02  0.10887716431E+03  0.11943897221E+03  0.41800000000E+01 0.  1.
        -11    1    3    3    0    0 -0.19043309249E+02 -0.52762531122E+02  0.10366801718E+02  0.57043868167E+02  0.00000000000E+00 0.  1.
         11    1    3    3    0    0 -0.35777540523E+02  0.12068637703E+01  0.93576869462E+02  0.10019041583E+03  0.00000000000E+00 0. -1.
</event>
<event>
 7    1  0.4096326E-006  0.1242882E+03  0.7561462E-02  0.1236186E+00
         -2   -1    0    0    0  501 -0.00000000000E+00  0.00000000000E+00  0.37894722726E+03  0.37894722726E+03  0.00000000000E+00 0.  1.
          2   -1    0    0  501    0  0.00000000000E+00 -0.00000000000E+00 -0.51076610693E+02  0.51076610693E+02  0.00000000000E+00 0. -1.
         23    2    1    2    0    0 -0.78118034790E+02  0.31743651834E+02  0.10612695712E+03  0.16183082921E+03  0.88409272510E+02 0.  0.
          5    1    1    2  502    0  0.55522137766E+02  0.28173878310E+02  0.36828005847E+02  0.72458606223E+02  0.41800000000E+01 0. -1.
         -5    1    1    2    0  502  0.22595897024E+02 -0.59917530144E+02  0.18491565361E+03  0.19573440252E+03  0.41800000000E+01 0. -1.
        -11    1    3    3    0    0  0.12114503829E+02  0.29334259366E+02  0.31436819542E+02  0.44671395753E+02  0.00000000000E+00 0.  1.
         11    1    3    3    0    0 -0.90232538620E+02  0.24093924675E+01  0.74690137575E+02  0.11715943346E+03  0.00000000000E+00 0. -1.
</event>
<event>
 7    1  0.4096326E-006  0.7459062E+02  0.7561462E-02  0.1345143E+00
          1   -1    0    0  501    0  0.00000000000E+00  0.00000000000E+00  0.42702968134E+03  0.42702968134E+03  0.00000000000E+00 0. -1.
         -1   -1    0    0    0  501 -0.00000000000E+00 -0.00000000000E+00 -0.39613147906E+02  0.39613147906E+02  0.00000000000E+00 0.  1.
         23    2    1    2    0    0 -0.53761193578E+02 -0.18211919447E+02  0.25076945434E+03  0.27288846674E+03  0.91437717079E+02 0.  0.
          5    1    1    2  502    0  0.36982097806E+02  0.28229845301E+02 -0.82929858003E+01  0.47443078919E+02  0.41800000000E+01 0. -1.
         -5    1    1    2    0  502  0.16779095772E+02 -0.10017925853E+02  0.14494006489E+03  0.14631128358E+03  0.41800000000E+01 0. -1.
        -11    1    3    3    0    0  0.13061221135E+02 -0.66935376716E+01  0.17244939019E+01  0.14777443057E+02  0.00000000000E+00 0.  1.
         11    1    3    3    0    0 -0.66822414712E+02 -0.11518381776E+02  0.24904496044E+03  0.25811102368E+03  0.00000000000E+00 0. -1.
</event>
<event>
 7    1  0.4096326E-006  0.1185795E+03  0.7561462E-02  0.1245459E+00
          3   -1    0    0  501    0  0.00000000000E+00  0.00000000000E+00  0.10280981666E+04  0.10280981666E+04  0.00000000000E+00 0. -1.
         -3   -1    0    0    0  501 -0.00000000000E+00 -0.00000000000E+00 -0.14919767671E+02  0.14919767671E+02  0.00000000000E+00 0.  1.
         23    2    1    2    0    0 -0.30014904447E+02  0.33358949636E+02  0.52077264935E+03  0.53299577576E+03  0.10424313238E+03 0.  0.
          5    1    1    2  502    0  0.14725863521E+02  0.43027178849E+02  0.99972801216E+02  0.10991006578E+03  0.41800000000E+01 0.  1.
         -5    1    1    2    0  502  0.15289040926E+02 -0.76386128485E+02  0.39243294836E+03  0.40011209274E+03  0.41800000000E+01 0.  1.
        -11    1    3    3    0    0 -0.26477178076E+02  0.70944949434E+02  0.34343999472E+03  0.35168914795E+03  0.00000000000E+00 0.  1.
         11    1    3    3    0    0 -0.35377263714E+01 -0.37585999798E+02  0.17733265463E+03  0.18130662781E+03  0.00000000000E+00 0. -1.
</event>
<event>
 7    1  0.4096326E-006  0.1066528E+03  0.7561462E-02  0.1266897E+00
         -1   -1    0    0    0  501 -0.00000000000E+00  0.00000000000E+00  0.28223842300E+02  0.28223842300E+02  0.00000000000E+00 0.  1.
          1   -1    0    0  501    0  0.00000000000E+00 -0.00000000000E+00 -0.45754483808E+03  0.45754483808E+03  0.00000000000E+00 0. -1.
         23    2    1    2    0    0 -0.81263132792E+01 -0.33987789417E+01 -0.24286951516E+03  0.26107182752E+03  0.95369329806E+02 0.  0.
          5    1    1    2  502    0  0.38921565760E+02 -0.47368259852E+02 -0.65034042429E+02  0.89473679914E+02  0.41800000000E+01 0.  1.
         -5    1    1    2    0  502 -0.30795252481E+02  0.50767038794E+02 -0.12141743820E+03  0.13522317294E+03  0.41800000000E+01 0.  1.
        -11    1    3    3    0    0  0.20297011476E+02  0.37432510472E+02 -0.14726436622E+03  0.15329695063E+03  0.00000000000E+00 0.  1.
         11    1    3    3    0    0 -0.28423324756E+02 -0.40831289414E+02 -0.95605148937E+02  0.10777487689E+03  0.00000000000E+00 0. -1.
</event>
<event>
 7    1  0.4096326E-006  0.1086309E+03  0.7561462E-02  0.1263126E+00
          2   -1    0    0  501    0  0.00000000000E+00  0.00000000000E+00  0.43176098958E+03  0.43176098958E+03  0.00000000000E+00 0. -1.
         -2   -1    0    0    0  501 -0.00000000000E+00 -0.00000000000E+00 -0.57425157632E+02  0.57425157632E+02  0.00000000000E+00 0.  1.
         23    2    1    2    0    0  0.68728393790E+02  0.46968882154E+02  0.29433527919E+03  0.31894143602E+03  0.90336676000E+02 0.  0.
          5    1    1    2  502    0 -0.50555837957E+02 -0.80835804201E+01  0.10746892257E+03  0.11911456142E+03  0.41800000000E+01 0. -1.
         -5    1    1    2    0  502 -0.18172555834E+02 -0.38885301734E+02 -0.27468369806E+02  0.51130149777E+02  0.41800000000E+01 0. -1.
        -11    1    3    3    0    0 -0.57384372479E+01  0.47952810867E+02  0.11039385375E+03  0.12049566248E+03  0.00000000000E+00 0.  1.
         11    1    3    3    0    0  0.74466831038E+02 -0.98392871315E+00  0.18394142545E+03  0.19844577354E+03  0.00000000000E+00 0. -1.
</event>
<event>
 7    1  0.4096326E-006  0.1133477E+03  0.7561462E-02  0.1254493E+00
          2   -1    0    0  501    0  0.00000000000E+00  0.00000000000E+00  0.66127631429E+03  0.66127631429E+03  0.00000000000E+00 0. -1.
         -2   -1    0    0    0  501 -0.00000000000E+00 -0.00000000000E+00 -0.22072743132E+02  0.22072743132E+02  0.00000000000E+00 0.  1.
         23    2    1    2    0    0 -0.38058357166E+02 -0.32940224235E+02  0.30956629724E+03  0.32721279508E+03  0.93292143046E+02 0.  0.
          5    1    1    2  502    0 -0.32035229822E+02 -0.18545343184E+02  0.44672740359E+02  0.58166243086E+02  0.41800000000E+01 0.  1.
         -5    1    1    2    0  502  0.70093586987E+02  0.51485567419E+02  0.28496453356E+03  0.29797001926E+03  0.41800000000E+01 0.  1.
        -11    1    3    3    0    0 -0.11479791335E+02  0.31038511689E+02  0.63851316770E+02  0.71917768808E+02  0.00000000000E+00 0. -1.
         11    1    3    3    0    0 -0.26578565830E+02 -0.63978735924E+02  0.24571498047E+03  0.25529502627E+03  0.00000000000E+00 0.  1.
</event>
<event>
 7    1  0.4096326E-006  0.1700451E+03  0.7561462E-02  0.1177801E+00
          1   -1    0    0  501    0  0.00000000000E+00  0.00000000000E+00  0.54449489755E+03  0.54449489755E+03  0.00000000000E+00 0. -1.
         -1   -1    0    0    0  501 -0.00000000000E+00 -0.00000000000E+00 -0.78668266830E+02  0.78668266830E+02  0.00000000000E+00 0.  1.
         23    2    1    2    0    0  0.69526177809E+01  0.14083210264E+03  0.38112218710E+03  0.41650976539E+03  0.91346828826E+02 0.  0.
          5    1    1    2  502    0 -0.37225741268E+02  0.17729944589E+01  0.38307631077E+02  0.53608267282E+02  0.41800000000E+01 0. -1.
         -5    1    1    2    0  502  0.30273123487E+02 -0.14260509710E+03  0.46396812541E+02  0.15304513171E+03  0.41800000000E+01 0. -1.
        -11    1    3    3    0    0  0.34946411028E+02  0.10844669728E+03  0.33374436911E+03  0.35265739990E+03  0.00000000000E+00 0. -1.
         11    1    3    3    0    0 -0.27993793247E+02  0.32385405358E+02  0.47377817995E+02  0.63852365489E+02  0.00000000000E+00 0.  1.
</event>
<event>
 7    1  0.4096326E-006  0.7744483E+02  0.7561462E-02  0.1336463E+00
         -1   -1    0    0    0  501 -0.00000000000E+00  0.00000000000E+00  0.21310997076E+02  0.21310997076E+02  0.00000000000E+00 0.  1.
          1   -1    0    0  501    0  0.00000000000E+00 -0.00000000000E+00 -0.60383630602E+03  0.60383630602E+03  0.00000000000E+00 0. -1.
         23    2    1    2    0    0 -0.18568050905E+01  0.17181006293E+02 -0.32449776636E+03  0.33787739665E+03  0.92540262018E+02 0.  0.
          5    1    1    2  502    0 -0.28359896765E+02 -0.12398812296E+02 -0.41333845689E+01  0.31505103695E+02  0.41800000000E+01 0.  1.
         -5    1    1    2    0  502  0.30216701855E+02 -0.47821939963E+01 -0.25389415802E+03  0.25576480275E+03  0.41800000000E+01 0.  1.
        -11    1    3    3    0    0  0.25317855501E+02  0.46412088049E+02 -0.15591642512E+03  0.16463598436E+03  0.00000000000E+00 0.  1.
         11    1    3    3    0    0 -0.27174660592E+02 -0.29231081756E+02 -0.16858134124E+03  0.17324141229E+03  0.00000000000E+00 0. -1.
</event>
<event>
 7    1  0.4096326E-006  0.2069081E+03  0.7561462E-02  0.1144038E+00
         -1   -1    0    0    0  501 -0.00000000000E+00  0.00000000000E+00  0.59632713474E+02  0.59632713474E+02  0.00000000000E+00 0.  1.
          1   -1    0    0  501    0  0.00000000000E+00 -0.00000000000E+00 -0.10841883451E+04  0.10841883451E+04  0.00000000000E+00 0. -1.
         23    2    1    2    0    0 -0.46469940356E+02 -0.19471195650E+03 -0.74963362874E+03  0.78146596354E+03  0.93092821796E+02 0.  0.
          5    1    1    2  502    0  0.16551026806E+02  0.19127977819E+02  0.89924231786E+01  0.27168954680E+02  0.41800000000E+01 0. -1.
         -5    1    1    2    0  502  0.29918913550E+02  0.17558397868E+03 -0.28391442603E+03  0.33518614032E+03  0.41800000000E+01 0. -1.
        -11    1    3    3    0    0 -0.58029381363E+01 -0.14786518815E+03 -0.40266568153E+03  0.42899584968E+03  0.00000000000E+00 0.  1.
         11    1    3    3    0    0 -0.40667002219E+02 -0.46846768348E+02 -0.34696794721E+03  0.35247011386E+03  0.00000000000E+00 0. -1.
</event>
<event>
 7    1  0.4096326E-006  0.2122325E+03  0.7561462E-02  0.1139810E+00
         -1   -1    0    0    0  501 -0.00000000000E+00  0.00000000000E+00  0.17333967073E+03  0.17333967073E+03  0.00000000000E+00 0.  1.
          1   -1    0    0  501    0  0.00000000000E+00 -0.00000000000E+00 -0.28918994364E+03  0.28918994364E+03  0.00000000000E+00 0. -1.
         23    2    1    2    0    0  0.24606394276E+02 -0.18878438019E+03 -0.10142818321E+03  0.23427177463E+03  0.91381459792E+02 0.  0.
          5    1    1    2  502    0 -0.68708959708E+02  0.66960212377E+02  0.92835473271E+01  0.96479261174E+02  0.41800000000E+01 0.  1.
         -5    1    1    2    0  502  0.44102565432E+02  0.12182416782E+03 -0.23705637026E+02  0.13177857857E+03  0.41800000000E+01 0.  1.
        -11    1    3    3    0    0  0.43379899905E+02 -0.12490567519E+03 -0.10310254649E+03  0.16767044612E+03  0.00000000000E+00 0.  1.
         11    1    3    3    0    0 -0.18773505629E+02 -0.63878705003E+02  0.16743632764E+01  0.66601328507E+02  0.00000000000E+00 0. -1.
</event>
<event>
 7    1  0.4096326E-006  0.1003460E+03  0.7561462E-02  0.1279570E+00
         -2   -1    0    0    0  501 -0.00000000000E+00  0.00000000000E+00  0.25106372544E+02  0.25106372544E+02  0.00000000000E+00 0.  1.
          2   -1    0    0  501    0  0.00000000000E+00 -0.00000000000E+00 -0.47301404195E+03  0.47301404195E+03  0.00000000000E+00 0. -1.
         23    2    1    2    0    0  0.11121457829E+01 -0.11590778630E+02 -0.19265068066E+03  0.21362119749E+03  0.91564994631E+02 0.  0.
          5    1    1    2  502    0 -0.62330829032E+02  0.56437520620E+00 -0.11157590538E+03  0.12787535271E+03  0.41800000000E+01 0.  1.
         -5    1    1    2    0  502  0.61218683249E+02  0.11026403424E+02 -0.14368108336E+03  0.15662386429E+03  0.41800000000E+01 0.  1.
        -11    1    3    3    0    0 -0.21805592954E+02  0.24703238452E+02 -0.27301656974E+02  0.42791521913E+02  0.00000000000E+00 0.  1.
         11    1    3    3    0    0  0.22917738737E+02 -0.36294017082E+02 -0.16534902368E+03  0.17082967558E+03  0.00000000000E+00 0. -1.
</event>
<event>
 7    1  0.4096326E-006  0.1491526E+03  0.7561462E-02  0.1201518E+00
          1   -1    0    0  501    0  0.00000000000E+00  0.00000000000E+00  0.99058016538E+03  0.99058016538E+03  0.00000000000E+00 0. -1.
         -1   -1    0    0    0  501 -0.00000000000E+00 -0.00000000000E+00 -0.36165228898E+02  0.36165228898E+02  0.00000000000E+00 0.  1.
         23    2    1    2    0    0 -0.11407461652E+03 -0.73655522428E+02  0.65069204307E+03  0.67136098645E+03  0.94272398391E+02 0.  0.
          5    1    1    2  502    0  0.53549424368E+02  0.32933682033E+02  0.25912605496E+02  0.68125647050E+02  0.41800000000E+01 0.  1.
         -5    1    1    2    0  502  0.60525192148E+02  0.40721840395E+02  0.27781028792E+03  0.28725876078E+03  0.41800000000E+01 0.  1.
        -11    1    3    3    0    0 -0.34797673630E+02  0.19515991805E+02  0.11027182922E+03  0.11726733708E+03  0.00000000000E+00 0.  1.
         11    1    3    3    0    0 -0.79276942886E+02 -0.93171514233E+02  0.54042021385E+03  0.55409364937E+03  0.00000000000E+00 0. -1.
</event>
<event>
 7    1  0.4096326E-006  0.8133540E+02  0.7561462E-02  0.1325304E+00
         -1   -1    0    0    0  501 -0.00000000000E+00  0.00000000000E+00  0.27147086557E+03  0.27147086557E+03  0.00000000000E+00 0.  1.
          1   -1    0    0  501    0  0.00000000000E+00 -0.00000000000E+00 -0.69079720872E+02  0.69079720872E+02  0.00000000000E+00 0. -1.
         23    2    1    2    0    0 -0.26461299625E+01  0.84201018025E+01 -0.95300591793E+01  0.94306555608E+02  0.93407731396E+02 0.  0.
          5    1    1    2  502    0  0.31197690990E+02  0.37426230948E+02  0.32238883770E+02  0.58573344729E+02  0.41800000000E+01 0. -1.
         -5    1    1    2    0  502 -0.28551561028E+02 -0.45846332750E+02  0.17968232011E+03  0.18767068610E+03  0.41800000000E+01 0. -1.
        -11    1    3    3    0    0  0.24330961676E+02  0.18741564149E+02 -0.41235998831E+02  0.51416432416E+02  0.00000000000E+00 0. -1.
         11    1    3    3    0    0 -0.26977091639E+02 -0.10321462347E+02  0.31705939651E+02  0.42890123192E+02  0.00000000000E+00 0.  1.
</event>
<event>
 7    1  0.4096326E-006  0.1857188E+03  0.7561462E-02  0.1162380E+00
         -3   -1    0    0    0  501 -0.00000000000E+00  0.00000000000E+00  0.18323357357E+03  0.18323357357E+03  0.00000000000E+00 0.  1.
          3   -1    0    0  501    0  0.00000000000E+00 -0.00000000000E+00 -0.23401697675E+03  0.23401697675E+03  0.00000000000E+00 0. -1.
         23    2    1    2    0    0  0.70073280198E+02  0.16088449156E+03 -0.37276857013E+02  0.20131934317E+03  0.91355512387E+02 0.  0.
          5    1    1    2  502    0 -0.14467343456E+02 -0.92255487457E+02 -0.64765743225E+02  0.11372094305E+03  0.41800000000E+01 0.  1.
         -5    1    1    2    0  502 -0.55605936741E+02 -0.68629004103E+02  0.51259197059E+02  0.10221026410E+03  0.41800000000E+01 0.  1.
        -11    1    3    3    0    0  0.82322712319E+02  0.15591658054E+03 -0.17024749258E+02  0.17713512113E+03  0.00000000000E+00 0.  1.
         11    1    3    3    0    0 -0.12249432122E+02  0.49679110237E+01 -0.20252107756E+02  0.24184222042E+02  0.00000000000E+00 0. -1.
</event>
<event>
 7    1  0.4096326E-006  0.1087934E+03  0.7561462E-02  0.1262821E+00
          1   -1    0    0  501    0  0.00000000000E+00  0.00000000000E+00  0.41840009134E+03  0.41840009134E+03  0.00000000000E+00 0. -1.
         -1   -1    0    0    0  501 -0.00000000000E+00 -0.00000000000E+00 -0.38069433434E+02  0.38069433434E+02  0.00000000000E+00 0.  1.
         23    2    1    2    0    0  0.13633115422E+02  0.28620179272E+02  0.25892928337E+03  0.27929521097E+03  0.99782085494E+02 0.  0.
          5    1    1    2  502    0  0.40196729861E+01  0.40848396122E+02  0.66182201327E+01  0.41785433759E+02  0.41800000000E+01 0. -1.
         -5    1    1    2    0  502 -0.17652788408E+02 -0.69468575394E+02  0.11478315440E+03  0.13538888004E+03  0.41800000000E+01 0. -1.
        -11    1    3    3    0    0  0.28222821900E+02 -0.31716297231E+02  0.11296916062E+03  0.12068339752E+03  0.00000000000E+00 0.  1.
         11    1    3    3    0    0 -0.14589706478E+02  0.60336476502E+02  0.14596012275E+03  0.15861181345E+03  0.00000000000E+00 0. -1.
</event>
<event>
 7    1  0.4096326E-006  0.1726748E+03  0.7561462E-02  0.1175087E+00
         -2   -1    0    0    0  501 -0.00000000000E+00  0.00000000000E+00  0.10433927362E+03  0.10433927362E+03  0.00000000000E+00 0.  1.
          2   -1    0    0  501    0  0.00000000000E+00 -0.00000000000E+00 -0.32129580724E+03  0.32129580724E+03  0.00000000000E+00 0. -1.
         23    2    1    2    0    0 -0.10668655661E+03 -0.99490574975E+02 -0.12846282003E+03  0.21408104447E+03  0.89708425489E+02 0.  0.
          5    1    1    2  502    0  0.94756443979E+02  0.18911177569E+02 -0.86826538968E+02  0.12997206077E+03  0.41800000000E+01 0.  1.
         -5    1    1    2    0  502  0.11930112627E+02  0.80579397407E+02 -0.16671746135E+01  0.81581975613E+02  0.41800000000E+01 0.  1.
        -11    1    3    3    0    0 -0.81571589328E+01  0.14352934799E+02 -0.54575488348E+00  0.16517984973E+02  0.00000000000E+00 0.  1.
         11    1    3    3    0    0 -0.98529397673E+02 -0.11384350977E+03 -0.12791706515E+03  0.19756305950E+03  0.00000000000E+00 0. -1.
</event>
<event>
 7    1  0.4096326E-006  0.1170705E+03  0.7561462E-02  0.1248010E+00
          2   -1    0    0  501    0  0.00000000000E+00  0.00000000000E+00  0.37727254233E+02  0.37727254233E+02  0.00000000000E+00 0. -1.
         -2   -1    0    0    0  501 -0.00000000000E+00 -0.00000000000E+00 -0.45270083602E+03  0.45270083602E+03  0.00000000000E+00 0.  1.
         23    2    1    2    0    0  0.43474239309E+02 -0.58911781646E+02 -0.18042230508E+03  0.21469719441E+03  0.90454793222E+02 0.  0.
          5    1    1    2  502    0 -0.65571974884E+02  0.80598962554E+02 -0.12922638199E+03  0.16586984915E+03  0.41800000000E+01 0.  1.
         -5    1    1    2    0  502  0.22097735576E+02 -0.21687180908E+02 -0.10532489471E+03  0.10986104668E+03  0.41800000000E+01 0.  1.
        -11    1    3    3    0    0 -0.17446384957E+02 -0.20379243860E+02 -0.11249924231E+03  0.11565366163E+03  0.00000000000E+00 0.  1.
         11    1    3    3    0    0  0.60920624266E+02 -0.38532537787E+02 -0.67923062772E+02  0.99043532780E+02  0.00000000000E+00 0. -1.
</event>
<event>
 7    1  0.4096326E-006  0.1057050E+03  0.7561462E-02  0.1268737E+00
         -1   -1    0    0    0  501 -0.00000000000E+00  0.00000000000E+00  0.91469619037E+02  0.91469619037E+02  0.00000000000E+00 0.  1.
          1   -1    0    0  501    0  0.00000000000E+00 -0.00000000000E+00 -0.27195553008E+03  0.27195553008E+03  0.00000000000E+00 0. -1.
         23    2    1    2    0    0  0.77151685271E+01  0.15419567208E+02 -0.21349096870E+03  0.23290036030E+03  0.91470745225E+02 0.  0.
          5    1    1    2  502    0 -0.46128583304E+02  0.38099847689E+02  0.11238941271E+02  0.61018282445E+02  0.41800000000E+01 0. -1.
         -5    1    1    2    0  502  0.38413414777E+02 -0.53519414897E+02  0.21766116387E+02  0.69506506374E+02  0.41800000000E+01 0. -1.
        -11    1    3    3    0    0  0.33646456193E+02  0.38202629475E+02 -0.78466123515E+02  0.93533189043E+02  0.00000000000E+00 0. -1.
         11    1    3    3    0    0 -0.25931287666E+02 -0.22783062267E+02 -0.13502484518E+03  0.13936717125E+03  0.00000000000E+00 0.  1.
</event>
<event>
 7    1  0.4096326E-006  0.1122793E+03  0.7561462E-02  0.1256406E+00
          1   -1    0    0  501    0  0.00000000000E+00  0.00000000000E+00  0.39152097140E+03  0.39152097140E+03  0.00000000000E+00 0. -1.
         -1   -1    0    0    0  501 -0.00000000000E+00 -0.00000000000E+00 -0.37008876507E+02  0.37008876507E+02  0.00000000000E+00 0.  1.
         23    2    1    2    0    0  0.20998553571E+01  0.52179434583E+02  0.18267041681E+03  0.20965744792E+03  0.88660371683E+02 0.  0.
          5    1    1    2  502    0 -0.53003594708E+02 -0.58934010773E+02  0.13081933393E+03  0.15301558485E+03  0.41800000000E+01 0. -1.
         -5    1    1    2    0  502  0.50903739351E+02  0.67545761903E+01  0.41022344158E+02  0.65856815134E+02  0.41800000000E+01 0. -1.
        -11    1    3    3    0    0 -0.31441569674E+02  0.51232379653E+02  0.70866398371E+02  0.92926720842E+02  0.00000000000E+00 0.  1.
         11    1    3    3    0    0  0.33541425031E+02  0.94705492984E+00  0.11180401844E+03  0.11673072708E+03  0.00000000000E+00 0. -1.
</event>
<event>
 7    1  0.4096326E-006  0.4946589E+03  0.7561462E-02  0.1015182E+00
          2   -1    0    0  501    0  0.00000000000E+00  0.00000000000E+00  0.49643344707E+03  0.49643344707E+03  0.00000000000E+00 0.  1.
         -2   -1    0    0    0  501 -0.00000000000E+00 -0.00000000000E+00 -0.64981597384E+03  0.64981597384E+03  0.00000000000E+00 0. -1.
         23    2    1    2    0    0 -0.12105508976E+03 -0.47166326554E+03  0.19727686703E+03  0.53328075334E+03  0.91376303287E+02 0.  0.
          5    1    1    2  502    0  0.55804541713E+02  0.71640800074E+02 -0.28701873550E+02  0.95330063760E+02  0.41800000000E+01 0.  1.
         -5    1    1    2    0  502  0.65250548051E+02  0.40002246547E+03 -0.32195752025E+03  0.51763860380E+03  0.41800000000E+01 0.  1.
        -11    1    3    3    0    0 -0.53965454610E+02 -0.85313896249E+02  0.19872582272E+02  0.10288659150E+03  0.00000000000E+00 0.  1.
         11    1    3    3    0    0 -0.67089635154E+02 -0.38634936929E+03  0.17740428476E+03  0.43039416184E+03  0.00000000000E+00 0. -1.
</event>
<event>
 7    1  0.4096326E-006  0.1022303E+03  0.7561462E-02  0.1275675E+00
         -1   -1    0    0    0  501 -0.00000000000E+00  0.00000000000E+00  0.67289744174E+02  0.67289744174E+02  0.00000000000E+00 0.  1.
          1   -1    0    0  501    0  0.00000000000E+00 -0.00000000000E+00 -0.18659306998E+03  0.18659306998E+03  0.00000000000E+00 0. -1.
         23    2    1    2    0    0  0.22215547790E+02 -0.14925573745E+02 -0.66172830711E+02  0.11536709894E+03  0.90633441275E+02 0.  0.
          5    1    1    2  502    0  0.13582412913E+02 -0.50889523389E+02 -0.20106031166E+02  0.56532737600E+02  0.41800000000E+01 0.  1.
         -5    1    1    2    0  502 -0.35797960703E+02  0.65815097134E+02 -0.33024463929E+02  0.81982977618E+02  0.41800000000E+01 0.  1.
        -11    1    3    3    0    0 -0.17342783800E+02  0.18090582949E+02  0.68643841381E+01  0.25983862510E+02  0.00000000000E+00 0.  1.
         11    1    3    3    0    0  0.39558331590E+02 -0.33016156694E+02 -0.73037214849E+02  0.89383236425E+02  0.00000000000E+00 0. -1.
</event>
<event>
 7    1  0.4096326E-006  0.1751714E+03  0.7561462E-02  0.1172560E+00
          3   -1    0    0  501    0  0.00000000000E+00  0.00000000000E+00  0.62395049808E+02  0.62395049808E+02  0.00000000000E+00 0. -1.
         -3   -1    0    0    0  501 -0.00000000000E+00 -0.00000000000E+00 -0.65558363362E+03  0.65558363362E+03  0.00000000000E+00 0.  1.
         23    2    1    2    0    0 -0.13164738625E+03  0.95906145168E+02 -0.19526051286E+03  0.27018415647E+03  0.91344335006E+02 0.  0.
          5    1    1    2  502    0  0.40936451721E+02 -0.45805024699E+02 -0.29615603482E+03  0.30248927704E+03  0.41800000000E+01 0. -1.
         -5    1    1    2    0  502  0.90710934524E+02 -0.50101120469E+02 -0.10177203613E+03  0.14530524992E+03  0.41800000000E+01 0. -1.
        -11    1    3    3    0    0 -0.83322818405E+02  0.66862206674E+01 -0.10639493037E+03  0.13530439321E+03  0.00000000000E+00 0.  1.
         11    1    3    3    0    0 -0.48324567840E+02  0.89219924501E+02 -0.88865582488E+02  0.13487976325E+03  0.00000000000E+00 0. -1.
</event>
<event>
 7    1  0.4096326E-006  0.8217441E+02  0.7561462E-02  0.1322992E+00
          2   -1    0    0  501    0  0.00000000000E+00  0.00000000000E+00  0.19003201782E+02  0.19003201782E+02  0.00000000000E+00 0. -1.
         -2   -1    0    0    0  501 -0.00000000000E+00 -0.00000000000E+00 -0.82746503278E+03  0.82746503278E+03  0.00000000000E+00 0.  1.
         23    2    1    2    0    0 -0.12971962526E+02 -0.60731614216E+02 -0.33099253257E+03  0.34899425326E+03  0.91565994851E+02 0.  0.
          5    1    1    2  502    0  0.10082345313E+02  0.27733998017E+02 -0.14219489605E+02  0.33022637957E+02  0.41800000000E+01 0. -1.
         -5    1    1    2    0  502  0.28896172126E+01  0.32997616199E+02 -0.46324980882E+03  0.46445134334E+03  0.41800000000E+01 0. -1.
        -11    1    3    3    0    0  0.15355925606E+02 -0.69756802188E+02 -0.28798564518E+03  0.29671121943E+03  0.00000000000E+00 0.  1.
         11    1    3    3    0    0 -0.28327888131E+02  0.90251879717E+01 -0.43006887392E+02  0.52283033836E+02  0.00000000000E+00 0. -1.
</event>
<event>
 7    1  0.4096326E-006  0.9785947E+02  0.7561462E-02  0.1284863E+00
          1   -1    0    0  501    0  0.00000000000E+00  0.00000000000E+00  0.59864625895E+02  0.59864625895E+02  0.00000000000E+00 0. -1.
         -1   -1    0    0    0  501 -0.00000000000E+00 -0.00000000000E+00 -0.34313604892E+03  0.34313604892E+03  0.00000000000E+00 0.  1.
         23    2    1    2    0    0 -0.58054733938E+02 -0.43320315517E+02 -0.46319277524E+02  0.12543887047E+03  0.91336919619E+02 0.  0.
          5    1    1    2  502    0  0.31892376968E+02  0.62671033832E+02 -0.46736044804E+02  0.84537047938E+02  0.41800000000E+01 0. -1.
         -5    1    1    2    0  502  0.26162356969E+02 -0.19350718315E+02 -0.19021610069E+03  0.19302475640E+03  0.41800000000E+01 0. -1.
        -11    1    3    3    0    0 -0.45806548487E+02  0.16725328594E+01  0.15157479621E+02  0.48278219094E+02  0.00000000000E+00 0. -1.
         11    1    3    3    0    0 -0.12248185451E+02 -0.44992848376E+02 -0.61476757145E+02  0.77160651377E+02  0.00000000000E+00 0.  1.
</event>
<event>
 7    1  0.4096326E-006  0.1108563E+03  0.7561462E-02  0.1258992E+00
          2   -1    0    0  501    0  0.00000000000E+00  0.00000000000E+00  0.17754050875E+03  0.17754050875E+03  0.00000000000E+00 0. -1.
         -2   -1    0    0    0  501 -0.00000000000E+00 -0.00000000000E+00 -0.84177157997E+02  0.84177157997E+02  0.00000000000E+00 0.  1.
         23    2    1    2    0    0 -0.26832327452E+02  0.40733552376E+02  0.70735064999E+02  0.12555195380E+03  0.91545877012E+02 0.  0.
          5    1    1    2  502    0  0.44211171628E+02 -0.72635303892E+02  0.41837151323E+02  0.94859552492E+02  0.41800000000E+01 0.  1.
         -5    1    1    2    0  502 -0.17378844175E+02  0.31901751516E+02 -0.19208865569E+02  0.41306160450E+02  0.41800000000E+01 0.  1.
        -11    1    3    3    0    0  0.16428235487E+02  0.52637097773E+02  0.22165265249E+02  0.59429369564E+02  0.00000000000E+00 0. -1.
         11    1    3    3    0    0 -0.43260562939E+02 -0.11903545397E+02  0.48569799750E+02  0.66122584240E+02  0.00000000000E+00 0.  1.
</event>
<event>
 7    1  0.4096326E-006  0.1596479E+03  0.7561462E-02  0.1189095E+00
          2   -1    0    0  501    0  0.00000000000E+00  0.00000000000E+00  0.32247859516E+02  0.32247859516E+02  0.00000000000E+00 0. -1.
         -2   -1    0    0    0  501 -0.00000000000E+00 -0.00000000000E+00 -0.10024928002E+04  0.10024928002E+04  0.00000000000E+00 0.  1.
         23    2    1    2    0    0  0.93250708659E+02  0.10050422287E+03 -0.28178358967E+03  0.32171134706E+03  0.72797018738E+02 0.  0.
          5    1    1    2  502    0  0.72663241288E+01 -0.78553902064E+02 -0.23144237117E+03  0.24455379484E+03  0.41800000000E+01 0. -1.
         -5    1    1    2    0  502 -0.10051703279E+03 -0.21950320805E+02 -0.45701897982E+03  0.46847551780E+03  0.41800000000E+01 0. -1.
        -11    1    3    3    0    0  0.56753540570E+02  0.55476637861E+02 -0.23235751351E+03  0.24553744277E+03  0.00000000000E+00 0.  1.
         11    1    3    3    0    0  0.36497168089E+02  0.45027585007E+02 -0.49426076161E+02  0.76173904290E+02  0.00000000000E+00 0. -1.
</event>
<event>
 7    1  0.4096326E-006  0.1056774E+03  0.7561462E-02  0.1268791E+00
          1   -1    0    0  501    0  0.00000000000E+00  0.00000000000E+00  0.36171490670E+03  0.36171490670E+03  0.00000000000E+00 0. -1.
         -1   -1    0    0    0  501 -0.00000000000E+00 -0.00000000000E+00 -0.42912441710E+02  0.42912441710E+02  0.00000000000E+00 0.  1.
         23    2    1    2    0    0 -0.51229475302E+02  0.25366474406E+02  0.17619627760E+03  0.20651739076E+03  0.91303818543E+02 0.  0.
          5    1    1    2  502    0 -0.21151006767E+02  0.20969878330E+02 -0.16723413490E+01  0.30122583057E+02  0.41800000000E+01 0.  1.
         -5    1    1    2    0  502  0.72380482069E+02 -0.46336352736E+02  0.14427852873E+03  0.16798737459E+03  0.41800000000E+01 0.  1.
        -11    1    3    3    0    0 -0.62124895669E+02 -0.56301118158E+01  0.63034093318E+02  0.88682003481E+02  0.00000000000E+00 0.  1.
         11    1    3    3    0    0  0.10895420368E+02  0.30996586222E+02  0.11316218429E+03  0.11783538728E+03  0.00000000000E+00 0. -1.
</event>
<event>
 7    1  0.4096326E-006  0.9266598E+02  0.7561462E-02  0.1296521E+00
          3   -1    0    0  501    0  0.00000000000E+00  0.00000000000E+00  0.83477001482E+02  0.83477001482E+02  0.00000000000E+00 0. -1.
         -3   -1    0    0    0  501 -0.00000000000E+00 -0.00000000000E+00 -0.18077165019E+03  0.18077165019E+03  0.00000000000E+00 0.  1.
         23    2    1    2    0    0 -0.48818762011E+02  0.10719231349E+02 -0.11648426753E+02  0.10461936852E+03  0.91166622064E+02 0.  0.
          5    1    1    2  502    0  0.12078158761E+02  0.51156048578E+02 -0.66838812652E+02  0.85133556850E+02  0.41800000000E+01 0.  1.
         -5    1    1    2    0  502  0.36740603250E+02 -0.61875279927E+02 -0.18807409306E+02  0.74495726307E+02  0.41800000000E+01 0.  1.
        -11    1    3    3    0    0 -0.27125768164E+02 -0.11504722065E+02  0.36756384932E+02  0.47108361907E+02  0.00000000000E+00 0. -1.
         11    1    3    3    0    0 -0.21692993846E+02  0.22223953414E+02 -0.48404811684E+02  0.57511006612E+02  0.00000000000E+00 0.  1.
</event>
<event>
 7    1  0.4096326E-006  0.1269923E+03  0.7561462E-02  0.1231988E+00
          1   -1    0    0  501    0  0.00000000000E+00  0.00000000000E+00  0.55886728844E+03  0.55886728844E+03  0.00000000000E+00 0. -1.
         -1   -1    0    0    0  501 -0.00000000000E+00 -0.00000000000E+00 -0.36408249001E+02  0.36408249001E+02  0.00000000000E+00 0.  1.
         23    2    1    2    0    0  0.26762754649E+01 -0.92255747427E+02  0.21110689783E+03  0.24727304433E+03  0.89775000723E+02 0.  0.
          5    1    1    2  502    0 -0.89293181081E+01 -0.30317453197E+02  0.51053605057E+02  0.60189896823E+02  0.41800000000E+01 0. -1.
         -5    1    1    2    0  502  0.62530426432E+01  0.12257320062E+03  0.26029853655E+03  0.28781259629E+03  0.41800000000E+01 0. -1.
        -11    1    3    3    0    0  0.18156831337E+02 -0.29302633566E+02  0.16284217246E+03  0.16645085758E+03  0.00000000000E+00 0. -1.
         11    1    3    3    0    0 -0.15480555872E+02 -0.62953113861E+02  0.48264725369E+02  0.80822186742E+02  0.00000000000E+00 0.  1.
</event>
<event>
 7    1  0.4096326E-006  0.1391918E+03  0.7561462E-02  0.1214421E+00
          1   -1    0    0  501    0  0.00000000000E+00  0.00000000000E+00  0.19257580679E+03  0.19257580679E+03  0.00000000000E+00 0. -1.
         -1   -1    0    0    0  501 -0.00000000000E+00 -0.00000000000E+00 -0.10234087199E+03  0.10234087199E+03  0.00000000000E+00 0.  1.
         23    2    1    2    0    0 -0.25270108152E+01 -0.88629220934E+02  0.49080000516E+02  0.13616500931E+03  0.90942502285E+02 0.  0.
          5    1    1    2  502    0 -0.20641833751E+02 -0.26663485104E+02  0.19270198107E+02  0.39061997819E+02  0.41800000000E+01 0.  1.
         -5    1    1    2    0  502  0.23168844566E+02  0.11529270604E+03  0.21884736172E+02  0.11968967166E+03  0.41800000000E+01 0.  1.
        -11    1    3    3    0    0 -0.16849270513E+02 -0.10421413766E+03  0.37445815212E+02  0.11201193455E+03  0.00000000000E+00 0.  1.
         11    1    3    3    0    0  0.14322259698E+02  0.15584916729E+02  0.11634185304E+02  0.24153074752E+02  0.00000000000E+00 0. -1.
</event>
<event>
 7    1  0.4096326E-006  0.6030897E+02  0.7561462E-02  0.1396540E+00
          3   -1    0    0  501    0  0.00000000000E+00  0.00000000000E+00  0.70033002644E+02  0.70033002644E+02  0.00000000000E+00 0. -1.
         -3   -1    0    0    0  501 -0.00000000000E+00 -0.00000000000E+00 -0.15909456022E+03  0.15909456022E+03  0.00000000000E+00 0.  1.
         23    2    1    2    0    0 -0.15140161807E+02  0.24559421471E+02 -0.52512371069E+02  0.10737396467E+03  0.89102354017E+02 0.  0.
          5    1    1    2  502    0 -0.67026060735E+01 -0.18768724647E+02  0.38343038009E+02  0.43414869766E+02  0.41800000000E+01 0. -1.
         -5    1    1    2    0  502  0.21842767880E+02 -0.57906968240E+01 -0.74892224517E+02  0.78338728427E+02  0.41800000000E+01 0.  1.
        -11    1    3    3    0    0  0.28415512037E+02  0.27077583317E+01 -0.51208608823E+02  0.58626742167E+02  0.00000000000E+00 0.  1.
         11    1    3    3    0    0 -0.43555673843E+02  0.21851663139E+02 -0.13037622453E+01  0.48747222504E+02  0.00000000000E+00 0. -1.
</event>
<event>
 7    1  0.4096326E-006  0.1201044E+03  0.7561462E-02  0.1242925E+00
          2   -1    0    0  501    0  0.00000000000E+00  0.00000000000E+00  0.14218047613E+03  0.14218047613E+03  0.00000000000E+00 0. -1.
         -2   -1    0    0    0  501 -0.00000000000E+00 -0.00000000000E+00 -0.11212474799E+03  0.11212474799E+03  0.00000000000E+00 0.  1.
         23    2    1    2    0    0 -0.12967976884E+02 -0.33185009158E+01  0.32559993684E+02  0.97773619042E+02  0.91215933471E+02 0.  0.
          5    1    1    2  502    0 -0.24478923830E+01 -0.71446676064E+02  0.24139087847E+02  0.75569753604E+02  0.41800000000E+01 0. -1.
         -5    1    1    2    0  502  0.15415869267E+02  0.74765176980E+02 -0.26643353396E+02  0.80961851475E+02  0.41800000000E+01 0.  1.
        -11    1    3    3    0    0  0.27945403593E+02  0.28801371738E+02  0.12634729010E+02  0.42072567941E+02  0.00000000000E+00 0.  1.
         11    1    3    3    0    0 -0.40913380477E+02 -0.32119872654E+02  0.19925264674E+02  0.55701051101E+02  0.00000000000E+00 0. -1.
</event>
<event>
 7    1  0.4096326E-006  0.1331922E+03  0.7561462E-02  0.1222795E+00
          2   -1    0    0  501    0  0.00000000000E+00  0.00000000000E+00  0.57579028485E+03  0.57579028485E+03  0.00000000000E+00 0. -1.
         -2   -1    0    0    0  501 -0.00000000000E+00 -0.00000000000E+00 -0.32505959830E+02  0.32505959830E+02  0.00000000000E+00 0.  1.
         23    2    1    2    0    0 -0.62224918746E+02  0.34894437239E+02  0.26558939105E+03  0.29437765362E+03  0.10502816787E+03 0.  0.
          5    1    1    2  502    0 -0.27323882199E+02 -0.46316579199E+02  0.79233378712E+02  0.95849990867E+02  0.41800000000E+01 0. -1.
         -5    1    1    2    0  502  0.89548800945E+02  0.11422141960E+02  0.19846155525E+03  0.21806860020E+03  0.41800000000E+01 0.  1.
        -11    1    3    3    0    0 -0.48310034593E+02  0.69577764834E+02  0.14285217530E+03  0.16607729764E+03  0.00000000000E+00 0.  1.
         11    1    3    3    0    0 -0.13914884153E+02 -0.34683327595E+02  0.12273721575E+03  0.12830035598E+03  0.00000000000E+00 0. -1.
</event>
<event>
 7    1  0.4096326E-006  0.1322595E+03  0.7561462E-02  0.1224141E+00
          1   -1    0    0  501    0  0.00000000000E+00  0.00000000000E+00  0.18631760372E+03  0.18631760372E+03  0.00000000000E+00 0. -1.
         -1   -1    0    0    0  501 -0.00000000000E+00 -0.00000000000E+00 -0.12771065621E+03  0.12771065621E+03  0.00000000000E+00 0.  1.
         23    2    1    2    0    0 -0.27944889313E+01 -0.65345920443E+02  0.97400883031E+02  0.16763797240E+03  0.11973996529E+03 0.  0.
          5    1    1    2  502    0  0.54123201021E+02  0.63326748194E+02 -0.26680777706E+01  0.83451716367E+02  0.41800000000E+01 0. -1.
         -5    1    1    2    0  502 -0.51328712090E+02  0.20191722494E+01 -0.36125857754E+02  0.62938571161E+02  0.41800000000E+01 0. -1.
        -11    1    3    3    0    0 -0.27576862750E+02  0.24181654771E+02  0.57200431947E+01  0.37120811963E+02  0.00000000000E+00 0.  1.
         11    1    3    3    0    0  0.24782373819E+02 -0.89527575214E+02  0.91680839836E+02  0.13051716044E+03  0.00000000000E+00 0. -1.
</event>
<event>
 7    1  0.4096326E-006  0.1261290E+03  0.7561462E-02  0.1233315E+00
         -1   -1    0    0    0  501 -0.00000000000E+00  0.00000000000E+00  0.34940226602E+03  0.34940226602E+03  0.00000000000E+00 0.  1.
          1   -1    0    0  501    0  0.00000000000E+00 -0.00000000000E+00 -0.54040859826E+02  0.54040859826E+02  0.00000000000E+00 0. -1.
         23    2    1    2    0    0  0.24324362967E+02  0.64013607530E+02  0.62257385122E+02  0.13017701940E+03  0.91545932702E+02 0.  0.
          5    1    1    2  502    0 -0.32153636532E+02 -0.97809183283E+02  0.20072362629E+03  0.22562787778E+03  0.41800000000E+01 0. -1.
         -5    1    1    2    0  502  0.78292735647E+01  0.33795575753E+02  0.32380394772E+02  0.47638228668E+02  0.41800000000E+01 0. -1.
        -11    1    3    3    0    0 -0.34910510440E+02  0.18075761159E+02  0.23282985822E+02  0.45689980406E+02  0.00000000000E+00 0.  1.
         11    1    3    3    0    0  0.59234873407E+02  0.45937846371E+02  0.38974399300E+02  0.84487038992E+02  0.00000000000E+00 0. -1.
</event>
<event>
 7    1  0.4096326E-006  0.1623955E+03  0.7561462E-02  0.1186018E+00
          1   -1    0    0  501    0  0.00000000000E+00  0.00000000000E+00  0.26040732423E+03  0.26040732423E+03  0.00000000000E+00 0. -1.
         -1   -1    0    0    0  501 -0.00000000000E+00 -0.00000000000E+00 -0.16475163640E+03  0.16475163640E+03  0.00000000000E+00 0.  1.
         23    2    1    2    0    0 -0.10875131303E+03  0.10123338816E+03  0.14106352575E+03  0.22569810541E+03  0.94687219440E+02 0.  0.
          5    1    1    2  502    0  0.42733568768E+02 -0.43918700560E+02 -0.83788719246E+02  0.10388951839E+03  0.41800000000E+01 0.  1.
         -5    1    1    2    0  502  0.66017744262E+02 -0.57314687604E+02  0.38380881326E+02  0.95571336833E+02  0.41800000000E+01 0.  1.
        -11    1    3    3    0    0 -0.53147273671E+02 -0.75434479617E+01  0.36719842675E+02  0.65037551859E+02  0.00000000000E+00 0. -1.
         11    1    3    3    0    0 -0.55604039360E+02  0.10877683613E+03  0.10434368308E+03  0.16066055355E+03  0.00000000000E+00 0.  1.
</event>
<event>
 7    1  0.4491911E-006  0.1981741E+03  0.7561462E-02  0.1151289E+00
         -2   -1    0    0    0  501 -0.00000000000E+00  0.00000000000E+00  0.29866751049E+02  0.29866751049E+02  0.00000000000E+00 0. -1.
          2   -1    0    0  501    0  0.00000000000E+00 -0.00000000000E+00 -0.13563865118E+04  0.13563865118E+04  0.00000000000E+00 0.  1.
         23    2    1    2    0    0 -0.10522254307E+03 -0.13192392183E+03 -0.58795363543E+03  0.61839748991E+03  0.90831015581E+02 0.  0.
          5    1    1    2  502    0  0.10319855186E+02  0.11049689021E+03 -0.34570859658E+03  0.36310875548E+03  0.41800000000E+01 0. -1.
         -5    1    1    2    0  502  0.94902687885E+02  0.21427031627E+02 -0.39285752874E+03  0.40474701746E+03  0.41800000000E+01 0. -1.
        -11    1    3    3    0    0 -0.83583180770E+02 -0.38519272229E+02 -0.34888395914E+03  0.36081837451E+03  0.00000000000E+00 0.  1.
         11    1    3    3    0    0 -0.21639362301E+02 -0.93404649604E+02 -0.23906967629E+03  0.25757911540E+03  0.00000000000E+00 0. -1.
</event>
<event>
 7    1  0.4096326E-006  0.9268760E+02  0.7561462E-02  0.1296471E+00
         -2   -1    0    0    0  501 -0.00000000000E+00  0.00000000000E+00  0.38482395713E+02  0.38482395713E+02  0.00000000000E+00 0.  1.
          2   -1    0    0  501    0  0.00000000000E+00 -0.00000000000E+00 -0.42993129365E+03  0.42993129365E+03  0.00000000000E+00 0. -1.
         23    2    1    2    0    0  0.85614219114E+01 -0.43291857726E+02 -0.27114184279E+03  0.28933709826E+03  0.90832673801E+02 0.  0.
          5    1    1    2  502    0 -0.19976302292E+02 -0.15885802795E+02 -0.11562495346E+03  0.11848212374E+03  0.41800000000E+01 0.  1.
         -5    1    1    2    0  502  0.11414880380E+02  0.59177660521E+02 -0.46821016935E+01  0.60594467364E+02  0.41800000000E+01 0.  1.
        -11    1    3    3    0    0 -0.29991207891E+02 -0.51580150678E+02 -0.18949159465E+03  0.19866315445E+03  0.00000000000E+00 0.  1.
         11    1    3    3    0    0  0.38552629802E+02  0.82882929518E+01 -0.81650248138E+02  0.90673943808E+02  0.00000000000E+00 0. -1.
</event>
<event>
 7    1  0.4096326E-006  0.5733092E+02  0.7561462E-02  0.1409387E+00
          1   -1    0    0  501    0  0.00000000000E+00  0.00000000000E+00  0.20019889715E+03  0.20019889715E+03  0.00000000000E+00 0. -1.
         -1   -1    0    0    0  501 -0.00000000000E+00 -0.00000000000E+00 -0.75107456971E+02  0.75107456971E+02  0.00000000000E+00 0.  1.
         23    2    1    2    0    0  0.26190886827E+02  0.38925405595E+02  0.93729757615E+02  0.13807027895E+03  0.89872046334E+02 0.  0.
          5    1    1    2  502    0 -0.17890601981E+02 -0.23888164189E+02 -0.47590136244E+02  0.56329490458E+02  0.41800000000E+01 0. -1.
         -5    1    1    2    0  502 -0.83002848470E+01 -0.15037241405E+02  0.78951818806E+02  0.80906584716E+02  0.41800000000E+01 0. -1.
        -11    1    3    3    0    0 -0.85077350343E+01  0.29770577664E+02 -0.64761121723E+01  0.31632402354E+02  0.00000000000E+00 0.  1.
         11    1    3    3    0    0  0.34698621862E+02  0.91548279309E+01  0.10020586979E+03  0.10643787659E+03  0.00000000000E+00 0. -1.
</event>
<event>
 7    1  0.4096326E-006  0.1052937E+03  0.7561462E-02  0.1269542E+00
          2   -1    0    0  501    0  0.00000000000E+00  0.00000000000E+00  0.30173152941E+03  0.30173152941E+03  0.00000000000E+00 0.  1.
         -2   -1    0    0    0  501 -0.00000000000E+00 -0.00000000000E+00 -0.50212470905E+02  0.50212470905E+02  0.00000000000E+00 0. -1.
         23    2    1    2    0    0 -0.62043329330E+02 -0.43767792478E+01  0.12746368134E+03  0.16511359236E+03  0.84539797782E+02 0.  0.
          5    1    1    2  502    0  0.98337999504E+02  0.21852059106E+01  0.67150206080E+02  0.11917113681E+03  0.41800000000E+01 0.  1.
         -5    1    1    2    0  502 -0.36294670173E+02  0.21915733372E+01  0.56905171082E+02  0.67659271150E+02  0.41800000000E+01 0.  1.
        -11    1    3    3    0    0 -0.33789856869E+02 -0.23729856631E+02  0.12399875029E+03  0.13069258050E+03  0.00000000000E+00 0.  1.
         11    1    3    3    0    0 -0.28253472462E+02  0.19353077384E+02  0.34649310510E+01  0.34421011861E+02  0.00000000000E+00 0. -1.
</event>
<event>
 7    1  0.4096326E-006  0.9784031E+02  0.7561462E-02  0.1284904E+00
          1   -1    0    0  501    0  0.00000000000E+00  0.00000000000E+00  0.36426148454E+03  0.36426148454E+03  0.00000000000E+00 0. -1.
         -1   -1    0    0    0  501 -0.00000000000E+00 -0.00000000000E+00 -0.59278761306E+02  0.59278761306E+02  0.00000000000E+00 0.  1.
         23    2    1    2    0    0 -0.94552752167E+02 -0.19537085605E+02  0.18217021060E+03  0.22340991631E+03  0.86046989589E+02 0.  0.
          5    1    1    2  502    0  0.67164568318E+01 -0.18462870796E+01  0.10814675786E+03  0.10845143246E+03  0.41800000000E+01 0.  1.
         -5    1    1    2    0  502  0.87836295335E+02  0.21383372684E+02  0.14665754774E+02  0.91678897074E+02  0.41800000000E+01 0.  1.
        -11    1    3    3    0    0 -0.57634587054E+02 -0.69413995885E+01  0.28130179914E+02  0.64507640440E+02  0.00000000000E+00 0.  1.
         11    1    3    3    0    0 -0.36918165113E+02 -0.12595686016E+02  0.15404003069E+03  0.15890227586E+03  0.00000000000E+00 0. -1.
</event>
<event>
 7    1  0.4096326E-006  0.1349323E+03  0.7561462E-02  0.1220315E+00
          1   -1    0    0  501    0  0.00000000000E+00  0.00000000000E+00  0.16247748672E+03  0.16247748672E+03  0.00000000000E+00 0. -1.
         -1   -1    0    0    0  501 -0.00000000000E+00 -0.00000000000E+00 -0.14084732370E+03  0.14084732370E+03  0.00000000000E+00 0.  1.
         23    2    1    2    0    0  0.25668589599E+02  0.77281400736E+02  0.76239446538E+02  0.14438658100E+03  0.91671915947E+02 0.  0.
          5    1    1    2  502    0  0.37824114096E+02 -0.75508779932E+02 -0.40423908740E+02  0.93721951814E+02  0.41800000000E+01 0.  1.
         -5    1    1    2    0  502 -0.63492703695E+02 -0.17726208041E+01 -0.14185374776E+02  0.65216277604E+02  0.41800000000E+01 0.  1.
        -11    1    3    3    0    0  0.59471950195E+02  0.56138732725E+02  0.42558447488E+02  0.92193772157E+02  0.00000000000E+00 0.  1.
         11    1    3    3    0    0 -0.33803360596E+02  0.21142668012E+02  0.33680999051E+02  0.52192808846E+02  0.00000000000E+00 0. -1.
</event>
<event>
 7    1  0.4096326E-006  0.1912042E+03  0.7561462E-02  0.1157380E+00
          2   -1    0    0  501    0  0.00000000000E+00  0.00000000000E+00  0.26378546949E+03  0.26378546949E+03  0.00000000000E+00 0. -1.
         -2   -1    0    0    0  501 -0.00000000000E+00 -0.00000000000E+00 -0.15841920168E+03  0.15841920168E+03  0.00000000000E+00 0.  1.
         23    2    1    2    0    0  0.44629927788E+02 -0.16716188212E+03  0.55121356578E+02  0.20287075734E+03  0.90461345034E+02 0.  0.
          5    1    1    2  502    0 -0.26756803276E+02  0.18309310916E+03  0.29584857071E+02  0.18743465345E+03  0.41800000000E+01 0.  1.
         -5    1    1    2    0  502 -0.17873124513E+02 -0.15931227045E+02  0.20660054155E+02  0.31899260378E+02  0.41800000000E+01 0.  1.
        -11    1    3    3    0    0  0.41089106069E+02 -0.15459440401E+03  0.14982667860E+02  0.16066183345E+03  0.00000000000E+00 0.  1.
         11    1    3    3    0    0  0.35408217190E+01 -0.12567478105E+02  0.40138688719E+02  0.42208923896E+02  0.00000000000E+00 0. -1.
</event>
<event>
 7    1  0.4096326E-006  0.1655937E+03  0.7561462E-02  0.1182522E+00
          1   -1    0    0  501    0  0.00000000000E+00  0.00000000000E+00  0.38930044842E+03  0.38930044842E+03  0.00000000000E+00 0. -1.
         -1   -1    0    0    0  501 -0.00000000000E+00 -0.00000000000E+00 -0.86394417944E+02  0.86394417944E+02  0.00000000000E+00 0.  1.
         23    2    1    2    0    0  0.26167633081E+02 -0.14511369130E+03  0.14300869937E+03  0.22477838634E+03  0.91274894938E+02 0.  0.
          5    1    1    2  502    0 -0.39795216570E+02  0.49562479895E+02  0.13780366026E+03  0.15181376702E+03  0.41800000000E+01 0.  1.
         -5    1    1    2    0  502  0.13627583489E+02  0.95551211407E+02  0.22093670842E+02  0.99102713002E+02  0.41800000000E+01 0.  1.
        -11    1    3    3    0    0 -0.80403426889E+01 -0.13495633003E+03  0.96243955444E+02  0.16595408125E+03  0.00000000000E+00 0.  1.
         11    1    3    3    0    0  0.34207975770E+02 -0.10157361272E+02  0.46764743927E+02  0.58824305086E+02  0.00000000000E+00 0. -1.
</event>
<event>
 7    1  0.4096326E-006  0.9015459E+02  0.7561462E-02  0.1302478E+00
         -2   -1    0    0    0  501 -0.00000000000E+00  0.00000000000E+00  0.10083543641E+04  0.10083543641E+04  0.00000000000E+00 0.  1.
          2   -1    0    0  501    0  0.00000000000E+00 -0.00000000000E+00 -0.21681667927E+02  0.21681667927E+02  0.00000000000E+00 0. -1.
         23    2    1    2    0    0  0.43496010531E+02  0.19029739991E+02  0.14810010951E+03  0.18085665839E+03  0.92311724663E+02 0.  0.
          5    1    1    2  502    0 -0.79182290767E+02 -0.60535152792E+01  0.72512504554E+03  0.72947260695E+03  0.41800000000E+01 0. -1.
         -5    1    1    2    0  502  0.35686280236E+02 -0.12976224712E+02  0.11344754115E+03  0.11970676672E+03  0.41800000000E+01 0. -1.
        -11    1    3    3    0    0  0.34696206413E+02  0.31807451070E+02  0.15635234136E+03  0.16328378772E+03  0.00000000000E+00 0.  1.
         11    1    3    3    0    0  0.87998041178E+01 -0.12777711079E+02 -0.82522318526E+01  0.17572870667E+02  0.00000000000E+00 0. -1.
</event>
<event>
 7    1  0.4096326E-006  0.1313411E+03  0.7561462E-02  0.1225479E+00
         -2   -1    0    0    0  501 -0.00000000000E+00  0.00000000000E+00  0.26135385717E+03  0.26135385717E+03  0.00000000000E+00 0.  1.
          2   -1    0    0  501    0  0.00000000000E+00 -0.00000000000E+00 -0.10214532725E+03  0.10214532725E+03  0.00000000000E+00 0. -1.
         23    2    1    2    0    0  0.23417258187E+02  0.93875749376E+02 -0.10611115505E+02  0.13145082245E+03  0.88349865021E+02 0.  0.
          5    1    1    2  502    0 -0.71973396146E+02 -0.44237821316E+02  0.66991429402E+02  0.10790031789E+03  0.41800000000E+01 0.  1.
         -5    1    1    2    0  502  0.48556137960E+02 -0.49637928061E+02  0.10282821602E+03  0.12414804407E+03  0.41800000000E+01 0.  1.
        -11    1    3    3    0    0 -0.14905074166E+02  0.37620522479E+02 -0.40372226949E+02  0.57161015180E+02  0.00000000000E+00 0. -1.
         11    1    3    3    0    0  0.38322332353E+02  0.56255226897E+02  0.29761111444E+02  0.74289807273E+02  0.00000000000E+00 0.  1.
</event>
<event>
 7    1  0.4096326E-006  0.1072232E+03  0.7561462E-02  0.1265800E+00
         -1   -1    0    0    0  501 -0.00000000000E+00  0.00000000000E+00  0.37130204919E+02  0.37130204919E+02  0.00000000000E+00 0.  1.
          1   -1    0    0  501    0  0.00000000000E+00 -0.00000000000E+00 -0.37522649498E+03  0.37522649498E+03  0.00000000000E+00 0. -1.
         23    2    1    2    0    0 -0.13182393246E+02 -0.19249213732E+01 -0.22526733012E+03  0.24337257866E+03  0.91144726723E+02 0.  0.
          5    1    1    2  502    0 -0.30170427351E+02 -0.48572304386E+02 -0.38151604722E+02  0.68866107649E+02  0.41800000000E+01 0.  1.
         -5    1    1    2    0  502  0.43352820597E+02  0.50497225759E+02 -0.74677355227E+02  0.10011801360E+03  0.41800000000E+01 0.  1.
        -11    1    3    3    0    0  0.11288331393E+02  0.40176595250E+02 -0.12737156218E+03  0.13403395123E+03  0.00000000000E+00 0.  1.
         11    1    3    3    0    0 -0.24470724639E+02 -0.42101516623E+02 -0.97895767939E+02  0.10933862742E+03  0.00000000000E+00 0. -1.
</event>
<event>
 7    1  0.4096326E-006  0.1194463E+03  0.7561462E-02  0.1244013E+00
         -2   -1    0    0    0  501 -0.00000000000E+00  0.00000000000E+00  0.77523342337E+02  0.77523342337E+02  0.00000000000E+00 0.  1.
          2   -1    0    0  501    0  0.00000000000E+00 -0.00000000000E+00 -0.21667319790E+03  0.21667319790E+03  0.00000000000E+00 0. -1.
         23    2    1    2    0    0 -0.70598653177E+02  0.22076578135E+02 -0.60273282726E+02  0.12884681461E+03  0.86585725686E+02 0.  0.
          5    1    1    2  502    0  0.24537465269E+02 -0.61231286676E+02 -0.27141220493E+00  0.66097683276E+02  0.41800000000E+01 0.  1.
         -5    1    1    2    0  502  0.46061187909E+02  0.39154708541E+02 -0.78605160631E+02  0.99252042348E+02  0.41800000000E+01 0.  1.
        -11    1    3    3    0    0  0.17978316763E+02 -0.65108876188E+01 -0.19246206068E+02  0.27129835592E+02  0.00000000000E+00 0.  1.
         11    1    3    3    0    0 -0.88576969940E+02  0.28587465754E+02 -0.41027076658E+02  0.10171697902E+03  0.00000000000E+00 0. -1.
</event>
<event>
 7    1  0.4096326E-006  0.1484861E+03  0.7561462E-02  0.1202346E+00
          1   -1    0    0  501    0  0.00000000000E+00  0.00000000000E+00  0.48498845480E+02  0.48498845480E+02  0.00000000000E+00 0. -1.
         -1   -1    0    0    0  501 -0.00000000000E+00 -0.00000000000E+00 -0.61160578629E+03  0.61160578629E+03  0.00000000000E+00 0.  1.
         23    2    1    2    0    0 -0.90646113288E+02 -0.51578397113E+02 -0.10357004678E+03  0.17256073628E+03  0.90406881457E+02 0.  0.
          5    1    1    2  502    0 -0.23280288187E+02  0.39499019598E+02 -0.17037024552E+03  0.17648126621E+03  0.41800000000E+01 0. -1.
         -5    1    1    2    0  502  0.11392640147E+03  0.12079377515E+02 -0.28916664851E+03  0.31106262927E+03  0.41800000000E+01 0. -1.
        -11    1    3    3    0    0 -0.91215806282E-01 -0.45535209851E+02 -0.47904122787E+02  0.66092878864E+02  0.00000000000E+00 0.  1.
         11    1    3    3    0    0 -0.90554897481E+02 -0.60431872625E+01 -0.55665923989E+02  0.10646785742E+03  0.00000000000E+00 0. -1.
</event>
<event>
 7    1  0.4096326E-006  0.1455879E+03  0.7561462E-02  0.1206002E+00
         -1   -1    0    0    0  501 -0.00000000000E+00  0.00000000000E+00  0.22528803410E+02  0.22528803410E+02  0.00000000000E+00 0.  1.
          1   -1    0    0  501    0  0.00000000000E+00 -0.00000000000E+00 -0.10025245691E+04  0.10025245691E+04  0.00000000000E+00 0. -1.
         23    2    1    2    0    0  0.83181424245E+02 -0.58576684268E+02 -0.52363572072E+03  0.54104852932E+03  0.90491799534E+02 0.  0.
          5    1    1    2  502    0 -0.87283193013E+02  0.90969316123E+02 -0.39065773045E+03  0.41051760866E+03  0.41800000000E+01 0. -1.
         -5    1    1    2    0  502  0.41017687675E+01 -0.32392631855E+02 -0.65702314467E+02  0.73487234482E+02  0.41800000000E+01 0. -1.
        -11    1    3    3    0    0 -0.12380005826E+02 -0.29876621868E+02 -0.19281549356E+03  0.19550880194E+03  0.00000000000E+00 0. -1.
         11    1    3    3    0    0  0.95561430071E+02 -0.28700062400E+02 -0.33082022716E+03  0.34553972738E+03  0.00000000000E+00 0.  1.
</event>
<event>
 7    1  0.4096326E-006  0.2933174E+03  0.7561462E-02  0.1088630E+00
         -1   -1    0    0    0  501 -0.00000000000E+00  0.00000000000E+00  0.25548271979E+03  0.25548271979E+03  0.00000000000E+00 0.  1.
          1   -1    0    0  501    0  0.00000000000E+00 -0.00000000000E+00 -0.35637264147E+03  0.35637264147E+03  0.00000000000E+00 0. -1.
         23    2    1    2    0    0  0.11143750943E+03  0.25898874131E+03 -0.66677724915E+02  0.30454024253E+03  0.93836846120E+02 0.  0.
          5    1    1    2  502    0 -0.55814229608E+02 -0.20756528431E+03 -0.66257491769E+02  0.22495800296E+03  0.41800000000E+01 0. -1.
         -5    1    1    2    0  502 -0.55623279821E+02 -0.51423456994E+02  0.32045295002E+02  0.82357115777E+02  0.41800000000E+01 0.  1.
        -11    1    3    3    0    0  0.80622539093E+02  0.25145838408E+03 -0.50207226503E+02  0.26879746711E+03  0.00000000000E+00 0.  1.
         11    1    3    3    0    0  0.30814970336E+02  0.75303572303E+01 -0.16470498412E+02  0.35742775420E+02  0.00000000000E+00 0. -1.
</event>
<event>
 7    1  0.4096326E-006  0.6592277E+02  0.7561462E-02  0.1374534E+00
          2   -1    0    0  501    0  0.00000000000E+00  0.00000000000E+00  0.81357500138E+03  0.81357500138E+03  0.00000000000E+00 0. -1.
         -2   -1    0    0    0  501 -0.00000000000E+00 -0.00000000000E+00 -0.15547744370E+02  0.15547744370E+02  0.00000000000E+00 0.  1.
         23    2    1    2    0    0  0.28896566025E+01 -0.65166734078E+01  0.47616886726E+03  0.48499108508E+03  0.91808198500E+02 0.  0.
          5    1    1    2  502    0 -0.17108022420E+02 -0.77269800317E+01  0.32297412550E+03  0.32354620813E+03  0.41800000000E+01 0. -1.
         -5    1    1    2    0  502  0.14218365817E+02  0.14243653440E+02 -0.11157357568E+01  0.20585452536E+02  0.41800000000E+01 0.  1.
        -11    1    3    3    0    0 -0.43532395172E+02 -0.12402853637E+02  0.23989616223E+03  0.24412920526E+03  0.00000000000E+00 0.  1.
         11    1    3    3    0    0  0.46422051775E+02  0.58861802290E+01  0.23627270503E+03  0.24086187982E+03  0.00000000000E+00 0. -1.
</event>
<event>
 7    1  0.4096326E-006  0.2069112E+03  0.7561462E-02  0.1144036E+00
          1   -1    0    0  501    0  0.00000000000E+00  0.00000000000E+00  0.40482872872E+03  0.40482872872E+03  0.00000000000E+00 0. -1.
         -1   -1    0    0    0  501 -0.00000000000E+00 -0.00000000000E+00 -0.11635452226E+03  0.11635452226E+03  0.00000000000E+00 0.  1.
         23    2    1    2    0    0 -0.18874413312E+03 -0.57385177362E+01  0.12205520098E+03  0.24011224912E+03  0.84256404622E+02 0.  0.
          5    1    1    2  502    0  0.13255939014E+02  0.41705653663E+02  0.53623339112E+02  0.69339861293E+02  0.41800000000E+01 0.  1.
         -5    1    1    2    0  502  0.17548819410E+03 -0.35967135927E+02  0.11279566637E+03  0.21173114057E+03  0.41800000000E+01 0.  1.
        -11    1    3    3    0    0 -0.14981724789E+03 -0.15288823413E+02  0.51850431224E+02  0.15927153890E+03  0.00000000000E+00 0. -1.
         11    1    3    3    0    0 -0.38926885227E+02  0.95503056772E+01  0.70204769755E+02  0.80840710216E+02  0.00000000000E+00 0.  1.
</event>
<event>
 7    1  0.4096326E-006  0.1421345E+03  0.7561462E-02  0.1210485E+00
          1   -1    0    0  501    0  0.00000000000E+00  0.00000000000E+00  0.94617915138E+02  0.94617915138E+02  0.00000000000E+00 0. -1.
         -1   -1    0    0    0  501 -0.00000000000E+00 -0.00000000000E+00 -0.23382551039E+03  0.23382551039E+03  0.00000000000E+00 0.  1.
         23    2    1    2    0    0  0.15095401139E+02 -0.95440014301E+02 -0.33555642536E+02  0.13832057071E+03  0.93112467855E+02 0.  0.
          5    1    1    2  502    0 -0.21859899569E+02 -0.25350520489E+02 -0.40304386147E+02  0.52558729446E+02  0.41800000000E+01 0.  1.
         -5    1    1    2    0  502  0.67644984298E+01  0.12079053479E+03 -0.65347566572E+02  0.13756412538E+03  0.41800000000E+01 0.  1.
        -11    1    3    3    0    0  0.42804392501E+02 -0.92115980410E+02 -0.40839537078E+02  0.10947802361E+03  0.00000000000E+00 0. -1.
         11    1    3    3    0    0 -0.27708991362E+02 -0.33240338905E+01  0.72838945418E+01  0.28842547102E+02  0.00000000000E+00 0.  1.
</event>
<event>
 7    1  0.4096326E-006  0.1693891E+03  0.7561462E-02  0.1178486E+00
         -2   -1    0    0    0  501 -0.00000000000E+00  0.00000000000E+00  0.56513857463E+02  0.56513857463E+02  0.00000000000E+00 0.  1.
          2   -1    0    0  501    0  0.00000000000E+00 -0.00000000000E+00 -0.58435943081E+03  0.58435943081E+03  0.00000000000E+00 0. -1.
         23    2    1    2    0    0  0.39093318165E+02  0.13823431552E+03 -0.28433757556E+03  0.33171313018E+03  0.92459344296E+02 0.  0.
          5    1    1    2  502    0 -0.84886537309E+02 -0.90059947782E+02 -0.16186774250E+03  0.20380175876E+03  0.41800000000E+01 0. -1.
         -5    1    1    2    0  502  0.45793219144E+02 -0.48174367740E+02 -0.81640255296E+02  0.10535839934E+03  0.41800000000E+01 0. -1.
        -11    1    3    3    0    0 -0.64998101132E+01  0.76683054355E+01  0.48474954254E+01  0.11160136722E+02  0.00000000000E+00 0.  1.
         11    1    3    3    0    0  0.45593128278E+02  0.13056601009E+03 -0.28918507098E+03  0.32055299346E+03  0.00000000000E+00 0. -1.
</event>
<event>
 7    1  0.4096326E-006  0.1374158E+03  0.7561462E-02  0.1216849E+00
         -2   -1    0    0    0  501 -0.00000000000E+00  0.00000000000E+00  0.14189188634E+03  0.14189188634E+03  0.00000000000E+00 0.  1.
          2   -1    0    0  501    0  0.00000000000E+00 -0.00000000000E+00 -0.20246869236E+03  0.20246869236E+03  0.00000000000E+00 0. -1.
         23    2    1    2    0    0 -0.10636893253E+03  0.18876010843E+02 -0.10084619907E+03  0.17424345080E+03  0.92304770664E+02 0.  0.
          5    1    1    2  502    0  0.34953388280E+02 -0.63668024098E+02  0.45062986130E+02  0.85577460606E+02  0.41800000000E+01 0. -1.
         -5    1    1    2    0  502  0.71415544252E+02  0.44792013255E+02 -0.47935930813E+01  0.84539667298E+02  0.41800000000E+01 0. -1.
        -11    1    3    3    0    0 -0.95127094873E+02 -0.66807283532E+00 -0.29772963032E+02  0.99679686135E+02  0.00000000000E+00 0.  1.
         11    1    3    3    0    0 -0.11241837659E+02  0.19544083678E+02 -0.71073236033E+02  0.74563764665E+02  0.00000000000E+00 0. -1.
</event>
<event>
 7    1  0.4096326E-006  0.7664350E+02  0.7561462E-02  0.1338856E+00
          2   -1    0    0  501    0  0.00000000000E+00  0.00000000000E+00  0.47305418659E+02  0.47305418659E+02  0.00000000000E+00 0. -1.
         -2   -1    0    0    0  501 -0.00000000000E+00 -0.00000000000E+00 -0.28863275786E+03  0.28863275786E+03  0.00000000000E+00 0.  1.
         23    2    1    2    0    0 -0.25594330560E+02 -0.30859101212E+01 -0.61466635964E+02  0.11534712233E+03  0.94139357841E+02 0.  0.
          5    1    1    2  502    0  0.31396707596E+01  0.32691926666E+02  0.36514968764E+01  0.33308038536E+02  0.41800000000E+01 0.  1.
         -5    1    1    2    0  502  0.22454659801E+02 -0.29606016545E+02 -0.18351220011E+03  0.18728301565E+03  0.41800000000E+01 0.  1.
        -11    1    3    3    0    0  0.15503386189E+02  0.27491883714E+02  0.44416908769E+01  0.31872986545E+02  0.00000000000E+00 0. -1.
         11    1    3    3    0    0 -0.41097716749E+02 -0.30577793835E+02 -0.65908326841E+02  0.83474135784E+02  0.00000000000E+00 0.  1.
</event>
<event>
 7    1  0.4096326E-006  0.9011883E+02  0.7561462E-02  0.1302564E+00
         -2   -1    0    0    0  501 -0.00000000000E+00  0.00000000000E+00  0.27652936605E+02  0.27652936605E+02  0.00000000000E+00 0.  1.
          2   -1    0    0  501    0  0.00000000000E+00 -0.00000000000E+00 -0.43409433727E+03  0.43409433727E+03  0.00000000000E+00 0. -1.
         23    2    1    2    0    0  0.24012980150E+02  0.19903960376E+02 -0.16323756154E+03  0.18917565300E+03  0.90377736960E+02 0.  0.
          5    1    1    2  502    0 -0.47839089555E+02  0.11244145547E+02 -0.22275051413E+03  0.22814528977E+03  0.41800000000E+01 0. -1.
         -5    1    1    2    0  502  0.23826109405E+02 -0.31148105923E+02 -0.20453324999E+02  0.44426331105E+02  0.41800000000E+01 0.  1.
        -11    1    3    3    0    0  0.13301378766E+02 -0.34006376240E+02 -0.39569876463E+02  0.53843620099E+02  0.00000000000E+00 0.  1.
         11    1    3    3    0    0  0.10711601384E+02  0.53910336616E+02 -0.12366768507E+03  0.13533203290E+03  0.00000000000E+00 0. -1.
</event>
<event>
 7    1  0.4096326E-006  0.2408212E+03  0.7561462E-02  0.1119247E+00
         -1   -1    0    0    0  501 -0.00000000000E+00  0.00000000000E+00  0.28728654613E+03  0.28728654613E+03  0.00000000000E+00 0.  1.
          1   -1    0    0  501    0  0.00000000000E+00 -0.00000000000E+00 -0.30426166475E+03  0.30426166475E+03  0.00000000000E+00 0. -1.
         23    2    1    2    0    0 -0.51889443567E+02 -0.22518321492E+03 -0.15725097955E+03  0.29368248561E+03  0.90119571421E+02 0.  0.
          5    1    1    2  502    0  0.67537453831E+02  0.16218703080E+03  0.15129821141E+03  0.23189342769E+03  0.41800000000E+01 0.  1.
         -5    1    1    2    0  502 -0.15648010264E+02  0.62996184117E+02 -0.11022350476E+02  0.65972297585E+02  0.41800000000E+01 0.  1.
        -11    1    3    3    0    0  0.15333269845E+02 -0.71383506740E+02 -0.17033857168E+02  0.74972438193E+02  0.00000000000E+00 0.  1.
         11    1    3    3    0    0 -0.67222713412E+02 -0.15379970818E+03 -0.14021712238E+03  0.21871004742E+03  0.00000000000E+00 0. -1.
</event>
<event>
 7    1  0.4096326E-006  0.1110464E+03  0.7561462E-02  0.1258644E+00
         -2   -1    0    0    0  501 -0.00000000000E+00  0.00000000000E+00  0.40155574466E+02  0.40155574466E+02  0.00000000000E+00 0.  1.
          2   -1    0    0  501    0  0.00000000000E+00 -0.00000000000E+00 -0.39914278592E+03  0.39914278592E+03  0.00000000000E+00 0. -1.
         23    2    1    2    0    0 -0.26617936373E+02 -0.45817168559E+02 -0.22333682059E+03  0.24732238798E+03  0.92093977498E+02 0.  0.
          5    1    1    2  502    0  0.64426867371E+02  0.12438391752E+02 -0.25073023413E+02  0.70368059030E+02  0.41800000000E+01 0. -1.
         -5    1    1    2    0  502 -0.37808930998E+02  0.33378776806E+02 -0.11057736745E+03  0.12160791338E+03  0.41800000000E+01 0. -1.
        -11    1    3    3    0    0 -0.51090478919E+02  0.29466073779E+01 -0.12027454946E+03  0.13070916869E+03  0.00000000000E+00 0. -1.
         11    1    3    3    0    0  0.24472542546E+02 -0.48763775937E+02 -0.10306227113E+03  0.11661321929E+03  0.00000000000E+00 0.  1.
</event>
<event>
 7    1  0.4096326E-006  0.1655818E+03  0.7561462E-02  0.1182535E+00
          1   -1    0    0  501    0  0.00000000000E+00  0.00000000000E+00  0.94535867484E+02  0.94535867484E+02  0.00000000000E+00 0.  1.
         -1   -1    0    0    0  501 -0.00000000000E+00 -0.00000000000E+00 -0.37898546208E+03  0.37898546208E+03  0.00000000000E+00 0. -1.
         23    2    1    2    0    0 -0.10608299013E+03 -0.91309402522E+02 -0.49909754110E+02  0.17310637856E+03  0.88790917104E+02 0.  0.
          5    1    1    2  502    0  0.11996646421E+03  0.64914134149E+02 -0.11915939511E+03  0.18116906797E+03  0.41800000000E+01 0. -1.
         -5    1    1    2    0  502 -0.13883474079E+02  0.26395268373E+02 -0.11538044537E+03  0.11924588303E+03  0.41800000000E+01 0. -1.
        -11    1    3    3    0    0  0.14255326212E+02 -0.20456675523E+02 -0.15230009868E+02  0.29217171312E+02  0.00000000000E+00 0. -1.
         11    1    3    3    0    0 -0.12033831634E+03 -0.70852726998E+02 -0.34679744242E+02  0.14388920725E+03  0.00000000000E+00 0.  1.
</event>
<event>
 7    1  0.4096326E-006  0.8558301E+02  0.7561462E-02  0.1313915E+00
          1   -1    0    0  501    0  0.00000000000E+00  0.00000000000E+00  0.98110376919E+02  0.98110376919E+02  0.00000000000E+00 0. -1.
         -1   -1    0    0    0  501 -0.00000000000E+00 -0.00000000000E+00 -0.14574866183E+03  0.14574866183E+03  0.00000000000E+00 0.  1.
         23    2    1    2    0    0  0.36503379978E+02  0.32931332028E+02 -0.10605715549E+02  0.10444477344E+03  0.91538298636E+02 0.  0.
          5    1    1    2  502    0 -0.73367731983E+02 -0.12012281344E+02 -0.55621499151E+02  0.92942684312E+02  0.41800000000E+01 0.  1.
         -5    1    1    2    0  502  0.36864352004E+02 -0.20919050684E+02  0.18588929787E+02  0.46471581002E+02  0.41800000000E+01 0.  1.
        -11    1    3    3    0    0  0.10274340739E+02  0.24490644427E+02  0.39303135268E+02  0.47435115515E+02  0.00000000000E+00 0. -1.
         11    1    3    3    0    0  0.26229039239E+02  0.84406876003E+01 -0.49908850817E+02  0.57009657922E+02  0.00000000000E+00 0.  1.
</event>
<event>
 7    1  0.4096326E-006  0.9082618E+02  0.7561462E-02  0.1300863E+00
         -1   -1    0    0    0  501 -0.00000000000E+00  0.00000000000E+00  0.86588303880E+02  0.86588303880E+02  0.00000000000E+00 0.  1.
          1   -1    0    0  501    0  0.00000000000E+00 -0.00000000000E+00 -0.21768067153E+03  0.21768067153E+03  0.00000000000E+00 0. -1.
         23    2    1    2    0    0  0.21568360445E+01 -0.63646448662E+02 -0.11963922377E+03  0.16343527527E+03  0.91334675615E+02 0.  0.
          5    1    1    2  502    0  0.31417626600E+02  0.24858046785E+02  0.47693608638E+02  0.62427097130E+02  0.41800000000E+01 0.  1.
         -5    1    1    2    0  502 -0.33574462645E+02  0.38788401877E+02 -0.59146752524E+02  0.78406603014E+02  0.41800000000E+01 0.  1.
        -11    1    3    3    0    0 -0.30004173359E+02 -0.39906296688E+02 -0.16118847601E+02  0.52465037714E+02  0.00000000000E+00 0. -1.
         11    1    3    3    0    0  0.32161009404E+02 -0.23740151974E+02 -0.10352037616E+03  0.11097023755E+03  0.00000000000E+00 0.  1.
</event>
<event>
 7    1  0.4096326E-006  0.8457666E+02  0.7561462E-02  0.1316543E+00
          1   -1    0    0  501    0  0.00000000000E+00  0.00000000000E+00  0.78367302650E+03  0.78367302650E+03  0.00000000000E+00 0. -1.
         -1   -1    0    0    0  501 -0.00000000000E+00 -0.00000000000E+00 -0.16500774015E+02  0.16500774015E+02  0.00000000000E+00 0.  1.
         23    2    1    2    0    0  0.12637319680E+02 -0.16999639815E+02  0.42485341061E+03  0.43509857260E+03  0.91442100601E+02 0.  0.
          5    1    1    2  502    0 -0.15311246209E+02 -0.26994919149E+02  0.14904482480E+02  0.34681059937E+02  0.41800000000E+01 0. -1.
         -5    1    1    2    0  502  0.26739265288E+01  0.43994558964E+02  0.32741435940E+03  0.33039416799E+03  0.41800000000E+01 0. -1.
        -11    1    3    3    0    0 -0.34483254894E+02  0.13940139747E+02  0.18614275063E+03  0.18982240641E+03  0.00000000000E+00 0. -1.
         11    1    3    3    0    0  0.47120574574E+02 -0.30939779562E+02  0.23871065999E+03  0.24527616619E+03  0.00000000000E+00 0.  1.
</event>
<event>
 7    1  0.4096326E-006  0.5888382E+02  0.7561462E-02  0.1402576E+00
         -2   -1    0    0    0  501 -0.00000000000E+00  0.00000000000E+00  0.40742622051E+02  0.40742622051E+02  0.00000000000E+00 0.  1.
          2   -1    0    0  501    0  0.00000000000E+00 -0.00000000000E+00 -0.34383354706E+03  0.34383354706E+03  0.00000000000E+00 0. -1.
         23    2    1    2    0    0  0.18064582923E+02 -0.23873785164E+02 -0.19935498233E+03  0.21933513890E+03  0.86424576398E+02 0.  0.
          5    1    1    2  502    0 -0.22688858256E+02  0.25045361354E+02 -0.13197563881E+03  0.13629782116E+03  0.41800000000E+01 0.  1.
         -5    1    1    2    0  502  0.46242753330E+01 -0.11715761897E+01  0.28239696121E+02  0.28943209050E+02  0.41800000000E+01 0.  1.
        -11    1    3    3    0    0  0.45719035190E+02 -0.17784345694E+02 -0.61839241126E+02  0.78934180641E+02  0.00000000000E+00 0.  1.
         11    1    3    3    0    0 -0.27654452267E+02 -0.60894394698E+01 -0.13751574120E+03  0.14040095826E+03  0.00000000000E+00 0. -1.
</event>
<event>
 7    1  0.4096326E-006  0.2807815E+03  0.7561462E-02  0.1095263E+00
         -1   -1    0    0    0  501 -0.00000000000E+00  0.00000000000E+00  0.32332455298E+03  0.32332455298E+03  0.00000000000E+00 0.  1.
          1   -1    0    0  501    0  0.00000000000E+00 -0.00000000000E+00 -0.32113713552E+03  0.32113713552E+03  0.00000000000E+00 0. -1.
         23    2    1    2    0    0  0.11474595507E+03 -0.24303783138E+03 -0.13884902306E+03  0.31617382198E+03  0.91939179986E+02 0.  0.
          5    1    1    2  502    0 -0.92033493556E+02  0.68943781786E+02  0.87916571491E+02  0.14481092820E+03  0.41800000000E+01 0. -1.
         -5    1    1    2    0  502 -0.22712461515E+02  0.17409404959E+03  0.53119869022E+02  0.18347693832E+03  0.41800000000E+01 0. -1.
        -11    1    3    3    0    0  0.55119531635E+02 -0.15531797272E+03 -0.12968141263E+03  0.20971195531E+03  0.00000000000E+00 0.  1.
         11    1    3    3    0    0  0.59626423436E+02 -0.87719858655E+02 -0.91676104280E+01  0.10646186667E+03  0.00000000000E+00 0. -1.
</event>
<event>
 7    1  0.4096326E-006  0.1962563E+03  0.7561462E-02  0.1152937E+00
         -1   -1    0    0    0  501 -0.00000000000E+00  0.00000000000E+00  0.75151154216E+02  0.75151154216E+02  0.00000000000E+00 0.  1.
          1   -1    0    0  501    0  0.00000000000E+00 -0.00000000000E+00 -0.67064455769E+03  0.67064455769E+03  0.00000000000E+00 0. -1.
         23    2    1    2    0    0  0.13435463962E+03  0.14094675092E+03 -0.25928485135E+03  0.33762506214E+03  0.94047289504E+02 0.  0.
          5    1    1    2  502    0 -0.28986619726E+02 -0.45932050448E+02 -0.14243945097E+02  0.56305770161E+02  0.41800000000E+01 0. -1.
         -5    1    1    2    0  502 -0.10536801990E+03 -0.95014700471E+02 -0.32196460703E+03  0.35186487961E+03  0.41800000000E+01 0. -1.
        -11    1    3    3    0    0  0.83157812061E+02  0.10294583669E+03 -0.23440941225E+03  0.26918551140E+03  0.00000000000E+00 0. -1.
         11    1    3    3    0    0  0.51196827561E+02  0.38000914234E+02 -0.24875439101E+02  0.68439550739E+02  0.00000000000E+00 0.  1.
</event>
<event>
 7    1  0.4096326E-006  0.1132977E+03  0.7561462E-02  0.1254582E+00
          3   -1    0    0  501    0  0.00000000000E+00  0.00000000000E+00  0.21858572761E+03  0.21858572761E+03  0.00000000000E+00 0. -1.
         -3   -1    0    0    0  501 -0.00000000000E+00 -0.00000000000E+00 -0.95610586131E+02  0.95610586131E+02  0.00000000000E+00 0.  1.
         23    2    1    2    0    0 -0.58188099565E+02  0.45463760411E+01  0.14223744582E+03  0.17482385494E+03  0.83218776716E+02 0.  0.
          5    1    1    2  502    0  0.89939727726E+01 -0.60845719782E+02 -0.18934138775E+02  0.64490830148E+02  0.41800000000E+01 0.  1.
         -5    1    1    2    0  502  0.49194126793E+02  0.56299343741E+02 -0.32816556546E+00  0.74881628649E+02  0.41800000000E+01 0.  1.
        -11    1    3    3    0    0 -0.33518611715E+02 -0.31756970933E+02  0.11304234209E+03  0.12210885979E+03  0.00000000000E+00 0. -1.
         11    1    3    3    0    0 -0.24669487850E+02  0.36303346975E+02  0.29195103732E+02  0.52714995156E+02  0.00000000000E+00 0.  1.
</event>
<event>
 7    1  0.4096326E-006  0.9582862E+02  0.7561462E-02  0.1289321E+00
         -2   -1    0    0    0  501 -0.00000000000E+00  0.00000000000E+00  0.37632496529E+03  0.37632496529E+03  0.00000000000E+00 0.  1.
          2   -1    0    0  501    0  0.00000000000E+00 -0.00000000000E+00 -0.34030234564E+02  0.34030234564E+02  0.00000000000E+00 0. -1.
         23    2    1    2    0    0  0.25341942368E+02 -0.10071626981E+02  0.75828357128E+02  0.11472804534E+03  0.81663534884E+02 0.  0.
          5    1    1    2  502    0 -0.48287354369E+02 -0.32354222022E+02  0.60318271185E+02  0.83870319621E+02  0.41800000000E+01 0. -1.
         -5    1    1    2    0  502  0.22945412001E+02  0.42425849004E+02  0.20614810242E+03  0.21175683490E+03  0.41800000000E+01 0. -1.
        -11    1    3    3    0    0  0.53913673429E+02 -0.15030648578E+02  0.40847036182E+02  0.69289861770E+02  0.00000000000E+00 0. -1.
         11    1    3    3    0    0 -0.28571731060E+02  0.49590215970E+01  0.34981320946E+02  0.45438183570E+02  0.00000000000E+00 0.  1.
</event>
<event>
 7    1  0.4096326E-006  0.1160578E+03  0.7561462E-02  0.1249746E+00
         -2   -1    0    0    0  501 -0.00000000000E+00  0.00000000000E+00  0.27939328155E+03  0.27939328155E+03  0.00000000000E+00 0.  1.
          2   -1    0    0  501    0  0.00000000000E+00 -0.00000000000E+00 -0.84862443149E+02  0.84862443149E+02  0.00000000000E+00 0. -1.
         23    2    1    2    0    0 -0.64055904072E+02  0.53948367019E+02  0.68761393613E+01  0.12368339390E+03  0.90756352298E+02 0.  0.
          5    1    1    2  502    0  0.57320629143E+02 -0.85226135818E+02  0.86338534659E+02  0.13424218308E+03  0.41800000000E+01 0. -1.
         -5    1    1    2    0  502  0.67352749291E+01  0.31277768799E+02  0.10131616438E+03  0.10633014772E+03  0.41800000000E+01 0. -1.
        -11    1    3    3    0    0 -0.72131089241E+02  0.45072958582E+02  0.35865981463E+02  0.92308365042E+02  0.00000000000E+00 0.  1.
         11    1    3    3    0    0  0.80751851694E+01  0.88754084365E+01 -0.28989842102E+02  0.31375028853E+02  0.00000000000E+00 0. -1.
</event>
<event>
 7    1  0.4096326E-006  0.1163301E+03  0.7561462E-02  0.1249277E+00
         -2   -1    0    0    0  501 -0.00000000000E+00  0.00000000000E+00  0.15629188963E+02  0.15629188963E+02  0.00000000000E+00 0.  1.
          2   -1    0    0  501    0  0.00000000000E+00 -0.00000000000E+00 -0.89804871137E+03  0.89804871137E+03  0.00000000000E+00 0. -1.
         23    2    1    2    0    0 -0.62813373608E+02  0.51492013700E+01 -0.42932885646E+03  0.44306806290E+03  0.89520987424E+02 0.  0.
          5    1    1    2  502    0  0.90685139544E-01 -0.49766826937E+02 -0.16599421535E+03  0.17334444675E+03  0.41800000000E+01 0. -1.
         -5    1    1    2    0  502  0.62722688468E+02  0.44617625567E+02 -0.28709645059E+03  0.29726539069E+03  0.41800000000E+01 0.  1.
        -11    1    3    3    0    0 -0.58485397858E+02  0.39779714338E+02 -0.22743165633E+03  0.23817666917E+03  0.00000000000E+00 0.  1.
         11    1    3    3    0    0 -0.43279757495E+01 -0.34630512968E+02 -0.20189720013E+03  0.20489139373E+03  0.00000000000E+00 0. -1.
</event>
<event>
 7    1  0.4096326E-006  0.1587115E+03  0.7561462E-02  0.1190159E+00
         -1   -1    0    0    0  501 -0.00000000000E+00  0.00000000000E+00  0.98418149708E+02  0.98418149708E+02  0.00000000000E+00 0.  1.
          1   -1    0    0  501    0  0.00000000000E+00 -0.00000000000E+00 -0.47941743002E+03  0.47941743002E+03  0.00000000000E+00 0. -1.
         23    2    1    2    0    0 -0.35667467541E+02  0.11851185758E+03 -0.37115689065E+03  0.40159455647E+03  0.90573294542E+02 0.  0.
          5    1    1    2  502    0  0.68765185560E+02 -0.26271189027E+02 -0.23090434217E+02  0.77262323744E+02  0.41800000000E+01 0.  1.
         -5    1    1    2    0  502 -0.33097718019E+02 -0.92240668549E+02  0.13248044555E+02  0.98978699512E+02  0.41800000000E+01 0.  1.
        -11    1    3    3    0    0 -0.15909533179E+02  0.12406444109E+03 -0.25955577056E+03  0.28812201725E+03  0.00000000000E+00 0.  1.
         11    1    3    3    0    0 -0.19757934362E+02 -0.55525835139E+01 -0.11160112009E+03  0.11347253923E+03  0.00000000000E+00 0. -1.
</event>
<event>
 7    1  0.4096326E-006  0.1923370E+03  0.7561462E-02  0.1156370E+00
          2   -1    0    0  501    0  0.00000000000E+00  0.00000000000E+00  0.67741968346E+03  0.67741968346E+03  0.00000000000E+00 0. -1.
         -2   -1    0    0    0  501 -0.00000000000E+00 -0.00000000000E+00 -0.81754510414E+02  0.81754510414E+02  0.00000000000E+00 0.  1.
         23    2    1    2    0    0  0.86248533160E+02  0.14911414897E+03  0.47576819141E+03  0.51484438831E+03  0.95055422346E+02 0.  0.
          5    1    1    2  502    0 -0.10728582441E+03 -0.12714896415E+03  0.59781341744E+02  0.17682869797E+03  0.41800000000E+01 0. -1.
         -5    1    1    2    0  502  0.21037291252E+02 -0.21965184820E+02  0.60115639887E+02  0.67501107594E+02  0.41800000000E+01 0. -1.
        -11    1    3    3    0    0  0.13338800149E+02  0.97058825564E+02  0.16986313845E+03  0.19609136904E+03  0.00000000000E+00 0. -1.
         11    1    3    3    0    0  0.72909733010E+02  0.52055323408E+02  0.30590505296E+03  0.31875301927E+03  0.00000000000E+00 0.  1.
</event>
<event>
 7    1  0.4096326E-006  0.1170046E+03  0.7561462E-02  0.1248122E+00
          1   -1    0    0  501    0  0.00000000000E+00  0.00000000000E+00  0.77731044731E+03  0.77731044731E+03  0.00000000000E+00 0. -1.
         -1   -1    0    0    0  501 -0.00000000000E+00 -0.00000000000E+00 -0.21921142971E+02  0.21921142971E+02  0.00000000000E+00 0.  1.
         23    2    1    2    0    0  0.51190121733E+02  0.46751171096E+02  0.40357329483E+03  0.41945877829E+03  0.90929433202E+02 0.  0.
          5    1    1    2  502    0  0.15591534933E+02  0.33656922674E+02  0.11431597100E+03  0.12025596880E+03  0.41800000000E+01 0. -1.
         -5    1    1    2    0  502 -0.66781656665E+02 -0.80408093770E+02  0.23750003850E+03  0.25951684319E+03  0.41800000000E+01 0. -1.
        -11    1    3    3    0    0 -0.96667126993E+01 -0.61342566491E+01  0.44656608527E+01  0.12288879766E+02  0.00000000000E+00 0.  1.
         11    1    3    3    0    0  0.60856834432E+02  0.52885427745E+02  0.39910763398E+03  0.40716989852E+03  0.00000000000E+00 0. -1.
</event>
<event>
 7    1  0.4096326E-006  0.1100937E+03  0.7561462E-02  0.1260397E+00
          2   -1    0    0  501    0  0.00000000000E+00  0.00000000000E+00  0.79015855617E+02  0.79015855617E+02  0.00000000000E+00 0. -1.
         -2   -1    0    0    0  501 -0.00000000000E+00 -0.00000000000E+00 -0.16876721936E+03  0.16876721936E+03  0.00000000000E+00 0.  1.
         23    2    1    2    0    0 -0.38944441696E+02  0.17902528534E+02 -0.36125260855E+02  0.10510500887E+03  0.88909270332E+02 0.  0.
          5    1    1    2  502    0  0.82645304261E+02 -0.27626292213E+02 -0.36288790893E+02  0.94487073625E+02  0.41800000000E+01 0. -1.
         -5    1    1    2    0  502 -0.43700862564E+02  0.97237636797E+01 -0.17337311994E+02  0.48190992480E+02  0.41800000000E+01 0. -1.
        -11    1    3    3    0    0 -0.40500690099E+02 -0.23317201142E+02 -0.42738530551E+02  0.63329138327E+02  0.00000000000E+00 0.  1.
         11    1    3    3    0    0  0.15562484030E+01  0.41219729675E+02  0.66132696961E+01  0.41775870544E+02  0.00000000000E+00 0. -1.
</event>
<event>
 7    1  0.4096326E-006  0.1949854E+03  0.7561462E-02  0.1154040E+00
          2   -1    0    0  501    0  0.00000000000E+00  0.00000000000E+00  0.22756696195E+02  0.22756696195E+02  0.00000000000E+00 0.  1.
         -2   -1    0    0    0  501 -0.00000000000E+00 -0.00000000000E+00 -0.16907661010E+04  0.16907661010E+04  0.00000000000E+00 0. -1.
         23    2    1    2    0    0 -0.28989922148E+02 -0.15951626882E+03 -0.86856288109E+03  0.88826578713E+03  0.91262120143E+02 0.  0.
          5    1    1    2  502    0  0.71734403208E+02  0.14049651879E+03 -0.61453965151E+03  0.63447738500E+03  0.41800000000E+01 0. -1.
         -5    1    1    2    0  502 -0.42744481059E+02  0.19019750027E+02 -0.18490687218E+03  0.19077962505E+03  0.41800000000E+01 0. -1.
        -11    1    3    3    0    0 -0.41033566300E+02 -0.16635716059E+03 -0.82286759472E+03  0.84051742212E+03  0.00000000000E+00 0.  1.
         11    1    3    3    0    0  0.12043644151E+02  0.68408917767E+01 -0.45695286366E+02  0.47748365007E+02  0.00000000000E+00 0. -1.
</event>
<event>
 7    1  0.4096326E-006  0.1040592E+03  0.7561462E-02  0.1271984E+00
         -1   -1    0    0    0  501 -0.00000000000E+00  0.00000000000E+00  0.32257531873E+03  0.32257531873E+03  0.00000000000E+00 0.  1.
          1   -1    0    0  501    0  0.00000000000E+00 -0.00000000000E+00 -0.10365119162E+03  0.10365119162E+03  0.00000000000E+00 0. -1.
         23    2    1    2    0    0 -0.12342307792E+02  0.77282343209E+01 -0.65403256902E+02  0.11335216283E+03  0.91427942329E+02 0.  0.
          5    1    1    2  502    0  0.32285962271E+02  0.50354997195E+02  0.19778234639E+03  0.20667205434E+03  0.41800000000E+01 0. -1.
         -5    1    1    2    0  502 -0.19943654478E+02 -0.58083231516E+02  0.86545037621E+02  0.10620229317E+03  0.41800000000E+01 0.  1.
        -11    1    3    3    0    0  0.15049727929E+01  0.45936967644E+02 -0.54462825912E+02  0.71264783349E+02  0.00000000000E+00 0. -1.
         11    1    3    3    0    0 -0.13847280585E+02 -0.38208733323E+02 -0.10940430990E+02  0.42087379486E+02  0.00000000000E+00 0.  1.
</event>
<event>
 7    1  0.4096326E-006  0.6036421E+02  0.7561462E-02  0.1396310E+00
         -3   -1    0    0    0  501 -0.00000000000E+00  0.00000000000E+00  0.14908542778E+03  0.14908542778E+03  0.00000000000E+00 0.  1.
          3   -1    0    0  501    0  0.00000000000E+00 -0.00000000000E+00 -0.87753334993E+02  0.87753334993E+02  0.00000000000E+00 0. -1.
         23    2    1    2    0    0 -0.22731551193E+02 -0.19791224114E+02  0.55627217884E+01  0.96602571498E+02  0.91611663967E+02 0.  0.
          5    1    1    2  502    0  0.42797279403E+02 -0.44940764338E+00  0.87429187668E+02  0.97432768347E+02  0.41800000000E+01 0. -1.
         -5    1    1    2    0  502 -0.20065728210E+02  0.20240631757E+02 -0.31659816671E+02  0.42803422926E+02  0.41800000000E+01 0. -1.
        -11    1    3    3    0    0  0.47258242161E+01 -0.20911525364E+02 -0.38851629522E+02  0.44374254068E+02  0.00000000000E+00 0. -1.
         11    1    3    3    0    0 -0.27457375409E+02  0.11203012506E+01  0.44414351311E+02  0.52228317430E+02  0.00000000000E+00 0.  1.
</event>
<event>
 7    1  0.4096326E-006  0.1300638E+03  0.7561462E-02  0.1227361E+00
         -3   -1    0    0    0  501 -0.00000000000E+00  0.00000000000E+00  0.29373371465E+03  0.29373371465E+03  0.00000000000E+00 0.  1.
          3   -1    0    0  501    0  0.00000000000E+00 -0.00000000000E+00 -0.68506719914E+02  0.68506719914E+02  0.00000000000E+00 0. -1.
         23    2    1    2    0    0 -0.74240209473E+02 -0.52205578156E+02  0.88569427902E+02  0.15592955084E+03  0.90732850576E+02 0.  0.
          5    1    1    2  502    0  0.21718501258E+02 -0.31588162297E+02  0.87869385219E+02  0.95958358432E+02  0.41800000000E+01 0.  1.
         -5    1    1    2    0  502  0.52521708216E+02  0.83793740453E+02  0.48788181619E+02  0.11035252529E+03  0.41800000000E+01 0.  1.
        -11    1    3    3    0    0  0.11611124042E+02  0.10985532111E+02 -0.19228121074E+01  0.16099606320E+02  0.00000000000E+00 0. -1.
         11    1    3    3    0    0 -0.85851333515E+02 -0.63191110267E+02  0.90492240009E+02  0.13982994452E+03  0.00000000000E+00 0.  1.
</event>
<event>
 7    1  0.4096326E-006  0.1476227E+03  0.7561462E-02  0.1203425E+00
         -2   -1    0    0    0  501 -0.00000000000E+00  0.00000000000E+00  0.37430211226E+02  0.37430211226E+02  0.00000000000E+00 0.  1.
          2   -1    0    0  501    0  0.00000000000E+00 -0.00000000000E+00 -0.84839858632E+03  0.84839858632E+03  0.00000000000E+00 0. -1.
         23    2    1    2    0    0  0.10342181165E+03  0.67532644528E+02 -0.55546718654E+03  0.57568928397E+03  0.87279018965E+02 0.  0.
          5    1    1    2  502    0  0.22913725343E+00  0.13525636887E+02 -0.12138194997E+03  0.12220493253E+03  0.41800000000E+01 0.  1.
         -5    1    1    2    0  502 -0.10365094890E+03 -0.81058281415E+02 -0.13411923859E+03  0.18793458105E+03  0.41800000000E+01 0.  1.
        -11    1    3    3    0    0  0.75151207993E+02 -0.11546294272E+01 -0.23499777908E+03  0.24672452939E+03  0.00000000000E+00 0.  1.
         11    1    3    3    0    0  0.28270603654E+02  0.68687273955E+02 -0.32046940746E+03  0.32896475458E+03  0.00000000000E+00 0. -1.
</event>
<event>
 7    1  0.4096326E-006  0.1310657E+03  0.7561462E-02  0.1225883E+00
          2   -1    0    0  501    0  0.00000000000E+00  0.00000000000E+00  0.76911764974E+03  0.76911764974E+03  0.00000000000E+00 0. -1.
         -2   -1    0    0    0  501 -0.00000000000E+00 -0.00000000000E+00 -0.32381126308E+02  0.32381126308E+02  0.00000000000E+00 0.  1.
         23    2    1    2    0    0 -0.52696262748E+02  0.10087185059E+03  0.36412836719E+03  0.39231076612E+03  0.91467169335E+02 0.  0.
          5    1    1    2  502    0  0.57152005885E+02 -0.55117786532E+02  0.79391461301E+02  0.11236012948E+03  0.41800000000E+01 0. -1.
         -5    1    1    2    0  502 -0.44557431371E+01 -0.45754064057E+02  0.29321669494E+03  0.29682788045E+03  0.41800000000E+01 0. -1.
        -11    1    3    3    0    0  0.84508791971E+01  0.65045039980E+02  0.10619551693E+03  0.12481891844E+03  0.00000000000E+00 0.  1.
         11    1    3    3    0    0 -0.61147141945E+02  0.35826810610E+02  0.25793285026E+03  0.26749184767E+03  0.00000000000E+00 0. -1.
</event>
<event>
 7    1  0.4096326E-006  0.1030207E+03  0.7561462E-02  0.1274069E+00
         -2   -1    0    0    0  501 -0.00000000000E+00  0.00000000000E+00  0.19048071117E+03  0.19048071117E+03  0.00000000000E+00 0. -1.
          2   -1    0    0  501    0  0.00000000000E+00 -0.00000000000E+00 -0.73069977389E+02  0.73069977389E+02  0.00000000000E+00 0.  1.
         23    2    1    2    0    0 -0.45858669097E+02  0.98030902334E+01  0.50918531527E+02  0.11432385456E+03  0.90984222585E+02 0.  0.
          5    1    1    2  502    0 -0.36853590572E+02 -0.12804215350E+02 -0.52849950525E+01  0.39592153787E+02  0.41800000000E+01 0. -1.
         -5    1    1    2    0  502  0.82712259669E+02  0.30011251164E+01  0.71777197302E+02  0.10963468021E+03  0.41800000000E+01 0. -1.
        -11    1    3    3    0    0  0.14120289676E+02 -0.13546687122E+02  0.45742798693E+02  0.49752376272E+02  0.00000000000E+00 0. -1.
         11    1    3    3    0    0 -0.59978958773E+02  0.23349777356E+02  0.51757328346E+01  0.64571478289E+02  0.00000000000E+00 0.  1.
</event>
<event>
 7    1  0.4096326E-006  0.7696470E+02  0.7561462E-02  0.1337893E+00
         -2   -1    0    0    0  501 -0.00000000000E+00  0.00000000000E+00  0.90459577253E+02  0.90459577253E+02  0.00000000000E+00 0.  1.
          2   -1    0    0  501    0  0.00000000000E+00 -0.00000000000E+00 -0.16833242898E+03  0.16833242898E+03  0.00000000000E+00 0. -1.
         23    2    1    2    0    0 -0.51683785010E+02  0.98785862152E+01 -0.65388501040E+02  0.12250820866E+03  0.89240153646E+02 0.  0.
          5    1    1    2  502    0 -0.14044177101E+01 -0.20449359448E+02 -0.60369998500E+02  0.63891766369E+02  0.41800000000E+01 0. -1.
         -5    1    1    2    0  502  0.53088202720E+02  0.10570773233E+02  0.47885647814E+02  0.72392031200E+02  0.41800000000E+01 0. -1.
        -11    1    3    3    0    0  0.10765545693E+02 -0.83934682803E+01  0.14206334695E+02  0.19701960037E+02  0.00000000000E+00 0.  1.
         11    1    3    3    0    0 -0.62449330703E+02  0.18272054496E+02 -0.79594835734E+02  0.10280624862E+03  0.00000000000E+00 0. -1.
</event>
<event>
 7    1  0.4096326E-006  0.1171343E+03  0.7561462E-02  0.1247901E+00
          2   -1    0    0  501    0  0.00000000000E+00  0.00000000000E+00  0.49788781364E+03  0.49788781364E+03  0.00000000000E+00 0. -1.
         -2   -1    0    0    0  501 -0.00000000000E+00 -0.00000000000E+00 -0.48266384917E+02  0.48266384917E+02  0.00000000000E+00 0.  1.
         23    2    1    2    0    0  0.66635768910E+02 -0.49813334227E+02  0.33558964235E+03  0.35755584023E+03  0.91126707723E+02 0.  0.
          5    1    1    2  502    0 -0.68859170494E+02 -0.16899743553E+01  0.11803133465E+03  0.13672347909E+03  0.41800000000E+01 0. -1.
         -5    1    1    2    0  502  0.22234015839E+01  0.51503308583E+02 -0.39995482850E+01  0.51874879239E+02  0.41800000000E+01 0. -1.
        -11    1    3    3    0    0 -0.14291471076E+02 -0.25171700860E+02  0.35686655092E+02  0.45949951266E+02  0.00000000000E+00 0.  1.
         11    1    3    3    0    0  0.80927239986E+02 -0.24641633367E+02  0.29990298726E+03  0.31160588896E+03  0.00000000000E+00 0. -1.
</event>
<event>
 7    1  0.4096326E-006  0.8547321E+02  0.7561462E-02  0.1314200E+00
          2   -1    0    0  501    0  0.00000000000E+00  0.00000000000E+00  0.52588153922E+02  0.52588153922E+02  0.00000000000E+00 0. -1.
         -2   -1    0    0    0  501 -0.00000000000E+00 -0.00000000000E+00 -0.29686844279E+03  0.29686844279E+03  0.00000000000E+00 0.  1.
         23    2    1    2    0    0 -0.25997842412E+02 -0.19187351606E+02 -0.48244922040E+02  0.11467828823E+03  0.98891329329E+02 0.  0.
          5    1    1    2  502    0  0.32270847186E+02 -0.22015025581E+02 -0.54735215991E+01  0.39667376622E+02  0.41800000000E+01 0.  1.
         -5    1    1    2    0  502 -0.62730047734E+01  0.41202377186E+02 -0.19056184523E+03  0.19511093186E+03  0.41800000000E+01 0.  1.
        -11    1    3    3    0    0 -0.45247298557E+02  0.17361755609E+02 -0.54463840482E+02  0.72904447769E+02  0.00000000000E+00 0.  1.
         11    1    3    3    0    0  0.19249456144E+02 -0.36549107215E+02  0.62189184422E+01  0.41773840458E+02  0.00000000000E+00 0. -1.
</event>
<event>
 7    1  0.4096326E-006  0.1607302E+03  0.7561462E-02  0.1187875E+00
          2   -1    0    0  501    0  0.00000000000E+00  0.00000000000E+00  0.23329477593E+03  0.23329477593E+03  0.00000000000E+00 0. -1.
         -2   -1    0    0    0  501 -0.00000000000E+00 -0.00000000000E+00 -0.12870755889E+03  0.12870755889E+03  0.00000000000E+00 0.  1.
         23    2    1    2    0    0 -0.12305090836E+03 -0.34395725034E+02  0.94633976131E+02  0.18291835602E+03  0.90437512030E+02 0.  0.
          5    1    1    2  502    0 -0.10290460066E+02  0.29658523657E+02  0.30561848025E+02  0.44011595615E+02  0.41800000000E+01 0.  1.
         -5    1    1    2    0  502  0.13334136843E+03  0.47372013768E+01 -0.20608607124E+02  0.13507238318E+03  0.41800000000E+01 0.  1.
        -11    1    3    3    0    0 -0.71975557651E+02 -0.64809705237E+02  0.63489719666E+02  0.11580899488E+03  0.00000000000E+00 0. -1.
         11    1    3    3    0    0 -0.51075350711E+02  0.30413980203E+02  0.31144256465E+02  0.67109361141E+02  0.00000000000E+00 0.  1.
</event>
<event>
 7    1  0.4096326E-006  0.1458369E+03  0.7561462E-02  0.1205684E+00
         -3   -1    0    0    0  501 -0.00000000000E+00  0.00000000000E+00  0.26364877611E+03  0.26364877611E+03  0.00000000000E+00 0.  1.
          3   -1    0    0  501    0  0.00000000000E+00 -0.00000000000E+00 -0.88300045006E+02  0.88300045006E+02  0.00000000000E+00 0. -1.
         23    2    1    2    0    0 -0.28903271530E+02 -0.99664872122E+02  0.47099634593E+02  0.14491158958E+03  0.89512610155E+02 0.  0.
          5    1    1    2  502    0 -0.37624633381E+02 -0.29637986444E+01  0.45721791253E+02  0.59433590964E+02  0.41800000000E+01 0.  1.
         -5    1    1    2    0  502  0.66527904912E+02  0.10262867077E+03  0.82527305255E+02  0.14760364056E+03  0.41800000000E+01 0.  1.
        -11    1    3    3    0    0 -0.30377902121E+02  0.12460065056E+01  0.29697246125E+02  0.42500539960E+02  0.00000000000E+00 0.  1.
         11    1    3    3    0    0  0.14746305907E+01 -0.10091087863E+03  0.17402388468E+02  0.10241104962E+03  0.00000000000E+00 0. -1.
</event>
<event>
 7    1  0.4096326E-006  0.1004080E+03  0.7561462E-02  0.1279440E+00
         -2   -1    0    0    0  501 -0.00000000000E+00  0.00000000000E+00  0.47711449847E+02  0.47711449847E+02  0.00000000000E+00 0.  1.
          2   -1    0    0  501    0  0.00000000000E+00 -0.00000000000E+00 -0.52475936012E+03  0.52475936012E+03  0.00000000000E+00 0. -1.
         23    2    1    2    0    0 -0.82523185654E+01 -0.45993531901E+02 -0.41063024972E+03  0.42333306717E+03  0.91707022812E+02 0.  0.
          5    1    1    2  502    0 -0.36689709503E+02  0.39414263589E+02  0.14788504852E+02  0.55998135981E+02  0.41800000000E+01 0.  1.
         -5    1    1    2    0  502  0.44942028068E+02  0.65792683125E+01 -0.81206165402E+02  0.93139606815E+02  0.41800000000E+01 0.  1.
        -11    1    3    3    0    0 -0.49157810502E+02 -0.23069885035E+02 -0.18127484216E+03  0.18923339644E+03  0.00000000000E+00 0.  1.
         11    1    3    3    0    0  0.40905491937E+02 -0.22923646866E+02 -0.22935540756E+03  0.23409967072E+03  0.00000000000E+00 0. -1.
</event>
<event>
 7    1  0.4096326E-006  0.1488634E+03  0.7561462E-02  0.1201877E+00
          1   -1    0    0  501    0  0.00000000000E+00  0.00000000000E+00  0.17861795997E+03  0.17861795997E+03  0.00000000000E+00 0. -1.
         -1   -1    0    0    0  501 -0.00000000000E+00 -0.00000000000E+00 -0.16433267213E+03  0.16433267213E+03  0.00000000000E+00 0.  1.
         23    2    1    2    0    0 -0.10540235376E+03  0.79395175727E+02  0.76668947648E+01  0.16100766391E+03  0.91931694498E+02 0.  0.
          5    1    1    2  502    0  0.67774539149E+02 -0.97449315209E+02 -0.34011085244E+02  0.12354749496E+03  0.41800000000E+01 0.  1.
         -5    1    1    2    0  502  0.37627814615E+02  0.18054139483E+02  0.40629478324E+02  0.58395473232E+02  0.41800000000E+01 0.  1.
        -11    1    3    3    0    0 -0.70411611702E+02  0.30141605572E+02 -0.37782583082E+02  0.85403952094E+02  0.00000000000E+00 0.  1.
         11    1    3    3    0    0 -0.34990742063E+02  0.49253570155E+02  0.45449477847E+02  0.75603711811E+02  0.00000000000E+00 0. -1.
</event>
<event>
 7    1  0.4096326E-006  0.8219530E+02  0.7561462E-02  0.1322934E+00
         -2   -1    0    0    0  501 -0.00000000000E+00  0.00000000000E+00  0.14054960807E+03  0.14054960807E+03  0.00000000000E+00 0.  1.
          2   -1    0    0  501    0  0.00000000000E+00 -0.00000000000E+00 -0.11646545076E+03  0.11646545076E+03  0.00000000000E+00 0. -1.
         23    2    1    2    0    0  0.23482876537E+02 -0.62057037584E+02 -0.58905844972E+01  0.11227917582E+03  0.90384694130E+02 0.  0.
          5    1    1    2  502    0 -0.36942173224E+02  0.57344589873E+02 -0.35905957134E+02  0.77199976088E+02  0.41800000000E+01 0. -1.
         -5    1    1    2    0  502  0.13459296687E+02  0.47124477109E+01  0.65880698940E+02  0.67535906920E+02  0.41800000000E+01 0. -1.
        -11    1    3    3    0    0 -0.13168444922E+02 -0.28924591890E+02  0.35628258774E+02  0.47743196174E+02  0.00000000000E+00 0.  1.
         11    1    3    3    0    0  0.36651321458E+02 -0.33132445693E+02 -0.41518843271E+02  0.64535979646E+02  0.00000000000E+00 0. -1.
</event>
<event>
 7    1  0.4096326E-006  0.1765221E+03  0.7561462E-02  0.1171212E+00
          2   -1    0    0  501    0  0.00000000000E+00  0.00000000000E+00  0.72424974605E+03  0.72424974605E+03  0.00000000000E+00 0. -1.
         -2   -1    0    0    0  501 -0.00000000000E+00 -0.00000000000E+00 -0.59622908074E+02  0.59622908074E+02  0.00000000000E+00 0.  1.
         23    2    1    2    0    0  0.15738780819E+03  0.66396821439E+02  0.40585332578E+03  0.44952249911E+03  0.90410702309E+02 0.  0.
          5    1    1    2  502    0 -0.93663275253E+02 -0.70559062566E+02  0.73801453449E+02  0.13862004679E+03  0.41800000000E+01 0. -1.
         -5    1    1    2    0  502 -0.63724532936E+02  0.41622411262E+01  0.18497205874E+03  0.19573010822E+03  0.41800000000E+01 0. -1.
        -11    1    3    3    0    0  0.51733221355E+02  0.30845201049E+02  0.55647109393E+02  0.82002154870E+02  0.00000000000E+00 0.  1.
         11    1    3    3    0    0  0.10565458683E+03  0.35551620391E+02  0.35020621639E+03  0.36752034424E+03  0.00000000000E+00 0. -1.
</event>
<event>
 7    1  0.4096326E-006  0.1526797E+03  0.7561462E-02  0.1197218E+00
         -1   -1    0    0    0  501 -0.00000000000E+00  0.00000000000E+00  0.41258361447E+03  0.41258361447E+03  0.00000000000E+00 0.  1.
          1   -1    0    0  501    0  0.00000000000E+00 -0.00000000000E+00 -0.67678052741E+02  0.67678052741E+02  0.00000000000E+00 0. -1.
         23    2    1    2    0    0  0.92222127374E+00 -0.10918297661E+03  0.69376484761E+02  0.15857058499E+03  0.91704748580E+02 0.  0.
          5    1    1    2  502    0  0.56696200800E+02  0.28651461094E+02  0.77911662482E+02  0.10061344323E+03  0.41800000000E+01 0. -1.
         -5    1    1    2    0  502 -0.57618422073E+02  0.80531515518E+02  0.19761741449E+03  0.22107763899E+03  0.41800000000E+01 0. -1.
        -11    1    3    3    0    0  0.42665999889E+02 -0.82967291821E+02  0.45615600824E+02  0.10384961289E+03  0.00000000000E+00 0. -1.
         11    1    3    3    0    0 -0.41743778615E+02 -0.26215684791E+02  0.23760883937E+02  0.54720972101E+02  0.00000000000E+00 0.  1.
</event>
<event>
 7    1  0.4096326E-006  0.1126144E+03  0.7561462E-02  0.1255804E+00
         -1   -1    0    0    0  501 -0.00000000000E+00  0.00000000000E+00  0.19171578430E+03  0.19171578430E+03  0.00000000000E+00 0.  1.
          1   -1    0    0  501    0  0.00000000000E+00 -0.00000000000E+00 -0.90206224473E+02  0.90206224473E+02  0.00000000000E+00 0. -1.
         23    2    1    2    0    0  0.27091914386E+02 -0.48505628861E+02 -0.74184408267E+01  0.10699391174E+03  0.91136688706E+02 0.  0.
          5    1    1    2  502    0  0.42973367767E+02  0.22596648426E+02  0.82044434753E+02  0.95425785463E+02  0.41800000000E+01 0. -1.
         -5    1    1    2    0  502 -0.70065282153E+02  0.25908980435E+02  0.26883565904E+02  0.79502311577E+02  0.41800000000E+01 0. -1.
        -11    1    3    3    0    0  0.53429153749E+02 -0.89757902350E+01  0.12311695312E+02  0.55559131762E+02  0.00000000000E+00 0.  1.
         11    1    3    3    0    0 -0.26337239363E+02 -0.39529838626E+02 -0.19730136138E+02  0.51434779975E+02  0.00000000000E+00 0. -1.
</event>
<event>
 6    1  0.4096326E-006  0.1050129E+03  0.7561462E-02  0.1270094E+00
         -1   -1    0    0    0  501 -0.00000000000E+00  0.00000000000E+00  0.17348978312E+02  0.17348978312E+02  0.00000000000E+00 0.  1.
          1   -1    0    0  501    0  0.00000000000E+00 -0.00000000000E+00 -0.75790266062E+03  0.75790266062E+03  0.00000000000E+00 0. -1.
          5    1    1    2  502    0 -0.58220441417E+02 -0.11759232082E+02 -0.96590235058E+02  0.11346825656E+03  0.41800000000E+01 0. -1.
         -5    1    1    2    0  502  0.81567165850E+02  0.40807909407E+02 -0.35880093925E+03  0.37023516098E+03  0.41800000000E+01 0.  1.
        -11    1    1    2    0    0 -0.22175664054E+02 -0.41298532188E+02 -0.24829878397E+03  0.25268481347E+03  0.00000000000E+00 0. -1.
         11    1    1    2    0    0 -0.11710603790E+01  0.12249854863E+02 -0.36863724029E+02  0.38863407929E+02  0.00000000000E+00 0.  1.
</event>
<event>
 7    1  0.4096326E-006  0.3155159E+03  0.7561462E-02  0.1077732E+00
          2   -1    0    0  501    0  0.00000000000E+00  0.00000000000E+00  0.13276773776E+04  0.13276773776E+04  0.00000000000E+00 0. -1.
         -2   -1    0    0    0  501 -0.00000000000E+00 -0.00000000000E+00 -0.12874037335E+03  0.12874037335E+03  0.00000000000E+00 0.  1.
         23    2    1    2    0    0 -0.16017700209E+02 -0.36716662258E+02  0.15889933436E+03  0.18972815202E+03  0.95619523124E+02 0.  0.
          5    1    1    2  502    0  0.24707455674E+03  0.13438671561E+03  0.96449582541E+03  0.10046767120E+04  0.41800000000E+01 0. -1.
         -5    1    1    2    0  502 -0.23105685653E+03 -0.97670053356E+02  0.75541844493E+02  0.26201288697E+03  0.41800000000E+01 0.  1.
        -11    1    3    3    0    0  0.36675051013E+02 -0.26335376205E+02  0.44721333932E+02  0.63550052048E+02  0.00000000000E+00 0. -1.
         11    1    3    3    0    0 -0.52692751222E+02 -0.10381286053E+02  0.11417800042E+03  0.12617809997E+03  0.00000000000E+00 0.  1.
</event>
<event>
 7    1  0.4096326E-006  0.1162222E+03  0.7561462E-02  0.1249463E+00
         -2   -1    0    0    0  501 -0.00000000000E+00  0.00000000000E+00  0.60034657604E+02  0.60034657604E+02  0.00000000000E+00 0.  1.
          2   -1    0    0  501    0  0.00000000000E+00 -0.00000000000E+00 -0.44329141867E+03  0.44329141867E+03  0.00000000000E+00 0. -1.
         23    2    1    2    0    0 -0.43859585428E+02  0.78941714326E+02 -0.30225032779E+03  0.32907015564E+03  0.93682704856E+02 0.  0.
          5    1    1    2  502    0  0.52867714650E+02 -0.15309324198E+01  0.10399086804E+02  0.54064335867E+02  0.41800000000E+01 0. -1.
         -5    1    1    2    0  502 -0.90081292218E+01 -0.77410781906E+02 -0.91405520071E+02  0.12019158476E+03  0.41800000000E+01 0. -1.
        -11    1    3    3    0    0  0.31538209962E+01  0.40479699292E+02 -0.30950819034E+02  0.51053950293E+02  0.00000000000E+00 0.  1.
         11    1    3    3    0    0 -0.47013406424E+02  0.38462015034E+02 -0.27129950876E+03  0.27801620535E+03  0.00000000000E+00 0. -1.
</event>
<event>
 7    1  0.4096326E-006  0.1597457E+03  0.7561462E-02  0.1188984E+00
          1   -1    0    0  501    0  0.00000000000E+00  0.00000000000E+00  0.37118440831E+03  0.37118440831E+03  0.00000000000E+00 0. -1.
         -1   -1    0    0    0  501 -0.00000000000E+00 -0.00000000000E+00 -0.15369767441E+03  0.15369767441E+03  0.00000000000E+00 0.  1.
         23    2    1    2    0    0  0.11247345087E+03  0.72722771133E+02  0.28642774480E+03  0.32907866148E+03  0.91175840333E+02 0.  0.
          5    1    1    2  502    0 -0.15449529452E+02 -0.63823167164E+02 -0.72898134934E+02  0.98202317203E+02  0.41800000000E+01 0. -1.
         -5    1    1    2    0  502 -0.97023921419E+02 -0.88996039698E+01  0.39571240388E+01  0.97601104035E+02  0.41800000000E+01 0. -1.
        -11    1    3    3    0    0  0.31637772336E+02 -0.16577761467E+02  0.33666736285E+02  0.49083805330E+02  0.00000000000E+00 0.  1.
         11    1    3    3    0    0  0.80835678535E+02  0.89300532600E+02  0.25276100851E+03  0.27999485615E+03  0.00000000000E+00 0. -1.
</event>
<event>
 7    1  0.4096326E-006  0.9849604E+02  0.7561462E-02  0.1283491E+00
          3   -1    0    0  501    0  0.00000000000E+00  0.00000000000E+00  0.24201830663E+03  0.24201830663E+03  0.00000000000E+00 0. -1.
         -3   -1    0    0    0  501 -0.00000000000E+00 -0.00000000000E+00 -0.76840844735E+02  0.76840844735E+02  0.00000000000E+00 0.  1.
         23    2    1    2    0    0 -0.64671446859E+02 -0.17542751664E+02  0.99012884010E+02  0.14959843383E+03  0.89922166502E+02 0.  0.
          5    1    1    2  502    0  0.70241991444E+02  0.31041742076E+02  0.10350402297E+03  0.12894992161E+03  0.41800000000E+01 0. -1.
         -5    1    1    2    0  502 -0.55705445847E+01 -0.13498990413E+02 -0.37339445083E+02  0.40310795927E+02  0.41800000000E+01 0.  1.
        -11    1    3    3    0    0 -0.45341866772E+02 -0.49761642742E+02  0.87300330261E+02  0.11024270332E+03  0.00000000000E+00 0. -1.
         11    1    3    3    0    0 -0.19329580087E+02  0.32218891078E+02  0.11712553750E+02  0.39355730510E+02  0.00000000000E+00 0.  1.
</event>
<event>
 7    1  0.4096326E-006  0.1232632E+03  0.7561462E-02  0.1237809E+00
         -1   -1    0    0    0  501 -0.00000000000E+00  0.00000000000E+00  0.55907181963E+02  0.55907181963E+02  0.00000000000E+00 0.  1.
          1   -1    0    0  501    0  0.00000000000E+00 -0.00000000000E+00 -0.32303723383E+03  0.32303723383E+03  0.00000000000E+00 0. -1.
         23    2    1    2    0    0 -0.46419993038E+02 -0.56543287642E+02 -0.15882962246E+03  0.19803599268E+03  0.92948621796E+02 0.  0.
          5    1    1    2  502    0  0.82951213073E+02  0.63368537920E+02 -0.62343779202E+02  0.12165810517E+03  0.41800000000E+01 0. -1.
         -5    1    1    2    0  502 -0.36531220035E+02 -0.68252502779E+01 -0.45956650203E+02  0.59250317944E+02  0.41800000000E+01 0. -1.
        -11    1    3    3    0    0 -0.68010395630E+01 -0.63986442747E+02 -0.48515672529E+02  0.80587154531E+02  0.00000000000E+00 0.  1.
         11    1    3    3    0    0 -0.39618953475E+02  0.74431551045E+01 -0.11031394993E+03  0.11744883815E+03  0.00000000000E+00 0. -1.
</event>
<event>
 7    1  0.4096326E-006  0.1169921E+03  0.7561462E-02  0.1248143E+00
          1   -1    0    0  501    0  0.00000000000E+00  0.00000000000E+00  0.27419806495E+03  0.27419806495E+03  0.00000000000E+00 0. -1.
         -1   -1    0    0    0  501 -0.00000000000E+00 -0.00000000000E+00 -0.81114612520E+02  0.81114612520E+02  0.00000000000E+00 0.  1.
         23    2    1    2    0    0 -0.58246662828E+02 -0.80679790275E+02  0.92513256981E+02  0.16646364663E+03  0.96174532196E+02 0.  0.
          5    1    1    2  502    0  0.34141167894E+02 -0.70608637530E+01  0.90661781253E+02  0.97223999722E+02  0.41800000000E+01 0. -1.
         -5    1    1    2    0  502  0.24105494934E+02  0.87740654028E+02  0.99084141977E+01  0.91625031117E+02  0.41800000000E+01 0. -1.
        -11    1    3    3    0    0 -0.64477765662E+02 -0.68320467118E+02  0.24538220639E+02  0.97093731848E+02  0.00000000000E+00 0.  1.
         11    1    3    3    0    0  0.62311028341E+01 -0.12359323157E+02  0.67975036341E+02  0.69369914783E+02  0.00000000000E+00 0. -1.
</event>
<event>
 7    1  0.4096326E-006  0.3035890E+03  0.7561462E-02  0.1083460E+00
          1   -1    0    0  501    0  0.00000000000E+00  0.00000000000E+00  0.23991637552E+03  0.23991637552E+03  0.00000000000E+00 0. -1.
         -1   -1    0    0    0  501 -0.00000000000E+00 -0.00000000000E+00 -0.41253469653E+03  0.41253469653E+03  0.00000000000E+00 0.  1.
         23    2    1    2    0    0  0.12266286951E+03 -0.26457709816E+03 -0.13117167673E+03  0.33243191848E+03  0.90872169678E+02 0.  0.
          5    1    1    2  502    0  0.16130223169E+02  0.51695917337E+00 -0.11336230525E+02  0.20160205078E+02  0.41800000000E+01 0.  1.
         -5    1    1    2    0  502 -0.13879309268E+03  0.26406013898E+03 -0.30110413744E+02  0.29985894849E+03  0.41800000000E+01 0.  1.
        -11    1    3    3    0    0  0.90608203242E+02 -0.21251335269E+03 -0.60163642146E+02  0.23872879048E+03  0.00000000000E+00 0. -1.
         11    1    3    3    0    0  0.32054666267E+02 -0.52063745463E+02 -0.71008034585E+02  0.93703127999E+02  0.00000000000E+00 0.  1.
</event>
<event>
 7    1  0.4096326E-006  0.1059148E+03  0.7561462E-02  0.1268328E+00
         -1   -1    0    0    0  501 -0.00000000000E+00  0.00000000000E+00  0.39923698285E+03  0.39923698285E+03  0.00000000000E+00 0.  1.
          1   -1    0    0  501    0  0.00000000000E+00 -0.00000000000E+00 -0.36721386648E+02  0.36721386648E+02  0.00000000000E+00 0. -1.
         23    2    1    2    0    0 -0.25021724235E+02 -0.43951820712E+02  0.12610478933E+03  0.16375349901E+03  0.91405368102E+02 0.  0.
          5    1    1    2  502    0 -0.37385172279E+02 -0.35014871954E+01  0.21652271312E+02  0.43545433422E+02  0.41800000000E+01 0.  1.
         -5    1    1    2    0  502  0.62406896514E+02  0.47453307907E+02  0.21475853557E+03  0.22865943707E+03  0.41800000000E+01 0.  1.
        -11    1    3    3    0    0 -0.54036547740E+02 -0.19029624916E+02  0.10612428042E+03  0.12060032343E+03  0.00000000000E+00 0.  1.
         11    1    3    3    0    0  0.29014823505E+02 -0.24922195796E+02  0.19980508907E+02  0.43153175578E+02  0.00000000000E+00 0. -1.
</event>
<event>
 7    1  0.4096326E-006  0.9770506E+02  0.7561462E-02  0.1285197E+00
         -1   -1    0    0    0  501 -0.00000000000E+00  0.00000000000E+00  0.33535067040E+02  0.33535067040E+02  0.00000000000E+00 0.  1.
          1   -1    0    0  501    0  0.00000000000E+00 -0.00000000000E+00 -0.55151399921E+03  0.55151399921E+03  0.00000000000E+00 0. -1.
         23    2    1    2    0    0 -0.64631415336E+02  0.34788591750E+02 -0.31034550345E+03  0.33177765140E+03  0.91512908856E+02 0.  0.
          5    1    1    2  502    0  0.11505742148E+02 -0.23566448289E+02  0.10414770803E+02  0.28525417406E+02  0.41800000000E+01 0. -1.
         -5    1    1    2    0  502  0.53125673188E+02 -0.11222143461E+02 -0.21804819952E+03  0.22474599745E+03  0.41800000000E+01 0. -1.
        -11    1    3    3    0    0  0.20738459835E+02  0.17847109560E+02 -0.46552668495E+02  0.53997721989E+02  0.00000000000E+00 0.  1.
         11    1    3    3    0    0 -0.85369875171E+02  0.16941482190E+02 -0.26379283496E+03  0.27777992941E+03  0.00000000000E+00 0. -1.
</event>
<event>
 7    1  0.4096326E-006  0.3435983E+03  0.7561462E-02  0.1065274E+00
         -1   -1    0    0    0  501 -0.00000000000E+00  0.00000000000E+00  0.99630025408E+02  0.99630025408E+02  0.00000000000E+00 0.  1.
          1   -1    0    0  501    0  0.00000000000E+00 -0.00000000000E+00 -0.14942847132E+04  0.14942847132E+04  0.00000000000E+00 0. -1.
         23    2    1    2    0    0  0.32298121401E+02 -0.33078864863E+03 -0.10257347514E+04  0.10818462176E+04  0.88290200947E+02 0.  0.
          5    1    1    2  502    0  0.12343754637E+02  0.29889810240E+03 -0.29758683116E+03  0.42198085072E+03  0.41800000000E+01 0.  1.
         -5    1    1    2    0  502 -0.44641876038E+02  0.31890546238E+02 -0.71333105186E+02  0.90087670250E+02  0.41800000000E+01 0.  1.
        -11    1    3    3    0    0  0.10076635457E+02 -0.20564569472E+03 -0.75814258657E+03  0.78560287163E+03  0.00000000000E+00 0. -1.
         11    1    3    3    0    0  0.22221485945E+02 -0.12514295391E+03 -0.26759216486E+03  0.29624334599E+03  0.00000000000E+00 0.  1.
</event>
<event>
 7    1  0.4096326E-006  0.1093540E+03  0.7561462E-02  0.1261771E+00
         -2   -1    0    0    0  501 -0.00000000000E+00  0.00000000000E+00  0.31644676260E+02  0.31644676260E+02  0.00000000000E+00 0.  1.
          2   -1    0    0  501    0  0.00000000000E+00 -0.00000000000E+00 -0.50868836846E+03  0.50868836846E+03  0.00000000000E+00 0. -1.
         23    2    1    2    0    0 -0.53819229162E+02  0.27636476607E+02 -0.16797726612E+03  0.20146292954E+03  0.93330947583E+02 0.  0.
          5    1    1    2  502    0 -0.42668513891E+01 -0.53751928715E+02 -0.23479377189E+03  0.24094203365E+03  0.41800000000E+01 0.  1.
         -5    1    1    2    0  502  0.58086080551E+02  0.26115452108E+02 -0.74272654188E+02  0.97928081533E+02  0.41800000000E+01 0.  1.
        -11    1    3    3    0    0 -0.10209694351E+02 -0.28177816133E+02 -0.95623999717E+02  0.10021066062E+03  0.00000000000E+00 0. -1.
         11    1    3    3    0    0 -0.43609534811E+02  0.55814292740E+02 -0.72353266406E+02  0.10125226891E+03  0.00000000000E+00 0.  1.
</event>
<event>
 7    1  0.4096326E-006  0.1768585E+03  0.7561462E-02  0.1170879E+00
         -1   -1    0    0    0  501 -0.00000000000E+00  0.00000000000E+00  0.93354057022E+02  0.93354057022E+02  0.00000000000E+00 0.  1.
          1   -1    0    0  501    0  0.00000000000E+00 -0.00000000000E+00 -0.38394927747E+03  0.38394927747E+03  0.00000000000E+00 0. -1.
         23    2    1    2    0    0  0.10140120710E+03 -0.11770849214E+03 -0.15445006409E+03  0.23580753941E+03  0.87251816167E+02 0.  0.
          5    1    1    2  502    0 -0.10608571448E+03  0.61684079429E+02 -0.13847484515E+03  0.18507257930E+03  0.41800000000E+01 0. -1.
         -5    1    1    2    0  502  0.46845073850E+01  0.56024412712E+02  0.23296887824E+01  0.56423215780E+02  0.41800000000E+01 0. -1.
        -11    1    3    3    0    0  0.66817060440E+02 -0.18263663745E+02 -0.85125420495E+02  0.10974706462E+03  0.00000000000E+00 0. -1.
         11    1    3    3    0    0  0.34584146655E+02 -0.99444828395E+02 -0.69324643595E+02  0.12606047479E+03  0.00000000000E+00 0.  1.
</event>
<event>
 7    1  0.5006575E-006  0.1179764E+03  0.7561462E-02  0.1246473E+00
          2   -1    0    0  501    0  0.00000000000E+00  0.00000000000E+00  0.28549574732E+03  0.28549574732E+03  0.00000000000E+00 0. -1.
         -2   -1    0    0    0  501 -0.00000000000E+00 -0.00000000000E+00 -0.87858985331E+02  0.87858985331E+02  0.00000000000E+00 0.  1.
         23    2    1    2    0    0  0.87487083517E+02  0.72760520981E+02  0.10918636659E+03  0.18251744395E+03  0.91885099458E+02 0.  0.
          5    1    1    2  502    0 -0.39659304462E+01 -0.22233493794E+02 -0.29684974209E+02  0.37533011395E+02  0.41800000000E+01 0.  1.
         -5    1    1    2    0  502 -0.83521153071E+02 -0.50527027187E+02  0.11813536961E+03  0.15330427730E+03  0.41800000000E+01 0.  1.
        -11    1    3    3    0    0  0.34355031354E+02  0.40549944534E+02  0.10800506190E+03  0.12037300186E+03  0.00000000000E+00 0. -1.
         11    1    3    3    0    0  0.53132052163E+02  0.32210576447E+02  0.11813046886E+01  0.62144442091E+02  0.00000000000E+00 0.  1.
</event>
<event>
 7    1  0.4096326E-006  0.2281381E+03  0.7561462E-02  0.1127957E+00
         -2   -1    0    0    0  501 -0.00000000000E+00  0.00000000000E+00  0.39661447598E+03  0.39661447598E+03  0.00000000000E+00 0.  1.
          2   -1    0    0  501    0  0.00000000000E+00 -0.00000000000E+00 -0.19993555774E+03  0.19993555774E+03  0.00000000000E+00 0. -1.
         23    2    1    2    0    0 -0.21284592808E+03 -0.48919730259E+02 -0.52816560731E+02  0.24215963120E+03  0.90305973153E+02 0.  0.
          5    1    1    2  502    0  0.17851706168E+03  0.55210029844E+02  0.12457081029E+03  0.22461488794E+03  0.41800000000E+01 0. -1.
         -5    1    1    2    0  502  0.34328866402E+02 -0.62902995847E+01  0.12492466869E+03  0.12977551458E+03  0.41800000000E+01 0. -1.
        -11    1    3    3    0    0 -0.53222045971E+02  0.24416572662E+02  0.58186026711E+00  0.58558464455E+02  0.00000000000E+00 0.  1.
         11    1    3    3    0    0 -0.15962388211E+03 -0.73336302921E+02 -0.53398420998E+02  0.18360116675E+03  0.00000000000E+00 0. -1.
</event>
<event>
 7    1  0.4096326E-006  0.9316799E+02  0.7561462E-02  0.1295356E+00
          3   -1    0    0  501    0  0.00000000000E+00  0.00000000000E+00  0.31215575440E+02  0.31215575440E+02  0.00000000000E+00 0. -1.
         -3   -1    0    0    0  501 -0.00000000000E+00 -0.00000000000E+00 -0.44057823466E+03  0.44057823466E+03  0.00000000000E+00 0.  1.
         23    2    1    2    0    0  0.16645273724E+02  0.19507428478E+02 -0.11931301356E+03  0.15488069742E+03  0.95366819823E+02 0.  0.
          5    1    1    2  502    0 -0.14250896033E+02  0.37369350226E+02 -0.28702303136E+02  0.49404969177E+02  0.41800000000E+01 0.  1.
         -5    1    1    2    0  502 -0.23943776911E+01 -0.56876778704E+02 -0.26134734252E+03  0.26750814351E+03  0.41800000000E+01 0.  1.
        -11    1    3    3    0    0  0.32628917117E+02 -0.25416935699E+02 -0.22793109115E+02  0.47224915835E+02  0.00000000000E+00 0. -1.
         11    1    3    3    0    0 -0.15983643393E+02  0.44924364177E+02 -0.96519904450E+02  0.10765578158E+03  0.00000000000E+00 0.  1.
</event>
<event>
 7    1  0.4096326E-006  0.1257737E+03  0.7561462E-02  0.1233865E+00
          1   -1    0    0  501    0  0.00000000000E+00  0.00000000000E+00  0.58662315948E+03  0.58662315948E+03  0.00000000000E+00 0. -1.
         -1   -1    0    0    0  501 -0.00000000000E+00 -0.00000000000E+00 -0.29835965131E+02  0.29835965131E+02  0.00000000000E+00 0.  1.
         23    2    1    2    0    0  0.60119437439E+02 -0.34145201414E+02  0.32232025557E+03  0.34201970704E+03  0.91142148966E+02 0.  0.
          5    1    1    2  502    0 -0.33526148005E+02  0.81265734961E+02  0.15422272124E+03  0.17756757143E+03  0.41800000000E+01 0. -1.
         -5    1    1    2    0  502 -0.26593289434E+02 -0.47120533547E+02  0.80244217548E+02  0.96871846140E+02  0.41800000000E+01 0.  1.
        -11    1    3    3    0    0 -0.15053405062E+02 -0.30495920199E+02  0.58427437586E+02  0.67604523633E+02  0.00000000000E+00 0.  1.
         11    1    3    3    0    0  0.75172842501E+02 -0.36492812147E+01  0.26389281798E+03  0.27441518341E+03  0.00000000000E+00 0. -1.
</event>
<event>
 7    1  0.4096326E-006  0.1597384E+03  0.7561462E-02  0.1188992E+00
          1   -1    0    0  501    0  0.00000000000E+00  0.00000000000E+00  0.49543212286E+03  0.49543212286E+03  0.00000000000E+00 0. -1.
         -1   -1    0    0    0  501 -0.00000000000E+00 -0.00000000000E+00 -0.56053554869E+02  0.56053554869E+02  0.00000000000E+00 0.  1.
         23    2    1    2    0    0  0.87095163466E+02  0.86812170454E+02  0.16149057038E+03  0.22286529118E+03  0.92020721869E+02 0.  0.
          5    1    1    2  502    0 -0.96814045839E+02 -0.11139028060E+03  0.24691487832E+03  0.28768938740E+03  0.41800000000E+01 0. -1.
         -5    1    1    2    0  502  0.97188823727E+01  0.24578110147E+02  0.30973119289E+02  0.40930999151E+02  0.41800000000E+01 0. -1.
        -11    1    3    3    0    0  0.85769866373E+02  0.34024813362E+02  0.13570005469E+03  0.16409955133E+03  0.00000000000E+00 0.  1.
         11    1    3    3    0    0  0.13252970926E+01  0.52787357093E+02  0.25790515687E+02  0.58765739854E+02  0.00000000000E+00 0. -1.
</event>
<event>
 7    1  0.4096326E-006  0.6435727E+02  0.7561462E-02  0.1380406E+00
         -2   -1    0    0    0  501 -0.00000000000E+00  0.00000000000E+00  0.39017768383E+02  0.39017768383E+02  0.00000000000E+00 0.  1.
          2   -1    0    0  501    0  0.00000000000E+00 -0.00000000000E+00 -0.38013407000E+03  0.38013407000E+03  0.00000000000E+00 0. -1.
         23    2    1    2    0    0  0.55350532030E+01 -0.11842178501E+02 -0.26776183614E+03  0.28257460514E+03  0.89337184705E+02 0.  0.
          5    1    1    2  502    0 -0.21861948085E+02  0.38229049170E+00 -0.10032900676E+03  0.10276902703E+03  0.41800000000E+01 0. -1.
         -5    1    1    2    0  502  0.16326894882E+02  0.11459888009E+02  0.26974541283E+02  0.33808206209E+02  0.41800000000E+01 0.  1.
        -11    1    3    3    0    0  0.21151718402E+02 -0.44833143771E+02 -0.19457813893E+03  0.20079357091E+03  0.00000000000E+00 0. -1.
         11    1    3    3    0    0 -0.15616665199E+02  0.32990965270E+02 -0.73183697211E+02  0.81781034224E+02  0.00000000000E+00 0.  1.
</event>
<event>
 7    1  0.4096326E-006  0.1108890E+03  0.7561462E-02  0.1258932E+00
          2   -1    0    0  501    0  0.00000000000E+00  0.00000000000E+00  0.28050683541E+03  0.28050683541E+03  0.00000000000E+00 0. -1.
         -2   -1    0    0    0  501 -0.00000000000E+00 -0.00000000000E+00 -0.65851187702E+02  0.65851187702E+02  0.00000000000E+00 0.  1.
         23    2    1    2    0    0  0.76482545506E+01 -0.34662428885E+02  0.18943624684E+03  0.21390731114E+03  0.92791521001E+02 0.  0.
          5    1    1    2  502    0 -0.64955028196E+02  0.12476035571E+02  0.10438307127E+01  0.66282494929E+02  0.41800000000E+01 0. -1.
         -5    1    1    2    0  502  0.57306773645E+02  0.22186393313E+02  0.24175570156E+02  0.66168217040E+02  0.41800000000E+01 0. -1.
        -11    1    3    3    0    0  0.16277087702E+02  0.27065010329E+02  0.10020016826E+03  0.10505965965E+03  0.00000000000E+00 0.  1.
         11    1    3    3    0    0 -0.86288331518E+01 -0.61727439214E+02  0.89236078582E+02  0.10884765149E+03  0.00000000000E+00 0. -1.
</event>
<event>
 7    1  0.4096326E-006  0.1424133E+03  0.7561462E-02  0.1210118E+00
          1   -1    0    0  501    0  0.00000000000E+00  0.00000000000E+00  0.11958590636E+03  0.11958590636E+03  0.00000000000E+00 0. -1.
         -1   -1    0    0    0  501 -0.00000000000E+00 -0.00000000000E+00 -0.18945200370E+04  0.18945200370E+04  0.00000000000E+00 0.  1.
         23    2    1    2    0    0 -0.11928865957E+03 -0.25837262770E+02  0.65781410374E+02  0.16553743352E+03  0.90432845223E+02 0.  0.
          5    1    1    2  502    0  0.83168289744E+01 -0.34208787514E+02 -0.20981973450E+03  0.21279380670E+03  0.41800000000E+01 0. -1.
         -5    1    1    2    0  502  0.11097183060E+03  0.60046050284E+02 -0.16308958065E+04  0.16357747031E+04  0.41800000000E+01 0.  1.
        -11    1    3    3    0    0 -0.86279780720E+02 -0.26026736608E+02  0.87831261715E+02  0.12584086027E+03  0.00000000000E+00 0. -1.
         11    1    3    3    0    0 -0.33008878850E+02  0.18947383897E+00 -0.22049851340E+02  0.39696573245E+02  0.00000000000E+00 0.  1.
</event>
<event>
 7    1  0.4096326E-006  0.1607706E+03  0.7561462E-02  0.1187829E+00
          1   -1    0    0  501    0  0.00000000000E+00  0.00000000000E+00  0.75893022008E+03  0.75893022008E+03  0.00000000000E+00 0. -1.
         -1   -1    0    0    0  501 -0.00000000000E+00 -0.00000000000E+00 -0.46184991948E+02  0.46184991948E+02  0.00000000000E+00 0.  1.
         23    2    1    2    0    0  0.44275902637E+02 -0.11358710061E+03  0.53220388506E+03  0.55390874731E+03  0.93335631419E+02 0.  0.
          5    1    1    2  502    0  0.38721546522E+02  0.17989828287E+02  0.74683759562E+02  0.86128557571E+02  0.41800000000E+01 0. -1.
         -5    1    1    2    0  502 -0.82997449159E+02  0.95597272318E+02  0.10585758350E+03  0.16507790714E+03  0.41800000000E+01 0. -1.
        -11    1    3    3    0    0  0.57560085554E+02 -0.25614237417E+02  0.26043902195E+03  0.26795099694E+03  0.00000000000E+00 0. -1.
         11    1    3    3    0    0 -0.13284182918E+02 -0.87972863188E+02  0.27176486311E+03  0.28595775037E+03  0.00000000000E+00 0.  1.
</event>
<event>
 7    1  0.4096326E-006  0.9097240E+02  0.7561462E-02  0.1300514E+00
          1   -1    0    0  501    0  0.00000000000E+00  0.00000000000E+00  0.75112509666E+02  0.75112509666E+02  0.00000000000E+00 0. -1.
         -1   -1    0    0    0  501 -0.00000000000E+00 -0.00000000000E+00 -0.25143820241E+03  0.25143820241E+03  0.00000000000E+00 0.  1.
         23    2    1    2    0    0 -0.21262216027E+02  0.37443826127E+02  0.19747121220E+01  0.10453161006E+03  0.95230436667E+02 0.  0.
          5    1    1    2  502    0  0.45428329180E+02 -0.70128723584E+02 -0.80832643299E+02  0.11633210901E+03  0.41800000000E+01 0. -1.
         -5    1    1    2    0  502 -0.24166113153E+02  0.32684897457E+02 -0.97467761568E+02  0.10568699301E+03  0.41800000000E+01 0. -1.
        -11    1    3    3    0    0  0.47041302604E+01  0.30058308029E+02  0.44652510883E+02  0.54032189029E+02  0.00000000000E+00 0. -1.
         11    1    3    3    0    0 -0.25966346287E+02  0.73855180971E+01 -0.42677798761E+02  0.50499421028E+02  0.00000000000E+00 0.  1.
</event>
<event>
 7    1  0.4096326E-006  0.7098594E+02  0.7561462E-02  0.1356772E+00
         -1   -1    0    0    0  501 -0.00000000000E+00  0.00000000000E+00  0.74860837672E+02  0.74860837672E+02  0.00000000000E+00 0.  1.
          1   -1    0    0  501    0  0.00000000000E+00 -0.00000000000E+00 -0.18907991562E+03  0.18907991562E+03  0.00000000000E+00 0. -1.
         23    2    1    2    0    0 -0.99881705201E-01  0.13310670635E+02 -0.96046231679E+02  0.13683764571E+03  0.96552984078E+02 0.  0.
          5    1    1    2  502    0  0.19947934404E+02 -0.42281050634E+02 -0.57492424851E+02  0.74218991134E+02  0.41800000000E+01 0.  1.
         -5    1    1    2    0  502 -0.19848052699E+02  0.28970379999E+02  0.39319578579E+02  0.52884116452E+02  0.41800000000E+01 0.  1.
        -11    1    3    3    0    0 -0.28939101776E+02  0.32274365646E+01  0.65016916904E+01  0.29835548482E+02  0.00000000000E+00 0.  1.
         11    1    3    3    0    0  0.28839220071E+02  0.10083234070E+02 -0.10254792337E+03  0.10700209723E+03  0.00000000000E+00 0. -1.
</event>
<event>
 7    1  0.4096326E-006  0.8132295E+02  0.7561462E-02  0.1325338E+00
          1   -1    0    0  501    0  0.00000000000E+00  0.00000000000E+00  0.42503801418E+02  0.42503801418E+02  0.00000000000E+00 0. -1.
         -1   -1    0    0    0  501 -0.00000000000E+00 -0.00000000000E+00 -0.38241983413E+03  0.38241983413E+03  0.00000000000E+00 0.  1.
         23    2    1    2    0    0 -0.14926000222E+02  0.53033953250E+02 -0.91559584574E+02  0.14143943419E+03  0.92663748766E+02 0.  0.
          5    1    1    2  502    0 -0.31288690215E+02 -0.23620951269E+02 -0.21632528299E+03  0.21988868078E+03  0.41800000000E+01 0. -1.
         -5    1    1    2    0  502  0.46214690437E+02 -0.29413001980E+02 -0.32031165150E+02  0.63595520585E+02  0.41800000000E+01 0. -1.
        -11    1    3    3    0    0 -0.10700988197E+02 -0.37500725547E+01  0.16074700663E+02  0.19671557996E+02  0.00000000000E+00 0. -1.
         11    1    3    3    0    0 -0.42250120252E+01  0.56784025804E+02 -0.10763428524E+03  0.12176787619E+03  0.00000000000E+00 0.  1.
</event>
<event>
 7    1  0.4096326E-006  0.8365817E+02  0.7561462E-02  0.1318979E+00
         -1   -1    0    0    0  501 -0.00000000000E+00  0.00000000000E+00  0.30793459099E+03  0.30793459099E+03  0.00000000000E+00 0.  1.
          1   -1    0    0  501    0  0.00000000000E+00 -0.00000000000E+00 -0.50881689156E+02  0.50881689156E+02  0.00000000000E+00 0. -1.
         23    2    1    2    0    0  0.31439123345E+02 -0.49046239334E+02  0.83949094169E+02  0.13743505341E+03  0.91907515603E+02 0.  0.
          5    1    1    2  502    0 -0.55733180718E+02  0.15759384386E+02  0.17022883046E+03  0.17986070374E+03  0.41800000000E+01 0.  1.
         -5    1    1    2    0  502  0.24294057373E+02  0.33286854948E+02  0.28749772025E+01  0.41520522996E+02  0.41800000000E+01 0.  1.
        -11    1    3    3    0    0  0.27848515043E+02 -0.11533754155E+02  0.93767366626E+02  0.98493077518E+02  0.00000000000E+00 0.  1.
         11    1    3    3    0    0  0.35906083026E+01 -0.37512485179E+02 -0.98182724565E+01  0.38941975892E+02  0.00000000000E+00 0. -1.
</event>
<event>
 7    1  0.4096326E-006  0.1062384E+03  0.7561462E-02  0.1267699E+00
         -4   -1    0    0    0  501 -0.00000000000E+00  0.00000000000E+00  0.32695691845E+03  0.32695691845E+03  0.00000000000E+00 0.  1.
          4   -1    0    0  501    0  0.00000000000E+00 -0.00000000000E+00 -0.57791982080E+02  0.57791982080E+02  0.00000000000E+00 0. -1.
         23    2    1    2    0    0 -0.96012758537E+00 -0.69623490479E+02  0.48759838575E+02  0.12192655000E+03  0.87408291738E+02 0.  0.
          5    1    1    2  502    0  0.22252563713E+02 -0.48911511687E+01  0.16703370606E+03  0.16863223687E+03  0.41800000000E+01 0.  1.
         -5    1    1    2    0  502 -0.21292436128E+02  0.74514641648E+02  0.53371391734E+02  0.94190113663E+02  0.41800000000E+01 0.  1.
        -11    1    3    3    0    0  0.42339892250E+02 -0.45435655638E+02  0.25310929742E+02  0.67064956895E+02  0.00000000000E+00 0.  1.
         11    1    3    3    0    0 -0.43300019835E+02 -0.24187834842E+02  0.23448908833E+02  0.54861593101E+02  0.00000000000E+00 0. -1.
</event>
<event>
 7    1  0.4096326E-006  0.2057772E+03  0.7561462E-02  0.1144954E+00
          2   -1    0    0  501    0  0.00000000000E+00  0.00000000000E+00  0.28783608986E+03  0.28783608986E+03  0.00000000000E+00 0.  1.
         -2   -1    0    0    0  501 -0.00000000000E+00 -0.00000000000E+00 -0.15204631082E+03  0.15204631082E+03  0.00000000000E+00 0. -1.
         23    2    1    2    0    0  0.16361697414E+03  0.63470582656E+02  0.37047101316E+02  0.20282349294E+03  0.94688185548E+02 0.  0.
          5    1    1    2  502    0 -0.67653485560E+02 -0.91638884910E+02  0.38915229909E+02  0.12044312706E+03  0.41800000000E+01 0. -1.
         -5    1    1    2    0  502 -0.95963488579E+02  0.28168302254E+02  0.59827447817E+02  0.11661578068E+03  0.41800000000E+01 0. -1.
        -11    1    3    3    0    0  0.39483679070E+02  0.61789121858E+02  0.20484341945E+00  0.73327337697E+02  0.00000000000E+00 0. -1.
         11    1    3    3    0    0  0.12413329507E+03  0.16814607977E+01  0.36842257896E+02  0.12949615524E+03  0.00000000000E+00 0.  1.
</event>
<event>
 7    1  0.4096326E-006  0.1295606E+03  0.7561462E-02  0.1228109E+00
          1   -1    0    0  501    0  0.00000000000E+00  0.00000000000E+00  0.10727023825E+03  0.10727023825E+03  0.00000000000E+00 0. -1.
         -1   -1    0    0    0  501 -0.00000000000E+00 -0.00000000000E+00 -0.19906433995E+03  0.19906433995E+03  0.00000000000E+00 0.  1.
         23    2    1    2    0    0 -0.73280448939E+02  0.56670828215E+02 -0.47445828579E+02  0.14447805736E+03  0.10020576551E+03 0.  0.
          5    1    1    2  502    0 -0.34754991837E+02 -0.13710453090E+02 -0.70609282900E+00  0.37601289188E+02  0.41800000000E+01 0.  1.
         -5    1    1    2    0  502  0.10803544078E+03 -0.42960375125E+02 -0.43642180291E+02  0.12425523166E+03  0.41800000000E+01 0.  1.
        -11    1    3    3    0    0 -0.63932523533E+02  0.66065335794E+02  0.33361046245E+01  0.91995248535E+02  0.00000000000E+00 0. -1.
         11    1    3    3    0    0 -0.93479254058E+01 -0.93945075795E+01 -0.50781933204E+02  0.52482808823E+02  0.00000000000E+00 0.  1.
</event>
<event>
 7    1  0.4096326E-006  0.7016639E+02  0.7561462E-02  0.1359528E+00
          1   -1    0    0  501    0  0.00000000000E+00  0.00000000000E+00  0.16316271730E+03  0.16316271730E+03  0.00000000000E+00 0. -1.
         -1   -1    0    0    0  501 -0.00000000000E+00 -0.00000000000E+00 -0.80223870678E+02  0.80223870678E+02  0.00000000000E+00 0.  1.
         23    2    1    2    0    0 -0.21222009821E+02 -0.19880471355E+00  0.65006920757E+02  0.11525080366E+03  0.92770872445E+02 0.  0.
          5    1    1    2  502    0 -0.25343006446E+02 -0.72990792528E+01  0.59443754782E+02  0.65165764909E+02  0.41800000000E+01 0.  1.
         -5    1    1    2    0  502  0.46565016267E+02  0.74978839663E+01 -0.41511828917E+02  0.62970019406E+02  0.41800000000E+01 0.  1.
        -11    1    3    3    0    0  0.22524106394E+02 -0.61853522973E+00 -0.12853968772E+02  0.25941134668E+02  0.00000000000E+00 0.  1.
         11    1    3    3    0    0 -0.43746116215E+02  0.41973051618E+00  0.77860889529E+02  0.89309668994E+02  0.00000000000E+00 0. -1.
</event>
<event>
 7    1  0.4096326E-006  0.1195013E+03  0.7561462E-02  0.1243922E+00
         -2   -1    0    0    0  501 -0.00000000000E+00  0.00000000000E+00  0.11888906396E+03  0.11888906396E+03  0.00000000000E+00 0.  1.
          2   -1    0    0  501    0  0.00000000000E+00 -0.00000000000E+00 -0.26265534726E+03  0.26265534726E+03  0.00000000000E+00 0. -1.
         23    2    1    2    0    0 -0.61384805098E+02  0.97860940439E+02 -0.15883961222E+03  0.21527720566E+03  0.88144171132E+02 0.  0.
          5    1    1    2  502    0  0.57535147010E+02 -0.53495895259E+02 -0.45566147132E+02  0.90916720769E+02  0.41800000000E+01 0. -1.
         -5    1    1    2    0  502  0.38496580887E+01 -0.44365045181E+02  0.60639476057E+02  0.75350484788E+02  0.41800000000E+01 0.  1.
        -11    1    3    3    0    0 -0.30824456407E+02  0.53208920824E+02 -0.14776147259E+03  0.16004620942E+03  0.00000000000E+00 0. -1.
         11    1    3    3    0    0 -0.30560348691E+02  0.44652019616E+02 -0.11078139634E+02  0.55230996240E+02  0.00000000000E+00 0.  1.
</event>
<event>
 7    1  0.4096326E-006  0.7472454E+02  0.7561462E-02  0.1344726E+00
          2   -1    0    0  501    0  0.00000000000E+00  0.00000000000E+00  0.11857966224E+03  0.11857966224E+03  0.00000000000E+00 0. -1.
         -2   -1    0    0    0  501 -0.00000000000E+00 -0.00000000000E+00 -0.11595671971E+03  0.11595671971E+03  0.00000000000E+00 0.  1.
         23    2    1    2    0    0  0.12983288024E+02  0.31669084960E+02  0.32096021296E+02  0.10153719749E+03  0.90045272948E+02 0.  0.
          5    1    1    2  502    0  0.43405910540E+02 -0.17828769846E+02  0.24948858478E+02  0.53309061550E+02  0.41800000000E+01 0.  1.
         -5    1    1    2    0  502 -0.56389198564E+02 -0.13840315113E+02 -0.54421937243E+02  0.79690122916E+02  0.41800000000E+01 0.  1.
        -11    1    3    3    0    0  0.20990826300E+02  0.15537631117E+02 -0.28302638105E+02  0.38510675055E+02  0.00000000000E+00 0.  1.
         11    1    3    3    0    0 -0.80075382762E+01  0.16131453843E+02  0.60398659401E+02  0.63026522431E+02  0.00000000000E+00 0. -1.
</event>
<event>
 7    1  0.4096326E-006  0.1334792E+03  0.7561462E-02  0.1222383E+00
         -2   -1    0    0    0  501 -0.00000000000E+00  0.00000000000E+00  0.52626414342E+02  0.52626414342E+02  0.00000000000E+00 0.  1.
          2   -1    0    0  501    0  0.00000000000E+00 -0.00000000000E+00 -0.50218183476E+03  0.50218183476E+03  0.00000000000E+00 0. -1.
         23    2    1    2    0    0  0.10544698394E+02  0.96192455299E+02 -0.33222150013E+03  0.35788542601E+03  0.91360132865E+02 0.  0.
          5    1    1    2  502    0  0.33866477750E+02 -0.89233136251E+02 -0.11793099810E+03  0.15177181435E+03  0.41800000000E+01 0.  1.
         -5    1    1    2    0  502 -0.44411176144E+02 -0.69593190480E+01  0.59707781538E+00  0.45151008738E+02  0.41800000000E+01 0.  1.
        -11    1    3    3    0    0 -0.16779999717E+01 -0.14658085877E+02 -0.12721360382E+02  0.19480969571E+02  0.00000000000E+00 0.  1.
         11    1    3    3    0    0  0.12222698366E+02  0.11085054118E+03 -0.31950013975E+03  0.33840445643E+03  0.00000000000E+00 0. -1.
</event>
<event>
 7    1  0.4096326E-006  0.8343442E+02  0.7561462E-02  0.1319578E+00
          2   -1    0    0  501    0  0.00000000000E+00  0.00000000000E+00  0.20192423251E+03  0.20192423251E+03  0.00000000000E+00 0. -1.
         -2   -1    0    0    0  501 -0.00000000000E+00 -0.00000000000E+00 -0.89559158730E+02  0.89559158730E+02  0.00000000000E+00 0.  1.
         23    2    1    2    0    0  0.72700433957E+02  0.31511469101E+02  0.56593854219E+02  0.13325239750E+03  0.90967089226E+02 0.  0.
          5    1    1    2  502    0 -0.15201810056E+02  0.13159668041E+01  0.84476687663E+02  0.85945389383E+02  0.41800000000E+01 0. -1.
         -5    1    1    2    0  502 -0.57498623901E+02 -0.32827435905E+02 -0.28705468099E+02  0.72285604358E+02  0.41800000000E+01 0. -1.
        -11    1    3    3    0    0  0.45431386159E+02  0.34256415156E+01 -0.18018780154E+02  0.48994104812E+02  0.00000000000E+00 0.  1.
         11    1    3    3    0    0  0.27269047798E+02  0.28085827585E+02  0.74612634372E+02  0.84258292690E+02  0.00000000000E+00 0. -1.
</event>
<event>
 7    1  0.4096326E-006  0.1273298E+03  0.7561462E-02  0.1231473E+00
          1   -1    0    0  501    0  0.00000000000E+00  0.00000000000E+00  0.67310773530E+03  0.67310773530E+03  0.00000000000E+00 0. -1.
         -1   -1    0    0    0  501 -0.00000000000E+00 -0.00000000000E+00 -0.28425706503E+02  0.28425706503E+02  0.00000000000E+00 0.  1.
         23    2    1    2    0    0  0.80043172661E+02  0.22602799590E+02  0.30086370804E+03  0.32556604632E+03  0.92501263055E+02 0.  0.
          5    1    1    2  502    0  0.92998433161E+01 -0.46851579856E+02  0.19372951420E+03  0.19957493503E+03  0.41800000000E+01 0. -1.
         -5    1    1    2    0  502 -0.89343015977E+02  0.24248780265E+02  0.15008880657E+03  0.17639246045E+03  0.41800000000E+01 0.  1.
        -11    1    3    3    0    0 -0.13185074380E+02  0.15781094063E+02  0.16917448565E+02  0.26628728512E+02  0.00000000000E+00 0.  1.
         11    1    3    3    0    0  0.93228247041E+02  0.68217055270E+01  0.28394625947E+03  0.29893731781E+03  0.00000000000E+00 0. -1.
</event>
<event>
 7    1  0.4096326E-006  0.1026393E+03  0.7561462E-02  0.1274842E+00
          2   -1    0    0  501    0  0.00000000000E+00  0.00000000000E+00  0.24695520208E+03  0.24695520208E+03  0.00000000000E+00 0. -1.
         -2   -1    0    0    0  501 -0.00000000000E+00 -0.00000000000E+00 -0.10816253490E+03  0.10816253490E+03  0.00000000000E+00 0.  1.
         23    2    1    2    0    0  0.17741477808E+02  0.52102863627E+02  0.16295294607E+03  0.19487113714E+03  0.91605835116E+02 0.  0.
          5    1    1    2  502    0 -0.34672763571E+02  0.92725149042E+01  0.50462198924E+02  0.62065175313E+02  0.41800000000E+01 0. -1.
         -5    1    1    2    0  502  0.16931285763E+02 -0.61375378531E+02 -0.74622477804E+02  0.98181424521E+02  0.41800000000E+01 0.  1.
        -11    1    3    3    0    0 -0.68003500815E+01 -0.24226078050E+02  0.26050795489E+02  0.36218663208E+02  0.00000000000E+00 0.  1.
         11    1    3    3    0    0  0.24541827890E+02  0.76328941677E+02  0.13690215058E+03  0.15865247394E+03  0.00000000000E+00 0. -1.
</event>
<event>
 7    1  0.4096326E-006  0.1510553E+03  0.7561462E-02  0.1199182E+00
         -1   -1    0    0    0  501 -0.00000000000E+00  0.00000000000E+00  0.47810307362E+02  0.47810307362E+02  0.00000000000E+00 0.  1.
          1   -1    0    0  501    0  0.00000000000E+00 -0.00000000000E+00 -0.57281940972E+03  0.57281940972E+03  0.00000000000E+00 0. -1.
         23    2    1    2    0    0  0.12248842879E+03  0.10409963826E+02 -0.21953322016E+03  0.26838756635E+03  0.93409145604E+02 0.  0.
          5    1    1    2  502    0 -0.10861609957E+03  0.45260442014E+02 -0.19916942853E+03  0.23136961417E+03  0.41800000000E+01 0. -1.
         -5    1    1    2    0  502 -0.13872329219E+02 -0.55670405840E+02 -0.10630645366E+03  0.12087253656E+03  0.41800000000E+01 0. -1.
        -11    1    3    3    0    0  0.30819504830E+02  0.16524563504E+02 -0.54089294422E+01  0.35385867160E+02  0.00000000000E+00 0.  1.
         11    1    3    3    0    0  0.91668923963E+02 -0.61145996783E+01 -0.21412429072E+03  0.23300169919E+03  0.00000000000E+00 0. -1.
</event>
<event>
 7    1  0.4096326E-006  0.1030140E+03  0.7561462E-02  0.1274083E+00
         -1   -1    0    0    0  501 -0.00000000000E+00  0.00000000000E+00  0.21314031592E+03  0.21314031592E+03  0.00000000000E+00 0.  1.
          1   -1    0    0  501    0  0.00000000000E+00 -0.00000000000E+00 -0.18984559365E+03  0.18984559365E+03  0.00000000000E+00 0. -1.
         23    2    1    2    0    0 -0.60664670833E+02 -0.37936137220E+02 -0.13445527864E+03  0.19139074693E+03  0.11590014348E+03 0.  0.
          5    1    1    2  502    0  0.24806245020E+02  0.37594493917E+02 -0.44247171545E+01  0.45450481700E+02  0.41800000000E+01 0. -1.
         -5    1    1    2    0  502  0.35858425813E+02  0.34164330297E+00  0.16217471807E+03  0.16614468094E+03  0.41800000000E+01 0.  1.
        -11    1    3    3    0    0  0.13057829890E+02  0.24708574479E+02 -0.69379088291E+02  0.74796246339E+02  0.00000000000E+00 0.  1.
         11    1    3    3    0    0 -0.73722500723E+02 -0.62644711698E+02 -0.65076190352E+02  0.11659450059E+03  0.00000000000E+00 0. -1.
</event>
<event>
 7    1  0.4096326E-006  0.1388509E+03  0.7561462E-02  0.1214884E+00
          3   -1    0    0  501    0  0.00000000000E+00  0.00000000000E+00  0.17199533605E+03  0.17199533605E+03  0.00000000000E+00 0. -1.
         -3   -1    0    0    0  501 -0.00000000000E+00 -0.00000000000E+00 -0.17169815021E+03  0.17169815021E+03  0.00000000000E+00 0.  1.
         23    2    1    2    0    0  0.12711055865E+03 -0.11156125061E+02 -0.36893060182E+02  0.16117364984E+03  0.91292356009E+02 0.  0.
          5    1    1    2  502    0 -0.82678541966E+02  0.23282335664E+01 -0.40730552249E+02  0.92290911035E+02  0.41800000000E+01 0. -1.
         -5    1    1    2    0  502 -0.44432016684E+02  0.88278914946E+01  0.77920798268E+02  0.90228925393E+02  0.41800000000E+01 0. -1.
        -11    1    3    3    0    0  0.35696543942E+02  0.32330701657E+02 -0.35676036627E+02  0.59935774863E+02  0.00000000000E+00 0.  1.
         11    1    3    3    0    0  0.91414014707E+02 -0.43486826718E+02 -0.12170235554E+01  0.10123787497E+03  0.00000000000E+00 0. -1.
</event>
<event>
 7    1  0.4096326E-006  0.1636722E+03  0.7561462E-02  0.1184612E+00
          1   -1    0    0  501    0  0.00000000000E+00  0.00000000000E+00  0.33463043763E+03  0.33463043763E+03  0.00000000000E+00 0. -1.
         -1   -1    0    0    0  501 -0.00000000000E+00 -0.00000000000E+00 -0.29691315034E+03  0.29691315034E+03  0.00000000000E+00 0.  1.
         23    2    1    2    0    0 -0.59433419330E+02 -0.94871154664E+02  0.28555901038E+03  0.31960506977E+03  0.89836434089E+02 0.  0.
          5    1    1    2  502    0 -0.20451760539E+02 -0.29438437413E+02 -0.22797329579E+02  0.42685908007E+02  0.41800000000E+01 0. -1.
         -5    1    1    2    0  502  0.79885179869E+02  0.12430959208E+03 -0.22504439352E+03  0.26925261020E+03  0.41800000000E+01 0.  1.
        -11    1    3    3    0    0 -0.83364446846E+02 -0.77873400032E+02  0.23197855079E+03  0.25851101612E+03  0.00000000000E+00 0. -1.
         11    1    3    3    0    0  0.23931027516E+02 -0.16997754631E+02  0.53580459593E+02  0.61094053645E+02  0.00000000000E+00 0.  1.
</event>
<event>
 7    1  0.4096326E-006  0.1095018E+03  0.7561462E-02  0.1261495E+00
          1   -1    0    0  501    0  0.00000000000E+00  0.00000000000E+00  0.43405764844E+03  0.43405764844E+03  0.00000000000E+00 0. -1.
         -1   -1    0    0    0  501 -0.00000000000E+00 -0.00000000000E+00 -0.46606897951E+02  0.46606897951E+02  0.00000000000E+00 0.  1.
         23    2    1    2    0    0 -0.72206264323E+02  0.53681142927E+02  0.21149213833E+03  0.24676984527E+03  0.89838868241E+02 0.  0.
          5    1    1    2  502    0  0.48064261234E+02 -0.13621042792E+02  0.17991577976E+03  0.18676955379E+03  0.41800000000E+01 0. -1.
         -5    1    1    2    0  502  0.24142003089E+02 -0.40060100136E+02 -0.39571675975E+01  0.47125147336E+02  0.41800000000E+01 0. -1.
        -11    1    3    3    0    0 -0.21236936203E+02 -0.22058779716E+02  0.88153577850E+02  0.93320150608E+02  0.00000000000E+00 0. -1.
         11    1    3    3    0    0 -0.50969328121E+02  0.75739922644E+02  0.12333856048E+03  0.15344969466E+03  0.00000000000E+00 0.  1.
</event>
<event>
 7    1  0.4096326E-006  0.1614391E+03  0.7561462E-02  0.1187082E+00
         -2   -1    0    0    0  501 -0.00000000000E+00  0.00000000000E+00  0.29294959801E+03  0.29294959801E+03  0.00000000000E+00 0.  1.
          2   -1    0    0  501    0  0.00000000000E+00 -0.00000000000E+00 -0.12406426133E+03  0.12406426133E+03  0.00000000000E+00 0. -1.
         23    2    1    2    0    0 -0.13910220869E+03 -0.12670814081E+02  0.52582215365E+02  0.17356084027E+03  0.88591771120E+02 0.  0.
          5    1    1    2  502    0  0.30039605367E+02  0.48306952647E+02 -0.24239016187E+02  0.61975332757E+02  0.41800000000E+01 0. -1.
         -5    1    1    2    0  502  0.10906260332E+03 -0.35636138565E+02  0.14054213751E+03  0.18147768632E+03  0.41800000000E+01 0.  1.
        -11    1    3    3    0    0 -0.94591774073E+02 -0.35461557390E+02  0.67358002398E+02  0.12141756982E+03  0.00000000000E+00 0.  1.
         11    1    3    3    0    0 -0.44510434617E+02  0.22790743308E+02 -0.14775787032E+02  0.52143270446E+02  0.00000000000E+00 0. -1.
</event>
<event>
 7    1  0.4096326E-006  0.1157088E+03  0.7561462E-02  0.1250349E+00
         -1   -1    0    0    0  501 -0.00000000000E+00  0.00000000000E+00  0.23795427944E+02  0.23795427944E+02  0.00000000000E+00 0.  1.
          1   -1    0    0  501    0  0.00000000000E+00 -0.00000000000E+00 -0.57366338650E+03  0.57366338650E+03  0.00000000000E+00 0. -1.
         23    2    1    2    0    0  0.20082671948E+02  0.39440378179E+02 -0.21822637540E+03  0.24025819564E+03  0.90235206570E+02 0.  0.
          5    1    1    2  502    0 -0.70554787149E+02 -0.41498399905E+02 -0.20059533757E+03  0.21669346331E+03  0.41800000000E+01 0. -1.
         -5    1    1    2    0  502  0.50472115201E+02  0.20580217261E+01 -0.13104624558E+03  0.14050715550E+03  0.41800000000E+01 0. -1.
        -11    1    3    3    0    0  0.51306351186E+02  0.38884357278E+01 -0.91321599735E+02  0.10481935023E+03  0.00000000000E+00 0.  1.
         11    1    3    3    0    0 -0.31223679238E+02  0.35551942451E+02 -0.12690477567E+03  0.13543884541E+03  0.00000000000E+00 0. -1.
</event>
<event>
 7    1  0.4096326E-006  0.1280636E+03  0.7561462E-02  0.1230358E+00
         -1   -1    0    0    0  501 -0.00000000000E+00  0.00000000000E+00  0.98025837794E+02  0.98025837794E+02  0.00000000000E+00 0.  1.
          1   -1    0    0  501    0  0.00000000000E+00 -0.00000000000E+00 -0.18338193919E+03  0.18338193919E+03  0.00000000000E+00 0. -1.
         23    2    1    2    0    0  0.52368124752E+02 -0.37238325752E+02 -0.79363756382E+02  0.14065288997E+03  0.96723917592E+02 0.  0.
          5    1    1    2  502    0  0.29948854700E+02  0.48624452936E+02 -0.57547589721E+01  0.57548770378E+02  0.41800000000E+01 0.  1.
         -5    1    1    2    0  502 -0.82316979452E+02 -0.11386127185E+02 -0.23758603921E+00  0.83206116635E+02  0.41800000000E+01 0.  1.
        -11    1    3    3    0    0  0.78911048581E+02 -0.13511840436E+02 -0.60604778834E+02  0.10041146666E+03  0.00000000000E+00 0. -1.
         11    1    3    3    0    0 -0.26542923829E+02 -0.23726485315E+02 -0.18758977547E+02  0.40241423303E+02  0.00000000000E+00 0.  1.
</event>
<event>
 7    1  0.4096326E-006  0.1539869E+03  0.7561462E-02  0.1195658E+00
         -2   -1    0    0    0  501 -0.00000000000E+00  0.00000000000E+00  0.34717891392E+02  0.34717891392E+02  0.00000000000E+00 0. -1.
          2   -1    0    0  501    0  0.00000000000E+00 -0.00000000000E+00 -0.10104332901E+04  0.10104332901E+04  0.00000000000E+00 0.  1.
         23    2    1    2    0    0 -0.20005076441E+02 -0.13520259980E+03 -0.63312474410E+03  0.65567276759E+03  0.10188174762E+03 0.  0.
          5    1    1    2  502    0  0.51150843723E+01  0.76971254782E+02 -0.53000504780E+02  0.93687053843E+02  0.41800000000E+01 0.  1.
         -5    1    1    2    0  502  0.14889992068E+02  0.58231345014E+02 -0.28959014985E+03  0.29579136008E+03  0.41800000000E+01 0.  1.
        -11    1    3    3    0    0  0.41015052145E+02 -0.39328957120E+02 -0.21127015636E+03  0.21877861033E+03  0.00000000000E+00 0.  1.
         11    1    3    3    0    0 -0.61020128586E+02 -0.95873642676E+02 -0.42185458774E+03  0.43689415727E+03  0.00000000000E+00 0. -1.
</event>
<event>
 7    1  0.4096326E-006  0.9071293E+02  0.7561462E-02  0.1301134E+00
         -2   -1    0    0    0  501 -0.00000000000E+00  0.00000000000E+00  0.77764518247E+02  0.77764518247E+02  0.00000000000E+00 0.  1.
          2   -1    0    0  501    0  0.00000000000E+00 -0.00000000000E+00 -0.19199618753E+03  0.19199618753E+03  0.00000000000E+00 0. -1.
         23    2    1    2    0    0  0.11238924025E+01  0.46574526146E+02 -0.86013773825E+02  0.13332025278E+03  0.90584054306E+02 0.  0.
          5    1    1    2  502    0  0.22537489729E+02  0.85306438230E+01 -0.62585141324E+02  0.67194364659E+02  0.41800000000E+01 0.  1.
         -5    1    1    2    0  502 -0.23661382131E+02 -0.55105169969E+02  0.34367245865E+02  0.69246088337E+02  0.41800000000E+01 0.  1.
        -11    1    3    3    0    0 -0.37350707709E+02  0.12115202350E+01 -0.54286474586E+02  0.65905724111E+02  0.00000000000E+00 0.  1.
         11    1    3    3    0    0  0.38474600111E+02  0.45363005911E+02 -0.31727299238E+02  0.67414528671E+02  0.00000000000E+00 0. -1.
</event>
<event>
 7    1  0.4096326E-006  0.1155913E+03  0.7561462E-02  0.1250552E+00
          1   -1    0    0  501    0  0.00000000000E+00  0.00000000000E+00  0.83814382476E+03  0.83814382476E+03  0.00000000000E+00 0. -1.
         -1   -1    0    0    0  501 -0.00000000000E+00 -0.00000000000E+00 -0.17522391026E+02  0.17522391026E+02  0.00000000000E+00 0.  1.
         23    2    1    2    0    0  0.27018516158E+02 -0.42064675484E+02  0.43758360034E+03  0.44963639691E+03  0.90520964436E+02 0.  0.
          5    1    1    2  502    0  0.39044371216E+02 -0.15320887224E+02  0.18051614384E+03  0.18537190482E+03  0.41800000000E+01 0. -1.
         -5    1    1    2    0  502 -0.66062887375E+02  0.57385562708E+02  0.20252168956E+03  0.22065791406E+03  0.41800000000E+01 0. -1.
        -11    1    3    3    0    0 -0.16377239965E+02 -0.53991654493E+02  0.19892815830E+03  0.20677457511E+03  0.00000000000E+00 0.  1.
         11    1    3    3    0    0  0.43395756123E+02  0.11926979009E+02  0.23865544203E+03  0.24286182180E+03  0.00000000000E+00 0. -1.
</event>
<event>
 7    1  0.4096326E-006  0.1142071E+03  0.7561462E-02  0.1252972E+00
         -2   -1    0    0    0  501 -0.00000000000E+00  0.00000000000E+00  0.32101389309E+02  0.32101389309E+02  0.00000000000E+00 0.  1.
          2   -1    0    0  501    0  0.00000000000E+00 -0.00000000000E+00 -0.45058398440E+03  0.45058398440E+03  0.00000000000E+00 0. -1.
         23    2    1    2    0    0  0.41496203537E+02  0.72432180827E+01 -0.24271917271E+03  0.26287687269E+03  0.91745595410E+02 0.  0.
          5    1    1    2  502    0 -0.28509908622E+02 -0.63416259259E+02 -0.12394465399E+03  0.14217660314E+03  0.41800000000E+01 0.  1.
         -5    1    1    2    0  502 -0.12986294915E+02  0.56173041177E+02 -0.51818768385E+02  0.77631897875E+02  0.41800000000E+01 0.  1.
        -11    1    3    3    0    0  0.66772312845E+02 -0.13657061361E+02 -0.16444915977E+03  0.17801287379E+03  0.00000000000E+00 0. -1.
         11    1    3    3    0    0 -0.25276109308E+02  0.20900279443E+02 -0.78270012939E+02  0.84863998892E+02  0.00000000000E+00 0.  1.
</event>
<event>
 7    1  0.4096326E-006  0.2331935E+03  0.7561462E-02  0.1124412E+00
         -2   -1    0    0    0  501 -0.00000000000E+00  0.00000000000E+00  0.11476412346E+03  0.11476412346E+03  0.00000000000E+00 0.  1.
          2   -1    0    0  501    0  0.00000000000E+00 -0.00000000000E+00 -0.72864673062E+03  0.72864673062E+03  0.00000000000E+00 0. -1.
         23    2    1    2    0    0 -0.28184131839E+02 -0.18606763200E+03 -0.53036405885E+03  0.57017945327E+03  0.91668233544E+02 0.  0.
          5    1    1    2  502    0 -0.75257026017E+02  0.60682224919E+02 -0.20942685159E+02  0.99005155662E+02  0.41800000000E+01 0. -1.
         -5    1    1    2    0  502  0.10344115786E+03  0.12538540709E+03 -0.62575863145E+02  0.17422624514E+03  0.41800000000E+01 0.  1.
        -11    1    3    3    0    0 -0.13193113991E+02  0.59120942716E+01 -0.64219450857E+02  0.65826658610E+02  0.00000000000E+00 0.  1.
         11    1    3    3    0    0 -0.14991017849E+02 -0.19197972628E+03 -0.46614460800E+03  0.50435279466E+03  0.00000000000E+00 0. -1.
</event>
<event>
 7    1  0.4096326E-006  0.5462003E+02  0.7561462E-02  0.1421904E+00
         -4   -1    0    0    0  501 -0.00000000000E+00  0.00000000000E+00  0.90737613504E+02  0.90737613504E+02  0.00000000000E+00 0.  1.
          4   -1    0    0  501    0  0.00000000000E+00 -0.00000000000E+00 -0.20712264300E+03  0.20712264300E+03  0.00000000000E+00 0. -1.
         23    2    1    2    0    0  0.19727843904E+01 -0.18551707505E+02 -0.14131798889E+03  0.16895343794E+03  0.90699682901E+02 0.  0.
          5    1    1    2  502    0  0.71422783381E+01  0.53940277564E+01 -0.50614398923E+02  0.51569346066E+02  0.41800000000E+01 0.  1.
         -5    1    1    2    0  502 -0.91150627285E+01  0.13157679749E+02  0.75547358312E+02  0.77337472501E+02  0.41800000000E+01 0.  1.
        -11    1    3    3    0    0 -0.11706670943E+02  0.30091468135E+02 -0.21163262542E+02  0.38606039430E+02  0.00000000000E+00 0. -1.
         11    1    3    3    0    0  0.13679455334E+02 -0.48643175641E+02 -0.12015472634E+03  0.13034739851E+03  0.00000000000E+00 0.  1.
</event>
<event>
 7    1  0.4096326E-006  0.1384908E+03  0.7561462E-02  0.1215374E+00
          2   -1    0    0  501    0  0.00000000000E+00  0.00000000000E+00  0.43814304309E+03  0.43814304309E+03  0.00000000000E+00 0. -1.
         -2   -1    0    0    0  501 -0.00000000000E+00 -0.00000000000E+00 -0.42705545213E+03  0.42705545213E+03  0.00000000000E+00 0.  1.
         23    2    1    2    0    0  0.88302196848E+02 -0.25994020097E+02  0.41471744293E+03  0.43411427375E+03  0.89396186479E+02 0.  0.
          5    1    1    2  502    0 -0.12782269783E+02  0.64683079557E+02 -0.19142099507E+03  0.20250125174E+03  0.41800000000E+01 0. -1.
         -5    1    1    2    0  502 -0.75519927065E+02 -0.38689059460E+02 -0.21220885690E+03  0.22858296974E+03  0.41800000000E+01 0.  1.
        -11    1    3    3    0    0 -0.80028392947E+01 -0.28519280482E+02  0.13688570616E+03  0.14005388729E+03  0.00000000000E+00 0. -1.
         11    1    3    3    0    0  0.96305036143E+02  0.25252603849E+01  0.27783173677E+03  0.29406038646E+03  0.00000000000E+00 0.  1.
</event>
<event>
 6    1  0.4096326E-006  0.8621970E+02  0.7561462E-02  0.1312273E+00
          1   -1    0    0  501    0  0.00000000000E+00  0.00000000000E+00  0.26033713030E+03  0.26033713030E+03  0.00000000000E+00 0. -1.
         -1   -1    0    0    0  501 -0.00000000000E+00 -0.00000000000E+00 -0.31968801832E+02  0.31968801832E+02  0.00000000000E+00 0.  1.
          5    1    1    2  502    0 -0.30367134386E+02 -0.62468648617E+02  0.11173553760E+03  0.13163129443E+03  0.41800000000E+01 0. -1.
         -5    1    1    2    0  502  0.36714950489E+02  0.41120049509E+02  0.54833466837E+02  0.77865445137E+02  0.41800000000E+01 0. -1.
        -11    1    1    2    0    0 -0.21986669994E+02  0.23032458958E+02  0.18694424244E+02  0.36924102168E+02  0.00000000000E+00 0.  1.
         11    1    1    2    0    0  0.15638853891E+02 -0.16838598497E+01  0.43104899781E+02  0.45885090391E+02  0.00000000000E+00 0. -1.
</event>
<event>
 7    1  0.4096326E-006  0.1797566E+03  0.7561462E-02  0.1168039E+00
         -3   -1    0    0    0  501 -0.00000000000E+00  0.00000000000E+00  0.49888560923E+03  0.49888560923E+03  0.00000000000E+00 0.  1.
          3   -1    0    0  501    0  0.00000000000E+00 -0.00000000000E+00 -0.10849543890E+03  0.10849543890E+03  0.00000000000E+00 0. -1.
         23    2    1    2    0    0  0.31385293871E+02  0.15053377979E+03  0.12681944009E+02  0.18081711200E+03  0.94279057899E+02 0.  0.
          5    1    1    2  502    0 -0.63856202846E+02 -0.10950410067E+03  0.33718867472E+03  0.36025329626E+03  0.41800000000E+01 0.  1.
         -5    1    1    2    0  502  0.32470908975E+02 -0.41029679121E+02  0.40519551592E+02  0.66310639867E+02  0.41800000000E+01 0.  1.
        -11    1    3    3    0    0  0.19478302687E+02 -0.81113309899E+01  0.41008839414E+01  0.21494539193E+02  0.00000000000E+00 0. -1.
         11    1    3    3    0    0  0.11906991184E+02  0.15864511078E+03  0.85810600679E+01  0.15932257281E+03  0.00000000000E+00 0.  1.
</event>
<event>
 7    1  0.4096326E-006  0.9185629E+02  0.7561462E-02  0.1298418E+00
          2   -1    0    0  501    0  0.00000000000E+00  0.00000000000E+00  0.83707318991E+02  0.83707318991E+02  0.00000000000E+00 0. -1.
         -2   -1    0    0    0  501 -0.00000000000E+00 -0.00000000000E+00 -0.28625008134E+03  0.28625008134E+03  0.00000000000E+00 0.  1.
         23    2    1    2    0    0  0.15905934573E+02  0.19287435902E+01  0.36576935534E+02  0.99619390734E+02  0.91265721882E+02 0.  0.
          5    1    1    2  502    0 -0.25338129567E+02  0.41810138518E+02 -0.21253248579E+03  0.21812298918E+03  0.41800000000E+01 0.  1.
         -5    1    1    2    0  502  0.94321949943E+01 -0.43738882109E+02 -0.26587212097E+02  0.52215020421E+02  0.41800000000E+01 0.  1.
        -11    1    3    3    0    0 -0.36865054918E+02  0.22602112026E+01  0.29668948604E+01  0.37053249438E+02  0.00000000000E+00 0. -1.
         11    1    3    3    0    0  0.52770989491E+02 -0.33146761248E+00  0.33610040673E+02  0.62566141296E+02  0.00000000000E+00 0.  1.
</event>
<event>
 7    1  0.4096326E-006  0.1157929E+03  0.7561462E-02  0.1250203E+00
         -3   -1    0    0    0  501 -0.00000000000E+00  0.00000000000E+00  0.14144593896E+03  0.14144593896E+03  0.00000000000E+00 0.  1.
          3   -1    0    0  501    0  0.00000000000E+00 -0.00000000000E+00 -0.27410672129E+03  0.27410672129E+03  0.00000000000E+00 0. -1.
         23    2    1    2    0    0 -0.19213237456E+02 -0.29976589196E+02 -0.21188847926E+03  0.23210989513E+03  0.87809631491E+02 0.  0.
          5    1    1    2  502    0  0.73819913780E+02 -0.84689615636E+01 -0.64855976545E+01  0.74703670308E+02  0.41800000000E+01 0. -1.
         -5    1    1    2    0  502 -0.54606676324E+02  0.38445550760E+02  0.85713294577E+02  0.10873909481E+03  0.41800000000E+01 0.  1.
        -11    1    3    3    0    0  0.24554793570E+02  0.13950198271E+02 -0.10301282403E+03  0.10681379983E+03  0.00000000000E+00 0.  1.
         11    1    3    3    0    0 -0.43768031026E+02 -0.43926787467E+02 -0.10887565523E+03  0.12529609530E+03  0.00000000000E+00 0. -1.
</event>
<event>
 7    1  0.4096326E-006  0.1167413E+03  0.7561462E-02  0.1248572E+00
         -1   -1    0    0    0  501 -0.00000000000E+00  0.00000000000E+00  0.63192867492E+02  0.63192867492E+02  0.00000000000E+00 0.  1.
          1   -1    0    0  501    0  0.00000000000E+00 -0.00000000000E+00 -0.24612530001E+03  0.24612530001E+03  0.00000000000E+00 0. -1.
         23    2    1    2    0    0  0.40050602645E+02  0.16678808569E+01 -0.12911118502E+03  0.16736211352E+03  0.98658736800E+02 0.  0.
          5    1    1    2  502    0 -0.59110695867E+02 -0.49697118208E+02 -0.44670282239E+02  0.89312845881E+02  0.41800000000E+01 0. -1.
         -5    1    1    2    0  502  0.19060093222E+02  0.48029237351E+02 -0.91509652664E+01  0.52643208104E+02  0.41800000000E+01 0. -1.
        -11    1    3    3    0    0 -0.31650257501E+02  0.69577390403E+01 -0.56786813782E+02  0.65382651766E+02  0.00000000000E+00 0. -1.
         11    1    3    3    0    0  0.71700860146E+02 -0.52898581834E+01 -0.72324371234E+02  0.10197946175E+03  0.00000000000E+00 0.  1.
</event>
<event>
 7    1  0.4096326E-006  0.1138573E+03  0.7561462E-02  0.1253589E+00
          2   -1    0    0  501    0  0.00000000000E+00  0.00000000000E+00  0.75049576561E+02  0.75049576561E+02  0.00000000000E+00 0. -1.
         -2   -1    0    0    0  501 -0.00000000000E+00 -0.00000000000E+00 -0.20381074770E+03  0.20381074770E+03  0.00000000000E+00 0.  1.
         23    2    1    2    0    0 -0.27784037582E+02 -0.19746969249E+02 -0.15352238146E+02  0.10659353689E+03  0.99822819799E+02 0.  0.
          5    1    1    2  502    0 -0.30863348210E+02 -0.35026930251E+02 -0.26263535400E+02  0.53727812139E+02  0.41800000000E+01 0. -1.
         -5    1    1    2    0  502  0.58647385792E+02  0.54773899500E+02 -0.87145397594E+02  0.11853897523E+03  0.41800000000E+01 0. -1.
        -11    1    3    3    0    0 -0.21000704420E+02  0.37424675634E+02 -0.22709610852E+02  0.48552676110E+02  0.00000000000E+00 0.  1.
         11    1    3    3    0    0 -0.67833331621E+01 -0.57171644883E+02  0.73573727056E+01  0.58040860784E+02  0.00000000000E+00 0. -1.
</event>
<event>
 7    1  0.4096326E-006  0.1850251E+03  0.7561462E-02  0.1163026E+00
          1   -1    0    0  501    0  0.00000000000E+00  0.00000000000E+00  0.10312920635E+04  0.10312920635E+04  0.00000000000E+00 0.  1.
         -1   -1    0    0    0  501 -0.00000000000E+00 -0.00000000000E+00 -0.42087286708E+02  0.42087286708E+02  0.00000000000E+00 0. -1.
         23    2    1    2    0    0 -0.16406865642E+03 -0.21637935168E+02  0.63807055666E+03  0.66554383163E+03  0.91803225850E+02 0.  0.
          5    1    1    2  502    0  0.14097015695E+03  0.50096084461E+02  0.33625351503E+03  0.36805719881E+03  0.41800000000E+01 0.  1.
         -5    1    1    2    0  502  0.23098499467E+02 -0.28458149294E+02  0.14880705088E+02  0.39778319758E+02  0.41800000000E+01 0.  1.
        -11    1    3    3    0    0 -0.10934802938E+03 -0.51816688258E+02  0.49211297555E+03  0.50677129104E+03  0.00000000000E+00 0.  1.
         11    1    3    3    0    0 -0.54720627033E+02  0.30178753091E+02  0.14595758111E+03  0.15877254059E+03  0.00000000000E+00 0. -1.
</event>
<event>
 7    1  0.4096326E-006  0.9418499E+02  0.7561462E-02  0.1293022E+00
          4   -1    0    0  501    0  0.00000000000E+00  0.00000000000E+00  0.30203398112E+03  0.30203398112E+03  0.00000000000E+00 0. -1.
         -4   -1    0    0    0  501 -0.00000000000E+00 -0.00000000000E+00 -0.47713509588E+02  0.47713509588E+02  0.00000000000E+00 0.  1.
         23    2    1    2    0    0 -0.27430313443E+02 -0.73180048244E+01  0.16114794960E+03  0.19120922829E+03  0.98925891626E+02 0.  0.
          5    1    1    2  502    0  0.70411870830E+02  0.15416389950E+02  0.23055835562E+02  0.75792747584E+02  0.41800000000E+01 0.  1.
         -5    1    1    2    0  502 -0.42981557387E+02 -0.80983851259E+01  0.70116686370E+02  0.82745514831E+02  0.41800000000E+01 0.  1.
        -11    1    3    3    0    0 -0.49237261203E+02 -0.23263264965E-01  0.29141163584E+02  0.57214647137E+02  0.00000000000E+00 0.  1.
         11    1    3    3    0    0  0.21806947760E+02 -0.72947415594E+01  0.13200678602E+03  0.13399458116E+03  0.00000000000E+00 0. -1.
</event>
<event>
 7    1  0.4096326E-006  0.7545015E+02  0.7561462E-02  0.1342483E+00
         -2   -1    0    0    0  501 -0.00000000000E+00  0.00000000000E+00  0.21665668502E+02  0.21665668502E+02  0.00000000000E+00 0. -1.
          2   -1    0    0  501    0  0.00000000000E+00 -0.00000000000E+00 -0.62152163657E+03  0.62152163657E+03  0.00000000000E+00 0.  1.
         23    2    1    2    0    0  0.61685602772E+01 -0.14376576710E+02 -0.36229087759E+03  0.37424504647E+03  0.92519931492E+02 0.  0.
          5    1    1    2  502    0  0.22612370732E+01  0.34921436698E+02 -0.24312918629E+03  0.24567029442E+03  0.41800000000E+01 0.  1.
         -5    1    1    2    0  502 -0.84297973503E+01 -0.20544859988E+02  0.55640958075E+01  0.23271964194E+02  0.41800000000E+01 0.  1.
        -11    1    3    3    0    0  0.55379260901E+01 -0.53572987853E+02 -0.23288708309E+03  0.23903373637E+03  0.00000000000E+00 0.  1.
         11    1    3    3    0    0  0.63063418712E+00  0.39196411144E+02 -0.12940379451E+03  0.13521131010E+03  0.00000000000E+00 0. -1.
</event>
<event>
 7    1  0.4096326E-006  0.1163331E+03  0.7561462E-02  0.1249272E+00
          3   -1    0    0  501    0  0.00000000000E+00  0.00000000000E+00  0.35512903471E+02  0.35512903471E+02  0.00000000000E+00 0. -1.
         -3   -1    0    0    0  501 -0.00000000000E+00 -0.00000000000E+00 -0.50158816538E+03  0.50158816538E+03  0.00000000000E+00 0.  1.
         23    2    1    2    0    0  0.86119473387E+01  0.71047320247E+02 -0.15452990945E+03  0.19383909220E+03  0.92586248436E+02 0.  0.
          5    1    1    2  502    0  0.53276917728E+02 -0.59168727474E+02 -0.19571900714E+03  0.21133568186E+03  0.41800000000E+01 0. -1.
         -5    1    1    2    0  502 -0.61888865067E+02 -0.11878592773E+02 -0.11582634533E+03  0.13192629479E+03  0.41800000000E+01 0. -1.
        -11    1    3    3    0    0  0.23258997342E+02  0.73098169100E+01  0.17336800418E+01  0.24442177217E+02  0.00000000000E+00 0. -1.
         11    1    3    3    0    0 -0.14647050003E+02  0.63737503337E+02 -0.15626358949E+03  0.16939691498E+03  0.00000000000E+00 0.  1.
</event>
<event>
 7    1  0.4096326E-006  0.1382333E+03  0.7561462E-02  0.1215726E+00
         -1   -1    0    0    0  501 -0.00000000000E+00  0.00000000000E+00  0.46053263892E+02  0.46053263892E+02  0.00000000000E+00 0.  1.
          1   -1    0    0  501    0  0.00000000000E+00 -0.00000000000E+00 -0.47947040860E+03  0.47947040860E+03  0.00000000000E+00 0. -1.
         23    2    1    2    0    0 -0.58159512493E+02  0.78834618634E+02 -0.23330728831E+03  0.27000114288E+03  0.94185457415E+02 0.  0.
          5    1    1    2  502    0 -0.32598250374E+02 -0.41106714760E+02 -0.11075488833E+03  0.12262351167E+03  0.41800000000E+01 0. -1.
         -5    1    1    2    0  502  0.90757762867E+02 -0.37727903875E+02 -0.89354968070E+02  0.13289901794E+03  0.41800000000E+01 0. -1.
        -11    1    3    3    0    0 -0.68026874069E+02  0.27811474274E+02 -0.82481266293E+02  0.11047304190E+03  0.00000000000E+00 0. -1.
         11    1    3    3    0    0  0.98673615767E+01  0.51023144361E+02 -0.15082602201E+03  0.15952810098E+03  0.00000000000E+00 0.  1.
</event>
<event>
 7    1  0.4096326E-006  0.1572873E+03  0.7561462E-02  0.1191794E+00
          1   -1    0    0  501    0  0.00000000000E+00  0.00000000000E+00  0.76044201669E+02  0.76044201669E+02  0.00000000000E+00 0. -1.
         -1   -1    0    0    0  501 -0.00000000000E+00 -0.00000000000E+00 -0.37957589462E+03  0.37957589462E+03  0.00000000000E+00 0.  1.
         23    2    1    2    0    0  0.54037065292E+02  0.11161126782E+03 -0.86190825652E+02  0.17586516786E+03  0.90125575233E+02 0.  0.
          5    1    1    2  502    0 -0.86628853350E+02 -0.76633132279E+02 -0.99903684900E+02  0.15289020195E+03  0.41800000000E+01 0. -1.
         -5    1    1    2    0  502  0.32591788058E+02 -0.34978135537E+02 -0.11743718240E+03  0.12686472648E+03  0.41800000000E+01 0. -1.
        -11    1    3    3    0    0  0.53431385716E+02  0.16765189644E+02 -0.47490241344E+02  0.73425524079E+02  0.00000000000E+00 0.  1.
         11    1    3    3    0    0  0.60567957627E+00  0.94846078172E+02 -0.38700584308E+02  0.10243964378E+03  0.00000000000E+00 0. -1.
</event>
<event>
 7    1  0.4096326E-006  0.1943394E+03  0.7561462E-02  0.1154605E+00
          2   -1    0    0  501    0  0.00000000000E+00  0.00000000000E+00  0.15737928031E+04  0.15737928031E+04  0.00000000000E+00 0. -1.
         -2   -1    0    0    0  501 -0.00000000000E+00 -0.00000000000E+00 -0.83283529422E+02  0.83283529422E+02  0.00000000000E+00 0.  1.
         23    2    1    2    0    0 -0.95864100432E+01  0.89517546117E+02  0.38518300868E+03  0.40621401842E+03  0.92404481882E+02 0.  0.
          5    1    1    2  502    0 -0.71493120955E+01  0.87034335763E+02  0.10654655263E+04  0.10690464669E+04  0.41800000000E+01 0. -1.
         -5    1    1    2    0  502  0.16735722139E+02 -0.17655188188E+03  0.39860738667E+02  0.18181584716E+03  0.41800000000E+01 0.  1.
        -11    1    3    3    0    0  0.32075500371E+02  0.71698330199E+02  0.29513051558E+03  0.30540384657E+03  0.00000000000E+00 0. -1.
         11    1    3    3    0    0 -0.41661910414E+02  0.17819215918E+02  0.90052493097E+02  0.10081017185E+03  0.00000000000E+00 0.  1.
</event>
<event>
 7    1  0.4096326E-006  0.1202775E+03  0.7561462E-02  0.1242640E+00
          1   -1    0    0  501    0  0.00000000000E+00  0.00000000000E+00  0.36025063079E+03  0.36025063079E+03  0.00000000000E+00 0. -1.
         -1   -1    0    0    0  501 -0.00000000000E+00 -0.00000000000E+00 -0.73136741489E+02  0.73136741489E+02  0.00000000000E+00 0.  1.
         23    2    1    2    0    0  0.82481987364E+02  0.71974039696E+02  0.19959750964E+03  0.24553052879E+03  0.91992032722E+02 0.  0.
          5    1    1    2  502    0  0.49636250162E+01  0.65141306422E+01 -0.24064643615E+02  0.25761423557E+02  0.41800000000E+01 0.  1.
         -5    1    1    2    0  502 -0.87445612380E+02 -0.78488170338E+02  0.11158102328E+03  0.16209541994E+03  0.41800000000E+01 0.  1.
        -11    1    3    3    0    0  0.49275251366E+02  0.22432678548E+02  0.22447418692E+02  0.58610255672E+02  0.00000000000E+00 0.  1.
         11    1    3    3    0    0  0.33206735998E+02  0.49541361148E+02  0.17715009095E+03  0.18692027312E+03  0.00000000000E+00 0. -1.
</event>
<event>
 7    1  0.4096326E-006  0.7561777E+02  0.7561462E-02  0.1341969E+00
          1   -1    0    0  501    0  0.00000000000E+00  0.00000000000E+00  0.12439793000E+03  0.12439793000E+03  0.00000000000E+00 0. -1.
         -1   -1    0    0    0  501 -0.00000000000E+00 -0.00000000000E+00 -0.11858985433E+03  0.11858985433E+03  0.00000000000E+00 0.  1.
         23    2    1    2    0    0  0.54616715877E+02 -0.13571545192E+02  0.44580381220E+02  0.11232611181E+03  0.86386182416E+02 0.  0.
          5    1    1    2  502    0 -0.43544531521E+02  0.65690926718E+01  0.34507509302E+02  0.56102761092E+02  0.41800000000E+01 0. -1.
         -5    1    1    2    0  502 -0.11072184356E+02  0.70024525205E+01 -0.73279814854E+02  0.74558911424E+02  0.41800000000E+01 0.  1.
        -11    1    3    3    0    0  0.48667125600E+02 -0.41951101541E+02  0.51698283841E+02  0.82468761278E+02  0.00000000000E+00 0. -1.
         11    1    3    3    0    0  0.59495902776E+01  0.28379556349E+02 -0.71179026207E+01  0.29857350531E+02  0.00000000000E+00 0.  1.
</event>
<event>
 7    1  0.4096326E-006  0.1223565E+03  0.7561462E-02  0.1239259E+00
         -1   -1    0    0    0  501 -0.00000000000E+00  0.00000000000E+00  0.54276618452E+02  0.54276618452E+02  0.00000000000E+00 0. -1.
          1   -1    0    0  501    0  0.00000000000E+00 -0.00000000000E+00 -0.29540240636E+03  0.29540240636E+03  0.00000000000E+00 0.  1.
         23    2    1    2    0    0 -0.20182066823E+02  0.55493421914E+02 -0.14843679335E+03  0.18316762116E+03  0.89610602748E+02 0.  0.
          5    1    1    2  502    0  0.29129456816E+02  0.35394597528E+02 -0.40066784971E+02  0.61025588457E+02  0.41800000000E+01 0. -1.
         -5    1    1    2    0  502 -0.89473899925E+01 -0.90888019442E+02 -0.52622209592E+02  0.10548581520E+03  0.41800000000E+01 0. -1.
        -11    1    3    3    0    0 -0.54718720247E+02  0.45885784172E+02 -0.10161402161E+03  0.12419763654E+03  0.00000000000E+00 0.  1.
         11    1    3    3    0    0  0.34536653424E+02  0.96076377417E+01 -0.46822771739E+02  0.58969984620E+02  0.00000000000E+00 0. -1.
</event>
<event>
 7    1  0.4096326E-006  0.1537929E+03  0.7561462E-02  0.1195888E+00
          2   -1    0    0  501    0  0.00000000000E+00  0.00000000000E+00  0.93704681698E+03  0.93704681698E+03  0.00000000000E+00 0. -1.
         -2   -1    0    0    0  501 -0.00000000000E+00 -0.00000000000E+00 -0.28194069267E+02  0.28194069267E+02  0.00000000000E+00 0.  1.
         23    2    1    2    0    0  0.11267658474E+03  0.30612211667E+02  0.49023218696E+03  0.51299765293E+03  0.95947248708E+02 0.  0.
          5    1    1    2  502    0 -0.55517649067E+02  0.40165384121E+02  0.26414266707E+03  0.27291809835E+03  0.41800000000E+01 0.  1.
         -5    1    1    2    0  502 -0.57158935673E+02 -0.70777595788E+02  0.15447789369E+03  0.17932513497E+03  0.41800000000E+01 0.  1.
        -11    1    3    3    0    0  0.12861702489E+03  0.25479107469E+02  0.39196027741E+03  0.41330906483E+03  0.00000000000E+00 0. -1.
         11    1    3    3    0    0 -0.15940440147E+02  0.51331041984E+01  0.98271909548E+02  0.99688588098E+02  0.00000000000E+00 0.  1.
</event>
<event>
 7    1  0.4096326E-006  0.1063021E+03  0.7561462E-02  0.1267575E+00
          1   -1    0    0  501    0  0.00000000000E+00  0.00000000000E+00  0.78697342231E+02  0.78697342231E+02  0.00000000000E+00 0. -1.
         -1   -1    0    0    0  501 -0.00000000000E+00 -0.00000000000E+00 -0.24137257965E+03  0.24137257965E+03  0.00000000000E+00 0.  1.
         23    2    1    2    0    0 -0.33941815883E+02  0.75893416706E+02 -0.51605979883E+02  0.13327161112E+03  0.90478105677E+02 0.  0.
          5    1    1    2  502    0  0.31321781421E+02 -0.80826187884E+02 -0.12146126232E+02  0.87629489452E+02  0.41800000000E+01 0.  1.
         -5    1    1    2    0  502  0.26200344620E+01  0.49327711782E+01 -0.98923131306E+02  0.99168821307E+02  0.41800000000E+01 0.  1.
        -11    1    3    3    0    0 -0.26210650748E+02  0.94832504280E+02 -0.28545039865E+02  0.10244521161E+03  0.00000000000E+00 0.  1.
         11    1    3    3    0    0 -0.77311651344E+01 -0.18939087574E+02 -0.23060940018E+02  0.30826399514E+02  0.00000000000E+00 0. -1.
</event>
<event>
 7    1  0.4096326E-006  0.1286487E+03  0.7561462E-02  0.1229475E+00
          1   -1    0    0  501    0  0.00000000000E+00  0.00000000000E+00  0.59568451966E+02  0.59568451966E+02  0.00000000000E+00 0. -1.
         -1   -1    0    0    0  501 -0.00000000000E+00 -0.00000000000E+00 -0.39370916223E+03  0.39370916223E+03  0.00000000000E+00 0.  1.
         23    2    1    2    0    0  0.21035368681E+01 -0.98940773201E+02 -0.93881204275E+02  0.16489191017E+03  0.92638869018E+02 0.  0.
          5    1    1    2  502    0  0.55139808937E+02  0.39770990588E+02 -0.15739578117E+03  0.17150228731E+03  0.41800000000E+01 0. -1.
         -5    1    1    2    0  502 -0.57243345805E+02  0.59169782613E+02 -0.82863724819E+02  0.11688341672E+03  0.41800000000E+01 0. -1.
        -11    1    3    3    0    0 -0.18389618806E+02 -0.34043786863E+02  0.10674208192E+02  0.40138463154E+02  0.00000000000E+00 0. -1.
         11    1    3    3    0    0  0.20493155674E+02 -0.64896986338E+02 -0.10455541247E+03  0.12475344701E+03  0.00000000000E+00 0.  1.
</event>
<event>
 7    1  0.4096326E-006  0.7621746E+02  0.7561462E-02  0.1340142E+00
          2   -1    0    0  501    0  0.00000000000E+00  0.00000000000E+00  0.72137465919E+03  0.72137465919E+03  0.00000000000E+00 0. -1.
         -2   -1    0    0    0  501 -0.00000000000E+00 -0.00000000000E+00 -0.19041525187E+02  0.19041525187E+02  0.00000000000E+00 0.  1.
         23    2    1    2    0    0  0.72723399600E+01  0.44917244866E+02  0.30491051286E+03  0.32129596331E+03  0.90499886030E+02 0.  0.
          5    1    1    2  502    0  0.20643999571E+02 -0.26754574214E+02  0.37958448934E+03  0.38110869697E+03  0.41800000000E+01 0.  1.
         -5    1    1    2    0  502 -0.27916339531E+02 -0.18162670652E+02  0.17838131807E+02  0.38011524100E+02  0.41800000000E+01 0.  1.
        -11    1    3    3    0    0  0.21387185444E+02 -0.13118944836E+02  0.26273443381E+02  0.36329220222E+02  0.00000000000E+00 0.  1.
         11    1    3    3    0    0 -0.14114845484E+02  0.58036189702E+02  0.27863706948E+03  0.28496674308E+03  0.00000000000E+00 0. -1.
</event>
<event>
 7    1  0.4096326E-006  0.1208289E+03  0.7561462E-02  0.1241736E+00
          2   -1    0    0  501    0  0.00000000000E+00  0.00000000000E+00  0.82885689832E+03  0.82885689832E+03  0.00000000000E+00 0. -1.
         -2   -1    0    0    0  501 -0.00000000000E+00 -0.00000000000E+00 -0.27084948370E+02  0.27084948370E+02  0.00000000000E+00 0.  1.
         23    2    1    2    0    0 -0.46731243311E+02 -0.89918122292E+02  0.31972966975E+03  0.34772715901E+03  0.91749864163E+02 0.  0.
          5    1    1    2  502    0  0.11580216198E+02  0.92613282817E+02  0.16849362398E+03  0.19266264631E+03  0.41800000000E+01 0. -1.
         -5    1    1    2    0  502  0.35151027113E+02 -0.26951605249E+01  0.31354865622E+03  0.31555204137E+03  0.41800000000E+01 0. -1.
        -11    1    3    3    0    0  0.15421606792E+01 -0.50178388148E+02  0.24592691066E+03  0.25099859419E+03  0.00000000000E+00 0. -1.
         11    1    3    3    0    0 -0.48273403991E+02 -0.39739734143E+02  0.73802759087E+02  0.96728564817E+02  0.00000000000E+00 0.  1.
</event>
<event>
 7    1  0.4096326E-006  0.9595887E+02  0.7561462E-02  0.1289031E+00
         -2   -1    0    0    0  501 -0.00000000000E+00  0.00000000000E+00  0.40908042440E+02  0.40908042440E+02  0.00000000000E+00 0.  1.
          2   -1    0    0  501    0  0.00000000000E+00 -0.00000000000E+00 -0.41832385400E+03  0.41832385400E+03  0.00000000000E+00 0. -1.
         23    2    1    2    0    0 -0.46275217556E+02  0.30612420113E+02 -0.25421319711E+03  0.27510074417E+03  0.89317153083E+02 0.  0.
          5    1    1    2  502    0  0.11277866063E+02  0.21041981957E+02  0.17675651974E+02  0.29997605576E+02  0.41800000000E+01 0. -1.
         -5    1    1    2    0  502  0.34997351493E+02 -0.51654402071E+02 -0.14087826643E+03  0.15413354669E+03  0.41800000000E+01 0. -1.
        -11    1    3    3    0    0 -0.66283032101E+02 -0.26442968557E+01 -0.16087289877E+03  0.17401299436E+03  0.00000000000E+00 0. -1.
         11    1    3    3    0    0  0.20007814545E+02  0.33256716969E+02 -0.93340298343E+02  0.10108774981E+03  0.00000000000E+00 0.  1.
</event>
<event>
 7    1  0.4096326E-006  0.1031467E+03  0.7561462E-02  0.1273815E+00
          2   -1    0    0  501    0  0.00000000000E+00  0.00000000000E+00  0.28885480820E+03  0.28885480820E+03  0.00000000000E+00 0. -1.
         -2   -1    0    0    0  501 -0.00000000000E+00 -0.00000000000E+00 -0.70238341502E+02  0.70238341502E+02  0.00000000000E+00 0.  1.
         23    2    1    2    0    0  0.27190567254E+02 -0.86487539304E+02  0.11487823734E+03  0.17300105007E+03  0.92265554293E+02 0.  0.
          5    1    1    2  502    0  0.13966746291E+02  0.53019308981E+02 -0.14126083542E+02  0.56772667393E+02  0.41800000000E+01 0.  1.
         -5    1    1    2    0  502 -0.41157313545E+02  0.33468230323E+02  0.11786431289E+03  0.12931943223E+03  0.41800000000E+01 0.  1.
        -11    1    3    3    0    0 -0.93136902847E+01 -0.12468606829E+02 -0.13352991930E+02  0.20506422810E+02  0.00000000000E+00 0.  1.
         11    1    3    3    0    0  0.36504257539E+02 -0.74018932474E+02  0.12823122927E+03  0.15249462726E+03  0.00000000000E+00 0. -1.
</event>
<event>
 7    1  0.4096326E-006  0.1012287E+03  0.7561462E-02  0.1277733E+00
         -1   -1    0    0    0  501 -0.00000000000E+00  0.00000000000E+00  0.27005073925E+02  0.27005073925E+02  0.00000000000E+00 0.  1.
          1   -1    0    0  501    0  0.00000000000E+00 -0.00000000000E+00 -0.39368215995E+03  0.39368215995E+03  0.00000000000E+00 0. -1.
         23    2    1    2    0    0  0.17007095668E+00  0.10321806733E+02 -0.14874790917E+03  0.17377021685E+03  0.89238888177E+02 0.  0.
          5    1    1    2  502    0  0.37136780455E+02 -0.47777212185E+02 -0.14086825724E+03  0.15337255545E+03  0.41800000000E+01 0. -1.
         -5    1    1    2    0  502 -0.37306851412E+02  0.37455405452E+02 -0.77060919610E+02  0.93544461573E+02  0.41800000000E+01 0.  1.
        -11    1    3    3    0    0 -0.40693284274E+02 -0.11711950485E+02 -0.84352745901E+02  0.94384844707E+02  0.00000000000E+00 0. -1.
         11    1    3    3    0    0  0.40863355231E+02  0.22033757218E+02 -0.64395163271E+02  0.79385372145E+02  0.00000000000E+00 0.  1.
</event>
<event>
 7    1  0.4096326E-006  0.1293703E+03  0.7561462E-02  0.1228393E+00
          2   -1    0    0  501    0  0.00000000000E+00  0.00000000000E+00  0.34400345086E+03  0.34400345086E+03  0.00000000000E+00 0. -1.
         -2   -1    0    0    0  501 -0.00000000000E+00 -0.00000000000E+00 -0.63277103154E+02  0.63277103154E+02  0.00000000000E+00 0.  1.
         23    2    1    2    0    0 -0.94428757614E+02  0.13231634160E+02  0.16223386834E+03  0.21035395045E+03  0.94005797836E+02 0.  0.
          5    1    1    2  502    0 -0.11209647639E+02 -0.31971565353E+02  0.72474239168E+02  0.80111328377E+02  0.41800000000E+01 0.  1.
         -5    1    1    2    0  502  0.10563840525E+03  0.18739931194E+02  0.46018240196E+02  0.11681527518E+03  0.41800000000E+01 0.  1.
        -11    1    3    3    0    0 -0.64212381516E+02  0.41009313682E+02  0.50725951509E+02  0.91532048513E+02  0.00000000000E+00 0.  1.
         11    1    3    3    0    0 -0.30216376099E+02 -0.27777679522E+02  0.11150791683E+03  0.11882190194E+03  0.00000000000E+00 0. -1.
</event>
<event>
 7    1  0.4096326E-006  0.9416911E+02  0.7561462E-02  0.1293059E+00
          2   -1    0    0  501    0  0.00000000000E+00  0.00000000000E+00  0.31958969420E+03  0.31958969420E+03  0.00000000000E+00 0. -1.
         -2   -1    0    0    0  501 -0.00000000000E+00 -0.00000000000E+00 -0.62337542015E+02  0.62337542015E+02  0.00000000000E+00 0.  1.
         23    2    1    2    0    0  0.10635381253E+02  0.35785824132E+02  0.22795025555E+03  0.24812639785E+03  0.90618175679E+02 0.  0.
          5    1    1    2  502    0 -0.28071865523E+02 -0.76806845326E+02  0.34254706437E+02  0.88759103398E+02  0.41800000000E+01 0.  1.
         -5    1    1    2    0  502  0.17436484270E+02  0.41021021194E+02 -0.49528098027E+01  0.45041734963E+02  0.41800000000E+01 0.  1.
        -11    1    3    3    0    0 -0.14508008205E+02 -0.36107010541E+01 -0.48575862202E+00  0.14958456659E+02  0.00000000000E+00 0.  1.
         11    1    3    3    0    0  0.25143389459E+02  0.39396525186E+02  0.22843601417E+03  0.23316794120E+03  0.00000000000E+00 0. -1.
</event>
<event>
 7    1  0.4096326E-006  0.8663641E+02  0.7561462E-02  0.1311208E+00
          1   -1    0    0  501    0  0.00000000000E+00  0.00000000000E+00  0.13130696827E+03  0.13130696827E+03  0.00000000000E+00 0.  1.
         -1   -1    0    0    0  501 -0.00000000000E+00 -0.00000000000E+00 -0.11115866379E+03  0.11115866379E+03  0.00000000000E+00 0. -1.
         23    2    1    2    0    0  0.35897793792E+02  0.18822843148E+02  0.45294585807E+02  0.10824736760E+03  0.89570877335E+02 0.  0.
          5    1    1    2  502    0 -0.94619817724E+01  0.30908216270E+02 -0.59694877175E+02  0.68013217046E+02  0.41800000000E+01 0.  1.
         -5    1    1    2    0  502 -0.26435812020E+02 -0.49731059418E+02  0.34548595842E+02  0.66205047411E+02  0.41800000000E+01 0.  1.
        -11    1    3    3    0    0  0.18396558654E+02  0.47315217993E+02  0.53567167745E+02  0.73801115739E+02  0.00000000000E+00 0.  1.
         11    1    3    3    0    0  0.17501235138E+02 -0.28492374845E+02 -0.82725819381E+01  0.34446251866E+02  0.00000000000E+00 0. -1.
</event>
<event>
 7    1  0.4096326E-006  0.3174653E+03  0.7561462E-02  0.1076822E+00
         -1   -1    0    0    0  501 -0.00000000000E+00  0.00000000000E+00  0.72913234793E+02  0.72913234793E+02  0.00000000000E+00 0.  1.
          1   -1    0    0  501    0  0.00000000000E+00 -0.00000000000E+00 -0.16067849432E+04  0.16067849432E+04  0.00000000000E+00 0. -1.
         23    2    1    2    0    0  0.29402247422E+03 -0.78297981835E+02 -0.10322119091E+04  0.10797892840E+04  0.88902662043E+02 0.  0.
          5    1    1    2  502    0 -0.17035543180E+03 -0.21305087928E+01 -0.34432830633E+03  0.38419391868E+03  0.41800000000E+01 0. -1.
         -5    1    1    2    0  502 -0.12366704241E+03  0.80428490627E+02 -0.15733149304E+03  0.21571497534E+03  0.41800000000E+01 0. -1.
        -11    1    3    3    0    0  0.12193978764E+03  0.12118608155E+02 -0.40941404595E+03  0.42735937277E+03  0.00000000000E+00 0. -1.
         11    1    3    3    0    0  0.17208268658E+03 -0.90416589990E+02 -0.62279786313E+03  0.65242991124E+03  0.00000000000E+00 0.  1.
</event>
<event>
 7    1  0.4096326E-006  0.1073397E+03  0.7561462E-02  0.1265577E+00
         -2   -1    0    0    0  501 -0.00000000000E+00  0.00000000000E+00  0.34605629142E+02  0.34605629142E+02  0.00000000000E+00 0.  1.
          2   -1    0    0  501    0  0.00000000000E+00 -0.00000000000E+00 -0.90314727802E+03  0.90314727802E+03  0.00000000000E+00 0. -1.
         23    2    1    2    0    0 -0.66334924439E+02  0.50581018016E+02 -0.70105421362E+03  0.71267880317E+03  0.97341175595E+02 0.  0.
          5    1    1    2  502    0  0.19426489471E+02 -0.27164650070E+01 -0.15559327955E+03  0.15688055557E+03  0.41800000000E+01 0.  1.
         -5    1    1    2    0  502  0.46908434968E+02 -0.47864553009E+02 -0.11894155703E+02  0.68193548417E+02  0.41800000000E+01 0.  1.
        -11    1    3    3    0    0  0.20451767075E+02 -0.88555044440E+01 -0.96349564274E+02  0.98893545144E+02  0.00000000000E+00 0. -1.
         11    1    3    3    0    0 -0.86786691514E+02  0.59436522460E+02 -0.60470464935E+03  0.61378525803E+03  0.00000000000E+00 0.  1.
</event>
<event>
 7    1  0.4096326E-006  0.7609178E+02  0.7561462E-02  0.1340523E+00
         -1   -1    0    0    0  501 -0.00000000000E+00  0.00000000000E+00  0.97596378578E+02  0.97596378578E+02  0.00000000000E+00 0.  1.
          1   -1    0    0  501    0  0.00000000000E+00 -0.00000000000E+00 -0.12786052333E+03  0.12786052333E+03  0.00000000000E+00 0. -1.
         23    2    1    2    0    0 -0.90892737774E+01  0.12932459349E+02 -0.34217565923E+02  0.99776881067E+02  0.92383552515E+02 0.  0.
          5    1    1    2  502    0 -0.41496827202E+02 -0.45971419668E+02  0.15611233786E+02  0.64004227317E+02  0.41800000000E+01 0. -1.
         -5    1    1    2    0  502  0.50586100980E+02  0.33038960320E+02 -0.11657812610E+02  0.61675793519E+02  0.41800000000E+01 0.  1.
        -11    1    3    3    0    0 -0.11878981253E+02 -0.38872963792E+01 -0.64135406553E+02  0.65341959280E+02  0.00000000000E+00 0. -1.
         11    1    3    3    0    0  0.27897074756E+01  0.16819755728E+02  0.29917840630E+02  0.34434921788E+02  0.00000000000E+00 0.  1.
</event>
<event>
 7    1  0.4096326E-006  0.1027945E+03  0.7561462E-02  0.1274527E+00
          2   -1    0    0  501    0  0.00000000000E+00  0.00000000000E+00  0.33158113027E+03  0.33158113027E+03  0.00000000000E+00 0. -1.
         -2   -1    0    0    0  501 -0.00000000000E+00 -0.00000000000E+00 -0.46784503289E+02  0.46784503289E+02  0.00000000000E+00 0.  1.
         23    2    1    2    0    0 -0.24207803657E+01  0.26327659050E+02  0.20754447724E+03  0.22898664174E+03  0.93065386987E+02 0.  0.
          5    1    1    2  502    0 -0.60530183122E+02 -0.80033557997E+01  0.28169219029E+02  0.67371611778E+02  0.41800000000E+01 0. -1.
         -5    1    1    2    0  502  0.62950963488E+02 -0.18324303250E+02  0.49082930711E+02  0.82007380039E+02  0.41800000000E+01 0. -1.
        -11    1    3    3    0    0 -0.37777511771E+02  0.70779347133E+01  0.16877617450E+03  0.17309718263E+03  0.00000000000E+00 0. -1.
         11    1    3    3    0    0  0.35356731405E+02  0.19249724337E+02  0.38768302744E+02  0.55889459117E+02  0.00000000000E+00 0.  1.
</event>
<event>
 7    1  0.4096326E-006  0.9307001E+02  0.7561462E-02  0.1295583E+00
          2   -1    0    0  501    0  0.00000000000E+00  0.00000000000E+00  0.67411161801E+02  0.67411161801E+02  0.00000000000E+00 0. -1.
         -2   -1    0    0    0  501 -0.00000000000E+00 -0.00000000000E+00 -0.22394432206E+03  0.22394432206E+03  0.00000000000E+00 0.  1.
         23    2    1    2    0    0  0.11974616339E+02 -0.67094156794E+01 -0.21492685355E+02  0.94661528774E+02  0.91161734357E+02 0.  0.
          5    1    1    2  502    0  0.23102296451E+02  0.49392784032E+02 -0.44893486403E+01  0.54872487341E+02  0.41800000000E+01 0. -1.
         -5    1    1    2    0  502 -0.35076912791E+02 -0.42683368352E+02 -0.13055112626E+03  0.14182146774E+03  0.41800000000E+01 0.  1.
        -11    1    3    3    0    0 -0.25464270380E+02 -0.23832816055E+02  0.16551803377E+02  0.38605626301E+02  0.00000000000E+00 0.  1.
         11    1    3    3    0    0  0.37438886719E+02  0.17123400376E+02 -0.38044488732E+02  0.56055902473E+02  0.00000000000E+00 0. -1.
</event>
<event>
 7    1  0.4096326E-006  0.8936585E+02  0.7561462E-02  0.1304395E+00
         -2   -1    0    0    0  501 -0.00000000000E+00  0.00000000000E+00  0.32603397525E+02  0.32603397525E+02  0.00000000000E+00 0. -1.
          2   -1    0    0  501    0  0.00000000000E+00 -0.00000000000E+00 -0.54944973969E+03  0.54944973969E+03  0.00000000000E+00 0.  1.
         23    2    1    2    0    0 -0.49277511259E+02 -0.55748402168E+02 -0.17230498321E+03  0.20803058438E+03  0.89730481667E+02 0.  0.
          5    1    1    2  502    0  0.53146502519E+00 -0.14408616900E+02  0.36751490236E+01  0.15455413821E+02  0.41800000000E+01 0.  1.
         -5    1    1    2    0  502  0.48746046234E+02  0.70157019068E+02 -0.34821650797E+03  0.35856713900E+03  0.41800000000E+01 0.  1.
        -11    1    3    3    0    0 -0.26457893295E+02 -0.12442365498E+02 -0.15241421580E+03  0.15519318850E+03  0.00000000000E+00 0.  1.
         11    1    3    3    0    0 -0.22819617964E+02 -0.43306036670E+02 -0.19890767405E+02  0.52837395886E+02  0.00000000000E+00 0. -1.
</event>
<event>
 7    1  0.4096326E-006  0.9970557E+02  0.7561462E-02  0.1280916E+00
          1   -1    0    0  501    0  0.00000000000E+00  0.00000000000E+00  0.27100292258E+03  0.27100292258E+03  0.00000000000E+00 0. -1.
         -1   -1    0    0    0  501 -0.00000000000E+00 -0.00000000000E+00 -0.85270352993E+02  0.85270352993E+02  0.00000000000E+00 0.  1.
         23    2    1    2    0    0  0.61406050846E+02  0.10504270247E+02  0.18799693559E+03  0.21649881501E+03  0.87451965869E+02 0.  0.
          5    1    1    2  502    0 -0.31259197933E+01  0.39345316466E+02  0.36339800653E+02  0.53813370215E+02  0.41800000000E+01 0.  1.
         -5    1    1    2    0  502 -0.58280131053E+02 -0.49849586714E+02 -0.38604166657E+02  0.85961090351E+02  0.41800000000E+01 0.  1.
        -11    1    3    3    0    0  0.47274150556E+02 -0.18410491736E+02  0.17428033177E+03  0.18151425718E+03  0.00000000000E+00 0. -1.
         11    1    3    3    0    0  0.14131900290E+02  0.28914761983E+02  0.13716603825E+02  0.34984557834E+02  0.00000000000E+00 0.  1.
</event>
<event>
 7    1  0.4096326E-006  0.1236646E+03  0.7561462E-02  0.1237171E+00
          1   -1    0    0  501    0  0.00000000000E+00  0.00000000000E+00  0.85739824142E+02  0.85739824142E+02  0.00000000000E+00 0. -1.
         -1   -1    0    0    0  501 -0.00000000000E+00 -0.00000000000E+00 -0.18253183381E+03  0.18253183381E+03  0.00000000000E+00 0.  1.
         23    2    1    2    0    0  0.52950757888E+02  0.31831061524E+02 -0.29043037942E+02  0.11320802092E+03  0.90308132026E+02 0.  0.
          5    1    1    2  502    0 -0.84084966795E+02  0.12371035906E+02 -0.44982234937E+02  0.96250704051E+02  0.41800000000E+01 0.  1.
         -5    1    1    2    0  502  0.31134208907E+02 -0.44202097430E+02 -0.22766736792E+02  0.58812932979E+02  0.41800000000E+01 0.  1.
        -11    1    3    3    0    0  0.29449123978E+02 -0.29892659052E+02 -0.25291812175E+01  0.42038300702E+02  0.00000000000E+00 0. -1.
         11    1    3    3    0    0  0.23501633910E+02  0.61723720576E+02 -0.26513856724E+02  0.71169720223E+02  0.00000000000E+00 0.  1.
</event>
<event>
 7    1  0.4096326E-006  0.1451562E+03  0.7561462E-02  0.1206555E+00
         -1   -1    0    0    0  501 -0.00000000000E+00  0.00000000000E+00  0.35687931095E+03  0.35687931095E+03  0.00000000000E+00 0.  1.
          1   -1    0    0  501    0  0.00000000000E+00 -0.00000000000E+00 -0.82678355109E+02  0.82678355109E+02  0.00000000000E+00 0. -1.
         23    2    1    2    0    0  0.65452418046E+02 -0.80275201133E+02  0.25657113037E+02  0.14265741856E+03  0.94682229991E+02 0.  0.
          5    1    1    2  502    0 -0.54650369626E+02 -0.13183370793E+02  0.15161619828E+03  0.16175725068E+03  0.41800000000E+01 0. -1.
         -5    1    1    2    0  502 -0.10802048420E+02  0.93458571926E+02  0.96927644522E+02  0.13514299682E+03  0.41800000000E+01 0. -1.
        -11    1    3    3    0    0  0.82132776026E+02 -0.31075150571E+02  0.99088805071E+01  0.88372189028E+02  0.00000000000E+00 0.  1.
         11    1    3    3    0    0 -0.16680357980E+02 -0.49200050562E+02  0.15748232530E+02  0.54285229533E+02  0.00000000000E+00 0. -1.
</event>
<event>
 7    1  0.4096326E-006  0.1132058E+03  0.7561462E-02  0.1254746E+00
         -2   -1    0    0    0  501 -0.00000000000E+00  0.00000000000E+00  0.96742642920E+02  0.96742642920E+02  0.00000000000E+00 0.  1.
          2   -1    0    0  501    0  0.00000000000E+00 -0.00000000000E+00 -0.16324709440E+03  0.16324709440E+03  0.00000000000E+00 0. -1.
         23    2    1    2    0    0 -0.32329371107E+02 -0.46485736256E+02 -0.61944658823E+02  0.12260533413E+03  0.89380172800E+02 0.  0.
          5    1    1    2  502    0  0.76276612117E+02  0.37942976569E+02 -0.23683378256E+02  0.88522120583E+02  0.41800000000E+01 0.  1.
         -5    1    1    2    0  502 -0.43947241010E+02  0.85427596875E+01  0.19123585596E+02  0.48862282606E+02  0.41800000000E+01 0.  1.
        -11    1    3    3    0    0  0.74388671357E+01 -0.54984642122E+02 -0.60245777167E+02  0.81903609689E+02  0.00000000000E+00 0. -1.
         11    1    3    3    0    0 -0.39768238242E+02  0.84989058663E+01 -0.16988816555E+01  0.40701724444E+02  0.00000000000E+00 0.  1.
</event>
<event>
 7    1  0.4096326E-006  0.1065180E+03  0.7561462E-02  0.1267157E+00
         -1   -1    0    0    0  501 -0.00000000000E+00  0.00000000000E+00  0.16595689564E+02  0.16595689564E+02  0.00000000000E+00 0.  1.
          1   -1    0    0  501    0  0.00000000000E+00 -0.00000000000E+00 -0.83766779439E+03  0.83766779439E+03  0.00000000000E+00 0. -1.
         23    2    1    2    0    0  0.13573897219E+01  0.45601774368E+02 -0.36386145932E+03  0.37807088744E+03  0.91984074812E+02 0.  0.
          5    1    1    2  502    0 -0.46556786940E+02 -0.53321051395E+02 -0.15443813899E+03  0.16993904821E+03  0.41800000000E+01 0.  1.
         -5    1    1    2    0  502  0.45199397218E+02  0.77192770276E+01 -0.30277250653E+03  0.30625354831E+03  0.41800000000E+01 0.  1.
        -11    1    3    3    0    0  0.41424009785E+02  0.36001031757E+02 -0.27067074884E+03  0.27617870510E+03  0.00000000000E+00 0. -1.
         11    1    3    3    0    0 -0.40066620063E+02  0.96007426104E+01 -0.93190710482E+02  0.10189218234E+03  0.00000000000E+00 0.  1.
</event>
<event>
 7    1  0.4096326E-006  0.6545420E+02  0.7561462E-02  0.1376271E+00
          1   -1    0    0  501    0  0.00000000000E+00  0.00000000000E+00  0.20660992178E+03  0.20660992178E+03  0.00000000000E+00 0. -1.
         -1   -1    0    0    0  501 -0.00000000000E+00 -0.00000000000E+00 -0.88748670676E+02  0.88748670676E+02  0.00000000000E+00 0.  1.
         23    2    1    2    0    0  0.82524939695E+01 -0.17914714793E+02  0.13920697735E+03  0.16693728646E+03  0.90002413331E+02 0.  0.
          5    1    1    2  502    0 -0.71512812202E+01 -0.25196501022E+02  0.43193783393E+02  0.50687077354E+02  0.41800000000E+01 0.  1.
         -5    1    1    2    0  502 -0.11012127493E+01  0.43111215815E+02 -0.64539509637E+02  0.77734228643E+02  0.41800000000E+01 0.  1.
        -11    1    3    3    0    0  0.27020321359E+02  0.87932906651E+01  0.12993148447E+03  0.13300229466E+03  0.00000000000E+00 0. -1.
         11    1    3    3    0    0 -0.18767827389E+02 -0.26708005458E+02  0.92754928740E+01  0.33934991801E+02  0.00000000000E+00 0.  1.
</event>
<event>
 7    1  0.4096326E-006  0.1496623E+03  0.7561462E-02  0.1200889E+00
          1   -1    0    0  501    0  0.00000000000E+00  0.00000000000E+00  0.23221976013E+03  0.23221976013E+03  0.00000000000E+00 0. -1.
         -1   -1    0    0    0  501 -0.00000000000E+00 -0.00000000000E+00 -0.17780078323E+03  0.17780078323E+03  0.00000000000E+00 0.  1.
         23    2    1    2    0    0  0.88254771440E+02  0.73307643363E+02  0.15437519149E+03  0.21303975435E+03  0.91604158918E+02 0.  0.
          5    1    1    2  502    0 -0.54522680631E+02 -0.96822180578E+02 -0.10784441848E+03  0.15490367443E+03  0.41800000000E+01 0. -1.
         -5    1    1    2    0  502 -0.33732090809E+02  0.23514537215E+02  0.78882038834E+01  0.42077114579E+02  0.41800000000E+01 0. -1.
        -11    1    3    3    0    0  0.87027095248E+02  0.14800499211E+02  0.94414133286E+02  0.12925478192E+03  0.00000000000E+00 0. -1.
         11    1    3    3    0    0  0.12276761920E+01  0.58507144152E+02  0.59961058201E+02  0.83784972437E+02  0.00000000000E+00 0.  1.
</event>
<event>
 7    1  0.4096326E-006  0.1399220E+03  0.7561462E-02  0.1213434E+00
         -2   -1    0    0    0  501 -0.00000000000E+00  0.00000000000E+00  0.12302980414E+03  0.12302980414E+03  0.00000000000E+00 0.  1.
          2   -1    0    0  501    0  0.00000000000E+00 -0.00000000000E+00 -0.41130377390E+03  0.41130377390E+03  0.00000000000E+00 0. -1.
         23    2    1    2    0    0 -0.39889512495E+02 -0.96607083265E+02 -0.32024692936E+03  0.34922902939E+03  0.92079951473E+02 0.  0.
          5    1    1    2  502    0  0.13362741633E+02  0.11100820260E+03 -0.30177561573E+02  0.11588589876E+03  0.41800000000E+01 0. -1.
         -5    1    1    2    0  502  0.26526770862E+02 -0.14401119334E+02  0.62150521176E+02  0.69218649892E+02  0.41800000000E+01 0.  1.
        -11    1    3    3    0    0  0.17611582778E+02 -0.73389138890E+02 -0.14747314063E+03  0.16566369778E+03  0.00000000000E+00 0. -1.
         11    1    3    3    0    0 -0.57501095273E+02 -0.23217944376E+02 -0.17277378873E+03  0.18356533161E+03  0.00000000000E+00 0.  1.
</event>
<event>
 7    1  0.4096326E-006  0.1170982E+03  0.7561462E-02  0.1247962E+00
          2   -1    0    0  501    0  0.00000000000E+00  0.00000000000E+00  0.28237059155E+03  0.28237059155E+03  0.00000000000E+00 0. -1.
         -2   -1    0    0    0  501 -0.00000000000E+00 -0.00000000000E+00 -0.82732953279E+02  0.82732953279E+02  0.00000000000E+00 0.  1.
         23    2    1    2    0    0 -0.46420509120E+02  0.95262639890E+02  0.10887172364E+03  0.17771291083E+03  0.92189979070E+02 0.  0.
          5    1    1    2  502    0  0.24357092005E+02 -0.69748472581E+01 -0.27815495523E+02  0.37856183331E+02  0.41800000000E+01 0. -1.
         -5    1    1    2    0  502  0.22063417114E+02 -0.88287792632E+02  0.11858141016E+03  0.14953445067E+03  0.41800000000E+01 0. -1.
        -11    1    3    3    0    0 -0.21814662996E+02  0.89536364274E+02  0.33229594338E+02  0.97963493143E+02  0.00000000000E+00 0.  1.
         11    1    3    3    0    0 -0.24605846123E+02  0.57262756166E+01  0.75642129299E+02  0.79749417683E+02  0.00000000000E+00 0. -1.
</event>
<event>
 7    1  0.4096326E-006  0.1077427E+03  0.7561462E-02  0.1264808E+00
         -1   -1    0    0    0  501 -0.00000000000E+00  0.00000000000E+00  0.26544090448E+02  0.26544090448E+02  0.00000000000E+00 0.  1.
          1   -1    0    0  501    0  0.00000000000E+00 -0.00000000000E+00 -0.52567120003E+03  0.52567120003E+03  0.00000000000E+00 0. -1.
         23    2    1    2    0    0 -0.64649402383E+01  0.49071472856E+02 -0.28570055785E+03  0.30408073511E+03  0.91599562274E+02 0.  0.
          5    1    1    2  502    0 -0.30277359503E+02  0.17690519661E+02 -0.20907495236E+02  0.41039843341E+02  0.41800000000E+01 0. -1.
         -5    1    1    2    0  502  0.36742299741E+02 -0.66761992517E+02 -0.19251905649E+03  0.20709471202E+03  0.41800000000E+01 0.  1.
        -11    1    3    3    0    0 -0.48546183153E+02  0.33492546133E+02 -0.15140186729E+03  0.16248386986E+03  0.00000000000E+00 0. -1.
         11    1    3    3    0    0  0.42081242915E+02  0.15578926723E+02 -0.13429869056E+03  0.14159686526E+03  0.00000000000E+00 0.  1.
</event>
<event>
 7    1  0.4096326E-006  0.1405918E+03  0.7561462E-02  0.1212535E+00
         -1   -1    0    0    0  501 -0.00000000000E+00  0.00000000000E+00  0.28938944812E+03  0.28938944812E+03  0.00000000000E+00 0.  1.
          1   -1    0    0  501    0  0.00000000000E+00 -0.00000000000E+00 -0.91485174734E+02  0.91485174734E+02  0.00000000000E+00 0. -1.
         23    2    1    2    0    0 -0.76687156251E+02  0.76936990644E+02  0.29444220485E+02  0.14459819252E+03  0.90782458093E+02 0.  0.
          5    1    1    2  502    0 -0.17977113234E+02 -0.51209912254E+02  0.10806820476E+03  0.12100347513E+03  0.41800000000E+01 0. -1.
         -5    1    1    2    0  502  0.94664269485E+02 -0.25727078390E+02  0.60391848141E+02  0.11527295520E+03  0.41800000000E+01 0. -1.
        -11    1    3    3    0    0  0.13101364826E+02  0.78761211465E+01  0.27316079899E+02  0.31302512131E+02  0.00000000000E+00 0.  1.
         11    1    3    3    0    0 -0.89788521077E+02  0.69060869497E+02  0.21281405857E+01  0.11329568039E+03  0.00000000000E+00 0. -1.
</event>
<event>
 7    1  0.4096326E-006  0.9422986E+02  0.7561462E-02  0.1292920E+00
          4   -1    0    0  501    0  0.00000000000E+00  0.00000000000E+00  0.51521876688E+03  0.51521876688E+03  0.00000000000E+00 0.  1.
         -4   -1    0    0    0  501 -0.00000000000E+00 -0.00000000000E+00 -0.24354355795E+02  0.24354355795E+02  0.00000000000E+00 0. -1.
         23    2    1    2    0    0 -0.28972356147E+02 -0.60801297747E+01  0.17516748811E+03  0.19870719300E+03  0.89019853184E+02 0.  0.
          5    1    1    2  502    0  0.23469456660E+02 -0.58447162636E+02  0.17116214171E+03  0.18243036308E+03  0.41800000000E+01 0. -1.
         -5    1    1    2    0  502  0.55028994876E+01  0.64527292411E+02  0.14453478126E+03  0.15843556660E+03  0.41800000000E+01 0. -1.
        -11    1    3    3    0    0 -0.26296883042E+02 -0.27968954771E+02  0.17223472548E+03  0.17646129647E+03  0.00000000000E+00 0.  1.
         11    1    3    3    0    0 -0.26754731053E+01  0.21888824996E+02  0.29327626289E+01  0.22245896536E+02  0.00000000000E+00 0. -1.
</event>
<event>
 7    1  0.4096326E-006  0.8279024E+02  0.7561462E-02  0.1321315E+00
         -1   -1    0    0    0  501 -0.00000000000E+00  0.00000000000E+00  0.35838208858E+03  0.35838208858E+03  0.00000000000E+00 0.  1.
          1   -1    0    0  501    0  0.00000000000E+00 -0.00000000000E+00 -0.40380397592E+02  0.40380397592E+02  0.00000000000E+00 0. -1.
         23    2    1    2    0    0 -0.40278612212E+02 -0.29485711043E+02  0.11819515684E+03  0.15780287716E+03  0.91868815056E+02 0.  0.
          5    1    1    2  502    0  0.16004868386E+02 -0.27659097252E+02  0.16802201123E+03  0.17108492081E+03  0.41800000000E+01 0.  1.
         -5    1    1    2    0  502  0.24273743826E+02  0.57144808295E+02  0.31784522915E+02  0.69874688202E+02  0.41800000000E+01 0.  1.
        -11    1    3    3    0    0 -0.15157236440E+02 -0.40836327821E+02  0.12239795464E+03  0.12991769236E+03  0.00000000000E+00 0.  1.
         11    1    3    3    0    0 -0.25121375772E+02  0.11350616778E+02 -0.42027977991E+01  0.27885184799E+02  0.00000000000E+00 0. -1.
</event>
<event>
 7    1  0.4096326E-006  0.1530950E+03  0.7561462E-02  0.1196721E+00
          1   -1    0    0  501    0  0.00000000000E+00  0.00000000000E+00  0.20616539908E+03  0.20616539908E+03  0.00000000000E+00 0. -1.
         -1   -1    0    0    0  501 -0.00000000000E+00 -0.00000000000E+00 -0.13081984539E+03  0.13081984539E+03  0.00000000000E+00 0.  1.
         23    2    1    2    0    0 -0.79809149110E+02 -0.84628044641E+02  0.89333190775E+02  0.17390375009E+03  0.93438156544E+02 0.  0.
          5    1    1    2  502    0  0.10046240291E+03  0.95469784101E+02 -0.96330643393E+01  0.13898720230E+03  0.41800000000E+01 0. -1.
         -5    1    1    2    0  502 -0.20653253801E+02 -0.10841739460E+02 -0.43545727443E+01  0.24094292081E+02  0.41800000000E+01 0.  1.
        -11    1    3    3    0    0  0.17174979857E+02 -0.38021476513E+01  0.29144200848E+02  0.34041455652E+02  0.00000000000E+00 0. -1.
         11    1    3    3    0    0 -0.96984128967E+02 -0.80825896990E+02  0.60188989928E+02  0.13986229443E+03  0.00000000000E+00 0.  1.
</event>
<event>
 7    1  0.4096326E-006  0.9681663E+02  0.7561462E-02  0.1287136E+00
         -2   -1    0    0    0  501 -0.00000000000E+00  0.00000000000E+00  0.36184371822E+02  0.36184371822E+02  0.00000000000E+00 0.  1.
          2   -1    0    0  501    0  0.00000000000E+00 -0.00000000000E+00 -0.41795813534E+03  0.41795813534E+03  0.00000000000E+00 0. -1.
         23    2    1    2    0    0 -0.94724554169E+01  0.23673375819E+02 -0.26157346081E+03  0.27879782957E+03  0.93045140852E+02 0.  0.
          5    1    1    2  502    0  0.56113673834E+02  0.13694455331E+01 -0.10656794314E+03  0.12051895567E+03  0.41800000000E+01 0. -1.
         -5    1    1    2    0  502 -0.46641218417E+02 -0.25042821353E+02 -0.13632359570E+02  0.54825721921E+02  0.41800000000E+01 0. -1.
        -11    1    3    3    0    0  0.31870515809E+02  0.28326737586E+02 -0.19994367684E+03  0.20443974111E+03  0.00000000000E+00 0. -1.
         11    1    3    3    0    0 -0.41342971226E+02 -0.46533617665E+01 -0.61629783978E+02  0.74358088455E+02  0.00000000000E+00 0.  1.
</event>
<event>
 7    1  0.4096326E-006  0.1275821E+03  0.7561462E-02  0.1231088E+00
         -1   -1    0    0    0  501 -0.00000000000E+00  0.00000000000E+00  0.38122615812E+03  0.38122615812E+03  0.00000000000E+00 0.  1.
          1   -1    0    0  501    0  0.00000000000E+00 -0.00000000000E+00 -0.60254653011E+02  0.60254653011E+02  0.00000000000E+00 0. -1.
         23    2    1    2    0    0  0.51766846327E+02  0.87924724265E+02  0.18664249654E+03  0.23147428699E+03  0.91292718810E+02 0.  0.
          5    1    1    2  502    0 -0.72316000020E+02 -0.97317070154E+02  0.14107049515E+03  0.18606067022E+03  0.41800000000E+01 0.  1.
         -5    1    1    2    0  502  0.20549153692E+02  0.93923458885E+01 -0.67414865739E+01  0.23945853921E+02  0.41800000000E+01 0.  1.
        -11    1    3    3    0    0  0.11165042216E+02  0.61320920609E+02  0.16849114294E+03  0.17965015648E+03  0.00000000000E+00 0.  1.
         11    1    3    3    0    0  0.40601804111E+02  0.26603803657E+02  0.18151353595E+02  0.51824130513E+02  0.00000000000E+00 0. -1.
</event>
<event>
 7    1  0.4096326E-006  0.8732886E+02  0.7561462E-02  0.1309452E+00
         -2   -1    0    0    0  501 -0.00000000000E+00  0.00000000000E+00  0.15124830097E+03  0.15124830097E+03  0.00000000000E+00 0.  1.
          2   -1    0    0  501    0  0.00000000000E+00 -0.00000000000E+00 -0.96227894679E+02  0.96227894679E+02  0.00000000000E+00 0. -1.
         23    2    1    2    0    0  0.81558762555E+01 -0.48128867350E+01 -0.28379284900E+02  0.96859225907E+02  0.92122981040E+02 0.  0.
          5    1    1    2  502    0 -0.44007642887E+02  0.46240269262E+02  0.20673835537E+02  0.67228825735E+02  0.41800000000E+01 0.  1.
         -5    1    1    2    0  502  0.35851766631E+02 -0.41427382527E+02  0.62725855657E+02  0.83388144011E+02  0.41800000000E+01 0.  1.
        -11    1    3    3    0    0  0.31842358863E+02 -0.30777341200E+01  0.23571570102E+02  0.39736975003E+02  0.00000000000E+00 0.  1.
         11    1    3    3    0    0 -0.23686482608E+02 -0.17351526150E+01 -0.51950855002E+02  0.57122250904E+02  0.00000000000E+00 0. -1.
</event>
<event>
 7    1  0.4096326E-006  0.8159169E+02  0.7561462E-02  0.1324594E+00
          2   -1    0    0  501    0  0.00000000000E+00  0.00000000000E+00  0.86244527664E+02  0.86244527664E+02  0.00000000000E+00 0.  1.
         -2   -1    0    0    0  501 -0.00000000000E+00 -0.00000000000E+00 -0.15512050457E+03  0.15512050457E+03  0.00000000000E+00 0. -1.
         23    2    1    2    0    0  0.12947236684E+01 -0.35602491997E+02 -0.49921427372E+01  0.96461385355E+02  0.89502310751E+02 0.  0.
          5    1    1    2  502    0 -0.47329096505E+02 -0.18854567642E+02 -0.32701066522E+01  0.51222105526E+02  0.41800000000E+01 0. -1.
         -5    1    1    2    0  502  0.46034372837E+02  0.54457059638E+02 -0.60613727520E+02  0.93681541356E+02  0.41800000000E+01 0. -1.
        -11    1    3    3    0    0  0.10062778463E+02 -0.13344696377E+02  0.41189604878E+02  0.44451366479E+02  0.00000000000E+00 0.  1.
         11    1    3    3    0    0 -0.87680547946E+01 -0.22257795620E+02 -0.46181747615E+02  0.52010018877E+02  0.00000000000E+00 0. -1.
</event>
<event>
 7    1  0.4096326E-006  0.9197393E+02  0.7561462E-02  0.1298141E+00
          2   -1    0    0  501    0  0.00000000000E+00  0.00000000000E+00  0.49524528689E+03  0.49524528689E+03  0.00000000000E+00 0.  1.
         -2   -1    0    0    0  501 -0.00000000000E+00 -0.00000000000E+00 -0.33216310032E+02  0.33216310032E+02  0.00000000000E+00 0. -1.
         23    2    1    2    0    0 -0.53575741563E+02 -0.12892521334E+02  0.29426446723E+03  0.31205701651E+03  0.88042192655E+02 0.  0.
          5    1    1    2  502    0  0.37921171509E+02 -0.30182975822E+02  0.69577149051E+01  0.49141728447E+02  0.41800000000E+01 0.  1.
         -5    1    1    2    0  502  0.15654570054E+02  0.43075497156E+02  0.16080679472E+03  0.16726285196E+03  0.41800000000E+01 0.  1.
        -11    1    3    3    0    0 -0.67596091913E+02  0.35270246146E+01  0.27471305865E+03  0.28292920693E+03  0.00000000000E+00 0.  1.
         11    1    3    3    0    0  0.14020350351E+02 -0.16419545949E+02  0.19551408586E+02  0.29127809578E+02  0.00000000000E+00 0. -1.
</event>
<event>
 7    1  0.4096326E-006  0.1633232E+03  0.7561462E-02  0.1184995E+00
         -1   -1    0    0    0  501 -0.00000000000E+00  0.00000000000E+00  0.60522691825E+02  0.60522691825E+02  0.00000000000E+00 0.  1.
          1   -1    0    0  501    0  0.00000000000E+00 -0.00000000000E+00 -0.54266259953E+03  0.54266259953E+03  0.00000000000E+00 0. -1.
         23    2    1    2    0    0  0.62367174472E+02 -0.11573575457E+03 -0.32859298108E+03  0.36546917502E+03  0.91158879651E+02 0.  0.
          5    1    1    2  502    0 -0.71984891608E+02  0.17309875866E+02 -0.10202483526E+03  0.12612690368E+03  0.41800000000E+01 0.  1.
         -5    1    1    2    0  502  0.96177171357E+01  0.98425878703E+02 -0.51522091363E+02  0.11158921265E+03  0.41800000000E+01 0.  1.
        -11    1    3    3    0    0 -0.15669306314E+01 -0.80485680542E+02 -0.22307994145E+03  0.23716041053E+03  0.00000000000E+00 0. -1.
         11    1    3    3    0    0  0.63934105104E+02 -0.35250074028E+02 -0.10551303963E+03  0.12830876449E+03  0.00000000000E+00 0.  1.
</event>
<event>
 7    1  0.4096326E-006  0.1033663E+03  0.7561462E-02  0.1273372E+00
         -1   -1    0    0    0  501 -0.00000000000E+00  0.00000000000E+00  0.25124454466E+03  0.25124454466E+03  0.00000000000E+00 0.  1.
          1   -1    0    0  501    0  0.00000000000E+00 -0.00000000000E+00 -0.66225780588E+02  0.66225780588E+02  0.00000000000E+00 0. -1.
         23    2    1    2    0    0 -0.48512816193E+02 -0.38739508762E+02  0.41704218962E+02  0.11735547397E+03  0.90436842703E+02 0.  0.
          5    1    1    2  502    0  0.51049681845E+02 -0.34079155211E+02  0.92856380773E+02  0.11138778518E+03  0.41800000000E+01 0.  1.
         -5    1    1    2    0  502 -0.25368656522E+01  0.72818663973E+02  0.50458164336E+02  0.88727066098E+02  0.41800000000E+01 0.  1.
        -11    1    3    3    0    0 -0.39895935935E+02 -0.85085290436E+01  0.66025034951E+02  0.77610476168E+02  0.00000000000E+00 0.  1.
         11    1    3    3    0    0 -0.86168802575E+01 -0.30230979719E+02 -0.24320815990E+02  0.39744997805E+02  0.00000000000E+00 0. -1.
</event>
<event>
 7    1  0.4096326E-006  0.1037205E+03  0.7561462E-02  0.1272661E+00
          1   -1    0    0  501    0  0.00000000000E+00  0.00000000000E+00  0.77616296151E+03  0.77616296151E+03  0.00000000000E+00 0. -1.
         -1   -1    0    0    0  501 -0.00000000000E+00 -0.00000000000E+00 -0.27821957173E+02  0.27821957173E+02  0.00000000000E+00 0.  1.
         23    2    1    2    0    0 -0.73250754262E+02 -0.45475458987E+02  0.47747700735E+03  0.49342252456E+03  0.89709558154E+02 0.  0.
          5    1    1    2  502    0  0.59413200039E+02  0.13464249784E+02  0.26850363829E+03  0.27535956590E+03  0.41800000000E+01 0.  1.
         -5    1    1    2    0  502  0.13837554223E+02  0.32011209203E+02  0.23603586995E+01  0.35202828220E+02  0.41800000000E+01 0.  1.
        -11    1    3    3    0    0 -0.74553837165E+02 -0.60598519800E+02  0.46146128691E+03  0.47135652595E+03  0.00000000000E+00 0. -1.
         11    1    3    3    0    0  0.13030829028E+01  0.15123060813E+02  0.16015720436E+02  0.22065998606E+02  0.00000000000E+00 0.  1.
</event>
<event>
 7    1  0.4096326E-006  0.1150118E+03  0.7561462E-02  0.1251560E+00
         -1   -1    0    0    0  501 -0.00000000000E+00  0.00000000000E+00  0.90541927205E+02  0.90541927205E+02  0.00000000000E+00 0.  1.
          1   -1    0    0  501    0  0.00000000000E+00 -0.00000000000E+00 -0.16708978561E+03  0.16708978561E+03  0.00000000000E+00 0. -1.
         23    2    1    2    0    0  0.12835105060E+02  0.44550403350E+02 -0.64427974285E+02  0.12367464954E+03  0.94841851035E+02 0.  0.
          5    1    1    2  502    0 -0.22000775493E+02 -0.83557633964E+02  0.11482538660E+02  0.87265304732E+02  0.41800000000E+01 0.  1.
         -5    1    1    2    0  502  0.91656704329E+01  0.39007230613E+02 -0.23602422776E+02  0.46691758540E+02  0.41800000000E+01 0.  1.
        -11    1    3    3    0    0 -0.19040474529E+02 -0.22207490870E+02 -0.30589652250E+02  0.42325395991E+02  0.00000000000E+00 0. -1.
         11    1    3    3    0    0  0.31875579589E+02  0.66757894220E+02 -0.33838322035E+02  0.81349253549E+02  0.00000000000E+00 0.  1.
</event>
<event>
 7    1  0.4096326E-006  0.5489189E+02  0.7561462E-02  0.1420611E+00
          1   -1    0    0  501    0  0.00000000000E+00  0.00000000000E+00  0.10550231806E+03  0.10550231806E+03  0.00000000000E+00 0. -1.
         -1   -1    0    0    0  501 -0.00000000000E+00 -0.00000000000E+00 -0.12032547320E+03  0.12032547320E+03  0.00000000000E+00 0.  1.
         23    2    1    2    0    0 -0.53664573579E+01  0.27511202492E+02  0.85825874619E+01  0.95518317226E+02  0.90908871905E+02 0.  0.
          5    1    1    2  502    0  0.10765494285E+01 -0.59295066917E+00  0.50882140609E+02  0.51068338353E+02  0.41800000000E+01 0.  1.
         -5    1    1    2    0  502  0.42899079295E+01 -0.26918251823E+02 -0.74287883218E+02  0.79241135682E+02  0.41800000000E+01 0.  1.
        -11    1    3    3    0    0 -0.28611411732E+02  0.41733610221E+02  0.31762472063E+02  0.59742461742E+02  0.00000000000E+00 0. -1.
         11    1    3    3    0    0  0.23244954374E+02 -0.14222407729E+02 -0.23179884601E+02  0.35775855484E+02  0.00000000000E+00 0.  1.
</event>
<event>
 7    1  0.4096326E-006  0.9169477E+02  0.7561462E-02  0.1298799E+00
         -2   -1    0    0    0  501 -0.00000000000E+00  0.00000000000E+00  0.75525306151E+02  0.75525306151E+02  0.00000000000E+00 0.  1.
          2   -1    0    0  501    0  0.00000000000E+00 -0.00000000000E+00 -0.23967216817E+03  0.23967216817E+03  0.00000000000E+00 0. -1.
         23    2    1    2    0    0  0.19567426500E+02  0.52699970510E+02 -0.14008135215E+03  0.17596082108E+03  0.90439229666E+02 0.  0.
          5    1    1    2  502    0 -0.11049240605E+02  0.25529078396E+02 -0.49071076731E+02  0.56562023772E+02  0.41800000000E+01 0.  1.
         -5    1    1    2    0  502 -0.85181858944E+01 -0.78229048906E+02  0.25005566864E+02  0.82674629469E+02  0.41800000000E+01 0.  1.
        -11    1    3    3    0    0 -0.79716621957E+01 -0.70654810144E+01  0.83902617479E+01  0.13559679654E+02  0.00000000000E+00 0.  1.
         11    1    3    3    0    0  0.27539088696E+02  0.59765451525E+02 -0.14847161390E+03  0.16240114143E+03  0.00000000000E+00 0. -1.
</event>
<event>
 6    1  0.4096326E-006  0.1571255E+03  0.7561462E-02  0.1191981E+00
         -1   -1    0    0    0  501 -0.00000000000E+00  0.00000000000E+00  0.33343538959E+03  0.33343538959E+03  0.00000000000E+00 0.  1.
          1   -1    0    0  501    0  0.00000000000E+00 -0.00000000000E+00 -0.10232094415E+03  0.10232094415E+03  0.00000000000E+00 0. -1.
          5    1    1    2  502    0 -0.15870222406E+02 -0.15310335166E+02  0.89170028211E+02  0.91951273255E+02  0.41800000000E+01 0.  1.
         -5    1    1    2    0  502 -0.15969544092E+02  0.11808427927E+03  0.75315434217E+02  0.14102769366E+03  0.41800000000E+01 0.  1.
        -11    1    1    2    0    0  0.82721247413E+02 -0.85179709653E+02  0.84852164433E+02  0.14593929395E+03  0.00000000000E+00 0.  1.
         11    1    1    2    0    0 -0.50881480915E+02 -0.17594234450E+02 -0.18223181424E+02  0.56838072867E+02  0.00000000000E+00 0. -1.
</event>
<event>
 7    1  0.4096326E-006  0.1210205E+03  0.7561462E-02  0.1241423E+00
         -1   -1    0    0    0  501 -0.00000000000E+00  0.00000000000E+00  0.23255001389E+03  0.23255001389E+03  0.00000000000E+00 0.  1.
          1   -1    0    0  501    0  0.00000000000E+00 -0.00000000000E+00 -0.65761656344E+02  0.65761656344E+02  0.00000000000E+00 0. -1.
         23    2    1    2    0    0  0.48124710523E+02 -0.23120424195E+02  0.46287708106E+02  0.11660142284E+03  0.92751270122E+02 0.  0.
          5    1    1    2  502    0 -0.85803691422E+02 -0.75799699515E+01  0.87225338093E+02  0.12265994216E+03  0.41800000000E+01 0. -1.
         -5    1    1    2    0  502  0.37678980899E+02  0.30700394147E+02  0.33275311348E+02  0.59050305229E+02  0.41800000000E+01 0. -1.
        -11    1    3    3    0    0  0.74781334882E+02 -0.53288499160E+01  0.32615369576E+02  0.81758222955E+02  0.00000000000E+00 0.  1.
         11    1    3    3    0    0 -0.26656624359E+02 -0.17791574279E+02  0.13672338530E+02  0.34843199888E+02  0.00000000000E+00 0. -1.
</event>
<event>
 7    1  0.4096326E-006  0.8741217E+02  0.7561462E-02  0.1309242E+00
         -2   -1    0    0    0  501 -0.00000000000E+00  0.00000000000E+00  0.34064260866E+02  0.34064260866E+02  0.00000000000E+00 0. -1.
          2   -1    0    0  501    0  0.00000000000E+00 -0.00000000000E+00 -0.47708310586E+03  0.47708310586E+03  0.00000000000E+00 0.  1.
         23    2    1    2    0    0 -0.38093984502E+02  0.18880022207E+02 -0.30490178048E+03  0.32001531914E+03  0.87390513509E+02 0.  0.
          5    1    1    2  502    0 -0.26038633715E+02  0.25558159503E+00  0.10265575658E+02  0.28300710438E+02  0.41800000000E+01 0.  1.
         -5    1    1    2    0  502  0.64132618217E+02 -0.19135603802E+02 -0.14838264017E+03  0.16283133714E+03  0.41800000000E+01 0.  1.
        -11    1    3    3    0    0 -0.30588614963E+02  0.44891060413E+02 -0.27217239089E+03  0.27754041333E+03  0.00000000000E+00 0.  1.
         11    1    3    3    0    0 -0.75053695392E+01 -0.26011038206E+02 -0.32729389591E+02  0.42474905809E+02  0.00000000000E+00 0. -1.
</event>
<event>
 7    1  0.4096326E-006  0.9356143E+02  0.7561462E-02  0.1294449E+00
          2   -1    0    0  501    0  0.00000000000E+00  0.00000000000E+00  0.22789835139E+03  0.22789835139E+03  0.00000000000E+00 0. -1.
         -2   -1    0    0    0  501 -0.00000000000E+00 -0.00000000000E+00 -0.53583033727E+02  0.53583033727E+02  0.00000000000E+00 0.  1.
         23    2    1    2    0    0 -0.20637289989E+01  0.61674057821E+01  0.10168945627E+03  0.13670033909E+03  0.91125964015E+02 0.  0.
          5    1    1    2  502    0  0.79921322075E+01  0.57661170675E+02  0.19859506549E+02  0.61648659200E+02  0.41800000000E+01 0. -1.
         -5    1    1    2    0  502 -0.59284032086E+01 -0.63828576457E+02  0.52766354846E+02  0.83132386835E+02  0.41800000000E+01 0. -1.
        -11    1    3    3    0    0 -0.32317085737E+02  0.10453394677E+02  0.10054099148E+03  0.10612331722E+03  0.00000000000E+00 0. -1.
         11    1    3    3    0    0  0.30253356738E+02 -0.42859888949E+01  0.11484647949E+01  0.30577021864E+02  0.00000000000E+00 0.  1.
</event>
<event>
 7    1  0.4096326E-006  0.9584587E+02  0.7561462E-02  0.1289282E+00
         -2   -1    0    0    0  501 -0.00000000000E+00  0.00000000000E+00  0.13094290443E+03  0.13094290443E+03  0.00000000000E+00 0.  1.
          2   -1    0    0  501    0  0.00000000000E+00 -0.00000000000E+00 -0.11838820990E+03  0.11838820990E+03  0.00000000000E+00 0. -1.
         23    2    1    2    0    0 -0.64410715678E+01 -0.12521922141E+02 -0.25300441064E+02  0.11788150568E+03  0.11427007975E+03 0.  0.
          5    1    1    2  502    0  0.29958916148E+02  0.50427955621E+02 -0.16435755322E+02  0.61058347652E+02  0.41800000000E+01 0.  1.
         -5    1    1    2    0  502 -0.23517844581E+02 -0.37906033480E+02  0.54290890922E+02  0.70391260999E+02  0.41800000000E+01 0.  1.
        -11    1    3    3    0    0  0.73938989286E+01  0.36450885265E+02  0.26188181275E+02  0.45487994201E+02  0.00000000000E+00 0.  1.
         11    1    3    3    0    0 -0.13834970496E+02 -0.48972807406E+02 -0.51488622339E+02  0.72393511479E+02  0.00000000000E+00 0. -1.
</event>
<event>
 7    1  0.4096326E-006  0.1159815E+03  0.7561462E-02  0.1249878E+00
          1   -1    0    0  501    0  0.00000000000E+00  0.00000000000E+00  0.21928917100E+03  0.21928917100E+03  0.00000000000E+00 0. -1.
         -1   -1    0    0    0  501 -0.00000000000E+00 -0.00000000000E+00 -0.85841111243E+02  0.85841111243E+02  0.00000000000E+00 0.  1.
         23    2    1    2    0    0  0.46456639341E+00  0.95205451390E+01  0.59218322167E+02  0.10971084626E+03  0.91862960461E+02 0.  0.
          5    1    1    2  502    0 -0.87820511983E+02  0.16067487339E+02  0.42135514880E+02  0.98810325819E+02  0.41800000000E+01 0. -1.
         -5    1    1    2    0  502  0.87355945589E+02 -0.25588032478E+02  0.32094222711E+02  0.96609110167E+02  0.41800000000E+01 0.  1.
        -11    1    3    3    0    0 -0.21200207953E+02  0.18379900634E+02  0.75931724702E+02  0.80949962203E+02  0.00000000000E+00 0. -1.
         11    1    3    3    0    0  0.21664774347E+02 -0.88593554954E+01 -0.16713402535E+02  0.28760884054E+02  0.00000000000E+00 0.  1.
</event>
<event>
 7    1  0.4096326E-006  0.1261624E+03  0.7561462E-02  0.1233264E+00
         -2   -1    0    0    0  501 -0.00000000000E+00  0.00000000000E+00  0.84133045202E+02  0.84133045202E+02  0.00000000000E+00 0.  1.
          2   -1    0    0  501    0  0.00000000000E+00 -0.00000000000E+00 -0.23994818888E+03  0.23994818888E+03  0.00000000000E+00 0. -1.
         23    2    1    2    0    0  0.72062325110E+02 -0.52121071529E+01 -0.13572282212E+03  0.17823207991E+03  0.90143469551E+02 0.  0.
          5    1    1    2  502    0 -0.48317577474E+02 -0.58427223883E+02 -0.47084066947E+01  0.76078711064E+02  0.41800000000E+01 0. -1.
         -5    1    1    2    0  502 -0.23744747636E+02  0.63639331036E+02 -0.15383914859E+02  0.69770443107E+02  0.41800000000E+01 0. -1.
        -11    1    3    3    0    0  0.52371448089E+02  0.35394032215E+02 -0.47263196817E+02  0.78926015132E+02  0.00000000000E+00 0.  1.
         11    1    3    3    0    0  0.19690877021E+02 -0.40606139368E+02 -0.88459625307E+02  0.99306064778E+02  0.00000000000E+00 0. -1.
</event>
<event>
 7    1  0.4096326E-006  0.1711017E+03  0.7561462E-02  0.1176704E+00
          1   -1    0    0  501    0  0.00000000000E+00  0.00000000000E+00  0.10958596733E+03  0.10958596733E+03  0.00000000000E+00 0. -1.
         -1   -1    0    0    0  501 -0.00000000000E+00 -0.00000000000E+00 -0.28455262728E+03  0.28455262728E+03  0.00000000000E+00 0.  1.
         23    2    1    2    0    0  0.12030716594E+03 -0.62561580005E+02 -0.52817501526E+02  0.17288048157E+03  0.93328489609E+02 0.  0.
          5    1    1    2  502    0 -0.11304977095E+03  0.94792274236E+02 -0.81120037703E+02  0.16841543541E+03  0.41800000000E+01 0. -1.
         -5    1    1    2    0  502 -0.72573949929E+01 -0.32230694231E+02 -0.41029120719E+02  0.52842677636E+02  0.41800000000E+01 0. -1.
        -11    1    3    3    0    0  0.10677546859E+02 -0.49810329553E+02 -0.99677446516E+00  0.50951668240E+02  0.00000000000E+00 0. -1.
         11    1    3    3    0    0  0.10962961908E+03 -0.12751250451E+02 -0.51820727061E+02  0.12192881333E+03  0.00000000000E+00 0.  1.
</event>
<event>
 7    1  0.4096326E-006  0.1577385E+03  0.7561462E-02  0.1191274E+00
         -2   -1    0    0    0  501 -0.00000000000E+00  0.00000000000E+00  0.45655493073E+03  0.45655493073E+03  0.00000000000E+00 0.  1.
          2   -1    0    0  501    0  0.00000000000E+00 -0.00000000000E+00 -0.63114151054E+02  0.63114151054E+02  0.00000000000E+00 0. -1.
         23    2    1    2    0    0 -0.71287157181E+02 -0.11116733241E+03  0.15433873462E+03  0.21924130107E+03  0.82500112239E+02 0.  0.
          5    1    1    2  502    0  0.85600610843E+02  0.19578942283E+02  0.99188277869E+02  0.13253899964E+03  0.41800000000E+01 0. -1.
         -5    1    1    2    0  502 -0.14313453662E+02  0.91588390125E+02  0.13991376719E+03  0.16788878107E+03  0.41800000000E+01 0. -1.
        -11    1    3    3    0    0 -0.60982522151E+02 -0.72410102300E+02  0.15199920534E+03  0.17906939813E+03  0.00000000000E+00 0.  1.
         11    1    3    3    0    0 -0.10304635030E+02 -0.38757230108E+02  0.23395292767E+01  0.40171902942E+02  0.00000000000E+00 0. -1.
</event>
<event>
 7    1  0.4096326E-006  0.2411679E+03  0.7561462E-02  0.1119017E+00
          2   -1    0    0  501    0  0.00000000000E+00  0.00000000000E+00  0.25982508179E+03  0.25982508179E+03  0.00000000000E+00 0. -1.
         -2   -1    0    0    0  501 -0.00000000000E+00 -0.00000000000E+00 -0.24343081445E+03  0.24343081445E+03  0.00000000000E+00 0.  1.
         23    2    1    2    0    0 -0.22174095121E+03 -0.22315641963E+02 -0.15433957619E+02  0.24571997267E+03  0.10233797242E+03 0.  0.
          5    1    1    2  502    0  0.33531175989E+01 -0.28600094662E+02  0.14697542785E+02  0.32599064039E+02  0.41800000000E+01 0. -1.
         -5    1    1    2    0  502  0.21838783361E+03  0.50915736626E+02  0.17130682171E+02  0.22493685954E+03  0.41800000000E+01 0. -1.
        -11    1    3    3    0    0 -0.11934860981E+03 -0.38253016403E+02  0.35491356149E+02  0.13025751529E+03  0.00000000000E+00 0. -1.
         11    1    3    3    0    0 -0.10239234140E+03  0.15937374440E+02 -0.50925313768E+02  0.11546245738E+03  0.00000000000E+00 0.  1.
</event>
<event>
 7    1  0.4096326E-006  0.3661132E+02  0.7561462E-02  0.1534740E+00
         -1   -1    0    0    0  501 -0.00000000000E+00  0.00000000000E+00  0.16007781918E+03  0.16007781918E+03  0.00000000000E+00 0. -1.
          1   -1    0    0  501    0  0.00000000000E+00 -0.00000000000E+00 -0.79487176860E+02  0.79487176860E+02  0.00000000000E+00 0.  1.
         23    2    1    2    0    0 -0.12869934517E+02  0.30303830073E+02  0.31211497436E+02  0.10112635140E+03  0.90379334158E+02 0.  0.
          5    1    1    2  502    0  0.79547967031E+01 -0.77219249387E+01  0.90398549623E+02  0.91171690175E+02  0.41800000000E+01 0.  1.
         -5    1    1    2    0  502  0.49151378138E+01 -0.22581905135E+02 -0.41019404742E+02  0.47266954467E+02  0.41800000000E+01 0.  1.
        -11    1    3    3    0    0 -0.14714512312E+02  0.10688113434E+02  0.61978453221E+02  0.64591650428E+02  0.00000000000E+00 0. -1.
         11    1    3    3    0    0  0.18445777949E+01  0.19615716639E+02 -0.30766955785E+02  0.36534700967E+02  0.00000000000E+00 0.  1.
</event>
<event>
 7    1  0.4096326E-006  0.1236562E+03  0.7561462E-02  0.1237184E+00
          2   -1    0    0  501    0  0.00000000000E+00  0.00000000000E+00  0.80794266478E+03  0.80794266478E+03  0.00000000000E+00 0. -1.
         -2   -1    0    0    0  501 -0.00000000000E+00 -0.00000000000E+00 -0.28853201343E+02  0.28853201343E+02  0.00000000000E+00 0.  1.
         23    2    1    2    0    0 -0.65758253848E+02 -0.37619680043E+02  0.55111566282E+03  0.56595172113E+03  0.10408404572E+03 0.  0.
          5    1    1    2  502    0  0.82316068938E+02  0.59006292464E+02  0.22017173375E+03  0.24238552452E+03  0.41800000000E+01 0. -1.
         -5    1    1    2    0  502 -0.16557815090E+02 -0.21386612420E+02  0.78020668660E+01  0.28458620465E+02  0.41800000000E+01 0. -1.
        -11    1    3    3    0    0  0.16626166723E+02  0.13676764672E+02  0.37437543227E+02  0.43186258864E+02  0.00000000000E+00 0.  1.
         11    1    3    3    0    0 -0.82384420571E+02 -0.51296444716E+02  0.51367811959E+03  0.52276546227E+03  0.00000000000E+00 0. -1.
</event>
<event>
 7    1  0.4096326E-006  0.1915657E+03  0.7561462E-02  0.1157057E+00
         -2   -1    0    0    0  501 -0.00000000000E+00  0.00000000000E+00  0.80543441620E+02  0.80543441620E+02  0.00000000000E+00 0.  1.
          2   -1    0    0  501    0  0.00000000000E+00 -0.00000000000E+00 -0.45966207358E+03  0.45966207358E+03  0.00000000000E+00 0. -1.
         23    2    1    2    0    0 -0.85974700860E+02 -0.13260469741E+03 -0.19606884287E+03  0.26793636035E+03  0.91494519455E+02 0.  0.
          5    1    1    2  502    0  0.73564503959E+02  0.66935371338E+01 -0.54840697013E+02  0.92095136305E+02  0.41800000000E+01 0. -1.
         -5    1    1    2    0  502  0.12410196900E+02  0.12591116027E+03 -0.12820909207E+03  0.18017401854E+03  0.41800000000E+01 0. -1.
        -11    1    3    3    0    0 -0.41498663237E+02 -0.13168489970E+03 -0.14539023816E+03  0.20050280100E+03  0.00000000000E+00 0. -1.
         11    1    3    3    0    0 -0.44476037623E+02 -0.91979770987E+00 -0.50678604711E+02  0.67433559345E+02  0.00000000000E+00 0.  1.
</event>
<event>
 7    1  0.4096326E-006  0.7548854E+02  0.7561462E-02  0.1342365E+00
          1   -1    0    0  501    0  0.00000000000E+00  0.00000000000E+00  0.57019439366E+02  0.57019439366E+02  0.00000000000E+00 0. -1.
         -1   -1    0    0    0  501 -0.00000000000E+00 -0.00000000000E+00 -0.21448737203E+03  0.21448737203E+03  0.00000000000E+00 0.  1.
         23    2    1    2    0    0  0.64590842640E+01 -0.45009716223E+01 -0.36186608678E+02  0.97096228034E+02  0.89756494671E+02 0.  0.
          5    1    1    2  502    0 -0.12363699685E+02  0.40801315175E+02  0.47087717442E+01  0.43095861997E+02  0.41800000000E+01 0.  1.
         -5    1    1    2    0  502  0.59046154209E+01 -0.36300343553E+02 -0.12599009573E+03  0.13131472136E+03  0.41800000000E+01 0.  1.
        -11    1    3    3    0    0 -0.26023936824E+02  0.17971436373E+02  0.12843877214E+02  0.34134776915E+02  0.00000000000E+00 0. -1.
         11    1    3    3    0    0  0.32483021088E+02 -0.22472407996E+02 -0.49030485893E+02  0.62961451119E+02  0.00000000000E+00 0.  1.
</event>
<event>
 7    1  0.4096326E-006  0.2023753E+03  0.7561462E-02  0.1147750E+00
         -2   -1    0    0    0  501 -0.00000000000E+00  0.00000000000E+00  0.35781398114E+03  0.35781398114E+03  0.00000000000E+00 0.  1.
          2   -1    0    0  501    0  0.00000000000E+00 -0.00000000000E+00 -0.14071936234E+03  0.14071936234E+03  0.00000000000E+00 0. -1.
         23    2    1    2    0    0 -0.19226832026E+03 -0.37472169767E+02  0.91057487901E+02  0.23414443452E+03  0.90337587025E+02 0.  0.
          5    1    1    2  502    0  0.68253490374E+02 -0.20739019302E+02 -0.89510719020E+01  0.72015553584E+02  0.41800000000E+01 0.  1.
         -5    1    1    2    0  502  0.12401482989E+03  0.58211189069E+02  0.13498820280E+03  0.19237335538E+03  0.41800000000E+01 0.  1.
        -11    1    3    3    0    0 -0.22180021162E+02 -0.81803047461E+01  0.52096513076E+02  0.57209417050E+02  0.00000000000E+00 0.  1.
         11    1    3    3    0    0 -0.17008829910E+03 -0.29291865021E+02  0.38960974825E+02  0.17693501747E+03  0.00000000000E+00 0. -1.
</event>
<event>
 7    1  0.4096326E-006  0.1355588E+03  0.7561462E-02  0.1219433E+00
          2   -1    0    0  501    0  0.00000000000E+00  0.00000000000E+00  0.72492366727E+03  0.72492366727E+03  0.00000000000E+00 0. -1.
         -2   -1    0    0    0  501 -0.00000000000E+00 -0.00000000000E+00 -0.41408165449E+02  0.41408165449E+02  0.00000000000E+00 0.  1.
         23    2    1    2    0    0 -0.31592589202E+02 -0.11162713446E+03  0.47304431565E+03  0.49539946273E+03  0.90504111848E+02 0.  0.
          5    1    1    2  502    0  0.23345429241E+02  0.11722075175E+03  0.89241712350E+02  0.14922221460E+03  0.41800000000E+01 0. -1.
         -5    1    1    2    0  502  0.82471599611E+01 -0.55936172965E+01  0.12122947382E+03  0.12171015539E+03  0.41800000000E+01 0. -1.
        -11    1    3    3    0    0  0.73216430088E+01  0.10351861324E+02  0.14248946051E+02  0.19073540646E+02  0.00000000000E+00 0.  1.
         11    1    3    3    0    0 -0.38914232211E+02 -0.12197899578E+03  0.45879536960E+03  0.47632592208E+03  0.00000000000E+00 0. -1.
</event>
<event>
 7    1  0.4096326E-006  0.1080718E+03  0.7561462E-02  0.1264183E+00
          3   -1    0    0  501    0  0.00000000000E+00  0.00000000000E+00  0.15088281297E+03  0.15088281297E+03  0.00000000000E+00 0. -1.
         -3   -1    0    0    0  501 -0.00000000000E+00 -0.00000000000E+00 -0.11489513518E+03  0.11489513518E+03  0.00000000000E+00 0.  1.
         23    2    1    2    0    0 -0.36893490806E+02 -0.13112033713E+02  0.82989181702E+02  0.12653263244E+03  0.87122027644E+02 0.  0.
          5    1    1    2  502    0  0.41478021273E+02 -0.51169251303E+02 -0.29778104649E+02  0.72408055105E+02  0.41800000000E+01 0.  1.
         -5    1    1    2    0  502 -0.45845304670E+01  0.64281285015E+02 -0.17223399258E+02  0.66837260602E+02  0.41800000000E+01 0.  1.
        -11    1    3    3    0    0 -0.13742065582E+02 -0.44492166278E+02  0.16408382506E+02  0.49372383404E+02  0.00000000000E+00 0.  1.
         11    1    3    3    0    0 -0.23151425223E+02  0.31380132565E+02  0.66580799196E+02  0.77160249036E+02  0.00000000000E+00 0. -1.
</event>
<event>
 7    1  0.4096326E-006  0.2798209E+03  0.7561462E-02  0.1095787E+00
         -2   -1    0    0    0  501 -0.00000000000E+00  0.00000000000E+00  0.16573852399E+03  0.16573852399E+03  0.00000000000E+00 0.  1.
          2   -1    0    0  501    0  0.00000000000E+00 -0.00000000000E+00 -0.51829185198E+03  0.51829185198E+03  0.00000000000E+00 0. -1.
         23    2    1    2    0    0 -0.88338705761E+02 -0.24652601309E+03 -0.25778446925E+03  0.37873117177E+03  0.91682418268E+02 0.  0.
          5    1    1    2  502    0  0.65653581192E+02  0.25604405343E+03 -0.79545994361E+02  0.27606880961E+03  0.41800000000E+01 0. -1.
         -5    1    1    2    0  502  0.22685124569E+02 -0.95180403358E+01 -0.15222864383E+02  0.29230394601E+02  0.41800000000E+01 0. -1.
        -11    1    3    3    0    0 -0.64247831921E+02 -0.82619310049E+02 -0.59662222479E+02  0.12047122101E+03  0.00000000000E+00 0. -1.
         11    1    3    3    0    0 -0.24090873840E+02 -0.16390670304E+03 -0.19812224677E+03  0.25825995076E+03  0.00000000000E+00 0.  1.
</event>
<event>
 7    1  0.4096326E-006  0.1412651E+03  0.7561462E-02  0.1211637E+00
         -2   -1    0    0    0  501 -0.00000000000E+00  0.00000000000E+00  0.21135022447E+02  0.21135022447E+02  0.00000000000E+00 0.  1.
          2   -1    0    0  501    0  0.00000000000E+00 -0.00000000000E+00 -0.10883599625E+04  0.10883599625E+04  0.00000000000E+00 0. -1.
         23    2    1    2    0    0 -0.11890548431E+02 -0.10033362295E+03 -0.60444797338E+03  0.61957840674E+03  0.91169230179E+02 0.  0.
          5    1    1    2  502    0  0.47008586455E+02  0.83940572588E+01 -0.26114937908E+03  0.26551221816E+03  0.41800000000E+01 0. -1.
         -5    1    1    2    0  502 -0.35118038024E+02  0.91939565693E+02 -0.20162758764E+03  0.22440436010E+03  0.41800000000E+01 0. -1.
        -11    1    3    3    0    0  0.39575270497E+02 -0.34323466233E+02 -0.23284692181E+03  0.23866711413E+03  0.00000000000E+00 0. -1.
         11    1    3    3    0    0 -0.51465818928E+02 -0.66010156719E+02 -0.37160105157E+03  0.38091129261E+03  0.00000000000E+00 0.  1.
</event>
<event>
 7    1  0.4096326E-006  0.1163034E+03  0.7561462E-02  0.1249323E+00
         -1   -1    0    0    0  501 -0.00000000000E+00  0.00000000000E+00  0.38854166177E+02  0.38854166177E+02  0.00000000000E+00 0.  1.
          1   -1    0    0  501    0  0.00000000000E+00 -0.00000000000E+00 -0.36166956947E+03  0.36166956947E+03  0.00000000000E+00 0. -1.
         23    2    1    2    0    0 -0.39719305087E+02 -0.31428590183E+02 -0.13549124322E+03  0.16964919895E+03  0.88643072129E+02 0.  0.
          5    1    1    2  502    0 -0.20284224061E+02 -0.36249404613E+02 -0.81736034491E+02  0.91780830324E+02  0.41800000000E+01 0. -1.
         -5    1    1    2    0  502  0.60003529147E+02  0.67677994796E+02 -0.10558812559E+03  0.13909370638E+03  0.41800000000E+01 0. -1.
        -11    1    3    3    0    0  0.27455141905E+02 -0.14458403101E+02 -0.28187017078E+02  0.41920617469E+02  0.00000000000E+00 0.  1.
         11    1    3    3    0    0 -0.67174446992E+02 -0.16970187083E+02 -0.10730422614E+03  0.12772858148E+03  0.00000000000E+00 0. -1.
</event>
<event>
 7    1  0.4096326E-006  0.1271510E+03  0.7561462E-02  0.1231745E+00
         -2   -1    0    0    0  501 -0.00000000000E+00  0.00000000000E+00  0.43874410729E+03  0.43874410729E+03  0.00000000000E+00 0.  1.
          2   -1    0    0  501    0  0.00000000000E+00 -0.00000000000E+00 -0.43473644798E+02  0.43473644798E+02  0.00000000000E+00 0. -1.
         23    2    1    2    0    0  0.40259831107E+02 -0.39958864864E+02  0.18023132675E+03  0.22705664863E+03  0.12591197586E+03 0.  0.
          5    1    1    2  502    0  0.17141484485E+02 -0.35050544055E+02  0.38915788699E+02  0.55265560152E+02  0.41800000000E+01 0.  1.
         -5    1    1    2    0  502 -0.57401315591E+02  0.75009408919E+02  0.17612334704E+03  0.19989554330E+03  0.41800000000E+01 0.  1.
        -11    1    3    3    0    0 -0.33548032252E+02  0.52595196153E+01  0.11141908627E+03  0.11647895003E+03  0.00000000000E+00 0.  1.
         11    1    3    3    0    0  0.73807863359E+02 -0.45218384479E+02  0.68812240474E+02  0.11057769860E+03  0.00000000000E+00 0. -1.
</event>
<event>
 7    1  0.4096326E-006  0.1167388E+03  0.7561462E-02  0.1248576E+00
         -2   -1    0    0    0  501 -0.00000000000E+00  0.00000000000E+00  0.21754804970E+02  0.21754804970E+02  0.00000000000E+00 0.  1.
          2   -1    0    0  501    0  0.00000000000E+00 -0.00000000000E+00 -0.94903468110E+03  0.94903468110E+03  0.00000000000E+00 0. -1.
         23    2    1    2    0    0 -0.51753550795E+02  0.76846480942E+02 -0.46798795701E+03  0.48583536005E+03  0.91866520086E+02 0.  0.
          5    1    1    2  502    0  0.27094795184E+02 -0.77947845396E+02 -0.45111189634E+03  0.45861684438E+03  0.41800000000E+01 0. -1.
         -5    1    1    2    0  502  0.24658755610E+02  0.11013644539E+01 -0.81800227847E+01  0.26337281649E+02  0.41800000000E+01 0. -1.
        -11    1    3    3    0    0 -0.12009861814E+02  0.84492648253E+02 -0.25118069862E+03  0.26528284481E+03  0.00000000000E+00 0.  1.
         11    1    3    3    0    0 -0.39743688981E+02 -0.76461673105E+01 -0.21680725839E+03  0.22055251524E+03  0.00000000000E+00 0. -1.
</event>
<event>
 6    1  0.4096326E-006  0.9589383E+02  0.7561462E-02  0.1289176E+00
          2   -1    0    0  501    0  0.00000000000E+00  0.00000000000E+00  0.73279565327E+03  0.73279565327E+03  0.00000000000E+00 0. -1.
         -2   -1    0    0    0  501 -0.00000000000E+00 -0.00000000000E+00 -0.22660240780E+02  0.22660240780E+02  0.00000000000E+00 0.  1.
          5    1    1    2  502    0 -0.76484766517E+01 -0.15543578126E+02  0.37277575193E+03  0.37320146790E+03  0.41800000000E+01 0. -1.
         -5    1    1    2    0  502  0.90121102924E+02  0.17214353006E+01  0.13443149091E+03  0.16190761156E+03  0.41800000000E+01 0.  1.
        -11    1    1    2    0    0 -0.71099280613E+02  0.13403055014E+02  0.15453811324E+03  0.17063639128E+03  0.00000000000E+00 0. -1.
         11    1    1    2    0    0 -0.11373345659E+02  0.41908781068E+00  0.48390056406E+02  0.49710423304E+02  0.00000000000E+00 0.  1.
</event>
<event>
 7    1  0.4096326E-006  0.1629039E+03  0.7561462E-02  0.1185457E+00
          1   -1    0    0  501    0  0.00000000000E+00  0.00000000000E+00  0.89447468962E+03  0.89447468962E+03  0.00000000000E+00 0. -1.
         -1   -1    0    0    0  501 -0.00000000000E+00 -0.00000000000E+00 -0.40603986519E+02  0.40603986519E+02  0.00000000000E+00 0.  1.
         23    2    1    2    0    0 -0.12107558608E+03  0.29451160657E+02  0.63127460881E+03  0.65096019297E+03  0.98564053795E+02 0.  0.
          5    1    1    2  502    0  0.40597672895E+02 -0.66996999072E+02  0.59849387081E+02  0.98672136204E+02  0.41800000000E+01 0.  1.
         -5    1    1    2    0  502  0.80477913187E+02  0.37545838415E+02  0.16274670721E+03  0.18544634696E+03  0.41800000000E+01 0.  1.
        -11    1    3    3    0    0 -0.45793801260E+02  0.61465417174E+02  0.28176244578E+03  0.29200196163E+03  0.00000000000E+00 0.  1.
         11    1    3    3    0    0 -0.75281784822E+02 -0.32014256517E+02  0.34951216302E+03  0.35895823134E+03  0.00000000000E+00 0. -1.
</event>
<event>
 7    1  0.4096326E-006  0.1196156E+03  0.7561462E-02  0.1243733E+00
          2   -1    0    0  501    0  0.00000000000E+00  0.00000000000E+00  0.69580269279E+02  0.69580269279E+02  0.00000000000E+00 0. -1.
         -2   -1    0    0    0  501 -0.00000000000E+00 -0.00000000000E+00 -0.39450024441E+03  0.39450024441E+03  0.00000000000E+00 0.  1.
         23    2    1    2    0    0  0.80962048419E+02  0.47973061766E+02 -0.31513645517E+02  0.13152670614E+03  0.86312783729E+02 0.  0.
          5    1    1    2  502    0 -0.86705690354E+02 -0.28103839115E+02 -0.29739687040E+03  0.31107888620E+03  0.41800000000E+01 0. -1.
         -5    1    1    2    0  502  0.57436419356E+01 -0.19869222651E+02  0.39905407845E+01  0.21474921354E+02  0.41800000000E+01 0. -1.
        -11    1    3    3    0    0  0.32803194377E+02 -0.23748747673E+02 -0.32383122281E+01  0.40626829109E+02  0.00000000000E+00 0. -1.
         11    1    3    3    0    0  0.48158854041E+02  0.71721809438E+02 -0.28275333289E+02  0.90899877031E+02  0.00000000000E+00 0.  1.
</event>
<event>
 7    1  0.4096326E-006  0.1916655E+03  0.7561462E-02  0.1156968E+00
          2   -1    0    0  501    0  0.00000000000E+00  0.00000000000E+00  0.50217427844E+02  0.50217427844E+02  0.00000000000E+00 0. -1.
         -2   -1    0    0    0  501 -0.00000000000E+00 -0.00000000000E+00 -0.98563971032E+03  0.98563971032E+03  0.00000000000E+00 0.  1.
         23    2    1    2    0    0  0.16233423350E+03 -0.84160772009E+02 -0.29921093441E+03  0.36216978875E+03  0.90577777067E+02 0.  0.
          5    1    1    2  502    0 -0.12512905350E+03  0.58353467046E+02 -0.59961016736E+03  0.61531474251E+03  0.41800000000E+01 0.  1.
         -5    1    1    2    0  502 -0.37205180003E+02  0.25807304963E+02 -0.36601180706E+02  0.58372606911E+02  0.41800000000E+01 0.  1.
        -11    1    3    3    0    0  0.11028393376E+03 -0.12256823857E+02 -0.12865085689E+03  0.16989355125E+03  0.00000000000E+00 0. -1.
         11    1    3    3    0    0  0.52050299738E+02 -0.71903948151E+02 -0.17056007752E+03  0.19227623750E+03  0.00000000000E+00 0.  1.
</event>
<event>
 7    1  0.4096326E-006  0.7296637E+02  0.7561462E-02  0.1350287E+00
         -2   -1    0    0    0  501 -0.00000000000E+00  0.00000000000E+00  0.38124633485E+02  0.38124633485E+02  0.00000000000E+00 0.  1.
          2   -1    0    0  501    0  0.00000000000E+00 -0.00000000000E+00 -0.38732460484E+03  0.38732460484E+03  0.00000000000E+00 0. -1.
         23    2    1    2    0    0 -0.42661549576E+02 -0.31255762298E+02 -0.13203367815E+03  0.16930720070E+03  0.91842830707E+02 0.  0.
          5    1    1    2  502    0  0.48131792616E+02  0.24830570531E+02 -0.23216338978E+03  0.23843350991E+03  0.41800000000E+01 0.  1.
         -5    1    1    2    0  502 -0.54702430397E+01  0.64251917671E+01  0.14997096579E+02  0.17708527719E+02  0.41800000000E+01 0.  1.
        -11    1    3    3    0    0 -0.52518806252E+01  0.18904920385E+02  0.35876405295E+01  0.19946163276E+02  0.00000000000E+00 0.  1.
         11    1    3    3    0    0 -0.37409668951E+02 -0.50160682683E+02 -0.13562131868E+03  0.14936103742E+03  0.00000000000E+00 0. -1.
</event>
<event>
 7    1  0.4096326E-006  0.1119955E+03  0.7561462E-02  0.1256919E+00
          1   -1    0    0  501    0  0.00000000000E+00  0.00000000000E+00  0.16692217331E+02  0.16692217331E+02  0.00000000000E+00 0. -1.
         -1   -1    0    0    0  501 -0.00000000000E+00 -0.00000000000E+00 -0.94909955603E+03  0.94909955603E+03  0.00000000000E+00 0.  1.
         23    2    1    2    0    0 -0.53464898349E+02  0.29605973347E+01 -0.28323233717E+03  0.30250996466E+03  0.91784864808E+02 0.  0.
          5    1    1    2  502    0  0.57821696901E+02  0.50678126386E+02 -0.28888861129E+03  0.29897445252E+03  0.41800000000E+01 0. -1.
         -5    1    1    2    0  502 -0.43567985516E+01 -0.53638723721E+02 -0.36028639023E+03  0.36430735618E+03  0.41800000000E+01 0. -1.
        -11    1    3    3    0    0  0.86561792308E+01 -0.23835692694E+02 -0.25180224339E+02  0.35736723169E+02  0.00000000000E+00 0. -1.
         11    1    3    3    0    0 -0.62121077580E+02  0.26796290029E+02 -0.25805211284E+03  0.26677324149E+03  0.00000000000E+00 0.  1.
</event>
<event>
 7    1  0.4096326E-006  0.9487022E+02  0.7561462E-02  0.1291469E+00
          1   -1    0    0  501    0  0.00000000000E+00  0.00000000000E+00  0.22196016338E+02  0.22196016338E+02  0.00000000000E+00 0. -1.
         -1   -1    0    0    0  501 -0.00000000000E+00 -0.00000000000E+00 -0.75098661744E+03  0.75098661744E+03  0.00000000000E+00 0.  1.
         23    2    1    2    0    0 -0.20056483634E+00 -0.40083778257E+02 -0.15616738520E+03  0.18569118964E+03  0.92120661109E+02 0.  0.
          5    1    1    2  502    0 -0.38449730194E+02  0.71532444778E+01 -0.56400981948E+02  0.68761135995E+02  0.41800000000E+01 0. -1.
         -5    1    1    2    0  502  0.38650295031E+02  0.32930533779E+02 -0.51622223396E+03  0.51873030815E+03  0.41800000000E+01 0. -1.
        -11    1    3    3    0    0  0.31518939246E+01 -0.69641406107E+02 -0.12084804963E+03  0.13951383795E+03  0.00000000000E+00 0. -1.
         11    1    3    3    0    0 -0.33524587610E+01  0.29557627850E+02 -0.35319335574E+02  0.46177351691E+02  0.00000000000E+00 0.  1.
</event>
<event>
 7    1  0.4096326E-006  0.1049362E+03  0.7561462E-02  0.1270245E+00
          2   -1    0    0  501    0  0.00000000000E+00  0.00000000000E+00  0.78649327224E+02  0.78649327224E+02  0.00000000000E+00 0. -1.
         -2   -1    0    0    0  501 -0.00000000000E+00 -0.00000000000E+00 -0.21605303500E+03  0.21605303500E+03  0.00000000000E+00 0.  1.
         23    2    1    2    0    0  0.22773151835E+01 -0.43258104710E+02 -0.39842663496E+00  0.10418357785E+03  0.94750247293E+02 0.  0.
          5    1    1    2  502    0 -0.63176908172E+02  0.21204986749E+02 -0.59588019975E+02  0.89494009373E+02  0.41800000000E+01 0.  1.
         -5    1    1    2    0  502  0.60899592988E+02  0.22053117961E+02 -0.77417261166E+02  0.10102477500E+03  0.41800000000E+01 0.  1.
        -11    1    3    3    0    0  0.32728415529E+02 -0.12844645264E+02 -0.34511135679E+02  0.49266140308E+02  0.00000000000E+00 0.  1.
         11    1    3    3    0    0 -0.30451100345E+02 -0.30413459447E+02  0.34112709044E+02  0.54917437541E+02  0.00000000000E+00 0. -1.
</event>
<event>
 7    1  0.4096326E-006  0.8560511E+02  0.7561462E-02  0.1313858E+00
         -2   -1    0    0    0  501 -0.00000000000E+00  0.00000000000E+00  0.80605151658E+02  0.80605151658E+02  0.00000000000E+00 0.  1.
          2   -1    0    0  501    0  0.00000000000E+00 -0.00000000000E+00 -0.22219521034E+03  0.22219521034E+03  0.00000000000E+00 0. -1.
         23    2    1    2    0    0  0.61832703889E+02 -0.46042078939E+02 -0.49282380836E+02  0.12927657168E+03  0.91326461780E+02 0.  0.
          5    1    1    2  502    0 -0.27382953149E+02  0.19878910129E+02 -0.11814314288E+03  0.12296451439E+03  0.41800000000E+01 0.  1.
         -5    1    1    2    0  502 -0.34449750740E+02  0.26163168811E+02  0.25835465035E+02  0.50559275923E+02  0.41800000000E+01 0.  1.
        -11    1    3    3    0    0  0.61729899388E+02 -0.16209697304E+02  0.83638760534E+01  0.64368386555E+02  0.00000000000E+00 0.  1.
         11    1    3    3    0    0  0.10280450127E+00 -0.29832381635E+02 -0.57646256890E+02  0.64908185125E+02  0.00000000000E+00 0. -1.
</event>
<event>
 7    1  0.4096326E-006  0.8420522E+02  0.7561462E-02  0.1317524E+00
          1   -1    0    0  501    0  0.00000000000E+00  0.00000000000E+00  0.33365428836E+02  0.33365428836E+02  0.00000000000E+00 0. -1.
         -1   -1    0    0    0  501 -0.00000000000E+00 -0.00000000000E+00 -0.40566743718E+03  0.40566743718E+03  0.00000000000E+00 0.  1.
         23    2    1    2    0    0 -0.27920931313E+02 -0.36891483692E+02 -0.14783341265E+03  0.17793174809E+03  0.87546725278E+02 0.  0.
          5    1    1    2  502    0 -0.20702428209E+02 -0.21940255703E+02 -0.79335014438E+01  0.31470274851E+02  0.41800000000E+01 0. -1.
         -5    1    1    2    0  502  0.48623359522E+02  0.58831739395E+02 -0.21653509425E+03  0.22963084308E+03  0.41800000000E+01 0. -1.
        -11    1    3    3    0    0 -0.30461456478E+02 -0.66615393244E+01 -0.14401960464E+03  0.14735644864E+03  0.00000000000E+00 0.  1.
         11    1    3    3    0    0  0.25405251649E+01 -0.30229944367E+02 -0.38138080148E+01  0.30575299445E+02  0.00000000000E+00 0. -1.
</event>
<event>
 7    1  0.4096326E-006  0.1085667E+03  0.7561462E-02  0.1263247E+00
          2   -1    0    0  501    0  0.00000000000E+00  0.00000000000E+00  0.30989876485E+03  0.30989876485E+03  0.00000000000E+00 0. -1.
         -2   -1    0    0    0  501 -0.00000000000E+00 -0.00000000000E+00 -0.77679993763E+02  0.77679993763E+02  0.00000000000E+00 0.  1.
         23    2    1    2    0    0 -0.22569287209E+02 -0.95988635066E+02  0.16616776704E+03  0.21514320232E+03  0.94613317846E+02 0.  0.
          5    1    1    2  502    0  0.25053242797E+02  0.31178881973E+02 -0.34314089549E+02  0.52865081077E+02  0.41800000000E+01 0. -1.
         -5    1    1    2    0  502 -0.24839555873E+01  0.64809753094E+02  0.10036509360E+03  0.11957047522E+03  0.41800000000E+01 0. -1.
        -11    1    3    3    0    0 -0.39351871025E+02 -0.77748114493E+02  0.59213887389E+02  0.10535475082E+03  0.00000000000E+00 0.  1.
         11    1    3    3    0    0  0.16782583816E+02 -0.18240520573E+02  0.10695387965E+03  0.10978845150E+03  0.00000000000E+00 0. -1.
</event>
<event>
 7    1  0.4096326E-006  0.2898422E+03  0.7561462E-02  0.1090432E+00
         -2   -1    0    0    0  501 -0.00000000000E+00  0.00000000000E+00  0.16077359355E+03  0.16077359355E+03  0.00000000000E+00 0.  1.
          2   -1    0    0  501    0  0.00000000000E+00 -0.00000000000E+00 -0.66933602073E+03  0.66933602073E+03  0.00000000000E+00 0. -1.
         23    2    1    2    0    0 -0.26550323716E+03 -0.79279941186E+02 -0.42364063712E+03  0.51445656973E+03  0.91743635794E+02 0.  0.
          5    1    1    2  502    0  0.16888752741E+03  0.98228993668E+00 -0.89410470142E+02  0.19114305213E+03  0.41800000000E+01 0.  1.
         -5    1    1    2    0  502  0.96615709754E+02  0.78297651249E+02  0.44886800819E+01  0.12450999241E+03  0.41800000000E+01 0.  1.
        -11    1    3    3    0    0 -0.35082252979E+02 -0.38896112087E+02 -0.43428174053E+02  0.68041739478E+02  0.00000000000E+00 0.  1.
         11    1    3    3    0    0 -0.23042098418E+03 -0.40383829099E+02 -0.38021246306E+03  0.44641483025E+03  0.00000000000E+00 0. -1.
</event>
<event>
 7    1  0.4096326E-006  0.1088256E+03  0.7561462E-02  0.1262760E+00
         -2   -1    0    0    0  501 -0.00000000000E+00  0.00000000000E+00  0.47853597072E+02  0.47853597072E+02  0.00000000000E+00 0.  1.
          2   -1    0    0  501    0  0.00000000000E+00 -0.00000000000E+00 -0.33611698072E+03  0.33611698072E+03  0.00000000000E+00 0. -1.
         23    2    1    2    0    0  0.34245352298E+02  0.49886034845E+02 -0.91925005285E+02  0.14343608301E+03  0.91990992411E+02 0.  0.
          5    1    1    2  502    0  0.25087734824E+02 -0.64350970354E+02 -0.62005138853E+02  0.92911524949E+02  0.41800000000E+01 0. -1.
         -5    1    1    2    0  502 -0.59333087122E+02  0.14464935509E+02 -0.13433323951E+03  0.14762296984E+03  0.41800000000E+01 0. -1.
        -11    1    3    3    0    0  0.43026304052E+02  0.71530890739E+01 -0.22057464865E+01  0.43672586839E+02  0.00000000000E+00 0.  1.
         11    1    3    3    0    0 -0.87809517540E+01  0.42732945771E+02 -0.89719258798E+02  0.99763496166E+02  0.00000000000E+00 0. -1.
</event>
<event>
 7    1  0.4096326E-006  0.8932056E+02  0.7561462E-02  0.1304505E+00
         -2   -1    0    0    0  501 -0.00000000000E+00  0.00000000000E+00  0.34395187876E+03  0.34395187876E+03  0.00000000000E+00 0.  1.
          2   -1    0    0  501    0  0.00000000000E+00 -0.00000000000E+00 -0.40632035008E+02  0.40632035008E+02  0.00000000000E+00 0. -1.
         23    2    1    2    0    0 -0.19700500358E+01 -0.48685430728E+02  0.12299278285E+03  0.15977342984E+03  0.89588905487E+02 0.  0.
          5    1    1    2  502    0 -0.54289914756E+02  0.48903426559E+02  0.13011452151E+03  0.14928563588E+03  0.41800000000E+01 0.  1.
         -5    1    1    2    0  502  0.56259964792E+02 -0.21799583150E+00  0.50212539398E+02  0.75524848053E+02  0.41800000000E+01 0.  1.
        -11    1    3    3    0    0 -0.33649189059E+01 -0.17442678725E+02 -0.11848380266E+02  0.21353075545E+02  0.00000000000E+00 0. -1.
         11    1    3    3    0    0  0.13948688701E+01 -0.31242752003E+02  0.13484116311E+03  0.13842035429E+03  0.00000000000E+00 0.  1.
</event>
<event>
 7    1  0.4096326E-006  0.1927305E+03  0.7561462E-02  0.1156021E+00
          2   -1    0    0  501    0  0.00000000000E+00  0.00000000000E+00  0.59660871542E+03  0.59660871542E+03  0.00000000000E+00 0. -1.
         -2   -1    0    0    0  501 -0.00000000000E+00 -0.00000000000E+00 -0.73886924504E+02  0.73886924504E+02  0.00000000000E+00 0.  1.
         23    2    1    2    0    0  0.17454329829E+03  0.14479280270E+02  0.19007618646E+03  0.27429509617E+03  0.91835889444E+02 0.  0.
          5    1    1    2  502    0 -0.13436819592E+03 -0.40608801011E+02  0.14252018120E+03  0.20008338573E+03  0.41800000000E+01 0.  1.
         -5    1    1    2    0  502 -0.40175102372E+02  0.26129520742E+02  0.19012542325E+03  0.19611715803E+03  0.41800000000E+01 0.  1.
        -11    1    3    3    0    0  0.16164981592E+03  0.41578338472E+02  0.15144816017E+03  0.22537960519E+03  0.00000000000E+00 0. -1.
         11    1    3    3    0    0  0.12893482374E+02 -0.27099058202E+02  0.38628026293E+02  0.48915490987E+02  0.00000000000E+00 0.  1.
</event>
<event>
 7    1  0.4129015E-006  0.1309940E+03  0.7561462E-02  0.1225988E+00
          2   -1    0    0  501    0  0.00000000000E+00  0.00000000000E+00  0.34791914589E+03  0.34791914589E+03  0.00000000000E+00 0. -1.
         -2   -1    0    0    0  501 -0.00000000000E+00 -0.00000000000E+00 -0.80421419988E+02  0.80421419988E+02  0.00000000000E+00 0.  1.
         23    2    1    2    0    0  0.12488004562E+03 -0.14101807585E+02  0.14585821439E+03  0.21331225335E+03  0.91834699066E+02 0.  0.
          5    1    1    2  502    0 -0.11219116714E+03  0.10486955613E+02  0.22567049311E+02  0.11499381869E+03  0.41800000000E+01 0.  1.
         -5    1    1    2    0  502 -0.12688878479E+02  0.36148519721E+01  0.99072462200E+02  0.10003449384E+03  0.41800000000E+01 0.  1.
        -11    1    3    3    0    0  0.59852087750E+02  0.18501981680E+02  0.12132264850E+03  0.13654223073E+03  0.00000000000E+00 0.  1.
         11    1    3    3    0    0  0.65027957868E+02 -0.32603789265E+02  0.24535565891E+02  0.76770022616E+02  0.00000000000E+00 0. -1.
</event>
<event>
 7    1  0.4096326E-006  0.1126972E+03  0.7561462E-02  0.1255655E+00
         -2   -1    0    0    0  501 -0.00000000000E+00  0.00000000000E+00  0.71080756204E+02  0.71080756204E+02  0.00000000000E+00 0. -1.
          2   -1    0    0  501    0  0.00000000000E+00 -0.00000000000E+00 -0.28332464215E+03  0.28332464215E+03  0.00000000000E+00 0.  1.
         23    2    1    2    0    0  0.42753236111E+02  0.79101109716E+02 -0.11425335325E+03  0.17182430619E+03  0.91569310968E+02 0.  0.
          5    1    1    2  502    0  0.95932041431E+01 -0.48892184023E+02  0.16831907316E+02  0.52756617861E+02  0.41800000000E+01 0.  1.
         -5    1    1    2    0  502 -0.52346440254E+02 -0.30208925693E+02 -0.11482244001E+03  0.12982447431E+03  0.41800000000E+01 0.  1.
        -11    1    3    3    0    0  0.60515671156E+02  0.41950371908E+02 -0.32914257200E+02  0.80655616579E+02  0.00000000000E+00 0. -1.
         11    1    3    3    0    0 -0.17762435045E+02  0.37150737808E+02 -0.81339096050E+02  0.91168689607E+02  0.00000000000E+00 0.  1.
</event>
<event>
 7    1  0.4096326E-006  0.3131853E+03  0.7561462E-02  0.1078829E+00
         -2   -1    0    0    0  501 -0.00000000000E+00  0.00000000000E+00  0.29631182473E+03  0.29631182473E+03  0.00000000000E+00 0. -1.
          2   -1    0    0  501    0  0.00000000000E+00 -0.00000000000E+00 -0.36599147413E+03  0.36599147413E+03  0.00000000000E+00 0.  1.
         23    2    1    2    0    0 -0.20300828562E+03  0.23507215711E+03 -0.44026804751E+02  0.32648015256E+03  0.90441403115E+02 0.  0.
          5    1    1    2  502    0  0.58910349199E+02 -0.46879763402E+02 -0.59901554665E+02  0.96300623625E+02  0.41800000000E+01 0. -1.
         -5    1    1    2    0  502  0.14409793642E+03 -0.18819239371E+03  0.34248710012E+02  0.23952252268E+03  0.41800000000E+01 0. -1.
        -11    1    3    3    0    0 -0.16042261814E+03  0.15424335070E+03  0.53902705116E+01  0.22261060770E+03  0.00000000000E+00 0.  1.
         11    1    3    3    0    0 -0.42585667482E+02  0.80828806411E+02 -0.49417075263E+02  0.10386954485E+03  0.00000000000E+00 0. -1.
</event>
<event>
 7    1  0.4096326E-006  0.2726121E+03  0.7561462E-02  0.1099794E+00
         -2   -1    0    0    0  501 -0.00000000000E+00  0.00000000000E+00  0.49251521667E+03  0.49251521667E+03  0.00000000000E+00 0.  1.
          2   -1    0    0  501    0  0.00000000000E+00 -0.00000000000E+00 -0.15467763747E+03  0.15467763747E+03  0.00000000000E+00 0. -1.
         23    2    1    2    0    0  0.90121873497E+02 -0.23414257083E+03  0.12223360985E+03  0.29353163139E+03  0.90967399052E+02 0.  0.
          5    1    1    2  502    0 -0.24627168068E+02  0.20534008664E+03  0.17705814601E+03  0.27228313951E+03  0.41800000000E+01 0.  1.
         -5    1    1    2    0  502 -0.65494705429E+02  0.28802484190E+02  0.38545823342E+02  0.81378083241E+02  0.41800000000E+01 0.  1.
        -11    1    3    3    0    0  0.22171843171E+02 -0.17564465786E+03  0.76163412564E+02  0.19272649500E+03  0.00000000000E+00 0.  1.
         11    1    3    3    0    0  0.67950030326E+02 -0.58497912979E+02  0.46070197285E+02  0.10080513639E+03  0.00000000000E+00 0. -1.
</event>
<event>
 7    1  0.4096326E-006  0.8854768E+02  0.7561462E-02  0.1306407E+00
          2   -1    0    0  501    0  0.00000000000E+00  0.00000000000E+00  0.31285215970E+03  0.31285215970E+03  0.00000000000E+00 0. -1.
         -2   -1    0    0    0  501 -0.00000000000E+00 -0.00000000000E+00 -0.46262631147E+02  0.46262631147E+02  0.00000000000E+00 0.  1.
         23    2    1    2    0    0 -0.35048749850E+02  0.31878967030E+02  0.12552219376E+03  0.16471322330E+03  0.95550726830E+02 0.  0.
          5    1    1    2  502    0 -0.22478518611E+02 -0.29799074175E+02  0.13040786221E+03  0.13570906951E+03  0.41800000000E+01 0.  1.
         -5    1    1    2    0  502  0.57527268461E+02 -0.20798928552E+01  0.10659472586E+02  0.58692498044E+02  0.41800000000E+01 0.  1.
        -11    1    3    3    0    0 -0.40014199394E+02 -0.86903767293E+01  0.99668602872E+01  0.42142580661E+02  0.00000000000E+00 0.  1.
         11    1    3    3    0    0  0.49654495434E+01  0.40569343760E+02  0.11555533347E+03  0.12257064264E+03  0.00000000000E+00 0. -1.
</event>
<event>
 7    1  0.4096326E-006  0.1043536E+03  0.7561462E-02  0.1271398E+00
          1   -1    0    0  501    0  0.00000000000E+00  0.00000000000E+00  0.12539314061E+03  0.12539314061E+03  0.00000000000E+00 0. -1.
         -1   -1    0    0    0  501 -0.00000000000E+00 -0.00000000000E+00 -0.13944031873E+03  0.13944031873E+03  0.00000000000E+00 0.  1.
         23    2    1    2    0    0 -0.72511559909E+02 -0.13295516002E+02 -0.19550619829E+02  0.11953213855E+03  0.92038080944E+02 0.  0.
          5    1    1    2  502    0  0.95914941492E+02 -0.10074194205E+02 -0.25427070047E+02  0.99825716534E+02  0.41800000000E+01 0.  1.
         -5    1    1    2    0  502 -0.23403381583E+02  0.23369710207E+02  0.30930511759E+02  0.45475604255E+02  0.41800000000E+01 0.  1.
        -11    1    3    3    0    0 -0.29132755453E+02 -0.19443478968E+02 -0.53610608547E+02  0.64037986098E+02  0.00000000000E+00 0.  1.
         11    1    3    3    0    0 -0.43378804456E+02  0.61479629660E+01  0.34059988718E+02  0.55494152450E+02  0.00000000000E+00 0. -1.
</event>
<event>
 7    1  0.4096326E-006  0.1005862E+03  0.7561462E-02  0.1279068E+00
         -1   -1    0    0    0  501 -0.00000000000E+00  0.00000000000E+00  0.30602215164E+02  0.30602215164E+02  0.00000000000E+00 0.  1.
          1   -1    0    0  501    0  0.00000000000E+00 -0.00000000000E+00 -0.44130215927E+03  0.44130215927E+03  0.00000000000E+00 0. -1.
         23    2    1    2    0    0 -0.11208322476E+01 -0.56062540909E+01 -0.25830934359E+03  0.27466455746E+03  0.93189139858E+02 0.  0.
          5    1    1    2  502    0 -0.22344916545E+01  0.65167506725E+02 -0.76023824149E+02  0.10024415756E+03  0.41800000000E+01 0.  1.
         -5    1    1    2    0  502  0.33553239022E+01 -0.59561252634E+02 -0.76366776363E+02  0.96995659418E+02  0.41800000000E+01 0.  1.
        -11    1    3    3    0    0  0.35016136501E+02  0.10370477746E+02 -0.46120291743E+02  0.58828206964E+02  0.00000000000E+00 0.  1.
         11    1    3    3    0    0 -0.36136968748E+02 -0.15976731837E+02 -0.21218905185E+03  0.21583635049E+03  0.00000000000E+00 0. -1.
</event>
<event>
 7    1  0.4096326E-006  0.1132396E+03  0.7561462E-02  0.1254686E+00
          4   -1    0    0  501    0  0.00000000000E+00  0.00000000000E+00  0.36007530875E+02  0.36007530875E+02  0.00000000000E+00 0.  1.
         -4   -1    0    0    0  501 -0.00000000000E+00 -0.00000000000E+00 -0.50897838322E+03  0.50897838322E+03  0.00000000000E+00 0. -1.
         23    2    1    2    0    0  0.57915453204E+02 -0.55040278616E+02 -0.24218553563E+03  0.27059098350E+03  0.90454489645E+02 0.  0.
          5    1    1    2  502    0 -0.14342672923E+02 -0.39251286963E+02 -0.45364336011E+02  0.61820475383E+02  0.41800000000E+01 0. -1.
         -5    1    1    2    0  502 -0.43572780282E+02  0.94291565578E+02 -0.18542098071E+03  0.21257445521E+03  0.41800000000E+01 0. -1.
        -11    1    3    3    0    0  0.26849908250E+02 -0.18724091663E+02 -0.11023040669E+02  0.34540072485E+02  0.00000000000E+00 0.  1.
         11    1    3    3    0    0  0.31065544954E+02 -0.36316186953E+02 -0.23116249496E+03  0.23605091102E+03  0.00000000000E+00 0. -1.
</event>
<event>
 7    1  0.4096326E-006  0.7942794E+02  0.7561462E-02  0.1330683E+00
         -3   -1    0    0    0  501 -0.00000000000E+00  0.00000000000E+00  0.28214491955E+03  0.28214491955E+03  0.00000000000E+00 0.  1.
          3   -1    0    0  501    0  0.00000000000E+00 -0.00000000000E+00 -0.41642044162E+02  0.41642044162E+02  0.00000000000E+00 0. -1.
         23    2    1    2    0    0  0.66885519907E+01 -0.31657873750E+01  0.10564991938E+03  0.13970259911E+03  0.91105168880E+02 0.  0.
          5    1    1    2  502    0  0.51111100776E+02 -0.10610891935E+02  0.22661850205E+02  0.57061085732E+02  0.41800000000E+01 0.  1.
         -5    1    1    2    0  502 -0.57799652766E+02  0.13776679310E+02  0.11219110580E+03  0.12702327887E+03  0.41800000000E+01 0.  1.
        -11    1    3    3    0    0  0.56539106626E+01 -0.24712318690E+02  0.11384020099E+03  0.11662871329E+03  0.00000000000E+00 0.  1.
         11    1    3    3    0    0  0.10346413281E+01  0.21546531315E+02 -0.81902816103E+01  0.23073885829E+02  0.00000000000E+00 0. -1.
</event>
<event>
 7    1  0.4096326E-006  0.8244886E+02  0.7561462E-02  0.1322242E+00
          2   -1    0    0  501    0  0.00000000000E+00  0.00000000000E+00  0.17483441194E+03  0.17483441194E+03  0.00000000000E+00 0.  1.
         -2   -1    0    0    0  501 -0.00000000000E+00 -0.00000000000E+00 -0.90081721454E+02  0.90081721454E+02  0.00000000000E+00 0. -1.
         23    2    1    2    0    0 -0.51372017744E+02  0.29923964951E+02  0.60799239141E+02  0.12436360603E+03  0.90748174304E+02 0.  0.
          5    1    1    2  502    0  0.37830278821E+02  0.13511856679E+02 -0.43322606355E+02  0.59228547914E+02  0.41800000000E+01 0.  1.
         -5    1    1    2    0  502  0.13541738923E+02 -0.43435821629E+02  0.67276057701E+02  0.81323979449E+02  0.41800000000E+01 0.  1.
        -11    1    3    3    0    0  0.10684843630E+02  0.63981377186E+01 -0.17653847887E+02  0.21604638272E+02  0.00000000000E+00 0. -1.
         11    1    3    3    0    0 -0.62056861374E+02  0.23525827232E+02  0.78453087028E+02  0.10275896776E+03  0.00000000000E+00 0.  1.
</event>
<event>
 7    1  0.4096326E-006  0.1308829E+03  0.7561462E-02  0.1226152E+00
          3   -1    0    0  501    0  0.00000000000E+00  0.00000000000E+00  0.24742248214E+03  0.24742248214E+03  0.00000000000E+00 0. -1.
         -3   -1    0    0    0  501 -0.00000000000E+00 -0.00000000000E+00 -0.69862719510E+02  0.69862719510E+02  0.00000000000E+00 0.  1.
         23    2    1    2    0    0  0.51145643128E+02 -0.45510276901E+02  0.93198743138E+02  0.15158370364E+03  0.98002813078E+02 0.  0.
          5    1    1    2  502    0  0.41529700368E+02  0.19241811776E+02  0.22780762611E+02  0.51297162477E+02  0.41800000000E+01 0. -1.
         -5    1    1    2    0  502 -0.92675343496E+02  0.26268465125E+02  0.61580256882E+02  0.11440433554E+03  0.41800000000E+01 0. -1.
        -11    1    3    3    0    0 -0.64518548848E+01 -0.59716459018E+02  0.50807143502E+02  0.78670501078E+02  0.00000000000E+00 0.  1.
         11    1    3    3    0    0  0.57597498013E+02  0.14206182117E+02  0.42391599636E+02  0.72913202559E+02  0.00000000000E+00 0. -1.
</event>
<event>
 7    1  0.4096326E-006  0.6284484E+02  0.7561462E-02  0.1386267E+00
          3   -1    0    0  501    0  0.00000000000E+00  0.00000000000E+00  0.45949203237E+03  0.45949203237E+03  0.00000000000E+00 0. -1.
         -3   -1    0    0    0  501 -0.00000000000E+00 -0.00000000000E+00 -0.30309577585E+02  0.30309577585E+02  0.00000000000E+00 0.  1.
         23    2    1    2    0    0  0.27751055345E+02 -0.30679661840E+02  0.22850494947E+03  0.24974387321E+03  0.91902815804E+02 0.  0.
          5    1    1    2  502    0 -0.44048394327E+01  0.11595188203E+02 -0.16328366491E+02  0.20926990997E+02  0.41800000000E+01 0.  1.
         -5    1    1    2    0  502 -0.23346215912E+02  0.19084473637E+02  0.21700587182E+03  0.21913074575E+03  0.41800000000E+01 0.  1.
        -11    1    3    3    0    0  0.42122001170E+02  0.62015973882E+01  0.44725860568E+02  0.61750509279E+02  0.00000000000E+00 0.  1.
         11    1    3    3    0    0 -0.14370945825E+02 -0.36881259228E+02  0.18377908890E+03  0.18799336393E+03  0.00000000000E+00 0. -1.
</event>
<event>
 7    1  0.9270397E-006  0.3717988E+03  0.7561462E-02  0.1054007E+00
         -2   -1    0    0    0  501 -0.00000000000E+00  0.00000000000E+00  0.91878094324E+02  0.91878094324E+02  0.00000000000E+00 0.  1.
          2   -1    0    0  501    0  0.00000000000E+00 -0.00000000000E+00 -0.17835106834E+04  0.17835106834E+04  0.00000000000E+00 0. -1.
         23    2    1    2    0    0 -0.29979628433E+03 -0.21222022575E+03 -0.11382811261E+04  0.11995479987E+04  0.91193435723E+02 0.  0.
          5    1    1    2  502    0  0.13990919632E+03  0.85281662386E+02 -0.14310634990E+03  0.21758778673E+03  0.41800000000E+01 0. -1.
         -5    1    1    2    0  502  0.15988708802E+03  0.12693856337E+03 -0.41024511302E+03  0.45825299229E+03  0.41800000000E+01 0. -1.
        -11    1    3    3    0    0 -0.13138459590E+03 -0.14077254051E+03 -0.50864741182E+03  0.54387591393E+03  0.00000000000E+00 0.  1.
         11    1    3    3    0    0 -0.16841168843E+03 -0.71447685243E+02 -0.62963371432E+03  0.65567208476E+03  0.00000000000E+00 0. -1.
</event>
<event>
 7    1  0.4096326E-006  0.1025026E+03  0.7561462E-02  0.1275120E+00
         -2   -1    0    0    0  501 -0.00000000000E+00  0.00000000000E+00  0.13453660220E+03  0.13453660220E+03  0.00000000000E+00 0.  1.
          2   -1    0    0  501    0  0.00000000000E+00 -0.00000000000E+00 -0.11125252303E+03  0.11125252303E+03  0.00000000000E+00 0. -1.
         23    2    1    2    0    0  0.41377391085E+02 -0.17441296893E+02 -0.22552483431E+02  0.10519959222E+03  0.92423224164E+02 0.  0.
          5    1    1    2  502    0 -0.65030115681E+02 -0.26085966121E+02  0.56064466637E+02  0.89833681842E+02  0.41800000000E+01 0.  1.
         -5    1    1    2    0  502  0.23652724596E+02  0.43527263014E+02 -0.10227904041E+02  0.50755851164E+02  0.41800000000E+01 0.  1.
        -11    1    3    3    0    0  0.61389880960E+02 -0.20776652888E+02  0.11246391817E+02  0.65778933698E+02  0.00000000000E+00 0.  1.
         11    1    3    3    0    0 -0.20012489875E+02  0.33353559954E+01 -0.33798875249E+02  0.39420658527E+02  0.00000000000E+00 0. -1.
</event>
<event>
 7    1  0.4096326E-006  0.1265547E+03  0.7561462E-02  0.1232659E+00
          1   -1    0    0  501    0  0.00000000000E+00  0.00000000000E+00  0.60834226499E+03  0.60834226499E+03  0.00000000000E+00 0. -1.
         -1   -1    0    0    0  501 -0.00000000000E+00 -0.00000000000E+00 -0.33432200890E+02  0.33432200890E+02  0.00000000000E+00 0.  1.
         23    2    1    2    0    0 -0.60458968004E+02  0.43103437686E+02  0.38796252675E+03  0.40489880252E+03  0.88965864047E+02 0.  0.
          5    1    1    2  502    0  0.98431164054E+02 -0.40228453976E+02  0.14756437084E+03  0.18193333534E+03  0.41800000000E+01 0. -1.
         -5    1    1    2    0  502 -0.37972196051E+02 -0.28749837094E+01  0.39383166513E+02  0.54942328025E+02  0.41800000000E+01 0. -1.
        -11    1    3    3    0    0 -0.59347821301E+02  0.64101043876E+02  0.35657060163E+03  0.36711537923E+03  0.00000000000E+00 0. -1.
         11    1    3    3    0    0 -0.11111467030E+01 -0.20997606190E+02  0.31391925118E+02  0.37783423288E+02  0.00000000000E+00 0.  1.
</event>
<event>
 7    1  0.4096326E-006  0.9574789E+02  0.7561462E-02  0.1289500E+00
         -2   -1    0    0    0  501 -0.00000000000E+00  0.00000000000E+00  0.67455975387E+03  0.67455975387E+03  0.00000000000E+00 0.  1.
          2   -1    0    0  501    0  0.00000000000E+00 -0.00000000000E+00 -0.19757624697E+02  0.19757624697E+02  0.00000000000E+00 0. -1.
         23    2    1    2    0    0 -0.23651413393E+02  0.13010597915E+02  0.22546462538E+03  0.24426643502E+03  0.90017381468E+02 0.  0.
          5    1    1    2  502    0 -0.82662026266E+01 -0.57724518048E+02  0.97607461328E+02  0.11377670674E+03  0.41800000000E+01 0. -1.
         -5    1    1    2    0  502  0.31917616020E+02  0.44713920133E+02  0.33173004247E+03  0.33627423681E+03  0.41800000000E+01 0.  1.
        -11    1    3    3    0    0 -0.47986996808E+02  0.20919389259E+02  0.73933172161E+02  0.90589660864E+02  0.00000000000E+00 0. -1.
         11    1    3    3    0    0  0.24335583415E+02 -0.79087913442E+01  0.15153145321E+03  0.15367677415E+03  0.00000000000E+00 0.  1.
</event>
<event>
 7    1  0.4096326E-006  0.9573907E+02  0.7561462E-02  0.1289520E+00
          2   -1    0    0  501    0  0.00000000000E+00  0.00000000000E+00  0.16965557345E+03  0.16965557345E+03  0.00000000000E+00 0. -1.
         -2   -1    0    0    0  501 -0.00000000000E+00 -0.00000000000E+00 -0.76732307147E+02  0.76732307147E+02  0.00000000000E+00 0.  1.
         23    2    1    2    0    0 -0.11588415618E+02  0.16616553678E+02  0.62565392761E+02  0.11609255582E+03  0.95669493119E+02 0.  0.
          5    1    1    2  502    0 -0.34478486666E+02  0.17069643337E+02  0.55608934796E+02  0.67749278931E+02  0.41800000000E+01 0. -1.
         -5    1    1    2    0  502  0.46066902284E+02 -0.33686197015E+02 -0.25251061258E+02  0.62546045839E+02  0.41800000000E+01 0. -1.
        -11    1    3    3    0    0 -0.42542289889E+02  0.38717325942E+02  0.25285724381E+02  0.62835066758E+02  0.00000000000E+00 0.  1.
         11    1    3    3    0    0  0.30953874270E+02 -0.22100772263E+02  0.37279668380E+02  0.53257489065E+02  0.00000000000E+00 0. -1.
</event>
<event>
 7    1  0.4096326E-006  0.9247811E+02  0.7561462E-02  0.1296959E+00
          1   -1    0    0  501    0  0.00000000000E+00  0.00000000000E+00  0.31736706433E+03  0.31736706433E+03  0.00000000000E+00 0. -1.
         -1   -1    0    0    0  501 -0.00000000000E+00 -0.00000000000E+00 -0.40361208262E+02  0.40361208262E+02  0.00000000000E+00 0.  1.
         23    2    1    2    0    0 -0.31345853864E+01 -0.26293578273E+02  0.13395178917E+03  0.16586178744E+03  0.94158763946E+02 0.  0.
          5    1    1    2  502    0  0.11219791221E+01  0.58057190355E+02  0.15375480425E+02  0.60214400167E+02  0.41800000000E+01 0. -1.
         -5    1    1    2    0  502  0.20126062643E+01 -0.31763612083E+02  0.12767858647E+03  0.13165208498E+03  0.41800000000E+01 0. -1.
        -11    1    3    3    0    0 -0.43293142107E+02  0.51975006711E+01  0.82948244303E+02  0.93710839286E+02  0.00000000000E+00 0.  1.
         11    1    3    3    0    0  0.40158556721E+02 -0.31491078944E+02  0.51003544869E+02  0.72150948158E+02  0.00000000000E+00 0. -1.
</event>
<event>
 7    1  0.4096326E-006  0.1377733E+03  0.7561462E-02  0.1216357E+00
         -2   -1    0    0    0  501 -0.00000000000E+00  0.00000000000E+00  0.16486680612E+03  0.16486680612E+03  0.00000000000E+00 0.  1.
          2   -1    0    0  501    0  0.00000000000E+00 -0.00000000000E+00 -0.15169783685E+03  0.15169783685E+03  0.00000000000E+00 0. -1.
         23    2    1    2    0    0  0.10714207314E+03 -0.36708631623E+02 -0.23740995469E+02  0.14383212818E+03  0.85423057528E+02 0.  0.
          5    1    1    2  502    0  0.58788406289E+01  0.31609562013E+02  0.49127858084E+02  0.58862076226E+02  0.41800000000E+01 0. -1.
         -5    1    1    2    0  502 -0.11302091377E+03  0.50990696093E+01 -0.12217893351E+02  0.11387043856E+03  0.41800000000E+01 0. -1.
        -11    1    3    3    0    0  0.57676283845E+02 -0.52493671695E+02  0.14528147771E+02  0.79329731903E+02  0.00000000000E+00 0.  1.
         11    1    3    3    0    0  0.49465789298E+02  0.15785040072E+02 -0.38269143239E+02  0.64502396275E+02  0.00000000000E+00 0. -1.
</event>
<event>
 7    1  0.4096326E-006  0.1232343E+03  0.7561462E-02  0.1237855E+00
          2   -1    0    0  501    0  0.00000000000E+00  0.00000000000E+00  0.58295244610E+03  0.58295244610E+03  0.00000000000E+00 0. -1.
         -2   -1    0    0    0  501 -0.00000000000E+00 -0.00000000000E+00 -0.33031722651E+02  0.33031722651E+02  0.00000000000E+00 0.  1.
         23    2    1    2    0    0 -0.21601499799E+02  0.78131657753E+02  0.31492609830E+03  0.33769900587E+03  0.91054875989E+02 0.  0.
          5    1    1    2  502    0 -0.47025727656E+02 -0.61366682696E+02  0.10772157363E+03  0.13266008681E+03  0.41800000000E+01 0.  1.
         -5    1    1    2    0  502  0.68627227455E+02 -0.16764975057E+02  0.12727305152E+03  0.14562507607E+03  0.41800000000E+01 0.  1.
        -11    1    3    3    0    0 -0.40110502963E+02  0.44678469419E+02  0.27847737895E+03  0.28487658497E+03  0.00000000000E+00 0. -1.
         11    1    3    3    0    0  0.18509003164E+02  0.33453188333E+02  0.36448719346E+02  0.52822420900E+02  0.00000000000E+00 0.  1.
</event>
<event>
 7    1  0.4096326E-006  0.8942847E+02  0.7561462E-02  0.1304242E+00
          4   -1    0    0  501    0  0.00000000000E+00  0.00000000000E+00  0.15142990030E+03  0.15142990030E+03  0.00000000000E+00 0. -1.
         -4   -1    0    0    0  501 -0.00000000000E+00 -0.00000000000E+00 -0.11900798253E+03  0.11900798253E+03  0.00000000000E+00 0.  1.
         23    2    1    2    0    0 -0.39249285018E+02  0.16580788926E+02  0.80933304353E+02  0.12966912400E+03  0.91915466762E+02 0.  0.
          5    1    1    2  502    0 -0.12147268090E+02 -0.59249751558E+02 -0.41504383208E+02  0.73472276453E+02  0.41800000000E+01 0. -1.
         -5    1    1    2    0  502  0.51396553108E+02  0.42668962631E+02 -0.70070033749E+01  0.67296482373E+02  0.41800000000E+01 0. -1.
        -11    1    3    3    0    0 -0.22239506254E+02  0.24019816105E+02 -0.12026305597E+02  0.34873761346E+02  0.00000000000E+00 0.  1.
         11    1    3    3    0    0 -0.17009778765E+02 -0.74390271790E+01  0.92959609950E+02  0.94795362656E+02  0.00000000000E+00 0. -1.
</event>
<event>
 7    1  0.4096326E-006  0.1559182E+03  0.7561462E-02  0.1193384E+00
          2   -1    0    0  501    0  0.00000000000E+00  0.00000000000E+00  0.16423212299E+04  0.16423212299E+04  0.00000000000E+00 0. -1.
         -2   -1    0    0    0  501 -0.00000000000E+00 -0.00000000000E+00 -0.15883502259E+02  0.15883502259E+02  0.00000000000E+00 0.  1.
         23    2    1    2    0    0 -0.11912762514E+03  0.28121099028E+00  0.75585517694E+03  0.77065052521E+03  0.91617210931E+02 0.  0.
          5    1    1    2  502    0  0.13534966677E+03 -0.24372672074E+02  0.60999984334E+03  0.62532458829E+03  0.41800000000E+01 0. -1.
         -5    1    1    2    0  502 -0.16222041628E+02  0.24091461084E+02  0.26058270738E+03  0.26222961869E+03  0.41800000000E+01 0. -1.
        -11    1    3    3    0    0 -0.11316425801E+02  0.30834971296E+02  0.99025014864E+02  0.10433029530E+03  0.00000000000E+00 0.  1.
         11    1    3    3    0    0 -0.10781119934E+03 -0.30553760305E+02  0.65683016208E+03  0.66632022991E+03  0.00000000000E+00 0. -1.
</event>
<event>
 7    1  0.4096326E-006  0.2423517E+03  0.7561462E-02  0.1118236E+00
          2   -1    0    0  501    0  0.00000000000E+00  0.00000000000E+00  0.26135877727E+03  0.26135877727E+03  0.00000000000E+00 0. -1.
         -2   -1    0    0    0  501 -0.00000000000E+00 -0.00000000000E+00 -0.26265814512E+03  0.26265814512E+03  0.00000000000E+00 0.  1.
         23    2    1    2    0    0 -0.22080091585E+03 -0.59153972488E+02 -0.69670657487E+02  0.25462208331E+03  0.87898622801E+02 0.  0.
          5    1    1    2  502    0  0.57703231128E+02 -0.16288184337E+02  0.66498997708E+02  0.89635690033E+02  0.41800000000E+01 0. -1.
         -5    1    1    2    0  502  0.16309768473E+03  0.75442156825E+02  0.18722919234E+01  0.17975914905E+03  0.41800000000E+01 0. -1.
        -11    1    3    3    0    0 -0.15486662812E+03  0.20609574432E+01 -0.41474957577E+02  0.16033743218E+03  0.00000000000E+00 0.  1.
         11    1    3    3    0    0 -0.65934287730E+02 -0.61214929931E+02 -0.28195699910E+02  0.94284651128E+02  0.00000000000E+00 0. -1.
</event>
<event>
 7    1  0.4096326E-006  0.1322752E+03  0.7561462E-02  0.1224118E+00
          1   -1    0    0  501    0  0.00000000000E+00  0.00000000000E+00  0.78422429702E+03  0.78422429702E+03  0.00000000000E+00 0. -1.
         -1   -1    0    0    0  501 -0.00000000000E+00 -0.00000000000E+00 -0.35037555897E+02  0.35037555897E+02  0.00000000000E+00 0.  1.
         23    2    1    2    0    0 -0.10901284484E+03  0.60632036578E+02  0.33423113539E+03  0.36826749510E+03  0.91380806981E+02 0.  0.
          5    1    1    2  502    0  0.27363555453E+01 -0.93726934322E+01 -0.70737026091E+01  0.12761061572E+02  0.41800000000E+01 0. -1.
         -5    1    1    2    0  502  0.10627648929E+03 -0.51259343146E+02  0.42202930834E+03  0.43823329624E+03  0.41800000000E+01 0. -1.
        -11    1    3    3    0    0 -0.45048701401E+02  0.55802159893E+02  0.86485316559E+02  0.11235202057E+03  0.00000000000E+00 0.  1.
         11    1    3    3    0    0 -0.63964143440E+02  0.48298766856E+01  0.24774581883E+03  0.25591547453E+03  0.00000000000E+00 0. -1.
</event>
<event>
 7    1  0.4096326E-006  0.6747079E+02  0.7561462E-02  0.1368911E+00
          2   -1    0    0  501    0  0.00000000000E+00  0.00000000000E+00  0.12408105236E+03  0.12408105236E+03  0.00000000000E+00 0. -1.
         -2   -1    0    0    0  501 -0.00000000000E+00 -0.00000000000E+00 -0.11172723477E+03  0.11172723477E+03  0.00000000000E+00 0.  1.
         23    2    1    2    0    0 -0.12874878400E+01 -0.32341068473E+02  0.40711253007E+02  0.10352194074E+03  0.89508568066E+02 0.  0.
          5    1    1    2  502    0 -0.41732177145E+02 -0.62380582491E+01  0.28517277112E+02  0.51099857866E+02  0.41800000000E+01 0.  1.
         -5    1    1    2    0  502  0.43019664985E+02  0.38579126722E+02 -0.56874712531E+02  0.81186488528E+02  0.41800000000E+01 0.  1.
        -11    1    3    3    0    0  0.54456326691E+01 -0.16980148980E+02 -0.27777986826E+02  0.33009043104E+02  0.00000000000E+00 0.  1.
         11    1    3    3    0    0 -0.67331205091E+01 -0.15360919492E+02  0.68489239833E+02  0.70512897631E+02  0.00000000000E+00 0. -1.
</event>
<event>
 7    1  0.4096326E-006  0.1154181E+03  0.7561462E-02  0.1250853E+00
         -1   -1    0    0    0  501 -0.00000000000E+00  0.00000000000E+00  0.51394190444E+02  0.51394190444E+02  0.00000000000E+00 0.  1.
          1   -1    0    0  501    0  0.00000000000E+00 -0.00000000000E+00 -0.38549342219E+03  0.38549342219E+03  0.00000000000E+00 0. -1.
         23    2    1    2    0    0 -0.59586617326E+02 -0.43089566452E+02 -0.23513862116E+03  0.26125427266E+03  0.86927257623E+02 0.  0.
          5    1    1    2  502    0  0.34397083396E+02  0.71290818282E+02 -0.11039876928E+03  0.13590769211E+03  0.41800000000E+01 0.  1.
         -5    1    1    2    0  502  0.25189533929E+02 -0.28201251830E+02  0.11438158690E+02  0.39725647869E+02  0.41800000000E+01 0.  1.
        -11    1    3    3    0    0 -0.17619908860E+02  0.26760136539E+02 -0.75617385244E+02  0.82125240012E+02  0.00000000000E+00 0. -1.
         11    1    3    3    0    0 -0.41966708466E+02 -0.69849702991E+02 -0.15952123592E+03  0.17912903264E+03  0.00000000000E+00 0.  1.
</event>
<event>
 7    1  0.4096326E-006  0.9914998E+02  0.7561462E-02  0.1282094E+00
         -2   -1    0    0    0  501 -0.00000000000E+00  0.00000000000E+00  0.37065070311E+03  0.37065070311E+03  0.00000000000E+00 0.  1.
          2   -1    0    0  501    0  0.00000000000E+00 -0.00000000000E+00 -0.27155582765E+03  0.27155582765E+03  0.00000000000E+00 0. -1.
         23    2    1    2    0    0 -0.83753874182E+02  0.52195676692E+01 -0.22546293488E+03  0.25587094777E+03  0.87146150695E+02 0.  0.
          5    1    1    2  502    0  0.33060832563E+02 -0.48076051397E+01 -0.19251116487E+02  0.38784141127E+02  0.41800000000E+01 0. -1.
         -5    1    1    2    0  502  0.50693041619E+02 -0.41196252958E+00  0.34380892683E+03  0.34755144187E+03  0.41800000000E+01 0.  1.
        -11    1    3    3    0    0 -0.38732562956E+01  0.29906136817E+02 -0.26848133854E+02  0.40375752935E+02  0.00000000000E+00 0.  1.
         11    1    3    3    0    0 -0.79880617887E+02 -0.24686569148E+02 -0.19861480103E+03  0.21549519484E+03  0.00000000000E+00 0. -1.
</event>
<event>
 7    1  0.4096326E-006  0.1320494E+03  0.7561462E-02  0.1224446E+00
         -2   -1    0    0    0  501 -0.00000000000E+00  0.00000000000E+00  0.28480484104E+02  0.28480484104E+02  0.00000000000E+00 0.  1.
          2   -1    0    0  501    0  0.00000000000E+00 -0.00000000000E+00 -0.75193605233E+03  0.75193605233E+03  0.00000000000E+00 0. -1.
         23    2    1    2    0    0 -0.88340622464E+02 -0.24181501819E+02 -0.43138149941E+03  0.44974561531E+03  0.88274061041E+02 0.  0.
          5    1    1    2  502    0  0.50382330830E+02  0.66215983653E+02 -0.23836993001E+03  0.25250867645E+03  0.41800000000E+01 0. -1.
         -5    1    1    2    0  502  0.37958291634E+02 -0.42034481834E+02 -0.53704138814E+02  0.78162244675E+02  0.41800000000E+01 0. -1.
        -11    1    3    3    0    0  0.81727558337E+01  0.17157618039E+02 -0.11053197130E+03  0.11215388747E+03  0.00000000000E+00 0. -1.
         11    1    3    3    0    0 -0.96513378298E+02 -0.41339119859E+02 -0.32084952810E+03  0.33759172784E+03  0.00000000000E+00 0.  1.
</event>
<event>
 7    1  0.4096326E-006  0.5593345E+02  0.7561462E-02  0.1415735E+00
          2   -1    0    0  501    0  0.00000000000E+00  0.00000000000E+00  0.16708850856E+03  0.16708850856E+03  0.00000000000E+00 0. -1.
         -2   -1    0    0    0  501 -0.00000000000E+00 -0.00000000000E+00 -0.76041962961E+02  0.76041962961E+02  0.00000000000E+00 0.  1.
         23    2    1    2    0    0  0.21510559656E+02  0.11635491192E+02  0.54722699574E+02  0.11058487298E+03  0.92931972168E+02 0.  0.
          5    1    1    2  502    0 -0.25020901504E+02 -0.25026028089E+02  0.79441572714E+02  0.87067694751E+02  0.41800000000E+01 0. -1.
         -5    1    1    2    0  502  0.35103418483E+01  0.13390536897E+02 -0.43117726690E+02  0.45477903790E+02  0.41800000000E+01 0. -1.
        -11    1    3    3    0    0  0.28939617868E+01  0.33175721464E+02  0.70547219946E+02  0.78012266674E+02  0.00000000000E+00 0. -1.
         11    1    3    3    0    0  0.18616597869E+02 -0.21540230273E+02 -0.15824520372E+02  0.32572606304E+02  0.00000000000E+00 0.  1.
</event>
<event>
 7    1  0.4096326E-006  0.9210706E+02  0.7561462E-02  0.1297828E+00
         -1   -1    0    0    0  501 -0.00000000000E+00  0.00000000000E+00  0.60161366242E+02  0.60161366242E+02  0.00000000000E+00 0.  1.
          1   -1    0    0  501    0  0.00000000000E+00 -0.00000000000E+00 -0.23748374079E+03  0.23748374079E+03  0.00000000000E+00 0. -1.
         23    2    1    2    0    0  0.25053344576E+02 -0.15966120221E+02 -0.12651410171E+03  0.15940136619E+03  0.92305961579E+02 0.  0.
          5    1    1    2  502    0  0.40069518431E+02 -0.11049699145E+02  0.12279533495E+02  0.43542180714E+02  0.41800000000E+01 0. -1.
         -5    1    1    2    0  502 -0.65122863007E+02  0.27015819365E+02 -0.63087806330E+02  0.94701560123E+02  0.41800000000E+01 0. -1.
        -11    1    3    3    0    0  0.41112185754E+02 -0.29669843414E+02 -0.12855530777E+03  0.13819181807E+03  0.00000000000E+00 0. -1.
         11    1    3    3    0    0 -0.16058841179E+02  0.13703723193E+02  0.20412060602E+01  0.21209548122E+02  0.00000000000E+00 0.  1.
</event>
<event>
 7    1  0.4096326E-006  0.1168915E+03  0.7561462E-02  0.1248315E+00
          1   -1    0    0  501    0  0.00000000000E+00  0.00000000000E+00  0.52547101096E+03  0.52547101096E+03  0.00000000000E+00 0. -1.
         -1   -1    0    0    0  501 -0.00000000000E+00 -0.00000000000E+00 -0.33921169641E+02  0.33921169641E+02  0.00000000000E+00 0.  1.
         23    2    1    2    0    0  0.57423047586E+02 -0.14913045894E+02  0.31048523420E+03  0.33146506176E+03  0.99740669618E+02 0.  0.
          5    1    1    2  502    0  0.33205107295E+02  0.12256797852E+02  0.10025822012E+03  0.10640484644E+03  0.41800000000E+01 0.  1.
         -5    1    1    2    0  502 -0.90628154881E+02  0.26562480415E+01  0.80806386994E+02  0.12152227240E+03  0.41800000000E+01 0.  1.
        -11    1    3    3    0    0 -0.14970325120E+02  0.21613978171E+02  0.14283921292E+03  0.14523882206E+03  0.00000000000E+00 0. -1.
         11    1    3    3    0    0  0.72393372706E+02 -0.36527024065E+02  0.16764602128E+03  0.18622623970E+03  0.00000000000E+00 0.  1.
</event>
<event>
 7    1  0.4096326E-006  0.1011898E+03  0.7561462E-02  0.1277814E+00
          1   -1    0    0  501    0  0.00000000000E+00  0.00000000000E+00  0.39191498759E+03  0.39191498759E+03  0.00000000000E+00 0. -1.
         -1   -1    0    0    0  501 -0.00000000000E+00 -0.00000000000E+00 -0.39586444386E+02  0.39586444386E+02  0.00000000000E+00 0.  1.
         23    2    1    2    0    0  0.54098192467E+02 -0.45924126614E+00  0.19369343708E+03  0.22236104176E+03  0.94870754150E+02 0.  0.
          5    1    1    2  502    0 -0.70744521837E+02 -0.12396295013E+02  0.28715450421E+02  0.77462926571E+02  0.41800000000E+01 0. -1.
         -5    1    1    2    0  502  0.16646329370E+02  0.12855536279E+02  0.12991965571E+03  0.13167746365E+03  0.41800000000E+01 0. -1.
        -11    1    3    3    0    0  0.80198604580E+02 -0.10790053781E+02  0.13744169222E+03  0.15949438924E+03  0.00000000000E+00 0.  1.
         11    1    3    3    0    0 -0.26100412112E+02  0.10330812515E+02  0.56251744857E+02  0.62866652521E+02  0.00000000000E+00 0. -1.
</event>
<event>
 7    1  0.4096326E-006  0.1101693E+03  0.7561462E-02  0.1260257E+00
         -4   -1    0    0    0  501 -0.00000000000E+00  0.00000000000E+00  0.35842213026E+03  0.35842213026E+03  0.00000000000E+00 0.  1.
          4   -1    0    0  501    0  0.00000000000E+00 -0.00000000000E+00 -0.46483511264E+02  0.46483511264E+02  0.00000000000E+00 0. -1.
         23    2    1    2    0    0 -0.67365399047E+02  0.13878085216E+02  0.11512552414E+03  0.16177238042E+03  0.90474960736E+02 0.  0.
          5    1    1    2  502    0  0.65110733535E+02 -0.46451506343E+02  0.54047203671E+02  0.96621543600E+02  0.41800000000E+01 0.  1.
         -5    1    1    2    0  502  0.22546655122E+01  0.32573421127E+02  0.14276589118E+03  0.14651171750E+03  0.41800000000E+01 0.  1.
        -11    1    3    3    0    0 -0.83839768888E+02 -0.28002503857E+01  0.10899968430E+03  0.13754228232E+03  0.00000000000E+00 0.  1.
         11    1    3    3    0    0  0.16474369841E+02  0.16678335601E+02  0.61258398453E+01  0.24230098100E+02  0.00000000000E+00 0. -1.
</event>
<event>
 7    1  0.4096326E-006  0.4849271E+02  0.7561462E-02  0.1453645E+00
         -4   -1    0    0    0  501 -0.00000000000E+00  0.00000000000E+00  0.31786469239E+03  0.31786469239E+03  0.00000000000E+00 0.  1.
          4   -1    0    0  501    0  0.00000000000E+00 -0.00000000000E+00 -0.35636118934E+02  0.35636118934E+02  0.00000000000E+00 0. -1.
         23    2    1    2    0    0  0.25322887251E+02 -0.20280375456E+02  0.48046317684E+02  0.81075167513E+02  0.56676202209E+02 0.  0.
          5    1    1    2  502    0 -0.38857854669E+01  0.19241434224E+02 -0.13236992680E+02  0.24042098388E+02  0.41800000000E+01 0. -1.
         -5    1    1    2    0  502 -0.21437101784E+02  0.10389412320E+01  0.24741924845E+03  0.24838354542E+03  0.41800000000E+01 0.  1.
        -11    1    3    3    0    0  0.37723833360E+02 -0.19882187958E+02  0.14069259941E+02  0.44903597591E+02  0.00000000000E+00 0. -1.
         11    1    3    3    0    0 -0.12400946109E+02 -0.39818749870E+00  0.33977057743E+02  0.36171569921E+02  0.00000000000E+00 0.  1.
</event>
<event>
 7    1  0.4096326E-006  0.1076637E+03  0.7561462E-02  0.1264959E+00
          1   -1    0    0  501    0  0.00000000000E+00  0.00000000000E+00  0.63985892147E+02  0.63985892147E+02  0.00000000000E+00 0. -1.
         -1   -1    0    0    0  501 -0.00000000000E+00 -0.00000000000E+00 -0.22790302438E+03  0.22790302438E+03  0.00000000000E+00 0.  1.
         23    2    1    2    0    0  0.37142012873E+02 -0.26636847411E+02 -0.48139224216E+02  0.11542200878E+03  0.94423537550E+02 0.  0.
          5    1    1    2  502    0  0.43731202944E+02  0.17604924895E+02 -0.65188046876E+02  0.80556224756E+02  0.41800000000E+01 0.  1.
         -5    1    1    2    0  502 -0.80873215817E+02  0.90319225159E+01 -0.50589861143E+02  0.95910682989E+02  0.41800000000E+01 0.  1.
        -11    1    3    3    0    0  0.34125760669E+02  0.20151740130E+02 -0.55256092272E+02  0.67999234589E+02  0.00000000000E+00 0.  1.
         11    1    3    3    0    0  0.30162522041E+01 -0.46788587541E+02  0.71168680560E+01  0.47422774195E+02  0.00000000000E+00 0. -1.
</event>
<event>
 7    1  0.4096326E-006  0.1414745E+03  0.7561462E-02  0.1211359E+00
          1   -1    0    0  501    0  0.00000000000E+00  0.00000000000E+00  0.66341026320E+02  0.66341026320E+02  0.00000000000E+00 0. -1.
         -1   -1    0    0    0  501 -0.00000000000E+00 -0.00000000000E+00 -0.50098619404E+03  0.50098619404E+03  0.00000000000E+00 0.  1.
         23    2    1    2    0    0  0.13321902743E+03  0.45617803588E+02 -0.14165075584E+03  0.21901531391E+03  0.89858098275E+02 0.  0.
          5    1    1    2  502    0 -0.22393587833E+02 -0.16741433772E+01  0.82667566515E+01  0.24291710471E+02  0.41800000000E+01 0. -1.
         -5    1    1    2    0  502 -0.11082543959E+03 -0.43943660211E+02 -0.30126116853E+03  0.32402019598E+03  0.41800000000E+01 0. -1.
        -11    1    3    3    0    0  0.60333394581E+02  0.20989046423E+02 -0.12488632798E+03  0.14027563398E+03  0.00000000000E+00 0.  1.
         11    1    3    3    0    0  0.72885632846E+02  0.24628757165E+02 -0.16764427858E+02  0.78739679935E+02  0.00000000000E+00 0. -1.
</event>
<event>
 7    1  0.4096326E-006  0.1345258E+03  0.7561462E-02  0.1220891E+00
          2   -1    0    0  501    0  0.00000000000E+00  0.00000000000E+00  0.13009995108E+03  0.13009995108E+03  0.00000000000E+00 0. -1.
         -2   -1    0    0    0  501 -0.00000000000E+00 -0.00000000000E+00 -0.27776574269E+03  0.27776574269E+03  0.00000000000E+00 0.  1.
         23    2    1    2    0    0  0.16108357054E+02 -0.10525716874E+03 -0.28569436762E+02  0.14842994986E+03  0.99381520221E+02 0.  0.
          5    1    1    2  502    0 -0.38534921774E+02  0.32654807391E+02  0.51732460437E+02  0.72422348103E+02  0.41800000000E+01 0. -1.
         -5    1    1    2    0  502  0.22426564720E+02  0.72602361350E+02 -0.17082881529E+03  0.18701339581E+03  0.41800000000E+01 0.  1.
        -11    1    3    3    0    0 -0.13024017559E+02  0.14223631000E+02 -0.15526691595E+02  0.24759136982E+02  0.00000000000E+00 0.  1.
         11    1    3    3    0    0  0.29132374613E+02 -0.11948079974E+03 -0.13042745167E+02  0.12367081288E+03  0.00000000000E+00 0. -1.
</event>
<event>
 6    1  0.4096326E-006  0.4574922E+02  0.7561462E-02  0.1469718E+00
         -1   -1    0    0    0  501 -0.00000000000E+00  0.00000000000E+00  0.13291662834E+03  0.13291662834E+03  0.00000000000E+00 0.  1.
          1   -1    0    0  501    0  0.00000000000E+00 -0.00000000000E+00 -0.28994775500E+03  0.28994775500E+03  0.00000000000E+00 0. -1.
          5    1    1    2  502    0 -0.19783083059E+02 -0.16449373045E+02 -0.36124646407E+02  0.44546770107E+02  0.41800000000E+01 0. -1.
         -5    1    1    2    0  502 -0.78545128335E+01  0.14401130403E+01  0.12528943985E+03  0.12561322954E+03  0.41800000000E+01 0.  1.
        -11    1    1    2    0    0  0.39802737734E+02  0.39842821694E+01 -0.15740164785E+03  0.16240508360E+03  0.00000000000E+00 0. -1.
         11    1    1    2    0    0 -0.12165141842E+02  0.11024977835E+02 -0.88794272249E+02  0.90299300089E+02  0.00000000000E+00 0.  1.
</event>
<event>
 7    1  0.4096326E-006  0.1780260E+03  0.7561462E-02  0.1169727E+00
         -1   -1    0    0    0  501 -0.00000000000E+00  0.00000000000E+00  0.48530694312E+03  0.48530694312E+03  0.00000000000E+00 0.  1.
          1   -1    0    0  501    0  0.00000000000E+00 -0.00000000000E+00 -0.78391307680E+02  0.78391307680E+02  0.00000000000E+00 0. -1.
         23    2    1    2    0    0  0.14647042353E+03  0.66292651027E+02  0.22240517169E+03  0.28885447372E+03  0.90136263753E+02 0.  0.
          5    1    1    2  502    0 -0.10362723550E+03 -0.14876198862E+02  0.34133399318E+02  0.11019286084E+03  0.41800000000E+01 0. -1.
         -5    1    1    2    0  502 -0.42843188023E+02 -0.51416452165E+02  0.15037706443E+03  0.16465091625E+03  0.41800000000E+01 0. -1.
        -11    1    3    3    0    0  0.49236566315E+02  0.71540683039E+02  0.10021500757E+03  0.13260979049E+03  0.00000000000E+00 0. -1.
         11    1    3    3    0    0  0.97233857211E+02 -0.52480320114E+01  0.12219016412E+03  0.15624468322E+03  0.00000000000E+00 0.  1.
</event>
<event>
 7    1  0.4096326E-006  0.1302442E+03  0.7561462E-02  0.1227094E+00
         -2   -1    0    0    0  501 -0.00000000000E+00  0.00000000000E+00  0.32195063937E+03  0.32195063937E+03  0.00000000000E+00 0.  1.
          2   -1    0    0  501    0  0.00000000000E+00 -0.00000000000E+00 -0.97657036422E+02  0.97657036422E+02  0.00000000000E+00 0. -1.
         23    2    1    2    0    0  0.58442482424E+02  0.91321696944E+02  0.23838050126E+01  0.14275861240E+03  0.92839446378E+02 0.  0.
          5    1    1    2  502    0 -0.17168771160E+02  0.12494147160E+02 -0.64580339631E+01  0.22584264856E+02  0.41800000000E+01 0.  1.
         -5    1    1    2    0  502 -0.41273711264E+02 -0.10381584410E+03  0.22836783190E+03  0.25426479854E+03  0.41800000000E+01 0.  1.
        -11    1    3    3    0    0  0.30373676529E+02  0.94064641417E+02 -0.26553437291E+02  0.10235136551E+03  0.00000000000E+00 0. -1.
         11    1    3    3    0    0  0.28068805895E+02 -0.27429444734E+01  0.28937242304E+02  0.40407246886E+02  0.00000000000E+00 0.  1.
</event>
<event>
 7    1  0.4096326E-006  0.8078415E+02  0.7561462E-02  0.1326841E+00
          2   -1    0    0  501    0  0.00000000000E+00  0.00000000000E+00  0.52408736933E+03  0.52408736933E+03  0.00000000000E+00 0.  1.
         -2   -1    0    0    0  501 -0.00000000000E+00 -0.00000000000E+00 -0.28687987343E+02  0.28687987343E+02  0.00000000000E+00 0. -1.
         23    2    1    2    0    0 -0.55781855661E+02  0.12483969247E+02  0.22801024836E+03  0.25208634520E+03  0.91057054496E+02 0.  0.
          5    1    1    2  502    0  0.46974843267E+02 -0.47205078314E+02  0.58591314463E+02  0.88799605005E+02  0.41800000000E+01 0. -1.
         -5    1    1    2    0  502  0.88070123941E+01  0.34721109067E+02  0.20879781917E+03  0.21188940646E+03  0.41800000000E+01 0. -1.
        -11    1    3    3    0    0 -0.46154805560E+02  0.46917497695E+01  0.23383990846E+03  0.23839752805E+03  0.00000000000E+00 0.  1.
         11    1    3    3    0    0 -0.96270501003E+01  0.77922194773E+01 -0.58296601061E+01  0.13688817150E+02  0.00000000000E+00 0. -1.
</event>
<event>
 7    1  0.4096326E-006  0.8789952E+02  0.7561462E-02  0.1308020E+00
         -1   -1    0    0    0  501 -0.00000000000E+00  0.00000000000E+00  0.18094452650E+03  0.18094452650E+03  0.00000000000E+00 0.  1.
          1   -1    0    0  501    0  0.00000000000E+00 -0.00000000000E+00 -0.85142160398E+02  0.85142160398E+02  0.00000000000E+00 0. -1.
         23    2    1    2    0    0 -0.27549754485E+02 -0.32509420498E+02 -0.24351852779E+01  0.10142992223E+03  0.92012214427E+02 0.  0.
          5    1    1    2  502    0  0.37147021161E+02 -0.22784463066E+02  0.99137852159E+02  0.10837351646E+03  0.41800000000E+01 0.  1.
         -5    1    1    2    0  502 -0.95972666752E+01  0.55293883564E+02 -0.90030077910E+00  0.56283248207E+02  0.41800000000E+01 0.  1.
        -11    1    3    3    0    0 -0.26821704691E+02 -0.50796817908E+02  0.29535327336E+02  0.64591455418E+02  0.00000000000E+00 0.  1.
         11    1    3    3    0    0 -0.72804979468E+00  0.18287397411E+02 -0.31970512614E+02  0.36838466816E+02  0.00000000000E+00 0. -1.
</event>
<event>
 7    1  0.4096326E-006  0.1075070E+03  0.7561462E-02  0.1265257E+00
          2   -1    0    0  501    0  0.00000000000E+00  0.00000000000E+00  0.50684318345E+02  0.50684318345E+02  0.00000000000E+00 0. -1.
         -2   -1    0    0    0  501 -0.00000000000E+00 -0.00000000000E+00 -0.43991233849E+03  0.43991233849E+03  0.00000000000E+00 0.  1.
         23    2    1    2    0    0  0.14270170202E+01  0.81463191697E+02 -0.96134258992E+02  0.16167440795E+03  0.10128440380E+03 0.  0.
          5    1    1    2  502    0 -0.17460194077E+02 -0.70559467367E+02 -0.58248519613E+02  0.93240866842E+02  0.41800000000E+01 0. -1.
         -5    1    1    2    0  502  0.16033177057E+02 -0.10903724330E+02 -0.23484524154E+03  0.23568138205E+03  0.41800000000E+01 0. -1.
        -11    1    3    3    0    0  0.20209142534E+02 -0.14317156855E+02 -0.12915818759E+00  0.24767056834E+02  0.00000000000E+00 0. -1.
         11    1    3    3    0    0 -0.18782125514E+02  0.95780348552E+02 -0.96005100805E+02  0.13690735111E+03  0.00000000000E+00 0.  1.
</event>
<event>
 7    1  0.4096326E-006  0.1276786E+03  0.7561462E-02  0.1230941E+00
         -1   -1    0    0    0  501 -0.00000000000E+00  0.00000000000E+00  0.59599556420E+02  0.59599556420E+02  0.00000000000E+00 0.  1.
          1   -1    0    0  501    0  0.00000000000E+00 -0.00000000000E+00 -0.29042270658E+03  0.29042270658E+03  0.00000000000E+00 0. -1.
         23    2    1    2    0    0 -0.61455809786E+02 -0.37791361694E+02 -0.12856340722E+03  0.17307494404E+03  0.90671842406E+02 0.  0.
          5    1    1    2  502    0 -0.37537097302E+02  0.10352209540E+02 -0.43493986304E+02  0.58526926801E+02  0.41800000000E+01 0. -1.
         -5    1    1    2    0  502  0.98992907088E+02  0.27439152154E+02 -0.58765756639E+02  0.11842039215E+03  0.41800000000E+01 0. -1.
        -11    1    3    3    0    0 -0.43475532172E+02 -0.66535528905E+02 -0.10542011244E+03  0.13202461366E+03  0.00000000000E+00 0.  1.
         11    1    3    3    0    0 -0.17980277614E+02  0.28744167212E+02 -0.23143294780E+02  0.41050330389E+02  0.00000000000E+00 0. -1.
</event>
<event>
 7    1  0.4096326E-006  0.1727916E+03  0.7561462E-02  0.1174968E+00
          1   -1    0    0  501    0  0.00000000000E+00  0.00000000000E+00  0.12602139649E+04  0.12602139649E+04  0.00000000000E+00 0. -1.
         -1   -1    0    0    0  501 -0.00000000000E+00 -0.00000000000E+00 -0.29650862138E+02  0.29650862138E+02  0.00000000000E+00 0.  1.
         23    2    1    2    0    0  0.74847794845E+02 -0.11256239247E+03  0.86931998913E+03  0.88439189987E+03  0.90328868414E+02 0.  0.
          5    1    1    2  502    0 -0.97365538682E+02  0.12427437616E+03  0.32032176294E+03  0.35713817061E+03  0.41800000000E+01 0. -1.
         -5    1    1    2    0  502  0.22517743837E+02 -0.11711983686E+02  0.40921350728E+02  0.48334756591E+02  0.41800000000E+01 0. -1.
        -11    1    3    3    0    0 -0.12404048986E+02 -0.57352180724E+02  0.35389366817E+03  0.35872532868E+03  0.00000000000E+00 0.  1.
         11    1    3    3    0    0  0.87251843831E+02 -0.55210211747E+02  0.51542632096E+03  0.52566657119E+03  0.00000000000E+00 0. -1.
</event>
<event>
 7    1  0.4096326E-006  0.1723127E+03  0.7561462E-02  0.1175457E+00
         -1   -1    0    0    0  501 -0.00000000000E+00  0.00000000000E+00  0.37043421039E+02  0.37043421039E+02  0.00000000000E+00 0.  1.
          1   -1    0    0  501    0  0.00000000000E+00 -0.00000000000E+00 -0.90861866165E+03  0.90861866165E+03  0.00000000000E+00 0. -1.
         23    2    1    2    0    0  0.11477599721E+03  0.84888681063E+02 -0.31001374612E+03  0.35289033026E+03  0.89685253519E+02 0.  0.
          5    1    1    2  502    0 -0.58925482599E+02 -0.11189986484E+03 -0.34556377854E+03  0.36800215990E+03  0.41800000000E+01 0. -1.
         -5    1    1    2    0  502 -0.55850514613E+02  0.27011183773E+02 -0.21599771595E+03  0.22476959253E+03  0.41800000000E+01 0. -1.
        -11    1    3    3    0    0  0.79117929591E+02  0.90062132330E+02 -0.16805280416E+03  0.20642814597E+03  0.00000000000E+00 0.  1.
         11    1    3    3    0    0  0.35658067622E+02 -0.51734512676E+01 -0.14196094197E+03  0.14646218430E+03  0.00000000000E+00 0. -1.
</event>
<event>
 7    1  0.4096326E-006  0.9207127E+02  0.7561462E-02  0.1297912E+00
         -1   -1    0    0    0  501 -0.00000000000E+00  0.00000000000E+00  0.57947014679E+02  0.57947014679E+02  0.00000000000E+00 0.  1.
          1   -1    0    0  501    0  0.00000000000E+00 -0.00000000000E+00 -0.22996738867E+03  0.22996738867E+03  0.00000000000E+00 0. -1.
         23    2    1    2    0    0 -0.11971750928E+02 -0.21787651224E+01 -0.12347341807E+03  0.15402513785E+03  0.91268769473E+02 0.  0.
          5    1    1    2  502    0 -0.45735458662E+02 -0.32135634186E+02 -0.11959370563E+02  0.57314309800E+02  0.41800000000E+01 0. -1.
         -5    1    1    2    0  502  0.57707209590E+02  0.34314399308E+02 -0.36587585356E+02  0.76574955702E+02  0.41800000000E+01 0.  1.
        -11    1    3    3    0    0 -0.36024464186E+02 -0.58292491064E+01 -0.12443719690E+03  0.12967790150E+03  0.00000000000E+00 0. -1.
         11    1    3    3    0    0  0.24052713258E+02  0.36504839839E+01  0.96377882363E+00  0.24347236352E+02  0.00000000000E+00 0.  1.
</event>
<event>
 7    1  0.4096326E-006  0.1675296E+03  0.7561462E-02  0.1180449E+00
         -1   -1    0    0    0  501 -0.00000000000E+00  0.00000000000E+00  0.48795340661E+03  0.48795340661E+03  0.00000000000E+00 0.  1.
          1   -1    0    0  501    0  0.00000000000E+00 -0.00000000000E+00 -0.71231615128E+02  0.71231615128E+02  0.00000000000E+00 0. -1.
         23    2    1    2    0    0 -0.14600635358E+03  0.17506489304E+02  0.14580355071E+03  0.22651509862E+03  0.91793692868E+02 0.  0.
          5    1    1    2  502    0  0.14824799731E+03 -0.44219302375E+02  0.17798728362E+03  0.23585962126E+03  0.41800000000E+01 0. -1.
         -5    1    1    2    0  502 -0.22416437271E+01  0.26712813071E+02  0.92930957150E+02  0.96810301857E+02  0.41800000000E+01 0. -1.
        -11    1    3    3    0    0 -0.44677828740E+02  0.25645037249E+02  0.10503904018E+03  0.11699135130E+03  0.00000000000E+00 0.  1.
         11    1    3    3    0    0 -0.10132852484E+03 -0.81385479445E+01  0.40764510527E+02  0.10952374732E+03  0.00000000000E+00 0. -1.
</event>
<event>
 7    1  0.4096326E-006  0.1250381E+03  0.7561462E-02  0.1235010E+00
          1   -1    0    0  501    0  0.00000000000E+00  0.00000000000E+00  0.37734945481E+03  0.37734945481E+03  0.00000000000E+00 0. -1.
         -1   -1    0    0    0  501 -0.00000000000E+00 -0.00000000000E+00 -0.64011711981E+02  0.64011711981E+02  0.00000000000E+00 0.  1.
         23    2    1    2    0    0  0.56095197059E+02 -0.64301187771E+02  0.25276045179E+03  0.28800570555E+03  0.10852707755E+03 0.  0.
          5    1    1    2  502    0  0.18836789651E+02  0.19799196225E+02  0.60044196840E+02  0.66103031623E+02  0.41800000000E+01 0. -1.
         -5    1    1    2    0  502 -0.74931986710E+02  0.44501991546E+02  0.53309419863E+00  0.87252429612E+02  0.41800000000E+01 0.  1.
        -11    1    3    3    0    0  0.38324127823E+01 -0.80401491026E+02  0.12078397475E+03  0.14514770306E+03  0.00000000000E+00 0.  1.
         11    1    3    3    0    0  0.52262784276E+02  0.16100303255E+02  0.13197647704E+03  0.14285800250E+03  0.00000000000E+00 0. -1.
</event>
<event>
 7    1  0.4096326E-006  0.8976669E+02  0.7561462E-02  0.1303418E+00
         -2   -1    0    0    0  501 -0.00000000000E+00  0.00000000000E+00  0.37628654920E+03  0.37628654920E+03  0.00000000000E+00 0.  1.
          2   -1    0    0  501    0  0.00000000000E+00 -0.00000000000E+00 -0.42347390729E+02  0.42347390729E+02  0.00000000000E+00 0. -1.
         23    2    1    2    0    0  0.63735483988E+02  0.48068884863E+01  0.15797980381E+03  0.19347842322E+03  0.91602203804E+02 0.  0.
          5    1    1    2  502    0  0.82369309047E+01  0.95072042674E+01  0.14466295251E+03  0.14526897877E+03  0.41800000000E+01 0.  1.
         -5    1    1    2    0  502 -0.71972414893E+02 -0.14314092754E+02  0.31296402148E+02  0.79886537942E+02  0.41800000000E+01 0.  1.
        -11    1    3    3    0    0  0.85652895973E+01  0.30671347426E+02  0.98934184433E+01  0.33346296156E+02  0.00000000000E+00 0. -1.
         11    1    3    3    0    0  0.55170194391E+02 -0.25864458940E+02  0.14808638537E+03  0.16013212706E+03  0.00000000000E+00 0.  1.
</event>
<event>
 7    1  0.4096326E-006  0.1229657E+03  0.7561462E-02  0.1238283E+00
         -2   -1    0    0    0  501 -0.00000000000E+00  0.00000000000E+00  0.64140175891E+02  0.64140175891E+02  0.00000000000E+00 0. -1.
          2   -1    0    0  501    0  0.00000000000E+00 -0.00000000000E+00 -0.26999047373E+03  0.26999047373E+03  0.00000000000E+00 0.  1.
         23    2    1    2    0    0  0.19789428776E+02 -0.67247171202E+02 -0.12428492647E+03  0.16916407140E+03  0.90862184534E+02 0.  0.
          5    1    1    2  502    0  0.37558423671E+02 -0.15300205103E+02 -0.36548209660E+02  0.54753771507E+02  0.41800000000E+01 0. -1.
         -5    1    1    2    0  502 -0.57347852447E+02  0.82547376305E+02 -0.45017161701E+02  0.11021280671E+03  0.41800000000E+01 0. -1.
        -11    1    3    3    0    0 -0.22017513630E+02  0.35890975328E+01 -0.28431567370E+01  0.22488576384E+02  0.00000000000E+00 0. -1.
         11    1    3    3    0    0  0.41806942406E+02 -0.70836268735E+02 -0.12144176974E+03  0.14667549502E+03  0.00000000000E+00 0.  1.
</event>
<event>
 7    1  0.4096326E-006  0.1115256E+03  0.7561462E-02  0.1257771E+00
          2   -1    0    0  501    0  0.00000000000E+00  0.00000000000E+00  0.27382705932E+03  0.27382705932E+03  0.00000000000E+00 0. -1.
         -2   -1    0    0    0  501 -0.00000000000E+00 -0.00000000000E+00 -0.53011039199E+02  0.53011039199E+02  0.00000000000E+00 0.  1.
         23    2    1    2    0    0  0.48817840237E+02 -0.11270991939E+02  0.81990382601E+02  0.13336943174E+03  0.92491976406E+02 0.  0.
          5    1    1    2  502    0  0.16106842388E+02 -0.45099732768E+02  0.41207227922E+02  0.63316066685E+02  0.41800000000E+01 0.  1.
         -5    1    1    2    0  502 -0.64924682625E+02  0.56370724707E+02  0.97618409594E+02  0.13015260009E+03  0.41800000000E+01 0.  1.
        -11    1    3    3    0    0  0.50743513992E+02  0.22187515256E+02  0.83069103498E+02  0.99838199110E+02  0.00000000000E+00 0. -1.
         11    1    3    3    0    0 -0.19256737549E+01 -0.33458507195E+02 -0.10787208965E+01  0.33531232633E+02  0.00000000000E+00 0.  1.
</event>
<event>
 7    1  0.4096326E-006  0.7545740E+02  0.7561462E-02  0.1342460E+00
          1   -1    0    0  501    0  0.00000000000E+00  0.00000000000E+00  0.93497010188E+02  0.93497010188E+02  0.00000000000E+00 0. -1.
         -1   -1    0    0    0  501 -0.00000000000E+00 -0.00000000000E+00 -0.13599911985E+03  0.13599911985E+03  0.00000000000E+00 0.  1.
         23    2    1    2    0    0  0.15149286568E+02 -0.37282979111E+01  0.11544160925E+02  0.92338120566E+02  0.90275466044E+02 0.  0.
          5    1    1    2  502    0 -0.48731547951E+02 -0.20106503481E+02  0.16472863511E+02  0.55388291906E+02  0.41800000000E+01 0. -1.
         -5    1    1    2    0  502  0.33582261383E+02  0.23834801392E+02 -0.70519134096E+02  0.81769717565E+02  0.41800000000E+01 0. -1.
        -11    1    3    3    0    0 -0.14545481418E+02  0.15505940236E+02  0.41076499047E+02  0.46252394383E+02  0.00000000000E+00 0. -1.
         11    1    3    3    0    0  0.29694767986E+02 -0.19234238147E+02 -0.29532338122E+02  0.46085726183E+02  0.00000000000E+00 0.  1.
</event>
<event>
 7    1  0.4096326E-006  0.1006232E+03  0.7561462E-02  0.1278991E+00
          1   -1    0    0  501    0  0.00000000000E+00  0.00000000000E+00  0.18164376985E+03  0.18164376985E+03  0.00000000000E+00 0. -1.
         -1   -1    0    0    0  501 -0.00000000000E+00 -0.00000000000E+00 -0.11446114524E+03  0.11446114524E+03  0.00000000000E+00 0.  1.
         23    2    1    2    0    0 -0.88334644866E+01 -0.30156128092E+02  0.12215248817E+03  0.15589915799E+03  0.91629116226E+02 0.  0.
          5    1    1    2  502    0  0.38303895241E+02  0.63135570308E+02 -0.60342382808E+02  0.95456608947E+02  0.41800000000E+01 0.  1.
         -5    1    1    2    0  502 -0.29470430754E+02 -0.32979442216E+02  0.53725192496E+01  0.44749148157E+02  0.41800000000E+01 0.  1.
        -11    1    3    3    0    0 -0.19329221792E+02  0.22213138909E+02  0.90258704825E+01  0.30797868323E+02  0.00000000000E+00 0.  1.
         11    1    3    3    0    0  0.10495757306E+02 -0.52369267000E+02  0.11312661768E+03  0.12510128967E+03  0.00000000000E+00 0. -1.
</event>
<event>
 7    1  0.4096326E-006  0.1123868E+03  0.7561462E-02  0.1256213E+00
         -1   -1    0    0    0  501 -0.00000000000E+00  0.00000000000E+00  0.10837021027E+03  0.10837021027E+03  0.00000000000E+00 0.  1.
          1   -1    0    0  501    0  0.00000000000E+00 -0.00000000000E+00 -0.15256501057E+03  0.15256501057E+03  0.00000000000E+00 0. -1.
         23    2    1    2    0    0  0.10135084872E+02 -0.66594323976E+02 -0.26874621351E+01  0.11291345091E+03  0.90579804658E+02 0.  0.
          5    1    1    2  502    0 -0.66137170483E+02  0.21396731471E+02 -0.15144749850E+02  0.71265568722E+02  0.41800000000E+01 0. -1.
         -5    1    1    2    0  502  0.56002085611E+02  0.45197592504E+02 -0.26362588313E+02  0.76756201206E+02  0.41800000000E+01 0. -1.
        -11    1    3    3    0    0 -0.15348795428E+02 -0.46034694317E+01 -0.35009406041E+02  0.38502415031E+02  0.00000000000E+00 0. -1.
         11    1    3    3    0    0  0.25483880301E+02 -0.61990854544E+02  0.32321943906E+02  0.74411035876E+02  0.00000000000E+00 0.  1.
</event>
<event>
 7    1  0.4096326E-006  0.8042196E+02  0.7561462E-02  0.1327858E+00
         -1   -1    0    0    0  501 -0.00000000000E+00  0.00000000000E+00  0.89053083016E+02  0.89053083016E+02  0.00000000000E+00 0.  1.
          1   -1    0    0  501    0  0.00000000000E+00 -0.00000000000E+00 -0.21408808882E+03  0.21408808882E+03  0.00000000000E+00 0. -1.
         23    2    1    2    0    0 -0.41809195901E+02 -0.56804096157E+02 -0.10641722974E+03  0.15833475357E+03  0.93651231711E+02 0.  0.
          5    1    1    2  502    0  0.42151286297E+02  0.11423215147E+02  0.47399313560E+02  0.64586284199E+02  0.41800000000E+01 0.  1.
         -5    1    1    2    0  502 -0.34209039626E+00  0.45380881010E+02 -0.66017089617E+02  0.80220134060E+02  0.41800000000E+01 0.  1.
        -11    1    3    3    0    0 -0.46500714490E+01 -0.13807901072E+02  0.17043839230E+02  0.22422616979E+02  0.00000000000E+00 0.  1.
         11    1    3    3    0    0 -0.37159124451E+02 -0.42996195085E+02 -0.12346106897E+03  0.13591213659E+03  0.00000000000E+00 0. -1.
</event>
<event>
 7    1  0.4096326E-006  0.1245764E+03  0.7561462E-02  0.1235733E+00
          3   -1    0    0  501    0  0.00000000000E+00  0.00000000000E+00  0.13818878470E+03  0.13818878470E+03  0.00000000000E+00 0. -1.
         -3   -1    0    0    0  501 -0.00000000000E+00 -0.00000000000E+00 -0.18966710005E+03  0.18966710005E+03  0.00000000000E+00 0.  1.
         23    2    1    2    0    0 -0.77266927299E+02 -0.23881542636E+02  0.64691302361E+02  0.13895611901E+03  0.92646275021E+02 0.  0.
          5    1    1    2  502    0 -0.50485347566E+01 -0.28715308012E+02  0.83181789543E+01  0.30605900061E+02  0.41800000000E+01 0. -1.
         -5    1    1    2    0  502  0.82315462056E+02  0.52596850648E+02 -0.12448779667E+03  0.15829386568E+03  0.41800000000E+01 0. -1.
        -11    1    3    3    0    0 -0.80831128843E+02  0.15566527084E+02  0.34970855737E+02  0.89436843116E+02  0.00000000000E+00 0.  1.
         11    1    3    3    0    0  0.35642015438E+01 -0.39448069719E+02  0.29720446623E+02  0.49519275890E+02  0.00000000000E+00 0. -1.
</event>
<event>
 7    1  0.4096326E-006  0.2604798E+03  0.7561462E-02  0.1106855E+00
          2   -1    0    0  501    0  0.00000000000E+00  0.00000000000E+00  0.97747062320E+03  0.97747062320E+03  0.00000000000E+00 0.  1.
         -2   -1    0    0    0  501 -0.00000000000E+00 -0.00000000000E+00 -0.85815588969E+02  0.85815588969E+02  0.00000000000E+00 0. -1.
         23    2    1    2    0    0  0.20999936779E+03  0.10763107459E+03  0.66340731554E+03  0.71196190695E+03  0.10533901437E+03 0.  0.
          5    1    1    2  502    0 -0.18446814263E+03 -0.13211131337E+03  0.17201415550E+03  0.28475996358E+03  0.41800000000E+01 0. -1.
         -5    1    1    2    0  502 -0.25531225162E+02  0.24480238774E+02  0.56233563199E+02  0.66564341646E+02  0.41800000000E+01 0. -1.
        -11    1    3    3    0    0 -0.12454957567E+02  0.63922235286E+01  0.34428948070E+02  0.37166368599E+02  0.00000000000E+00 0.  1.
         11    1    3    3    0    0  0.22245432536E+03  0.10123885106E+03  0.62897836746E+03  0.67479553835E+03  0.00000000000E+00 0. -1.
</event>
<event>
 7    1  0.4096326E-006  0.1074371E+03  0.7561462E-02  0.1265391E+00
          2   -1    0    0  501    0  0.00000000000E+00  0.00000000000E+00  0.11166733452E+03  0.11166733452E+03  0.00000000000E+00 0.  1.
         -2   -1    0    0    0  501 -0.00000000000E+00 -0.00000000000E+00 -0.19041202988E+03  0.19041202988E+03  0.00000000000E+00 0. -1.
         23    2    1    2    0    0 -0.22363914391E+02  0.35621184733E+02  0.54825331670E+02  0.11430732664E+03  0.91056765050E+02 0.  0.
          5    1    1    2  502    0  0.67469270586E+02  0.44729693590E+01 -0.48207954901E+02  0.83147996031E+02  0.41800000000E+01 0.  1.
         -5    1    1    2    0  502 -0.45105356195E+02 -0.40094154092E+02 -0.85362072128E+02  0.10462404173E+03  0.41800000000E+01 0.  1.
        -11    1    3    3    0    0 -0.27493832514E+02  0.57727328235E+02  0.63403668074E+02  0.90046545612E+02  0.00000000000E+00 0.  1.
         11    1    3    3    0    0  0.51299181229E+01 -0.22106143502E+02 -0.85783364034E+01  0.24260781024E+02  0.00000000000E+00 0. -1.
</event>
<event>
 7    1  0.4096326E-006  0.8364772E+02  0.7561462E-02  0.1319007E+00
         -2   -1    0    0    0  501 -0.00000000000E+00  0.00000000000E+00  0.22106286194E+03  0.22106286194E+03  0.00000000000E+00 0.  1.
          2   -1    0    0  501    0  0.00000000000E+00 -0.00000000000E+00 -0.10080733546E+03  0.10080733546E+03  0.00000000000E+00 0. -1.
         23    2    1    2    0    0 -0.36721023251E+02  0.11737138746E+02 -0.50641884036E+02  0.10660782497E+03  0.85524464057E+02 0.  0.
          5    1    1    2  502    0  0.68529078042E+02  0.90352547706E+01  0.42391667448E+02  0.81193572622E+02  0.41800000000E+01 0. -1.
         -5    1    1    2    0  502 -0.31808054791E+02 -0.20772393517E+02  0.12850574307E+03  0.13406879981E+03  0.41800000000E+01 0. -1.
        -11    1    3    3    0    0 -0.35138574154E+02 -0.11165949255E+02  0.12887576228E+02  0.39057488878E+02  0.00000000000E+00 0.  1.
         11    1    3    3    0    0 -0.15824490965E+01  0.22903088001E+02 -0.63529460264E+02  0.67550336096E+02  0.00000000000E+00 0. -1.
</event>
<event>
 7    1  0.4096326E-006  0.1040349E+03  0.7561462E-02  0.1272033E+00
         -1   -1    0    0    0  501 -0.00000000000E+00  0.00000000000E+00  0.24486447780E+02  0.24486447780E+02  0.00000000000E+00 0.  1.
          1   -1    0    0  501    0  0.00000000000E+00 -0.00000000000E+00 -0.51377243884E+03  0.51377243884E+03  0.00000000000E+00 0. -1.
         23    2    1    2    0    0  0.17437045014E+02  0.30397436150E+00 -0.26334774546E+03  0.27941517691E+03  0.91742373589E+02 0.  0.
          5    1    1    2  502    0 -0.26064411976E+02 -0.58334773038E+02 -0.87467592580E+02  0.10839903814E+03  0.41800000000E+01 0. -1.
         -5    1    1    2    0  502  0.86273669626E+01  0.58030798677E+02 -0.13847065302E+03  0.15044467157E+03  0.41800000000E+01 0. -1.
        -11    1    3    3    0    0  0.47625249632E+02 -0.16829703803E+02 -0.95706731199E+02  0.10821821348E+03  0.00000000000E+00 0.  1.
         11    1    3    3    0    0 -0.30188204619E+02  0.17133678165E+02 -0.16764101426E+03  0.17119696343E+03  0.00000000000E+00 0. -1.
</event>
<event>
 7    1  0.4096326E-006  0.1563240E+03  0.7561462E-02  0.1192911E+00
          2   -1    0    0  501    0  0.00000000000E+00  0.00000000000E+00  0.49846659018E+03  0.49846659018E+03  0.00000000000E+00 0. -1.
         -2   -1    0    0    0  501 -0.00000000000E+00 -0.00000000000E+00 -0.72369902581E+02  0.72369902581E+02  0.00000000000E+00 0.  1.
         23    2    1    2    0    0  0.88249195713E+02  0.10769591393E+03  0.29626021998E+03  0.34304000330E+03  0.10256702930E+03 0.  0.
          5    1    1    2  502    0 -0.48644464605E+02 -0.52186972583E+02  0.14146974396E+03  0.15849581982E+03  0.41800000000E+01 0. -1.
         -5    1    1    2    0  502 -0.39604731108E+02 -0.55508941347E+02 -0.11633276332E+02  0.69300669649E+02  0.41800000000E+01 0. -1.
        -11    1    3    3    0    0 -0.21382197449E+02  0.35923290546E+01  0.34045210304E+02  0.40363096269E+02  0.00000000000E+00 0.  1.
         11    1    3    3    0    0  0.10963139316E+03  0.10410358488E+03  0.26221500967E+03  0.30267690703E+03  0.00000000000E+00 0. -1.
</event>
<event>
 7    1  0.4096326E-006  0.1209950E+03  0.7561462E-02  0.1241465E+00
          2   -1    0    0  501    0  0.00000000000E+00  0.00000000000E+00  0.15250742143E+03  0.15250742143E+03  0.00000000000E+00 0. -1.
         -2   -1    0    0    0  501 -0.00000000000E+00 -0.00000000000E+00 -0.13135121062E+03  0.13135121062E+03  0.00000000000E+00 0.  1.
         23    2    1    2    0    0 -0.51803485510E+02 -0.71735885208E+02  0.25032385769E+02  0.13058613773E+03  0.92717208181E+02 0.  0.
          5    1    1    2  502    0  0.79976920281E+02  0.67825150537E+02  0.29700553951E+02  0.10906949220E+03  0.41800000000E+01 0. -1.
         -5    1    1    2    0  502 -0.28173434771E+02  0.39107346707E+01 -0.33576728907E+02  0.44203002122E+02  0.41800000000E+01 0. -1.
        -11    1    3    3    0    0 -0.55352164477E+02 -0.81151204042E+02 -0.55531117155E+01  0.98388094196E+02  0.00000000000E+00 0.  1.
         11    1    3    3    0    0  0.35486789671E+01  0.94153188344E+01  0.30585497484E+02  0.32198043536E+02  0.00000000000E+00 0. -1.
</event>
<event>
 7    1  0.4096326E-006  0.7807638E+02  0.7561462E-02  0.1334601E+00
          1   -1    0    0  501    0  0.00000000000E+00  0.00000000000E+00  0.10080150564E+03  0.10080150564E+03  0.00000000000E+00 0. -1.
         -1   -1    0    0    0  501 -0.00000000000E+00 -0.00000000000E+00 -0.16108027905E+03  0.16108027905E+03  0.00000000000E+00 0.  1.
         23    2    1    2    0    0  0.62156797940E+02 -0.67880828842E+01 -0.76455167429E+01  0.11245822057E+03  0.93160355554E+02 0.  0.
          5    1    1    2  502    0 -0.24454405766E+02  0.14590298237E+02 -0.90677526760E+02  0.95135592831E+02  0.41800000000E+01 0.  1.
         -5    1    1    2    0  502 -0.37702392174E+02 -0.78022153526E+01  0.38044270090E+02  0.54287971290E+02  0.41800000000E+01 0.  1.
        -11    1    3    3    0    0  0.34783002561E+02  0.27804816459E+02  0.30635404795E+02  0.54050838222E+02  0.00000000000E+00 0. -1.
         11    1    3    3    0    0  0.27373795379E+02 -0.34592899343E+02 -0.38280921538E+02  0.58407382343E+02  0.00000000000E+00 0.  1.
</event>
<event>
 7    1  0.4096326E-006  0.7680081E+02  0.7561462E-02  0.1338383E+00
         -1   -1    0    0    0  501 -0.00000000000E+00  0.00000000000E+00  0.10569593342E+03  0.10569593342E+03  0.00000000000E+00 0.  1.
          1   -1    0    0  501    0  0.00000000000E+00 -0.00000000000E+00 -0.16147319101E+03  0.16147319101E+03  0.00000000000E+00 0. -1.
         23    2    1    2    0    0 -0.11847283329E+02 -0.67634517386E+01 -0.97212523960E+02  0.13468642608E+03  0.92217439534E+02 0.  0.
          5    1    1    2  502    0 -0.44933408964E+00  0.35221086224E+02 -0.35038360640E+02  0.49858659551E+02  0.41800000000E+01 0. -1.
         -5    1    1    2    0  502  0.12296617419E+02 -0.28457634486E+02  0.76473627004E+02  0.82624038800E+02  0.41800000000E+01 0. -1.
        -11    1    3    3    0    0 -0.40613092762E+02 -0.29488864054E+02 -0.30968207623E+02  0.58974963249E+02  0.00000000000E+00 0. -1.
         11    1    3    3    0    0  0.28765809432E+02  0.22725412316E+02 -0.66244316337E+02  0.75711462832E+02  0.00000000000E+00 0.  1.
</event>
<event>
 7    1  0.4096326E-006  0.1075095E+03  0.7561462E-02  0.1265253E+00
         -2   -1    0    0    0  501 -0.00000000000E+00  0.00000000000E+00  0.54414610862E+02  0.54414610862E+02  0.00000000000E+00 0.  1.
          2   -1    0    0  501    0  0.00000000000E+00 -0.00000000000E+00 -0.33496713410E+03  0.33496713410E+03  0.00000000000E+00 0. -1.
         23    2    1    2    0    0 -0.19459804490E+02  0.70271451387E+02 -0.17481175717E+03  0.21008657407E+03  0.90887057874E+02 0.  0.
          5    1    1    2  502    0 -0.32431113026E+02  0.19680294786E+02 -0.13952614831E+02  0.40635439650E+02  0.41800000000E+01 0.  1.
         -5    1    1    2    0  502  0.51890917516E+02 -0.89951746173E+02 -0.91788151232E+02  0.13865973124E+03  0.41800000000E+01 0.  1.
        -11    1    3    3    0    0 -0.11877446423E+02  0.40923970426E+02 -0.11710321631E+02  0.44192496215E+02  0.00000000000E+00 0.  1.
         11    1    3    3    0    0 -0.75823580669E+01  0.29347480961E+02 -0.16310143554E+03  0.16589407786E+03  0.00000000000E+00 0. -1.
</event>
<event>
 7    1  0.4096326E-006  0.9564123E+02  0.7561462E-02  0.1289738E+00
          2   -1    0    0  501    0  0.00000000000E+00  0.00000000000E+00  0.67121392878E+02  0.67121392878E+02  0.00000000000E+00 0. -1.
         -2   -1    0    0    0  501 -0.00000000000E+00 -0.00000000000E+00 -0.25419940965E+03  0.25419940965E+03  0.00000000000E+00 0.  1.
         23    2    1    2    0    0 -0.26143684348E+02 -0.54451134651E+02 -0.67162084397E+02  0.14552059216E+03  0.11409241371E+03 0.  0.
          5    1    1    2  502    0 -0.13388495691E+01 -0.77660398594E+01  0.19044528218E+02  0.21030224638E+02  0.41800000000E+01 0. -1.
         -5    1    1    2    0  502  0.27482533917E+02  0.62217174510E+02 -0.13896046059E+03  0.15476998573E+03  0.41800000000E+01 0.  1.
        -11    1    3    3    0    0 -0.60207159815E+02 -0.14908457816E+02 -0.69656681050E+02  0.93269595380E+02  0.00000000000E+00 0.  1.
         11    1    3    3    0    0  0.34063475467E+02 -0.39542676834E+02  0.24945966535E+01  0.52250996781E+02  0.00000000000E+00 0. -1.
</event>
<event>
 7    1  0.4096326E-006  0.3050714E+03  0.7561462E-02  0.1082733E+00
         -2   -1    0    0    0  501 -0.00000000000E+00  0.00000000000E+00  0.87822692778E+03  0.87822692778E+03  0.00000000000E+00 0. -1.
          2   -1    0    0  501    0  0.00000000000E+00 -0.00000000000E+00 -0.19734987661E+03  0.19734987661E+03  0.00000000000E+00 0.  1.
         23    2    1    2    0    0  0.15412711017E+03 -0.25120372917E+03 -0.16056020291E+02  0.30861962146E+03  0.90165377651E+02 0.  0.
          5    1    1    2  502    0 -0.79771850968E+02  0.45307249647E+02  0.12959302987E+03  0.15883362638E+03  0.41800000000E+01 0.  1.
         -5    1    1    2    0  502 -0.74355259202E+02  0.20589647952E+03  0.56734004158E+03  0.60812355655E+03  0.41800000000E+01 0.  1.
        -11    1    3    3    0    0 -0.42412160758E+01 -0.93223206639E+01  0.14654507961E+02  0.17878707446E+02  0.00000000000E+00 0.  1.
         11    1    3    3    0    0  0.15836832625E+03 -0.24188140850E+03 -0.30710528252E+02  0.29074091402E+03  0.00000000000E+00 0. -1.
</event>
<event>
 7    1  0.4096326E-006  0.1300237E+03  0.7561462E-02  0.1227421E+00
          4   -1    0    0  501    0  0.00000000000E+00  0.00000000000E+00  0.22538639927E+03  0.22538639927E+03  0.00000000000E+00 0. -1.
         -4   -1    0    0    0  501 -0.00000000000E+00 -0.00000000000E+00 -0.10339646745E+03  0.10339646745E+03  0.00000000000E+00 0.  1.
         23    2    1    2    0    0  0.27104115527E+02  0.10365024148E+03  0.58036716539E+02  0.15210065589E+03  0.91040339499E+02 0.  0.
          5    1    1    2  502    0 -0.65373284414E+02 -0.79053919890E+02  0.77945757231E+02  0.12890384802E+03  0.41800000000E+01 0. -1.
         -5    1    1    2    0  502  0.38269168887E+02 -0.24596321593E+02 -0.13992541947E+02  0.47778362815E+02  0.41800000000E+01 0. -1.
        -11    1    3    3    0    0  0.25341412667E+02  0.36009777585E+02 -0.20385473222E+02  0.48522765752E+02  0.00000000000E+00 0.  1.
         11    1    3    3    0    0  0.17627028595E+01  0.67640463898E+02  0.78422189760E+02  0.10357789013E+03  0.00000000000E+00 0. -1.
</event>
<event>
 7    1  0.4096326E-006  0.1215387E+03  0.7561462E-02  0.1240580E+00
          1   -1    0    0  501    0  0.00000000000E+00  0.00000000000E+00  0.15668086851E+03  0.15668086851E+03  0.00000000000E+00 0. -1.
         -1   -1    0    0    0  501 -0.00000000000E+00 -0.00000000000E+00 -0.12658667716E+03  0.12658667716E+03  0.00000000000E+00 0.  1.
         23    2    1    2    0    0  0.44124987239E+02  0.61879458389E+02  0.46670685264E+02  0.13595858201E+03  0.10261823079E+03 0.  0.
          5    1    1    2  502    0  0.28454439762E+02  0.15542892341E+02  0.15758265280E+02  0.36290935081E+02  0.41800000000E+01 0.  1.
         -5    1    1    2    0  502 -0.72579427001E+02 -0.77422350730E+02 -0.32334759194E+02  0.11101802857E+03  0.41800000000E+01 0.  1.
        -11    1    3    3    0    0 -0.14387427984E+02  0.38624800513E+02 -0.18642750195E+02  0.45237433984E+02  0.00000000000E+00 0.  1.
         11    1    3    3    0    0  0.58512415223E+02  0.23254657876E+02  0.65313435459E+02  0.90721148028E+02  0.00000000000E+00 0. -1.
</event>
<event>
 7    1  0.4096326E-006  0.1155034E+03  0.7561462E-02  0.1250705E+00
         -1   -1    0    0    0  501 -0.00000000000E+00  0.00000000000E+00  0.91947665535E+02  0.91947665535E+02  0.00000000000E+00 0.  1.
          1   -1    0    0  501    0  0.00000000000E+00 -0.00000000000E+00 -0.16714981949E+03  0.16714981949E+03  0.00000000000E+00 0. -1.
         23    2    1    2    0    0 -0.34593186915E+02  0.79314391070E+01 -0.42531424336E+02  0.11026392802E+03  0.95339474819E+02 0.  0.
          5    1    1    2  502    0  0.84273556723E+02  0.11761312950E+01 -0.46433744146E+02  0.96317083859E+02  0.41800000000E+01 0. -1.
         -5    1    1    2    0  502 -0.49680369808E+02 -0.91075704020E+01  0.13763014529E+02  0.52516473147E+02  0.41800000000E+01 0.  1.
        -11    1    3    3    0    0  0.30465588701E+02  0.61628297560E+00 -0.31582319527E+02  0.43885929480E+02  0.00000000000E+00 0.  1.
         11    1    3    3    0    0 -0.65058775616E+02  0.73151561314E+01 -0.10949104809E+02  0.66377998539E+02  0.00000000000E+00 0. -1.
</event>
<event>
 7    1  0.4096326E-006  0.1044132E+03  0.7561462E-02  0.1271280E+00
          1   -1    0    0  501    0  0.00000000000E+00  0.00000000000E+00  0.11000525669E+03  0.11000525669E+03  0.00000000000E+00 0. -1.
         -1   -1    0    0    0  501 -0.00000000000E+00 -0.00000000000E+00 -0.15751204608E+03  0.15751204608E+03  0.00000000000E+00 0.  1.
         23    2    1    2    0    0 -0.61271278824E+02  0.23445409607E+02  0.14966128677E+02  0.11307040426E+03  0.90868445957E+02 0.  0.
          5    1    1    2  502    0 -0.31897949511E+02 -0.27312078789E+02 -0.40633211352E+02  0.58582924949E+02  0.41800000000E+01 0. -1.
         -5    1    1    2    0  502  0.93169228335E+02  0.38666691817E+01 -0.21839706709E+02  0.95863973567E+02  0.41800000000E+01 0. -1.
        -11    1    3    3    0    0 -0.12907258604E+02  0.21257290538E+02 -0.35365354617E+02  0.43233991638E+02  0.00000000000E+00 0.  1.
         11    1    3    3    0    0 -0.48364020219E+02  0.21881190691E+01  0.50331483294E+02  0.69836412619E+02  0.00000000000E+00 0. -1.
</event>
<event>
 7    1  0.4096326E-006  0.1134677E+03  0.7561462E-02  0.1254280E+00
          1   -1    0    0  501    0  0.00000000000E+00  0.00000000000E+00  0.16270156842E+03  0.16270156842E+03  0.00000000000E+00 0. -1.
         -1   -1    0    0    0  501 -0.00000000000E+00 -0.00000000000E+00 -0.92781631102E+02  0.92781631102E+02  0.00000000000E+00 0.  1.
         23    2    1    2    0    0 -0.20361372568E+02  0.47207293978E+02  0.69003573512E+02  0.12026357899E+03  0.84016195912E+02 0.  0.
          5    1    1    2  502    0  0.18782251045E+02  0.38276284905E+02 -0.19728546129E+02  0.47164975064E+02  0.41800000000E+01 0. -1.
         -5    1    1    2    0  502  0.15791215235E+01 -0.85483578883E+02  0.20644909938E+02  0.88054645476E+02  0.41800000000E+01 0. -1.
        -11    1    3    3    0    0 -0.52796229886E+02  0.37075850648E+02  0.44715992850E+02  0.78495736241E+02  0.00000000000E+00 0.  1.
         11    1    3    3    0    0  0.32434857317E+02  0.10131443330E+02  0.24287580663E+02  0.41767842745E+02  0.00000000000E+00 0. -1.
</event>
<event>
 7    1  0.4096326E-006  0.9196537E+02  0.7561462E-02  0.1298161E+00
          2   -1    0    0  501    0  0.00000000000E+00  0.00000000000E+00  0.70081605766E+03  0.70081605766E+03  0.00000000000E+00 0. -1.
         -2   -1    0    0    0  501 -0.00000000000E+00 -0.00000000000E+00 -0.22557897046E+02  0.22557897046E+02  0.00000000000E+00 0.  1.
         23    2    1    2    0    0  0.14641862715E+02  0.56538063836E+02  0.35676721367E+03  0.37349620355E+03  0.93838331758E+02 0.  0.
          5    1    1    2  502    0  0.24459741086E+02 -0.59788668699E+01  0.38139586655E+01  0.25807837254E+02  0.41800000000E+01 0.  1.
         -5    1    1    2    0  502 -0.39101603801E+02 -0.50559196966E+02  0.31767698827E+03  0.32406991390E+03  0.41800000000E+01 0.  1.
        -11    1    3    3    0    0  0.54548712510E+00  0.72817802053E+02  0.33520006397E+03  0.34301867695E+03  0.00000000000E+00 0. -1.
         11    1    3    3    0    0  0.14096375590E+02 -0.16279738217E+02  0.21567149704E+02  0.30477526598E+02  0.00000000000E+00 0.  1.
</event>
<event>
 7    1  0.4096326E-006  0.1141491E+03  0.7561462E-02  0.1253074E+00
         -2   -1    0    0    0  501 -0.00000000000E+00  0.00000000000E+00  0.28999911030E+03  0.28999911030E+03  0.00000000000E+00 0.  1.
          2   -1    0    0  501    0  0.00000000000E+00 -0.00000000000E+00 -0.47212859396E+02  0.47212859396E+02  0.00000000000E+00 0. -1.
         23    2    1    2    0    0 -0.15966638157E+02 -0.40476069348E+02  0.98782417189E+02  0.14156354316E+03  0.91591621251E+02 0.  0.
          5    1    1    2  502    0  0.38521636130E+02 -0.34235058081E+02  0.76748327348E+02  0.92540444146E+02  0.41800000000E+01 0. -1.
         -5    1    1    2    0  502 -0.22554997973E+02  0.74711127430E+02  0.67255506372E+02  0.10310798239E+03  0.41800000000E+01 0. -1.
        -11    1    3    3    0    0  0.35023861746E+02 -0.30585316990E+02  0.29859732388E+02  0.55260620022E+02  0.00000000000E+00 0. -1.
         11    1    3    3    0    0 -0.50990499903E+02 -0.98907523588E+01  0.68922684801E+02  0.86302923141E+02  0.00000000000E+00 0.  1.
</event>
<event>
 7    1  0.4096326E-006  0.1297071E+03  0.7561462E-02  0.1227891E+00
          1   -1    0    0  501    0  0.00000000000E+00  0.00000000000E+00  0.29484981935E+03  0.29484981935E+03  0.00000000000E+00 0. -1.
         -1   -1    0    0    0  501 -0.00000000000E+00 -0.00000000000E+00 -0.85523505775E+02  0.85523505775E+02  0.00000000000E+00 0.  1.
         23    2    1    2    0    0 -0.96952016166E+01 -0.69492338629E+02  0.20646735305E+03  0.23692822440E+03  0.92644662977E+02 0.  0.
          5    1    1    2  502    0  0.35873366870E+02  0.98015421272E+02  0.31166717932E+01  0.10450410184E+03  0.41800000000E+01 0.  1.
         -5    1    1    2    0  502 -0.26178165253E+02 -0.28523082643E+02 -0.25771126857E+00  0.38940998890E+02  0.41800000000E+01 0.  1.
        -11    1    3    3    0    0  0.39940654404E+02 -0.46545546281E+02  0.10219827569E+03  0.11918989600E+03  0.00000000000E+00 0.  1.
         11    1    3    3    0    0 -0.49635856021E+02 -0.22946792348E+02  0.10426907735E+03  0.11773832840E+03  0.00000000000E+00 0. -1.
</event>
<event>
 7    1  0.4096326E-006  0.6301806E+02  0.7561462E-02  0.1385586E+00
         -2   -1    0    0    0  501 -0.00000000000E+00  0.00000000000E+00  0.15134884531E+03  0.15134884531E+03  0.00000000000E+00 0.  1.
          2   -1    0    0  501    0  0.00000000000E+00 -0.00000000000E+00 -0.10815393204E+03  0.10815393204E+03  0.00000000000E+00 0. -1.
         23    2    1    2    0    0  0.20820959547E+02  0.46251085154E+02 -0.10498321864E+02  0.11423313435E+03  0.10181512160E+03 0.  0.
          5    1    1    2  502    0  0.87749696383E+01 -0.21407125210E+02  0.89431200144E+02  0.92469871099E+02  0.41800000000E+01 0. -1.
         -5    1    1    2    0  502 -0.29595929185E+02 -0.24843959944E+02 -0.35737965004E+02  0.52799771900E+02  0.41800000000E+01 0. -1.
        -11    1    3    3    0    0 -0.37198845407E+01  0.37379242112E+02 -0.52638601730E+02  0.64667361737E+02  0.00000000000E+00 0. -1.
         11    1    3    3    0    0  0.24540844087E+02  0.88718430415E+01  0.42140279867E+02  0.49565772613E+02  0.00000000000E+00 0.  1.
</event>
<event>
 7    1  0.4096326E-006  0.1363010E+03  0.7561462E-02  0.1218395E+00
         -2   -1    0    0    0  501 -0.00000000000E+00  0.00000000000E+00  0.35311125789E+02  0.35311125789E+02  0.00000000000E+00 0.  1.
          2   -1    0    0  501    0  0.00000000000E+00 -0.00000000000E+00 -0.53481340524E+03  0.53481340524E+03  0.00000000000E+00 0. -1.
         23    2    1    2    0    0  0.69694905456E+02 -0.50155248526E+02 -0.23525312754E+03  0.26542031301E+03  0.87925990131E+02 0.  0.
          5    1    1    2  502    0 -0.85766558318E+02  0.79292557367E+02 -0.22069800843E+03  0.24973645210E+03  0.41800000000E+01 0. -1.
         -5    1    1    2    0  502  0.16071652862E+02 -0.29137308841E+02 -0.43551143479E+02  0.54967765923E+02  0.41800000000E+01 0. -1.
        -11    1    3    3    0    0  0.69587516674E+02  0.24014459819E+01 -0.11974340812E+03  0.13851596734E+03  0.00000000000E+00 0.  1.
         11    1    3    3    0    0  0.10738878134E+00 -0.52556694508E+02 -0.11550971942E+03  0.12690434567E+03  0.00000000000E+00 0. -1.
</event>
<event>
 7    1  0.4096326E-006  0.1255226E+03  0.7561462E-02  0.1234255E+00
         -1   -1    0    0    0  501 -0.00000000000E+00  0.00000000000E+00  0.12552524636E+03  0.12552524636E+03  0.00000000000E+00 0.  1.
          1   -1    0    0  501    0  0.00000000000E+00 -0.00000000000E+00 -0.13055484561E+03  0.13055484561E+03  0.00000000000E+00 0. -1.
         23    2    1    2    0    0  0.64545096267E+02 -0.34828062584E+02 -0.17260365597E+02  0.11055952926E+03  0.80909986372E+02 0.  0.
          5    1    1    2  502    0  0.36212369871E+02  0.55449287265E+01 -0.99559317337E+01  0.38192603249E+02  0.41800000000E+01 0. -1.
         -5    1    1    2    0  502 -0.10075746614E+03  0.29283133858E+02  0.22186698084E+02  0.10732795946E+03  0.41800000000E+01 0. -1.
        -11    1    3    3    0    0  0.29583673574E+02  0.25749920639E+02 -0.76485759896E+01  0.39959390257E+02  0.00000000000E+00 0.  1.
         11    1    3    3    0    0  0.34961422693E+02 -0.60577983223E+02 -0.96117896077E+01  0.70600139005E+02  0.00000000000E+00 0. -1.
</event>
<event>
 7    1  0.4096326E-006  0.7978071E+02  0.7561462E-02  0.1329675E+00
          2   -1    0    0  501    0  0.00000000000E+00  0.00000000000E+00  0.25484052144E+03  0.25484052144E+03  0.00000000000E+00 0.  1.
         -2   -1    0    0    0  501 -0.00000000000E+00 -0.00000000000E+00 -0.77866003632E+02  0.77866003632E+02  0.00000000000E+00 0. -1.
         23    2    1    2    0    0  0.16044587422E+02  0.32965705609E+02  0.17989550988E+03  0.20229809089E+03  0.84958557958E+02 0.  0.
          5    1    1    2  502    0  0.26231586373E+02 -0.34056448033E+02  0.47677521181E+02  0.64331611220E+02  0.41800000000E+01 0. -1.
         -5    1    1    2    0  502 -0.42276173795E+02  0.10907424236E+01 -0.50598513251E+02  0.66076822964E+02  0.41800000000E+01 0. -1.
        -11    1    3    3    0    0 -0.17398150680E+02  0.36312133908E+02  0.34362014551E+02  0.52934060491E+02  0.00000000000E+00 0. -1.
         11    1    3    3    0    0  0.33442738102E+02 -0.33464282988E+01  0.14553349533E+03  0.14936403040E+03  0.00000000000E+00 0.  1.
</event>
<event>
 7    1  0.4096326E-006  0.1656760E+03  0.7561462E-02  0.1182434E+00
         -2   -1    0    0    0  501 -0.00000000000E+00  0.00000000000E+00  0.52163981408E+02  0.52163981408E+02  0.00000000000E+00 0.  1.
          2   -1    0    0  501    0  0.00000000000E+00 -0.00000000000E+00 -0.70130504734E+03  0.70130504734E+03  0.00000000000E+00 0. -1.
         23    2    1    2    0    0 -0.40929991254E+02  0.14706525897E+03 -0.38058864293E+03  0.42019622099E+03  0.91726192697E+02 0.  0.
          5    1    1    2  502    0  0.79256317925E+01 -0.48284266422E+02 -0.44071931031E+01  0.49306001402E+02  0.41800000000E+01 0.  1.
         -5    1    1    2    0  502  0.33004359462E+02 -0.98780992552E+02 -0.26414522990E+03  0.28396680636E+03  0.41800000000E+01 0.  1.
        -11    1    3    3    0    0 -0.30857726872E+02  0.15924420332E+03 -0.35029179115E+03  0.38602494031E+03  0.00000000000E+00 0.  1.
         11    1    3    3    0    0 -0.10072264383E+02 -0.12178944347E+02 -0.30296851780E+02  0.34171280675E+02  0.00000000000E+00 0. -1.
</event>
<event>
 7    1  0.4096326E-006  0.9054427E+02  0.7561462E-02  0.1301539E+00
         -2   -1    0    0    0  501 -0.00000000000E+00  0.00000000000E+00  0.33095145006E+02  0.33095145006E+02  0.00000000000E+00 0.  1.
          2   -1    0    0  501    0  0.00000000000E+00 -0.00000000000E+00 -0.42448942923E+03  0.42448942923E+03  0.00000000000E+00 0. -1.
         23    2    1    2    0    0  0.21816040420E+02  0.26507975055E+02 -0.23389369734E+03  0.25354052023E+03  0.91640173397E+02 0.  0.
          5    1    1    2  502    0  0.10642394104E+02  0.22052922835E+02  0.98662514744E+01  0.26728398305E+02  0.41800000000E+01 0. -1.
         -5    1    1    2    0  502 -0.32458434524E+02 -0.48560897890E+02 -0.16736683835E+03  0.17731565570E+03  0.41800000000E+01 0. -1.
        -11    1    3    3    0    0 -0.23935138954E+02  0.42870351792E+02 -0.11005992858E+03  0.12051533437E+03  0.00000000000E+00 0.  1.
         11    1    3    3    0    0  0.45751179375E+02 -0.16362376737E+02 -0.12383376876E+03  0.13302518585E+03  0.00000000000E+00 0. -1.
</event>
<event>
 7    1  0.4096326E-006  0.1044454E+03  0.7561462E-02  0.1271216E+00
         -3   -1    0    0    0  501 -0.00000000000E+00  0.00000000000E+00  0.30350953129E+03  0.30350953129E+03  0.00000000000E+00 0.  1.
          3   -1    0    0  501    0  0.00000000000E+00 -0.00000000000E+00 -0.44361628995E+02  0.44361628995E+02  0.00000000000E+00 0. -1.
         23    2    1    2    0    0 -0.43442944579E+02 -0.24977632729E+02  0.57405373934E+02  0.10525959704E+03  0.72615661133E+02 0.  0.
          5    1    1    2  502    0 -0.19166571202E+02 -0.38570334124E+02  0.46543781391E+02  0.63551743581E+02  0.41800000000E+01 0.  1.
         -5    1    1    2    0  502  0.62609515781E+02  0.63547966853E+02  0.15519874697E+03  0.17905981967E+03  0.41800000000E+01 0.  1.
        -11    1    3    3    0    0 -0.36768761956E+02 -0.43303446127E+02  0.15262305345E+02  0.58822344961E+02  0.00000000000E+00 0. -1.
         11    1    3    3    0    0 -0.66741826226E+01  0.18325813398E+02  0.42143068590E+02  0.46437252078E+02  0.00000000000E+00 0.  1.
</event>
<event>
 7    1  0.4096326E-006  0.1075176E+03  0.7561462E-02  0.1265237E+00
         -2   -1    0    0    0  501 -0.00000000000E+00  0.00000000000E+00  0.55815244858E+02  0.55815244858E+02  0.00000000000E+00 0. -1.
          2   -1    0    0  501    0  0.00000000000E+00 -0.00000000000E+00 -0.22821333333E+03  0.22821333333E+03  0.00000000000E+00 0.  1.
         23    2    1    2    0    0 -0.17420570459E+02  0.14590278060E+01 -0.10264547673E+03  0.13976790512E+03  0.93238234490E+02 0.  0.
          5    1    1    2  502    0  0.41554686943E+02  0.51728629096E+02 -0.26996993675E+02  0.71756206300E+02  0.41800000000E+01 0.  1.
         -5    1    1    2    0  502 -0.24134116484E+02 -0.53187656902E+02 -0.42755618065E+02  0.72504466768E+02  0.41800000000E+01 0.  1.
        -11    1    3    3    0    0 -0.40921036859E+02  0.31652180113E+02 -0.36362385653E+02  0.63234601714E+02  0.00000000000E+00 0. -1.
         11    1    3    3    0    0  0.23500466400E+02 -0.30193152307E+02 -0.66283091081E+02  0.76533303407E+02  0.00000000000E+00 0.  1.
</event>
<event>
 7    1  0.4096326E-006  0.3160540E+03  0.7561462E-02  0.1077480E+00
         -1   -1    0    0    0  501 -0.00000000000E+00  0.00000000000E+00  0.32839289923E+03  0.32839289923E+03  0.00000000000E+00 0.  1.
          1   -1    0    0  501    0  0.00000000000E+00 -0.00000000000E+00 -0.45459066354E+03  0.45459066354E+03  0.00000000000E+00 0. -1.
         23    2    1    2    0    0  0.27014668909E+03  0.13810096918E+03 -0.27788471665E+03  0.42144877081E+03  0.91367605618E+02 0.  0.
          5    1    1    2  502    0 -0.25718550297E+03 -0.15929479514E+03  0.13490220915E+03  0.33126317805E+03  0.41800000000E+01 0. -1.
         -5    1    1    2    0  502 -0.12961186120E+02  0.21193825967E+02  0.16784743189E+02  0.30271613910E+02  0.41800000000E+01 0. -1.
        -11    1    3    3    0    0  0.10197703770E+03  0.39080809915E+02 -0.46349636734E+02  0.11863774588E+03  0.00000000000E+00 0.  1.
         11    1    3    3    0    0  0.16816965139E+03  0.99020159260E+02 -0.23153507992E+03  0.30281102493E+03  0.00000000000E+00 0. -1.
</event>
<event>
 7    1  0.4096326E-006  0.1203578E+03  0.7561462E-02  0.1242508E+00
          2   -1    0    0  501    0  0.00000000000E+00  0.00000000000E+00  0.44953833796E+03  0.44953833796E+03  0.00000000000E+00 0. -1.
         -2   -1    0    0    0  501 -0.00000000000E+00 -0.00000000000E+00 -0.52765586989E+02  0.52765586989E+02  0.00000000000E+00 0.  1.
         23    2    1    2    0    0  0.44338926696E+01  0.10024838406E+03  0.18814430069E+03  0.23191708202E+03  0.91202286940E+02 0.  0.
          5    1    1    2  502    0  0.31328417058E+01 -0.10562887851E+03  0.22641218919E+03  0.24989443068E+03  0.41800000000E+01 0. -1.
         -5    1    1    2    0  502 -0.75667343754E+01  0.53804944542E+01 -0.17783738911E+02  0.20492412238E+02  0.41800000000E+01 0.  1.
        -11    1    3    3    0    0  0.38092709243E+02  0.69157541512E+02  0.71201413029E+02  0.10631773729E+03  0.00000000000E+00 0.  1.
         11    1    3    3    0    0 -0.33658816573E+02  0.31090842544E+02  0.11694288766E+03  0.12559934473E+03  0.00000000000E+00 0. -1.
</event>
<event>
 7    1  0.4096326E-006  0.1122884E+03  0.7561462E-02  0.1256390E+00
          1   -1    0    0  501    0  0.00000000000E+00  0.00000000000E+00  0.32634897965E+03  0.32634897965E+03  0.00000000000E+00 0. -1.
         -1   -1    0    0    0  501 -0.00000000000E+00 -0.00000000000E+00 -0.63824297925E+02  0.63824297925E+02  0.00000000000E+00 0.  1.
         23    2    1    2    0    0  0.60055087793E+02 -0.56280528647E+02  0.18257247858E+03  0.22043373834E+03  0.92109780096E+02 0.  0.
          5    1    1    2  502    0 -0.76255635947E+02  0.21173401935E+02 -0.17321035427E+01  0.79269840077E+02  0.41800000000E+01 0. -1.
         -5    1    1    2    0  502  0.16200548154E+02  0.35107126712E+02  0.81684306685E+02  0.90469699154E+02  0.41800000000E+01 0. -1.
        -11    1    3    3    0    0  0.41430062577E+02 -0.71331027462E+02  0.79312384510E+02  0.11443347369E+03  0.00000000000E+00 0.  1.
         11    1    3    3    0    0  0.18625025216E+02  0.15050498815E+02  0.10326009407E+03  0.10600026465E+03  0.00000000000E+00 0. -1.
</event>
<event>
 7    1  0.4096326E-006  0.8056572E+02  0.7561462E-02  0.1327454E+00
         -3   -1    0    0    0  501 -0.00000000000E+00  0.00000000000E+00  0.10637946601E+03  0.10637946601E+03  0.00000000000E+00 0.  1.
          3   -1    0    0  501    0  0.00000000000E+00 -0.00000000000E+00 -0.11954114005E+03  0.11954114005E+03  0.00000000000E+00 0. -1.
         23    2    1    2    0    0 -0.29234602556E+02 -0.93464946313E+00 -0.18771437400E+02  0.97327174197E+02  0.90910265751E+02 0.  0.
          5    1    1    2  502    0  0.49885565057E+02  0.43418869755E+02  0.32789082256E+02  0.73934864354E+02  0.41800000000E+01 0. -1.
         -5    1    1    2    0  502 -0.20650962500E+02 -0.42484220291E+02 -0.27179318895E+02  0.54658567504E+02  0.41800000000E+01 0. -1.
        -11    1    3    3    0    0 -0.56490368624E+01 -0.17651888753E+02 -0.50862948678E+02  0.54134465383E+02  0.00000000000E+00 0. -1.
         11    1    3    3    0    0 -0.23585565694E+02  0.16717239290E+02  0.32091511278E+02  0.43192708814E+02  0.00000000000E+00 0.  1.
</event>
<event>
 7    1  0.4096326E-006  0.1091534E+03  0.7561462E-02  0.1262146E+00
         -1   -1    0    0    0  501 -0.00000000000E+00  0.00000000000E+00  0.38363104893E+02  0.38363104893E+02  0.00000000000E+00 0.  1.
          1   -1    0    0  501    0  0.00000000000E+00 -0.00000000000E+00 -0.43906199423E+03  0.43906199423E+03  0.00000000000E+00 0. -1.
         23    2    1    2    0    0  0.29392193785E+02  0.52767335994E+02 -0.28222308223E+03  0.30160013532E+03  0.87547019824E+02 0.  0.
          5    1    1    2  502    0 -0.69826268320E+02 -0.12680320360E+02 -0.51308879453E+02  0.87673096117E+02  0.41800000000E+01 0. -1.
         -5    1    1    2    0  502  0.40434074535E+02 -0.40087015634E+02 -0.67166927659E+02  0.88151867689E+02  0.41800000000E+01 0.  1.
        -11    1    3    3    0    0  0.49013202620E+02  0.50498069525E+02 -0.26844930444E+03  0.27752004993E+03  0.00000000000E+00 0.  1.
         11    1    3    3    0    0 -0.19621008835E+02  0.22692664694E+01 -0.13773777785E+02  0.24080085392E+02  0.00000000000E+00 0. -1.
</event>
<event>
 7    1  0.4096326E-006  0.1215054E+03  0.7561462E-02  0.1240634E+00
          1   -1    0    0  501    0  0.00000000000E+00  0.00000000000E+00  0.82452682215E+02  0.82452682215E+02  0.00000000000E+00 0. -1.
         -1   -1    0    0    0  501 -0.00000000000E+00 -0.00000000000E+00 -0.41130061760E+03  0.41130061760E+03  0.00000000000E+00 0.  1.
         23    2    1    2    0    0 -0.62231409852E+02  0.77030547234E+01  0.29124915920E+02  0.10937265832E+03  0.84746871547E+02 0.  0.
          5    1    1    2  502    0 -0.17772339522E+02  0.40400308604E+02 -0.14923466958E+03  0.15568076308E+03  0.41800000000E+01 0. -1.
         -5    1    1    2    0  502  0.80003749374E+02 -0.48103363327E+02 -0.20873818172E+03  0.22869987841E+03  0.41800000000E+01 0. -1.
        -11    1    3    3    0    0 -0.18462231592E+02 -0.37816612388E+02  0.84255820961E+01  0.42917835471E+02  0.00000000000E+00 0.  1.
         11    1    3    3    0    0 -0.43769178260E+02  0.45519667112E+02  0.20699333824E+02  0.66454822852E+02  0.00000000000E+00 0. -1.
</event>
<event>
 7    1  0.4096326E-006  0.1336742E+03  0.7561462E-02  0.1222104E+00
          2   -1    0    0  501    0  0.00000000000E+00  0.00000000000E+00  0.13054014972E+03  0.13054014972E+03  0.00000000000E+00 0. -1.
         -2   -1    0    0    0  501 -0.00000000000E+00 -0.00000000000E+00 -0.16624486003E+03  0.16624486003E+03  0.00000000000E+00 0.  1.
         23    2    1    2    0    0 -0.48956470887E+02 -0.73673083793E+02  0.28972810661E+02  0.13048708608E+03  0.91449420769E+02 0.  0.
          5    1    1    2  502    0  0.82962260336E+02  0.78773845290E+02 -0.65023080766E+02  0.13165685996E+03  0.41800000000E+01 0.  1.
         -5    1    1    2    0  502 -0.34005789449E+02 -0.51007614974E+01  0.34555979253E+00  0.34641063717E+02  0.41800000000E+01 0.  1.
        -11    1    3    3    0    0 -0.37270069364E+02 -0.90424750414E+02  0.35408240686E+01  0.97868437164E+02  0.00000000000E+00 0.  1.
         11    1    3    3    0    0 -0.11686401523E+02  0.16751666621E+02  0.25431986593E+02  0.32618648917E+02  0.00000000000E+00 0. -1.
</event>
<event>
 7    1  0.4096326E-006  0.1427282E+03  0.7561462E-02  0.1209704E+00
         -1   -1    0    0    0  501 -0.00000000000E+00  0.00000000000E+00  0.13264842281E+03  0.13264842281E+03  0.00000000000E+00 0.  1.
          1   -1    0    0  501    0  0.00000000000E+00 -0.00000000000E+00 -0.15415546292E+03  0.15415546292E+03  0.00000000000E+00 0. -1.
         23    2    1    2    0    0  0.86330008251E+02  0.31905671181E+02 -0.13904754683E+02  0.13132054370E+03  0.92633151830E+02 0.  0.
          5    1    1    2  502    0 -0.10284035329E+03  0.16135554408E+02 -0.82489739953E+01  0.10450843197E+03  0.41800000000E+01 0.  1.
         -5    1    1    2    0  502  0.16510345039E+02 -0.48041225589E+02  0.64668856512E+00  0.50974910059E+02  0.41800000000E+01 0.  1.
        -11    1    3    3    0    0 -0.15810891172E+02  0.22815680421E+02  0.53840186247E+00  0.27763815107E+02  0.00000000000E+00 0.  1.
         11    1    3    3    0    0  0.10214089942E+03  0.90899907602E+01 -0.14443156546E+02  0.10355672860E+03  0.00000000000E+00 0. -1.
</event>
<event>
 7    1  0.4096326E-006  0.1822073E+03  0.7561462E-02  0.1165684E+00
         -4   -1    0    0    0  501 -0.00000000000E+00  0.00000000000E+00  0.98647830199E+03  0.98647830199E+03  0.00000000000E+00 0.  1.
          4   -1    0    0  501    0  0.00000000000E+00 -0.00000000000E+00 -0.42053905382E+02  0.42053905382E+02  0.00000000000E+00 0. -1.
         23    2    1    2    0    0  0.14585324053E+03  0.57282258788E+02  0.27193145836E+03  0.32678537435E+03  0.91035915422E+02 0.  0.
          5    1    1    2  502    0 -0.39241828235E+02 -0.76854378277E+02  0.38236458862E+03  0.39200340250E+03  0.41800000000E+01 0. -1.
         -5    1    1    2    0  502 -0.10661141230E+03  0.19572119490E+02  0.29012834963E+03  0.30974343052E+03  0.41800000000E+01 0. -1.
        -11    1    3    3    0    0  0.83615369386E+02 -0.19357612259E+01  0.19206943497E+03  0.20948972533E+03  0.00000000000E+00 0. -1.
         11    1    3    3    0    0  0.62237871147E+02  0.59218020014E+02  0.79862023398E+02  0.11729564903E+03  0.00000000000E+00 0.  1.
</event>
<event>
 7    1  0.4096326E-006  0.9440592E+02  0.7561462E-02  0.1292520E+00
          2   -1    0    0  501    0  0.00000000000E+00  0.00000000000E+00  0.70944163548E+02  0.70944163548E+02  0.00000000000E+00 0. -1.
         -2   -1    0    0    0  501 -0.00000000000E+00 -0.00000000000E+00 -0.25193557509E+03  0.25193557509E+03  0.00000000000E+00 0.  1.
         23    2    1    2    0    0  0.61998836283E+02  0.24657134740E+01 -0.23497624426E+02  0.11240106725E+03  0.90729962645E+02 0.  0.
          5    1    1    2  502    0 -0.53316458984E+02  0.30122597932E+02 -0.13920827637E+02  0.62938680848E+02  0.41800000000E+01 0.  1.
         -5    1    1    2    0  502 -0.86823772989E+01 -0.32588311406E+02 -0.14357295948E+03  0.14753999054E+03  0.41800000000E+01 0.  1.
        -11    1    3    3    0    0 -0.23279651772E+00 -0.25302109899E+02 -0.35105261500E+02  0.43273899114E+02  0.00000000000E+00 0.  1.
         11    1    3    3    0    0  0.62231632801E+02  0.27767823373E+02  0.11607637074E+02  0.69127168135E+02  0.00000000000E+00 0. -1.
</event>
<event>
 7    1  0.4096326E-006  0.1441314E+03  0.7561462E-02  0.1207876E+00
         -2   -1    0    0    0  501 -0.00000000000E+00  0.00000000000E+00  0.11451446837E+03  0.11451446837E+03  0.00000000000E+00 0.  1.
          2   -1    0    0  501    0  0.00000000000E+00 -0.00000000000E+00 -0.24130297133E+03  0.24130297133E+03  0.00000000000E+00 0. -1.
         23    2    1    2    0    0  0.10760430018E+03 -0.69296078729E+02 -0.46547026410E+02  0.15968903074E+03  0.83386623192E+02 0.  0.
          5    1    1    2  502    0 -0.77238530884E+02  0.18241124479E+02  0.17778148728E+02  0.81437486746E+02  0.41800000000E+01 0.  1.
         -5    1    1    2    0  502 -0.30365769296E+02  0.51054954250E+02 -0.98019625275E+02  0.11469092221E+03  0.41800000000E+01 0.  1.
        -11    1    3    3    0    0  0.69229790810E+02  0.90401408643E+00 -0.46835573354E+01  0.69393925429E+02  0.00000000000E+00 0. -1.
         11    1    3    3    0    0  0.38374509369E+02 -0.70200092815E+02 -0.41863469074E+02  0.90295105313E+02  0.00000000000E+00 0.  1.
</event>
<event>
 7    1  0.4096326E-006  0.9403066E+02  0.7561462E-02  0.1293374E+00
          4   -1    0    0  501    0  0.00000000000E+00  0.00000000000E+00  0.47151201885E+02  0.47151201885E+02  0.00000000000E+00 0. -1.
         -4   -1    0    0    0  501 -0.00000000000E+00 -0.00000000000E+00 -0.37821072177E+03  0.37821072177E+03  0.00000000000E+00 0.  1.
         23    2    1    2    0    0  0.16494979519E+02 -0.60656872882E+02 -0.75568664558E+02  0.13402906798E+03  0.91114364529E+02 0.  0.
          5    1    1    2  502    0 -0.27561430635E+02  0.52887810006E+00  0.72444963312E+00  0.27891027194E+02  0.41800000000E+01 0.  1.
         -5    1    1    2    0  502  0.11066451116E+02  0.60127994781E+02 -0.25621530496E+03  0.26344182848E+03  0.41800000000E+01 0.  1.
        -11    1    3    3    0    0  0.46576175452E+02 -0.27323121683E+02 -0.10560072216E+02  0.55021888585E+02  0.00000000000E+00 0. -1.
         11    1    3    3    0    0 -0.30081195933E+02 -0.33333751198E+02 -0.65008592342E+02  0.79007179395E+02  0.00000000000E+00 0.  1.
</event>
<event>
 7    1  0.4096326E-006  0.9292709E+02  0.7561462E-02  0.1295914E+00
          2   -1    0    0  501    0  0.00000000000E+00  0.00000000000E+00  0.32703019479E+03  0.32703019479E+03  0.00000000000E+00 0. -1.
         -2   -1    0    0    0  501 -0.00000000000E+00 -0.00000000000E+00 -0.57854884788E+02  0.57854884788E+02  0.00000000000E+00 0.  1.
         23    2    1    2    0    0 -0.66056733997E+02 -0.35562669316E+02  0.17527291792E+03  0.21141432992E+03  0.91363163170E+02 0.  0.
          5    1    1    2  502    0  0.32069584633E+02  0.41432624150E+02 -0.18577909674E+02  0.55747033377E+02  0.41800000000E+01 0. -1.
         -5    1    1    2    0  502  0.33987149364E+02 -0.58699548345E+01  0.11248030175E+03  0.11772371628E+03  0.41800000000E+01 0. -1.
        -11    1    3    3    0    0 -0.52295506862E+02  0.79662169592E+01  0.33841690186E+02  0.62797616557E+02  0.00000000000E+00 0.  1.
         11    1    3    3    0    0 -0.13761227135E+02 -0.43528886275E+02  0.14143122774E+03  0.14861671336E+03  0.00000000000E+00 0. -1.
</event>
<event>
 7    1  0.4096326E-006  0.1114756E+03  0.7561462E-02  0.1257861E+00
          2   -1    0    0  501    0  0.00000000000E+00  0.00000000000E+00  0.16934541939E+03  0.16934541939E+03  0.00000000000E+00 0. -1.
         -2   -1    0    0    0  501 -0.00000000000E+00 -0.00000000000E+00 -0.92008034103E+02  0.92008034103E+02  0.00000000000E+00 0.  1.
         23    2    1    2    0    0 -0.48895477847E+02 -0.37976904767E+02  0.46666162175E+02  0.11846132830E+03  0.89567530734E+02 0.  0.
          5    1    1    2  502    0  0.37621257430E+02 -0.34379585378E+02  0.45047957856E+02  0.68147676471E+02  0.41800000000E+01 0. -1.
         -5    1    1    2    0  502  0.11274220416E+02  0.72356490145E+02 -0.14376734743E+02  0.74744448717E+02  0.41800000000E+01 0. -1.
        -11    1    3    3    0    0 -0.64311552961E+02 -0.80632681948E+01  0.51503578788E+01  0.65019368841E+02  0.00000000000E+00 0.  1.
         11    1    3    3    0    0  0.15416075114E+02 -0.29913636572E+02  0.41515804296E+02  0.53441959463E+02  0.00000000000E+00 0. -1.
</event>
<event>
 7    1  0.4096326E-006  0.1005544E+03  0.7561462E-02  0.1279134E+00
          1   -1    0    0  501    0  0.00000000000E+00  0.00000000000E+00  0.51051832354E+02  0.51051832354E+02  0.00000000000E+00 0. -1.
         -1   -1    0    0    0  501 -0.00000000000E+00 -0.00000000000E+00 -0.42652916022E+03  0.42652916022E+03  0.00000000000E+00 0.  1.
         23    2    1    2    0    0 -0.62039946548E+02 -0.22584476222E+02 -0.80358839520E+02  0.15031827078E+03  0.10853122089E+03 0.  0.
          5    1    1    2  502    0 -0.15561047395E+02 -0.56956956864E+01 -0.20200445006E+03  0.20272606490E+03  0.41800000000E+01 0. -1.
         -5    1    1    2    0  502  0.77600993943E+02  0.28280171908E+02 -0.93114038277E+02  0.12453665689E+03  0.41800000000E+01 0. -1.
        -11    1    3    3    0    0  0.56656343602E+01  0.20366500687E+02  0.14858030558E+02  0.25839017686E+02  0.00000000000E+00 0. -1.
         11    1    3    3    0    0 -0.67705580908E+02 -0.42950976908E+02 -0.95216870078E+02  0.12447925309E+03  0.00000000000E+00 0.  1.
</event>
<event>
 7    1  0.4096326E-006  0.1160755E+03  0.7561462E-02  0.1249715E+00
         -1   -1    0    0    0  501 -0.00000000000E+00  0.00000000000E+00  0.50266021209E+02  0.50266021209E+02  0.00000000000E+00 0.  1.
          1   -1    0    0  501    0  0.00000000000E+00 -0.00000000000E+00 -0.27576826060E+03  0.27576826060E+03  0.00000000000E+00 0. -1.
         23    2    1    2    0    0 -0.34791194397E+02 -0.32543185579E+02 -0.96906171850E+02  0.14041574397E+03  0.89756831921E+02 0.  0.
          5    1    1    2  502    0 -0.69356959109E+01 -0.44514880890E+02 -0.33948999460E+02  0.56565762284E+02  0.41800000000E+01 0.  1.
         -5    1    1    2    0  502  0.41726890308E+02  0.77058066469E+02 -0.94647068086E+02  0.12905277556E+03  0.41800000000E+01 0.  1.
        -11    1    3    3    0    0 -0.61786330359E+02 -0.36697436883E+02 -0.82930903282E+02  0.10973507740E+03  0.00000000000E+00 0. -1.
         11    1    3    3    0    0  0.26995135962E+02  0.41542513043E+01 -0.13975268568E+02  0.30680666568E+02  0.00000000000E+00 0.  1.
</event>
<event>
 7    1  0.4096326E-006  0.9791166E+02  0.7561462E-02  0.1284750E+00
         -1   -1    0    0    0  501 -0.00000000000E+00  0.00000000000E+00  0.21479867028E+03  0.21479867028E+03  0.00000000000E+00 0.  1.
          1   -1    0    0  501    0  0.00000000000E+00 -0.00000000000E+00 -0.75887428310E+02  0.75887428310E+02  0.00000000000E+00 0. -1.
         23    2    1    2    0    0  0.14342550207E+02  0.38532566119E+02  0.19563618248E+01  0.10070294452E+03  0.91906410465E+02 0.  0.
          5    1    1    2  502    0 -0.60343902577E+02 -0.31732593696E+02  0.32656738885E+02  0.75711815957E+02  0.41800000000E+01 0. -1.
         -5    1    1    2    0  502  0.46001352370E+02 -0.67999724230E+01  0.10429814126E+03  0.11427133812E+03  0.41800000000E+01 0. -1.
        -11    1    3    3    0    0 -0.58716869547E+01 -0.18979360571E+02  0.28065963648E+02  0.34385915007E+02  0.00000000000E+00 0.  1.
         11    1    3    3    0    0  0.20214237162E+02  0.57511926690E+02 -0.26109601823E+02  0.66317029510E+02  0.00000000000E+00 0. -1.
</event>
<event>
 7    1  0.4096326E-006  0.1012802E+03  0.7561462E-02  0.1277627E+00
          1   -1    0    0  501    0  0.00000000000E+00  0.00000000000E+00  0.90615589766E+02  0.90615589766E+02  0.00000000000E+00 0. -1.
         -1   -1    0    0    0  501 -0.00000000000E+00 -0.00000000000E+00 -0.14195901259E+03  0.14195901259E+03  0.00000000000E+00 0.  1.
         23    2    1    2    0    0  0.91321423315E+01 -0.17980106924E+02  0.29768603799E+01  0.94719551402E+02  0.92500007846E+02 0.  0.
          5    1    1    2  502    0  0.31923393790E+02  0.57901709080E+02 -0.43963977854E+02  0.79511098183E+02  0.41800000000E+01 0.  1.
         -5    1    1    2    0  502 -0.41055536122E+02 -0.39921602155E+02 -0.10356305355E+02  0.58343952776E+02  0.41800000000E+01 0.  1.
        -11    1    3    3    0    0  0.21684412097E+02 -0.44527352355E+02 -0.23827482757E+02  0.54960420033E+02  0.00000000000E+00 0.  1.
         11    1    3    3    0    0 -0.12552269765E+02  0.26547245430E+02  0.26804343137E+02  0.39759131369E+02  0.00000000000E+00 0. -1.
</event>
<event>
 7    1  0.4096326E-006  0.1935709E+03  0.7561462E-02  0.1155280E+00
         -1   -1    0    0    0  501 -0.00000000000E+00  0.00000000000E+00  0.21831413425E+02  0.21831413425E+02  0.00000000000E+00 0.  1.
          1   -1    0    0  501    0  0.00000000000E+00 -0.00000000000E+00 -0.20836711390E+04  0.20836711390E+04  0.00000000000E+00 0. -1.
         23    2    1    2    0    0 -0.14154624981E+03 -0.11175031650E+03 -0.83642696987E+03  0.86058961155E+03  0.92091962311E+02 0.  0.
          5    1    1    2  502    0  0.66508825047E+02  0.89577809330E+01 -0.74097008540E+03  0.74401465410E+03  0.41800000000E+01 0.  1.
         -5    1    1    2    0  502  0.75037424758E+02  0.10279253557E+03 -0.48444267035E+03  0.50089828682E+03  0.41800000000E+01 0.  1.
        -11    1    3    3    0    0 -0.63063592557E+02 -0.92167808831E+02 -0.34714505805E+03  0.36466644077E+03  0.00000000000E+00 0.  1.
         11    1    3    3    0    0 -0.78482657249E+02 -0.19582507667E+02 -0.48928191181E+03  0.49592317079E+03  0.00000000000E+00 0. -1.
</event>
<event>
 7    1  0.4096326E-006  0.3091282E+03  0.7561462E-02  0.1080765E+00
         -2   -1    0    0    0  501 -0.00000000000E+00  0.00000000000E+00  0.30966532013E+03  0.30966532013E+03  0.00000000000E+00 0.  1.
          2   -1    0    0  501    0  0.00000000000E+00 -0.00000000000E+00 -0.34687739541E+03  0.34687739541E+03  0.00000000000E+00 0. -1.
         23    2    1    2    0    0 -0.24464423885E+03  0.17851015777E+03 -0.80930608526E+02  0.32597262079E+03  0.89396342629E+02 0.  0.
          5    1    1    2  502    0  0.59549017098E+02 -0.15966157115E+02 -0.36132965623E+02  0.71582590168E+02  0.41800000000E+01 0. -1.
         -5    1    1    2    0  502  0.18509522175E+03 -0.16254400065E+03  0.79851498868E+02  0.25898750459E+03  0.41800000000E+01 0. -1.
        -11    1    3    3    0    0 -0.83986199263E+02  0.24374097964E+02  0.43448960806E+01  0.87559445180E+02  0.00000000000E+00 0.  1.
         11    1    3    3    0    0 -0.16065803959E+03  0.15413605980E+03 -0.85275504607E+02  0.23841317561E+03  0.00000000000E+00 0. -1.
</event>
<event>
 7    1  0.4096326E-006  0.1040949E+03  0.7561462E-02  0.1271913E+00
         -1   -1    0    0    0  501 -0.00000000000E+00  0.00000000000E+00  0.12346299213E+03  0.12346299213E+03  0.00000000000E+00 0.  1.
          1   -1    0    0  501    0  0.00000000000E+00 -0.00000000000E+00 -0.14013093013E+03  0.14013093013E+03  0.00000000000E+00 0. -1.
         23    2    1    2    0    0  0.51773442861E+02 -0.44557772581E+02 -0.42503989490E+02  0.11874774672E+03  0.87341592302E+02 0.  0.
          5    1    1    2  502    0 -0.67891740233E+02  0.24825664741E+02  0.65420650628E+02  0.97585531460E+02  0.41800000000E+01 0.  1.
         -5    1    1    2    0  502  0.16118297373E+02  0.19732107840E+02 -0.39584599143E+02  0.47260644084E+02  0.41800000000E+01 0.  1.
        -11    1    3    3    0    0 -0.14647618673E+02 -0.40895525276E+02 -0.24324969450E+02  0.49786552995E+02  0.00000000000E+00 0.  1.
         11    1    3    3    0    0  0.66421061534E+02 -0.36622473049E+01 -0.18179020039E+02  0.68961193726E+02  0.00000000000E+00 0. -1.
</event>
<event>
 7    1  0.4096326E-006  0.2327613E+03  0.7561462E-02  0.1124711E+00
         -2   -1    0    0    0  501 -0.00000000000E+00  0.00000000000E+00  0.29352496046E+03  0.29352496046E+03  0.00000000000E+00 0.  1.
          2   -1    0    0  501    0  0.00000000000E+00 -0.00000000000E+00 -0.31952794597E+03  0.31952794597E+03  0.00000000000E+00 0. -1.
         23    2    1    2    0    0  0.15920214722E+03 -0.14723824472E+03 -0.19956305569E+03  0.30842676392E+03  0.90979289504E+02 0.  0.
          5    1    1    2  502    0 -0.17954752609E+03  0.13070019724E+03  0.14312864106E+03  0.26424067812E+03  0.41800000000E+01 0.  1.
         -5    1    1    2    0  502  0.20345378868E+02  0.16538047474E+02  0.30431429115E+02  0.40385464384E+02  0.41800000000E+01 0.  1.
        -11    1    3    3    0    0  0.34428637019E+02 -0.32246860469E+02 -0.92286812322E+00  0.47180957416E+02  0.00000000000E+00 0.  1.
         11    1    3    3    0    0  0.12477351020E+03 -0.11499138425E+03 -0.19864018757E+03  0.26124580650E+03  0.00000000000E+00 0. -1.
</event>
<event>
 7    1  0.4096326E-006  0.1161467E+03  0.7561462E-02  0.1249593E+00
         -2   -1    0    0    0  501 -0.00000000000E+00  0.00000000000E+00  0.69843200764E+03  0.69843200764E+03  0.00000000000E+00 0. -1.
          2   -1    0    0  501    0  0.00000000000E+00 -0.00000000000E+00 -0.28254054846E+02  0.28254054846E+02  0.00000000000E+00 0.  1.
         23    2    1    2    0    0 -0.81585741079E+02  0.22721988539E+02  0.22521412875E+03  0.25677928788E+03  0.89675397897E+02 0.  0.
          5    1    1    2  502    0  0.11054348161E+03 -0.30145716402E+02  0.39708722504E+03  0.41330903963E+03  0.41800000000E+01 0. -1.
         -5    1    1    2    0  502 -0.28957740534E+02  0.74237278634E+01  0.47876599001E+02  0.56597734973E+02  0.41800000000E+01 0. -1.
        -11    1    3    3    0    0 -0.45280620943E+02  0.13027042449E+01  0.20515601468E+03  0.21009764880E+03  0.00000000000E+00 0. -1.
         11    1    3    3    0    0 -0.36305120136E+02  0.21419284294E+02  0.20058114068E+02  0.46681639085E+02  0.00000000000E+00 0.  1.
</event>
<event>
 7    1  0.4096326E-006  0.1225630E+03  0.7561462E-02  0.1238928E+00
         -2   -1    0    0    0  501 -0.00000000000E+00  0.00000000000E+00  0.82866175097E+02  0.82866175097E+02  0.00000000000E+00 0.  1.
          2   -1    0    0  501    0  0.00000000000E+00 -0.00000000000E+00 -0.27816745917E+03  0.27816745917E+03  0.00000000000E+00 0. -1.
         23    2    1    2    0    0 -0.52683971400E+02  0.76142570231E+02 -0.14867661540E+03  0.19857076330E+03  0.93553835984E+02 0.  0.
          5    1    1    2  502    0  0.34452361941E+02  0.21957841920E+02 -0.47237036245E+02  0.62593306817E+02  0.41800000000E+01 0.  1.
         -5    1    1    2    0  502  0.18231609460E+02 -0.98100412151E+02  0.61236757980E+00  0.99869564141E+02  0.41800000000E+01 0.  1.
        -11    1    3    3    0    0 -0.10948001407E+02 -0.56831763863E+01  0.95598003003E+01  0.15605992773E+02  0.00000000000E+00 0.  1.
         11    1    3    3    0    0 -0.41735969994E+02  0.81825746617E+02 -0.15823641570E+03  0.18296477053E+03  0.00000000000E+00 0. -1.
</event>
<event>
 7    1  0.4096326E-006  0.1583898E+03  0.7561462E-02  0.1190527E+00
          2   -1    0    0  501    0  0.00000000000E+00  0.00000000000E+00  0.47172990368E+03  0.47172990368E+03  0.00000000000E+00 0. -1.
         -2   -1    0    0    0  501 -0.00000000000E+00 -0.00000000000E+00 -0.67338461231E+02  0.67338461231E+02  0.00000000000E+00 0.  1.
         23    2    1    2    0    0  0.28187684639E+02  0.13186650993E+03  0.25239293829E+03  0.30045904148E+03  0.91597588941E+02 0.  0.
          5    1    1    2  502    0  0.25726246080E+02 -0.57506498385E+02  0.12932102638E+03  0.14391051858E+03  0.41800000000E+01 0.  1.
         -5    1    1    2    0  502 -0.53913930719E+02 -0.74360011541E+02  0.22677477771E+02  0.94698804850E+02  0.41800000000E+01 0.  1.
        -11    1    3    3    0    0  0.47505374469E+02  0.13408747834E+03  0.23302320338E+03  0.27301286740E+03  0.00000000000E+00 0. -1.
         11    1    3    3    0    0 -0.19317689830E+02 -0.22209684119E+01  0.19369734909E+02  0.27446174077E+02  0.00000000000E+00 0.  1.
</event>
<event>
 7    1  0.4096326E-006  0.1512656E+03  0.7561462E-02  0.1198926E+00
         -3   -1    0    0    0  501 -0.00000000000E+00  0.00000000000E+00  0.18937731414E+04  0.18937731414E+04  0.00000000000E+00 0.  1.
          3   -1    0    0  501    0  0.00000000000E+00 -0.00000000000E+00 -0.12540048754E+02  0.12540048754E+02  0.00000000000E+00 0. -1.
         23    2    1    2    0    0  0.66255817866E+02 -0.81053012406E+02  0.70302189405E+03  0.71686423192E+03  0.93247623388E+02 0.  0.
          5    1    1    2  502    0 -0.55614355656E+02  0.11452808019E+03  0.95319207830E+03  0.96166639135E+03  0.41800000000E+01 0. -1.
         -5    1    1    2    0  502 -0.10641462209E+02 -0.33475067786E+02  0.22501912029E+03  0.22778256688E+03  0.41800000000E+01 0. -1.
        -11    1    3    3    0    0  0.27126520519E+02 -0.94562248771E+02  0.51936381680E+03  0.52859875256E+03  0.00000000000E+00 0. -1.
         11    1    3    3    0    0  0.39129297347E+02  0.13509236365E+02  0.18365807726E+03  0.18826547936E+03  0.00000000000E+00 0.  1.
</event>
<event>
 7    1  0.4096326E-006  0.1102037E+03  0.7561462E-02  0.1260193E+00
          2   -1    0    0  501    0  0.00000000000E+00  0.00000000000E+00  0.74376058768E+03  0.74376058768E+03  0.00000000000E+00 0. -1.
         -2   -1    0    0    0  501 -0.00000000000E+00 -0.00000000000E+00 -0.18583200193E+02  0.18583200193E+02  0.00000000000E+00 0.  1.
         23    2    1    2    0    0 -0.23666119568E+02 -0.38933462839E+02  0.29396470330E+03  0.31104850131E+03  0.90884672170E+02 0.  0.
          5    1    1    2  502    0  0.24828041887E+02  0.78709923447E+02  0.36233176501E+03  0.37163619852E+03  0.41800000000E+01 0.  1.
         -5    1    1    2    0  502 -0.11619223187E+01 -0.39776460607E+02  0.68880919180E+02  0.79659088050E+02  0.41800000000E+01 0.  1.
        -11    1    3    3    0    0  0.17490324294E+02  0.19556996932E+02  0.12227680168E+03  0.12506000081E+03  0.00000000000E+00 0. -1.
         11    1    3    3    0    0 -0.41156443863E+02 -0.58490459771E+02  0.17168790162E+03  0.18598850050E+03  0.00000000000E+00 0.  1.
</event>
<event>
 7    1  0.4096326E-006  0.1017694E+03  0.7561462E-02  0.1276619E+00
         -3   -1    0    0    0  501 -0.00000000000E+00  0.00000000000E+00  0.19928656077E+02  0.19928656077E+02  0.00000000000E+00 0.  1.
          3   -1    0    0  501    0  0.00000000000E+00 -0.00000000000E+00 -0.60332287490E+03  0.60332287490E+03  0.00000000000E+00 0. -1.
         23    2    1    2    0    0 -0.19753215595E+02  0.14621158247E+02 -0.23077342229E+03  0.24829531769E+03  0.88262248739E+02 0.  0.
          5    1    1    2  502    0  0.55264570657E+02 -0.40086502923E+02 -0.29323669062E+03  0.30110850139E+03  0.41800000000E+01 0. -1.
         -5    1    1    2    0  502 -0.35511355063E+02  0.25465344675E+02 -0.59384105910E+02  0.73847711898E+02  0.41800000000E+01 0. -1.
        -11    1    3    3    0    0 -0.58639645125E+01 -0.37164906669E+02 -0.84224921709E+02  0.92246700778E+02  0.00000000000E+00 0. -1.
         11    1    3    3    0    0 -0.13889251082E+02  0.51786064916E+02 -0.14654850059E+03  0.15604861691E+03  0.00000000000E+00 0.  1.
</event>
<event>
 7    1  0.4096326E-006  0.1952527E+03  0.7561462E-02  0.1153807E+00
         -1   -1    0    0    0  501 -0.00000000000E+00  0.00000000000E+00  0.18962290370E+03  0.18962290370E+03  0.00000000000E+00 0.  1.
          1   -1    0    0  501    0  0.00000000000E+00 -0.00000000000E+00 -0.34099871964E+03  0.34099871964E+03  0.00000000000E+00 0. -1.
         23    2    1    2    0    0 -0.18144123542E+03  0.43680385647E+02 -0.21334558696E+03  0.29756158877E+03  0.90540938986E+02 0.  0.
          5    1    1    2  502    0  0.15068073185E+03 -0.64721980137E+02  0.40952921828E+01  0.16409710991E+03  0.41800000000E+01 0. -1.
         -5    1    1    2    0  502  0.30760503576E+02  0.21041594489E+02  0.57874478829E+02  0.68962924667E+02  0.41800000000E+01 0. -1.
        -11    1    3    3    0    0 -0.91121559878E+02  0.67252380461E+01 -0.42412795277E+02  0.10073337433E+03  0.00000000000E+00 0. -1.
         11    1    3    3    0    0 -0.90319675543E+02  0.36955147601E+02 -0.17093279168E+03  0.19682821443E+03  0.00000000000E+00 0.  1.
</event>
<event>
 7    1  0.4096326E-006  0.1139568E+03  0.7561462E-02  0.1253413E+00
          2   -1    0    0  501    0  0.00000000000E+00  0.00000000000E+00  0.25522269263E+03  0.25522269263E+03  0.00000000000E+00 0.  1.
         -2   -1    0    0    0  501 -0.00000000000E+00 -0.00000000000E+00 -0.96414985801E+02  0.96414985801E+02  0.00000000000E+00 0. -1.
         23    2    1    2    0    0  0.37699177008E+02  0.10166950286E+03  0.10316608299E+03  0.17699201486E+03  0.94472307515E+02 0.  0.
          5    1    1    2  502    0  0.70904182901E+01 -0.39494266736E+02  0.83716013650E+02  0.92929621101E+02  0.41800000000E+01 0. -1.
         -5    1    1    2    0  502 -0.44789595298E+02 -0.62175236122E+02 -0.28074389807E+02  0.81716042469E+02  0.41800000000E+01 0. -1.
        -11    1    3    3    0    0  0.11138665308E+02  0.62616594858E+02  0.77572770827E-01  0.63599637059E+02  0.00000000000E+00 0. -1.
         11    1    3    3    0    0  0.26560511700E+02  0.39052908000E+02  0.10308851022E+03  0.11339237780E+03  0.00000000000E+00 0.  1.
</event>
<event>
 7    1  0.4096326E-006  0.1145069E+03  0.7561462E-02  0.1252444E+00
         -3   -1    0    0    0  501 -0.00000000000E+00  0.00000000000E+00  0.16449657456E+03  0.16449657456E+03  0.00000000000E+00 0.  1.
          3   -1    0    0  501    0  0.00000000000E+00 -0.00000000000E+00 -0.12891344347E+03  0.12891344347E+03  0.00000000000E+00 0. -1.
         23    2    1    2    0    0  0.57906888002E+02  0.68464752235E+02 -0.20292990538E+02  0.12967294451E+03  0.91447455389E+02 0.  0.
          5    1    1    2  502    0 -0.31997894119E+02  0.63347047838E+01  0.75260408954E+02  0.82131572911E+02  0.41800000000E+01 0. -1.
         -5    1    1    2    0  502 -0.25908993882E+02 -0.74799457019E+02 -0.19384287322E+02  0.81605500607E+02  0.41800000000E+01 0. -1.
        -11    1    3    3    0    0  0.64301975766E+02  0.19096646826E+02  0.14894805328E+02  0.68711580051E+02  0.00000000000E+00 0.  1.
         11    1    3    3    0    0 -0.63950877640E+01  0.49368105408E+02 -0.35187795866E+02  0.60961364462E+02  0.00000000000E+00 0. -1.
</event>
<event>
 7    1  0.4096326E-006  0.9376585E+02  0.7561462E-02  0.1293980E+00
         -2   -1    0    0    0  501 -0.00000000000E+00  0.00000000000E+00  0.33583373223E+03  0.33583373223E+03  0.00000000000E+00 0.  1.
          2   -1    0    0  501    0  0.00000000000E+00 -0.00000000000E+00 -0.35118095159E+02  0.35118095159E+02  0.00000000000E+00 0. -1.
         23    2    1    2    0    0 -0.65746590477E+01 -0.55179091094E+00  0.12267452113E+03  0.15325931131E+03  0.91628858729E+02 0.  0.
          5    1    1    2  502    0 -0.42296762342E+02  0.42771522362E+02  0.79028991760E+02  0.99405599281E+02  0.41800000000E+01 0.  1.
         -5    1    1    2    0  502  0.48871421389E+02 -0.42219731451E+02  0.99012124177E+02  0.11828691680E+03  0.41800000000E+01 0.  1.
        -11    1    3    3    0    0 -0.34050160872E+02  0.51986144173E+01  0.12024773156E+03  0.12508379588E+03  0.00000000000E+00 0.  1.
         11    1    3    3    0    0  0.27475501824E+02 -0.57504053283E+01  0.24267895782E+01  0.28175515427E+02  0.00000000000E+00 0. -1.
</event>
<event>
 7    1  0.4096326E-006  0.1093823E+03  0.7561462E-02  0.1261718E+00
         -1   -1    0    0    0  501 -0.00000000000E+00  0.00000000000E+00  0.64364654411E+03  0.64364654411E+03  0.00000000000E+00 0.  1.
          1   -1    0    0  501    0  0.00000000000E+00 -0.00000000000E+00 -0.23705850630E+02  0.23705850630E+02  0.00000000000E+00 0. -1.
         23    2    1    2    0    0  0.52943367815E+02 -0.32028970561E+01  0.17930097480E+03  0.20623729826E+03  0.87015658828E+02 0.  0.
          5    1    1    2  502    0 -0.33970769639E+00  0.50783207010E+02  0.90689521041E+02  0.10402456990E+03  0.41800000000E+01 0. -1.
         -5    1    1    2    0  502 -0.52603660118E+02 -0.47580309954E+02  0.34995019763E+03  0.35709052658E+03  0.41800000000E+01 0. -1.
        -11    1    3    3    0    0 -0.16151311007E+02 -0.19942077274E+02  0.22728389005E+02  0.34280183196E+02  0.00000000000E+00 0. -1.
         11    1    3    3    0    0  0.69094678821E+02  0.16739180218E+02  0.15657258580E+03  0.17195711506E+03  0.00000000000E+00 0.  1.
</event>
<event>
 7    1  0.4096326E-006  0.1079285E+03  0.7561462E-02  0.1264455E+00
          2   -1    0    0  501    0  0.00000000000E+00  0.00000000000E+00  0.15649670612E+03  0.15649670612E+03  0.00000000000E+00 0. -1.
         -2   -1    0    0    0  501 -0.00000000000E+00 -0.00000000000E+00 -0.10068063410E+03  0.10068063410E+03  0.00000000000E+00 0.  1.
         23    2    1    2    0    0 -0.34681601905E+01  0.22236525042E+02  0.84906950572E+02  0.12679454050E+03  0.91439455732E+02 0.  0.
          5    1    1    2  502    0 -0.27588530356E+02  0.44555907179E+02 -0.51800485419E+01  0.52826708914E+02  0.41800000000E+01 0.  1.
         -5    1    1    2    0  502  0.31056690546E+02 -0.66792432221E+02 -0.23910830007E+02  0.77556090807E+02  0.41800000000E+01 0.  1.
        -11    1    3    3    0    0 -0.42615958134E+02 -0.33365369580E+01  0.60415073258E+02  0.74008333607E+02  0.00000000000E+00 0.  1.
         11    1    3    3    0    0  0.39147797944E+02  0.25573062000E+02  0.24491877314E+02  0.52786206894E+02  0.00000000000E+00 0. -1.
</event>
<event>
 7    1  0.4096326E-006  0.1951883E+03  0.7561462E-02  0.1153863E+00
         -1   -1    0    0    0  501 -0.00000000000E+00  0.00000000000E+00  0.65284290972E+03  0.65284290972E+03  0.00000000000E+00 0.  1.
          1   -1    0    0  501    0  0.00000000000E+00 -0.00000000000E+00 -0.64600743533E+02  0.64600743533E+02  0.00000000000E+00 0. -1.
         23    2    1    2    0    0  0.16620393623E+03  0.12755137526E+02  0.19463934497E+03  0.27207027714E+03  0.91385552143E+02 0.  0.
          5    1    1    2  502    0 -0.12170004476E+03 -0.64681939682E+02  0.23259349827E+03  0.27039205250E+03  0.41800000000E+01 0. -1.
         -5    1    1    2    0  502 -0.44503891468E+02  0.51926802156E+02  0.16100932294E+03  0.17498132361E+03  0.41800000000E+01 0. -1.
        -11    1    3    3    0    0  0.94199765473E+02 -0.31656805547E+02  0.13878638765E+03  0.17069683813E+03  0.00000000000E+00 0.  1.
         11    1    3    3    0    0  0.72004170759E+02  0.44411943074E+02  0.55852957320E+02  0.10137343901E+03  0.00000000000E+00 0. -1.
</event>
<event>
 7    1  0.4096326E-006  0.1975055E+03  0.7561462E-02  0.1151861E+00
         -1   -1    0    0    0  501 -0.00000000000E+00  0.00000000000E+00  0.10303026734E+03  0.10303026734E+03  0.00000000000E+00 0.  1.
          1   -1    0    0  501    0  0.00000000000E+00 -0.00000000000E+00 -0.44327276211E+03  0.44327276211E+03  0.00000000000E+00 0. -1.
         23    2    1    2    0    0 -0.27569667276E+02  0.17342446523E+03 -0.23259688923E+03  0.30531878677E+03  0.91006137046E+02 0.  0.
          5    1    1    2  502    0  0.51408723915E+02 -0.17023011658E+03 -0.11905295887E+03  0.21403791463E+03  0.41800000000E+01 0.  1.
         -5    1    1    2    0  502 -0.23839056639E+02 -0.31943486555E+01  0.11407353336E+02  0.26946328041E+02  0.41800000000E+01 0.  1.
        -11    1    3    3    0    0 -0.54421267637E+02  0.90929598245E+02 -0.16144796615E+03  0.19311994196E+03  0.00000000000E+00 0. -1.
         11    1    3    3    0    0  0.26851600361E+02  0.82494866990E+02 -0.71148923078E+02  0.11219884481E+03  0.00000000000E+00 0.  1.
</event>
<event>
 7    1  0.4096326E-006  0.3149688E+03  0.7561462E-02  0.1077988E+00
          2   -1    0    0  501    0  0.00000000000E+00  0.00000000000E+00  0.62934890250E+02  0.62934890250E+02  0.00000000000E+00 0. -1.
         -2   -1    0    0    0  501 -0.00000000000E+00 -0.00000000000E+00 -0.17573529542E+04  0.17573529542E+04  0.00000000000E+00 0.  1.
         23    2    1    2    0    0 -0.24218804176E+03  0.19086180067E+03 -0.66954159485E+03  0.74274302040E+03  0.91093208256E+02 0.  0.
          5    1    1    2  502    0  0.11797290078E+03 -0.37255574018E+02 -0.26641944412E+03  0.29377265993E+03  0.41800000000E+01 0.  1.
         -5    1    1    2    0  502  0.12421514098E+03 -0.15360622666E+03 -0.75845702499E+03  0.78377216413E+03  0.41800000000E+01 0.  1.
        -11    1    3    3    0    0 -0.72015805700E+02  0.50281577406E+02 -0.10691123690E+03  0.13836374479E+03  0.00000000000E+00 0. -1.
         11    1    3    3    0    0 -0.17017223606E+03  0.14058022327E+03 -0.56263035795E+03  0.60437927561E+03  0.00000000000E+00 0.  1.
</event>
<event>
 7    1  0.4096326E-006  0.9941890E+02  0.7561462E-02  0.1281523E+00
         -1   -1    0    0    0  501 -0.00000000000E+00  0.00000000000E+00  0.88717885131E+02  0.88717885131E+02  0.00000000000E+00 0.  1.
          1   -1    0    0  501    0  0.00000000000E+00 -0.00000000000E+00 -0.13878736907E+03  0.13878736907E+03  0.00000000000E+00 0. -1.
         23    2    1    2    0    0 -0.69524582336E+01 -0.14955315777E+02 -0.22521090650E+02  0.98357726495E+02  0.94313544583E+02 0.  0.
          5    1    1    2  502    0  0.27463282013E+02 -0.38026515412E+02 -0.49291923933E+02  0.68171943630E+02  0.41800000000E+01 0. -1.
         -5    1    1    2    0  502 -0.20510823779E+02  0.52981831189E+02  0.21743530645E+02  0.60975584074E+02  0.41800000000E+01 0. -1.
        -11    1    3    3    0    0 -0.20000648438E+02 -0.51887449406E+02 -0.63076226286E+01  0.55965341480E+02  0.00000000000E+00 0.  1.
         11    1    3    3    0    0  0.13048190205E+02  0.36932133629E+02 -0.16213468021E+02  0.42392385015E+02  0.00000000000E+00 0. -1.
</event>
<event>
 7    1  0.4096326E-006  0.1724984E+03  0.7561462E-02  0.1175267E+00
          1   -1    0    0  501    0  0.00000000000E+00  0.00000000000E+00  0.74338022744E+03  0.74338022744E+03  0.00000000000E+00 0. -1.
         -1   -1    0    0    0  501 -0.00000000000E+00 -0.00000000000E+00 -0.47019712355E+02  0.47019712355E+02  0.00000000000E+00 0.  1.
         23    2    1    2    0    0 -0.12229413661E+03 -0.72686718668E+02  0.44236083576E+03  0.47353817596E+03  0.91192544403E+02 0.  0.
          5    1    1    2  502    0  0.91859246311E+02  0.10846494998E+03  0.19465542349E+03  0.24106217621E+03  0.41800000000E+01 0. -1.
         -5    1    1    2    0  502  0.30434890303E+02 -0.35778231309E+02  0.59344255837E+02  0.75799587626E+02  0.41800000000E+01 0. -1.
        -11    1    3    3    0    0 -0.43729575503E+02  0.63636233504E+01  0.22468530968E+03  0.22898965012E+03  0.00000000000E+00 0. -1.
         11    1    3    3    0    0 -0.78564561111E+02 -0.79050342018E+02  0.21767552608E+03  0.24454852584E+03  0.00000000000E+00 0.  1.
</event>
<event>
 7    1  0.4096326E-006  0.9426669E+02  0.7561462E-02  0.1292836E+00
          2   -1    0    0  501    0  0.00000000000E+00  0.00000000000E+00  0.10680549402E+03  0.10680549402E+03  0.00000000000E+00 0. -1.
         -2   -1    0    0    0  501 -0.00000000000E+00 -0.00000000000E+00 -0.14902401134E+03  0.14902401134E+03  0.00000000000E+00 0.  1.
         23    2    1    2    0    0 -0.54063609040E+01 -0.35412368137E+02  0.33137066722E+02  0.10545843134E+03  0.93488774694E+02 0.  0.
          5    1    1    2  502    0 -0.31893397250E+02 -0.12695536967E+02 -0.81999580855E+02  0.88993084604E+02  0.41800000000E+01 0. -1.
         -5    1    1    2    0  502  0.37299758154E+02  0.48107905105E+02  0.66439968072E+01  0.61377989422E+02  0.41800000000E+01 0. -1.
        -11    1    3    3    0    0  0.21007534671E+02 -0.55764309730E+02  0.39525450233E+02  0.71506894554E+02  0.00000000000E+00 0.  1.
         11    1    3    3    0    0 -0.26413895575E+02  0.20351941593E+02 -0.63883835106E+01  0.33951536783E+02  0.00000000000E+00 0. -1.
</event>
<event>
 7    1  0.4096326E-006  0.1274419E+03  0.7561462E-02  0.1231302E+00
          3   -1    0    0  501    0  0.00000000000E+00  0.00000000000E+00  0.39813942310E+03  0.39813942310E+03  0.00000000000E+00 0. -1.
         -3   -1    0    0    0  501 -0.00000000000E+00 -0.00000000000E+00 -0.42065149867E+02  0.42065149867E+02  0.00000000000E+00 0.  1.
         23    2    1    2    0    0 -0.66176423708E+02  0.49569338973E+01  0.18372449745E+03  0.21714580144E+03  0.94835214303E+02 0.  0.
          5    1    1    2  502    0  0.28436549230E+02 -0.63328680285E+02  0.10665227455E+03  0.12732375719E+03  0.41800000000E+01 0.  1.
         -5    1    1    2    0  502  0.37739874478E+02  0.58371746387E+02  0.65697501245E+02  0.95735014345E+02  0.41800000000E+01 0.  1.
        -11    1    3    3    0    0 -0.34745020837E+02 -0.44894989256E+02  0.87114854877E+02  0.10397968298E+03  0.00000000000E+00 0.  1.
         11    1    3    3    0    0 -0.31431402871E+02  0.49851923153E+02  0.96609642570E+02  0.11316611845E+03  0.00000000000E+00 0. -1.
</event>
<event>
 7    1  0.4096326E-006  0.5787700E+02  0.7561462E-02  0.1406963E+00
          3   -1    0    0  501    0  0.00000000000E+00  0.00000000000E+00  0.40188934496E+03  0.40188934496E+03  0.00000000000E+00 0. -1.
         -3   -1    0    0    0  501 -0.00000000000E+00 -0.00000000000E+00 -0.32254228107E+02  0.32254228107E+02  0.00000000000E+00 0.  1.
         23    2    1    2    0    0 -0.11735762056E+02 -0.28348689535E+02  0.19212180723E+03  0.21486606569E+03  0.91188053292E+02 0.  0.
          5    1    1    2  502    0  0.22500625461E+00  0.26361397166E+02 -0.12066321764E+02  0.29292360937E+02  0.41800000000E+01 0.  1.
         -5    1    1    2    0  502  0.11510755801E+02  0.19872923690E+01  0.18957963139E+03  0.18998514644E+03  0.41800000000E+01 0.  1.
        -11    1    3    3    0    0  0.69652567619E+01  0.21931250227E+02  0.10146738180E+02  0.25148575188E+02  0.00000000000E+00 0.  1.
         11    1    3    3    0    0 -0.18701018818E+02 -0.50279939762E+02  0.18197506905E+03  0.18971749050E+03  0.00000000000E+00 0. -1.
</event>
<event>
 7    1  0.4096326E-006  0.1050432E+03  0.7561462E-02  0.1270035E+00
          1   -1    0    0  501    0  0.00000000000E+00  0.00000000000E+00  0.29070736219E+03  0.29070736219E+03  0.00000000000E+00 0. -1.
         -1   -1    0    0    0  501 -0.00000000000E+00 -0.00000000000E+00 -0.66039592127E+02  0.66039592127E+02  0.00000000000E+00 0.  1.
         23    2    1    2    0    0 -0.74284379477E+02 -0.29277352712E+02  0.12910692735E+03  0.18024858892E+03  0.97188593484E+02 0.  0.
          5    1    1    2  502    0  0.18403494259E+02  0.37511283241E+02 -0.20967126889E+02  0.46934824824E+02  0.41800000000E+01 0.  1.
         -5    1    1    2    0  502  0.55880885219E+02 -0.82339305288E+01  0.11652796960E+03  0.12956354057E+03  0.41800000000E+01 0.  1.
        -11    1    3    3    0    0 -0.54171232970E+02 -0.56063818926E+02  0.45700509663E+02  0.90367089460E+02  0.00000000000E+00 0.  1.
         11    1    3    3    0    0 -0.20113146507E+02  0.26786466214E+02  0.83406417683E+02  0.89881499461E+02  0.00000000000E+00 0. -1.
</event>
<event>
 7    1  0.4096326E-006  0.9901345E+02  0.7561462E-02  0.1282384E+00
         -4   -1    0    0    0  501 -0.00000000000E+00  0.00000000000E+00  0.10892440793E+03  0.10892440793E+03  0.00000000000E+00 0.  1.
          4   -1    0    0  501    0  0.00000000000E+00 -0.00000000000E+00 -0.30930668273E+03  0.30930668273E+03  0.00000000000E+00 0. -1.
         23    2    1    2    0    0 -0.95599207704E+01  0.77550743921E+02 -0.23736578725E+03  0.26617626088E+03  0.91661196443E+02 0.  0.
          5    1    1    2  502    0  0.83357305935E+01 -0.62514119551E+02  0.82495704205E+02  0.10392551737E+03  0.41800000000E+01 0.  1.
         -5    1    1    2    0  502  0.12241901769E+01 -0.15036624370E+02 -0.45512191759E+02  0.48129312407E+02  0.41800000000E+01 0.  1.
        -11    1    3    3    0    0  0.30915181536E+02 -0.85802917320E+00 -0.79828681062E+02  0.85610180373E+02  0.00000000000E+00 0. -1.
         11    1    3    3    0    0 -0.40475102306E+02  0.78408773094E+02 -0.15753710619E+03  0.18056608051E+03  0.00000000000E+00 0.  1.
</event>
<event>
 7    1  0.4096326E-006  0.1003037E+03  0.7561462E-02  0.1279659E+00
          2   -1    0    0  501    0  0.00000000000E+00  0.00000000000E+00  0.25976964627E+02  0.25976964627E+02  0.00000000000E+00 0. -1.
         -2   -1    0    0    0  501 -0.00000000000E+00 -0.00000000000E+00 -0.61138335834E+03  0.61138335834E+03  0.00000000000E+00 0.  1.
         23    2    1    2    0    0  0.33951027741E+01  0.58622167003E+02 -0.17869383587E+03  0.20773238461E+03  0.88165591084E+02 0.  0.
          5    1    1    2  502    0  0.35809998712E+02 -0.18131921775E+02 -0.33915911887E+03  0.34155161090E+03  0.41800000000E+01 0. -1.
         -5    1    1    2    0  502 -0.39205101486E+02 -0.40490245228E+02 -0.67553438974E+02  0.88076327458E+02  0.41800000000E+01 0. -1.
        -11    1    3    3    0    0 -0.17606652968E+02  0.75040685380E+02 -0.14948841595E+03  0.16819002703E+03  0.00000000000E+00 0.  1.
         11    1    3    3    0    0  0.21001755742E+02 -0.16418518377E+02 -0.29205419919E+02  0.39542357575E+02  0.00000000000E+00 0. -1.
</event>
<event>
 7    1  0.4096326E-006  0.1188552E+03  0.7561462E-02  0.1244998E+00
         -1   -1    0    0    0  501 -0.00000000000E+00  0.00000000000E+00  0.15612537415E+02  0.15612537415E+02  0.00000000000E+00 0.  1.
          1   -1    0    0  501    0  0.00000000000E+00 -0.00000000000E+00 -0.99860447729E+03  0.99860447729E+03  0.00000000000E+00 0. -1.
         23    2    1    2    0    0  0.30227482301E+02  0.53033119965E+02 -0.48502125005E+03  0.49715913532E+03  0.90528339931E+02 0.  0.
          5    1    1    2  502    0  0.37991126177E+02  0.16211086001E+02 -0.13196996039E+03  0.13834618832E+03  0.41800000000E+01 0.  1.
         -5    1    1    2    0  502 -0.68218608479E+02 -0.69244205966E+02 -0.36600072943E+03  0.37871169106E+03  0.41800000000E+01 0.  1.
        -11    1    3    3    0    0  0.38535540637E+02  0.70057943791E+02 -0.45260584559E+03  0.45961413690E+03  0.00000000000E+00 0.  1.
         11    1    3    3    0    0 -0.83080583358E+01 -0.17024823826E+02 -0.32415404468E+02  0.37544998421E+02  0.00000000000E+00 0. -1.
</event>
<event>
 7    1  0.4096326E-006  0.1163859E+03  0.7561462E-02  0.1249181E+00
         -1   -1    0    0    0  501 -0.00000000000E+00  0.00000000000E+00  0.61580309047E+02  0.61580309047E+02  0.00000000000E+00 0.  1.
          1   -1    0    0  501    0  0.00000000000E+00 -0.00000000000E+00 -0.30388572027E+03  0.30388572027E+03  0.00000000000E+00 0. -1.
         23    2    1    2    0    0  0.31573595355E+02  0.76640569308E+02 -0.12072260138E+03  0.17233181506E+03  0.90849541604E+02 0.  0.
          5    1    1    2  502    0  0.37945249410E+02 -0.50257361556E+01 -0.37960330764E+01  0.38690854783E+02  0.41800000000E+01 0. -1.
         -5    1    1    2    0  502 -0.69518844765E+02 -0.71614833153E+02 -0.11778677677E+03  0.15444335947E+03  0.41800000000E+01 0. -1.
        -11    1    3    3    0    0  0.36303896287E+02  0.28911207845E+02 -0.11502104566E+03  0.12403093070E+03  0.00000000000E+00 0. -1.
         11    1    3    3    0    0 -0.47303009323E+01  0.47729361463E+02 -0.57015557220E+01  0.48300884363E+02  0.00000000000E+00 0.  1.
</event>
<event>
 7    1  0.4096326E-006  0.1054385E+03  0.7561462E-02  0.1269258E+00
         -3   -1    0    0    0  501 -0.00000000000E+00  0.00000000000E+00  0.30652965972E+03  0.30652965972E+03  0.00000000000E+00 0.  1.
          3   -1    0    0  501    0  0.00000000000E+00 -0.00000000000E+00 -0.51534875704E+02  0.51534875704E+02  0.00000000000E+00 0. -1.
         23    2    1    2    0    0  0.37126257399E+02 -0.46758877871E+02  0.92841457663E+02  0.14473997038E+03  0.93623560688E+02 0.  0.
          5    1    1    2  502    0  0.14457523045E+02  0.75119784430E+02  0.11299174724E+03  0.13651596731E+03  0.41800000000E+01 0. -1.
         -5    1    1    2    0  502 -0.51583780443E+02 -0.28360906559E+02  0.49161579110E+02  0.76808597737E+02  0.41800000000E+01 0. -1.
        -11    1    3    3    0    0 -0.82868230691E+01 -0.22037717529E+02  0.89920538323E+02  0.92951792036E+02  0.00000000000E+00 0.  1.
         11    1    3    3    0    0  0.45413080468E+02 -0.24721160343E+02  0.29209193406E+01  0.51788178343E+02  0.00000000000E+00 0. -1.
</event>
<event>
 7    1  0.4096326E-006  0.7110490E+02  0.7561462E-02  0.1356376E+00
         -1   -1    0    0    0  501 -0.00000000000E+00  0.00000000000E+00  0.19309410236E+03  0.19309410236E+03  0.00000000000E+00 0.  1.
          1   -1    0    0  501    0  0.00000000000E+00 -0.00000000000E+00 -0.67272991627E+02  0.67272991627E+02  0.00000000000E+00 0. -1.
         23    2    1    2    0    0 -0.22931948743E+02  0.31546863581E+01  0.19486895381E+02  0.94566598528E+02  0.89595067646E+02 0.  0.
          5    1    1    2  502    0  0.69635527722E+01 -0.23496108605E+02 -0.22983213987E+02  0.33856442694E+02  0.41800000000E+01 0. -1.
         -5    1    1    2    0  502  0.15968395970E+02  0.20341422246E+02  0.12931742934E+03  0.13194405277E+03  0.41800000000E+01 0. -1.
        -11    1    3    3    0    0 -0.45171531500E+02 -0.27798027299E+02  0.32523956182E+01  0.53139210166E+02  0.00000000000E+00 0.  1.
         11    1    3    3    0    0  0.22239582758E+02  0.30952713657E+02  0.16234499763E+02  0.41427388362E+02  0.00000000000E+00 0. -1.
</event>
<event>
 7    1  0.4096326E-006  0.1324667E+03  0.7561462E-02  0.1223841E+00
          1   -1    0    0  501    0  0.00000000000E+00  0.00000000000E+00  0.38191963514E+03  0.38191963514E+03  0.00000000000E+00 0. -1.
         -1   -1    0    0    0  501 -0.00000000000E+00 -0.00000000000E+00 -0.61647594861E+02  0.61647594861E+02  0.00000000000E+00 0.  1.
         23    2    1    2    0    0  0.91655805163E+02  0.53934723671E+02  0.17559628455E+03  0.22473376661E+03  0.91441072106E+02 0.  0.
          5    1    1    2  502    0 -0.49316127467E+02  0.74346032967E+01 -0.62572111428E+01  0.50437871146E+02  0.41800000000E+01 0.  1.
         -5    1    1    2    0  502 -0.42339677697E+02 -0.61369326968E+02  0.15093296687E+03  0.16839559224E+03  0.41800000000E+01 0.  1.
        -11    1    3    3    0    0  0.22506180954E+02  0.66253753489E+02  0.90435272785E+02  0.11434433347E+03  0.00000000000E+00 0. -1.
         11    1    3    3    0    0  0.69149624210E+02 -0.12319029817E+02  0.85161011769E+02  0.11038943314E+03  0.00000000000E+00 0.  1.
</event>
<event>
 7    1  0.4096326E-006  0.1015472E+03  0.7561462E-02  0.1277076E+00
         -1   -1    0    0    0  501 -0.00000000000E+00  0.00000000000E+00  0.26181164815E+02  0.26181164815E+02  0.00000000000E+00 0.  1.
          1   -1    0    0  501    0  0.00000000000E+00 -0.00000000000E+00 -0.44401797678E+03  0.44401797678E+03  0.00000000000E+00 0. -1.
         23    2    1    2    0    0  0.10638486018E+02  0.14782502867E+02 -0.15795907533E+03  0.18120819482E+03  0.86911682864E+02 0.  0.
          5    1    1    2  502    0 -0.30141556155E+02  0.48278619672E+02 -0.88624030026E+02  0.10540886881E+03  0.41800000000E+01 0. -1.
         -5    1    1    2    0  502  0.19503070137E+02 -0.63061122539E+02 -0.17125370661E+03  0.18358207796E+03  0.41800000000E+01 0. -1.
        -11    1    3    3    0    0  0.25832765458E+02 -0.25825572058E+02 -0.11296252913E+03  0.11872162790E+03  0.00000000000E+00 0. -1.
         11    1    3    3    0    0 -0.15194279440E+02  0.40608074925E+02 -0.44996546196E+02  0.62486566927E+02  0.00000000000E+00 0.  1.
</event>
<event>
 7    1  0.4096326E-006  0.1474812E+03  0.7561462E-02  0.1203603E+00
         -2   -1    0    0    0  501 -0.00000000000E+00  0.00000000000E+00  0.28744944762E+03  0.28744944762E+03  0.00000000000E+00 0. -1.
          2   -1    0    0  501    0  0.00000000000E+00 -0.00000000000E+00 -0.90464879157E+02  0.90464879157E+02  0.00000000000E+00 0.  1.
         23    2    1    2    0    0  0.31193216516E+02 -0.11335451214E+03  0.90258967762E+02  0.17577634199E+03  0.94490099822E+02 0.  0.
          5    1    1    2  502    0  0.30217020136E+01  0.13035823796E+03  0.66238661968E+02  0.14631279379E+03  0.41800000000E+01 0.  1.
         -5    1    1    2    0  502 -0.34214918530E+02 -0.17003725817E+02  0.40486938734E+02  0.55825190996E+02  0.41800000000E+01 0.  1.
        -11    1    3    3    0    0 -0.11188799256E+02 -0.37983277422E+02 -0.12456205119E+02  0.41509946259E+02  0.00000000000E+00 0.  1.
         11    1    3    3    0    0  0.42382015772E+02 -0.75371234718E+02  0.10271517288E+03  0.13426639574E+03  0.00000000000E+00 0. -1.
</event>
<event>
 7    1  0.4096326E-006  0.8039774E+02  0.7561462E-02  0.1327926E+00
          2   -1    0    0  501    0  0.00000000000E+00  0.00000000000E+00  0.77860690227E+03  0.77860690227E+03  0.00000000000E+00 0. -1.
         -2   -1    0    0    0  501 -0.00000000000E+00 -0.00000000000E+00 -0.21217700616E+02  0.21217700616E+02  0.00000000000E+00 0.  1.
         23    2    1    2    0    0 -0.55980404379E+01 -0.55154176842E+02  0.46408269979E+03  0.47617423585E+03  0.91081443557E+02 0.  0.
          5    1    1    2  502    0  0.61227740853E+00  0.24254942422E+02 -0.37641758744E+01  0.24906194722E+02  0.41800000000E+01 0.  1.
         -5    1    1    2    0  502  0.49857630294E+01  0.30899234420E+02  0.29707067774E+03  0.29874417232E+03  0.41800000000E+01 0.  1.
        -11    1    3    3    0    0 -0.24140856235E+02  0.17370603683E+02  0.93854859480E+02  0.98454321693E+02  0.00000000000E+00 0.  1.
         11    1    3    3    0    0  0.18542815797E+02 -0.72524780525E+02  0.37022784031E+03  0.37771991415E+03  0.00000000000E+00 0. -1.
</event>
<event>
 7    1  0.4096326E-006  0.1073360E+03  0.7561462E-02  0.1265584E+00
         -1   -1    0    0    0  501 -0.00000000000E+00  0.00000000000E+00  0.70374877614E+03  0.70374877614E+03  0.00000000000E+00 0.  1.
          1   -1    0    0  501    0  0.00000000000E+00 -0.00000000000E+00 -0.17115548891E+02  0.17115548891E+02  0.00000000000E+00 0. -1.
         23    2    1    2    0    0  0.11990881367E+02  0.20052748812E+00  0.24097950997E+03  0.25782986259E+03  0.90891651830E+02 0.  0.
          5    1    1    2  502    0 -0.57253230169E+01  0.61077000040E+02  0.26785541992E+03  0.27482208361E+03  0.41800000000E+01 0.  1.
         -5    1    1    2    0  502 -0.62655583500E+01 -0.61277527528E+02  0.17779829736E+03  0.18821237883E+03  0.41800000000E+01 0.  1.
        -11    1    3    3    0    0 -0.35155078114E+02  0.19847085716E+02  0.11558016479E+03  0.12242777798E+03  0.00000000000E+00 0.  1.
         11    1    3    3    0    0  0.47145959481E+02 -0.19646558228E+02  0.12539934518E+03  0.13540208461E+03  0.00000000000E+00 0. -1.
</event>
<event>
 7    1  0.4096326E-006  0.7057770E+02  0.7561462E-02  0.1358140E+00
          1   -1    0    0  501    0  0.00000000000E+00  0.00000000000E+00  0.19696499681E+02  0.19696499681E+02  0.00000000000E+00 0. -1.
         -1   -1    0    0    0  501 -0.00000000000E+00 -0.00000000000E+00 -0.74866057637E+03  0.74866057637E+03  0.00000000000E+00 0.  1.
         23    2    1    2    0    0  0.25077679674E+02  0.19097527221E+02 -0.16034326751E+03  0.18528702178E+03  0.87336770264E+02 0.  0.
          5    1    1    2  502    0  0.20942919782E+02  0.18253534036E+01 -0.12853177978E+02  0.24992286573E+02  0.41800000000E+01 0. -1.
         -5    1    1    2    0  502 -0.46020599456E+02 -0.20922880625E+02 -0.55576763121E+03  0.55807776770E+03  0.41800000000E+01 0. -1.
        -11    1    3    3    0    0 -0.52330741090E+01 -0.19345213340E+02 -0.12053489076E+03  0.12218953406E+03  0.00000000000E+00 0.  1.
         11    1    3    3    0    0  0.30310753783E+02  0.38442740561E+02 -0.39808376748E+02  0.63097487716E+02  0.00000000000E+00 0. -1.
</event>
<event>
 7    1  0.4096326E-006  0.7354323E+02  0.7561462E-02  0.1348442E+00
          1   -1    0    0  501    0  0.00000000000E+00  0.00000000000E+00  0.28285607495E+03  0.28285607495E+03  0.00000000000E+00 0. -1.
         -1   -1    0    0    0  501 -0.00000000000E+00 -0.00000000000E+00 -0.60213840044E+02  0.60213840044E+02  0.00000000000E+00 0.  1.
         23    2    1    2    0    0  0.34143636936E+02 -0.61947637507E+02  0.11582204323E+03  0.16401026767E+03  0.92094106572E+02 0.  0.
          5    1    1    2  502    0 -0.19914965021E+02  0.45590972950E+02 -0.17416206984E+02  0.52876642405E+02  0.41800000000E+01 0. -1.
         -5    1    1    2    0  502 -0.14228671914E+02  0.16356664558E+02  0.12423639866E+03  0.12618300492E+03  0.41800000000E+01 0. -1.
        -11    1    3    3    0    0  0.35901226894E+02 -0.42843624590E+02  0.10399290372E+02  0.56856129843E+02  0.00000000000E+00 0.  1.
         11    1    3    3    0    0 -0.17575899581E+01 -0.19104012918E+02  0.10542275286E+03  0.10715413782E+03  0.00000000000E+00 0. -1.
</event>
<event>
 7    1  0.4096326E-006  0.1061078E+03  0.7561462E-02  0.1267952E+00
         -2   -1    0    0    0  501 -0.00000000000E+00  0.00000000000E+00  0.61945121625E+02  0.61945121625E+02  0.00000000000E+00 0.  1.
          2   -1    0    0  501    0  0.00000000000E+00 -0.00000000000E+00 -0.28844807110E+03  0.28844807110E+03  0.00000000000E+00 0. -1.
         23    2    1    2    0    0  0.67800660068E+02  0.20465074197E+02 -0.14529775989E+03  0.18529580076E+03  0.90594403704E+02 0.  0.
          5    1    1    2  502    0 -0.81650771021E+02  0.31000119720E+02 -0.34121503890E+02  0.93859497435E+02  0.41800000000E+01 0. -1.
         -5    1    1    2    0  502  0.13850110953E+02 -0.51465193917E+02 -0.47083685692E+02  0.71237894527E+02  0.41800000000E+01 0. -1.
        -11    1    3    3    0    0  0.13696181902E+02  0.69215196420E+00  0.11723456224E+02  0.18041726605E+02  0.00000000000E+00 0.  1.
         11    1    3    3    0    0  0.54104478166E+02  0.19772922233E+02 -0.15702121612E+03  0.16725407416E+03  0.00000000000E+00 0. -1.
</event>
<event>
 7    1  0.4096326E-006  0.8850253E+02  0.7561462E-02  0.1306519E+00
          2   -1    0    0  501    0  0.00000000000E+00  0.00000000000E+00  0.15999450045E+03  0.15999450045E+03  0.00000000000E+00 0. -1.
         -2   -1    0    0    0  501 -0.00000000000E+00 -0.00000000000E+00 -0.14502437502E+03  0.14502437502E+03  0.00000000000E+00 0.  1.
         23    2    1    2    0    0  0.38897274366E+02  0.44211359741E+02  0.97230360603E+02  0.14413879713E+03  0.88626223719E+02 0.  0.
          5    1    1    2  502    0  0.11353659039E+02 -0.29216025403E+02 -0.10037764592E+03  0.10524079967E+03  0.41800000000E+01 0.  1.
         -5    1    1    2    0  502 -0.50250933405E+02 -0.14995334337E+02  0.18117410747E+02  0.55639278681E+02  0.41800000000E+01 0.  1.
        -11    1    3    3    0    0  0.49555243066E+02  0.23843880125E+01  0.86409821763E+02  0.99639674420E+02  0.00000000000E+00 0.  1.
         11    1    3    3    0    0 -0.10657968700E+02  0.41826971728E+02  0.10820538840E+02  0.44499122706E+02  0.00000000000E+00 0. -1.
</event>
<event>
 7    1  0.4096326E-006  0.1015917E+03  0.7561462E-02  0.1276984E+00
          3   -1    0    0  501    0  0.00000000000E+00  0.00000000000E+00  0.28927328388E+03  0.28927328388E+03  0.00000000000E+00 0. -1.
         -3   -1    0    0    0  501 -0.00000000000E+00 -0.00000000000E+00 -0.55494153126E+02  0.55494153126E+02  0.00000000000E+00 0.  1.
         23    2    1    2    0    0  0.26121300208E+02  0.53888201101E+02  0.14163595238E+03  0.17826290203E+03  0.90170165192E+02 0.  0.
          5    1    1    2  502    0  0.22665310543E+02  0.36598283025E+01 -0.20368399993E+02  0.30975066803E+02  0.41800000000E+01 0. -1.
         -5    1    1    2    0  502 -0.48786610750E+02 -0.57548029404E+02  0.11251157837E+03  0.13552946817E+03  0.41800000000E+01 0. -1.
        -11    1    3    3    0    0  0.53341421837E+02  0.55552856363E+02  0.12338381519E+03  0.14544756094E+03  0.00000000000E+00 0. -1.
         11    1    3    3    0    0 -0.27220121629E+02 -0.16646552622E+01  0.18252137196E+02  0.32815341090E+02  0.00000000000E+00 0.  1.
</event>
<event>
 7    1  0.4096326E-006  0.1342167E+03  0.7561462E-02  0.1221330E+00
          1   -1    0    0  501    0  0.00000000000E+00  0.00000000000E+00  0.13064512399E+03  0.13064512399E+03  0.00000000000E+00 0. -1.
         -1   -1    0    0    0  501 -0.00000000000E+00 -0.00000000000E+00 -0.14711500724E+03  0.14711500724E+03  0.00000000000E+00 0.  1.
         23    2    1    2    0    0 -0.51697537568E+02 -0.69018951334E+02 -0.22769152082E+02  0.12569534879E+03  0.88569946298E+02 0.  0.
          5    1    1    2  502    0 -0.17984368826E+02 -0.24127797720E+02  0.17607121084E+02  0.35115114378E+02  0.41800000000E+01 0. -1.
         -5    1    1    2    0  502  0.69681906394E+02  0.93146749054E+02 -0.11307852254E+02  0.11694966807E+03  0.41800000000E+01 0. -1.
        -11    1    3    3    0    0 -0.72471315742E+02 -0.32045719160E+02 -0.25379885231E+02  0.83205518424E+02  0.00000000000E+00 0.  1.
         11    1    3    3    0    0  0.20773778174E+02 -0.36973232174E+02  0.26107331488E+01  0.42489830366E+02  0.00000000000E+00 0. -1.
</event>
<event>
 7    1  0.4096326E-006  0.1549591E+03  0.7561462E-02  0.1194508E+00
          1   -1    0    0  501    0  0.00000000000E+00  0.00000000000E+00  0.41652036187E+03  0.41652036187E+03  0.00000000000E+00 0. -1.
         -1   -1    0    0    0  501 -0.00000000000E+00 -0.00000000000E+00 -0.78110820644E+02  0.78110820644E+02  0.00000000000E+00 0.  1.
         23    2    1    2    0    0  0.91491499218E+01  0.11566498018E+03  0.27635659583E+03  0.31308242484E+03  0.90473985798E+02 0.  0.
          5    1    1    2  502    0 -0.35259543544E+02  0.79476329954E+01 -0.76719603714E+01  0.37185099934E+02  0.41800000000E+01 0. -1.
         -5    1    1    2    0  502  0.26110393623E+02 -0.12361261317E+03  0.69724905774E+02  0.14436365774E+03  0.41800000000E+01 0. -1.
        -11    1    3    3    0    0 -0.27051520493E+02  0.10636028671E+03  0.20751729989E+03  0.23475034633E+03  0.00000000000E+00 0. -1.
         11    1    3    3    0    0  0.36200670415E+02  0.93046934705E+01  0.68839295934E+02  0.78332078511E+02  0.00000000000E+00 0.  1.
</event>
<event>
 7    1  0.4096326E-006  0.1746816E+03  0.7561462E-02  0.1173052E+00
          2   -1    0    0  501    0  0.00000000000E+00  0.00000000000E+00  0.11323723849E+03  0.11323723849E+03  0.00000000000E+00 0. -1.
         -2   -1    0    0    0  501 -0.00000000000E+00 -0.00000000000E+00 -0.33886319155E+03  0.33886319155E+03  0.00000000000E+00 0.  1.
         23    2    1    2    0    0  0.13993962105E+03  0.44049249408E+02 -0.27448364741E+02  0.17561272319E+03  0.92536381527E+02 0.  0.
          5    1    1    2  502    0 -0.14696786448E+03 -0.59569438861E+02 -0.20361892485E+03  0.25812053424E+03  0.41800000000E+01 0. -1.
         -5    1    1    2    0  502  0.70282434337E+01  0.15520189452E+02  0.54413365329E+01  0.18367172609E+02  0.41800000000E+01 0. -1.
        -11    1    3    3    0    0  0.10723011164E+03  0.72822321311E+02 -0.16267084330E+02  0.13063692187E+03  0.00000000000E+00 0.  1.
         11    1    3    3    0    0  0.32709509403E+02 -0.28773071903E+02 -0.11181280411E+02  0.44975801313E+02  0.00000000000E+00 0. -1.
</event>
<event>
 7    1  0.4096326E-006  0.1492686E+03  0.7561462E-02  0.1201375E+00
         -4   -1    0    0    0  501 -0.00000000000E+00  0.00000000000E+00  0.17881568356E+04  0.17881568356E+04  0.00000000000E+00 0.  1.
          4   -1    0    0  501    0  0.00000000000E+00 -0.00000000000E+00 -0.19120637545E+02  0.19120637545E+02  0.00000000000E+00 0. -1.
         23    2    1    2    0    0  0.11605001900E+03 -0.77566763835E+02  0.57633756002E+03  0.59994075813E+03  0.90992969046E+02 0.  0.
          5    1    1    2  502    0 -0.23241834446E+02  0.58677014137E+02  0.19183933709E+03  0.20199747154E+03  0.41800000000E+01 0.  1.
         -5    1    1    2    0  502 -0.92808184557E+02  0.18889749698E+02  0.10008593009E+04  0.10053392434E+04  0.41800000000E+01 0.  1.
        -11    1    3    3    0    0  0.74007421939E+02 -0.58416715107E+02  0.51272721447E+03  0.52132409072E+03  0.00000000000E+00 0.  1.
         11    1    3    3    0    0  0.42042597064E+02 -0.19150048728E+02  0.63610345553E+02  0.78616667416E+02  0.00000000000E+00 0. -1.
</event>
<event>
 7    1  0.4096326E-006  0.9828945E+02  0.7561462E-02  0.1283935E+00
         -2   -1    0    0    0  501 -0.00000000000E+00  0.00000000000E+00  0.31180103880E+02  0.31180103880E+02  0.00000000000E+00 0.  1.
          2   -1    0    0  501    0  0.00000000000E+00 -0.00000000000E+00 -0.40606448864E+03  0.40606448864E+03  0.00000000000E+00 0. -1.
         23    2    1    2    0    0 -0.42853457895E+01  0.24776257390E+02 -0.21763481787E+03  0.23474223507E+03  0.84301695444E+02 0.  0.
          5    1    1    2  502    0  0.36898748840E+02 -0.63439559599E+02 -0.69670297042E+02  0.10127940599E+03  0.41800000000E+01 0. -1.
         -5    1    1    2    0  502 -0.32613403050E+02  0.38663302209E+02 -0.87579269848E+02  0.10122295147E+03  0.41800000000E+01 0. -1.
        -11    1    3    3    0    0 -0.35687239493E+02  0.18850612642E+02 -0.50833463225E+02  0.64907362009E+02  0.00000000000E+00 0.  1.
         11    1    3    3    0    0  0.31401893704E+02  0.59256447475E+01 -0.16680135465E+03  0.16983487306E+03  0.00000000000E+00 0. -1.
</event>
<event>
 7    1  0.4096326E-006  0.1025161E+03  0.7561462E-02  0.1275092E+00
         -1   -1    0    0    0  501 -0.00000000000E+00  0.00000000000E+00  0.12774845736E+03  0.12774845736E+03  0.00000000000E+00 0.  1.
          1   -1    0    0  501    0  0.00000000000E+00 -0.00000000000E+00 -0.10132863286E+03  0.10132863286E+03  0.00000000000E+00 0. -1.
         23    2    1    2    0    0  0.22707689362E+02  0.11851559951E+02 -0.12919340526E+02  0.95468090336E+02  0.91055742726E+02 0.  0.
          5    1    1    2  502    0  0.15576167403E+02  0.42464545861E+02  0.48440418957E+02  0.66406334298E+02  0.41800000000E+01 0. -1.
         -5    1    1    2    0  502 -0.38283856764E+02 -0.54316105812E+02 -0.91012539331E+01  0.67202665591E+02  0.41800000000E+01 0. -1.
        -11    1    3    3    0    0  0.19659829363E+02 -0.38156786111E+02  0.26445865374E+01  0.43005151492E+02  0.00000000000E+00 0.  1.
         11    1    3    3    0    0  0.30478599990E+01  0.50008346063E+02 -0.15563927063E+02  0.52462938844E+02  0.00000000000E+00 0. -1.
</event>
<event>
 7    1  0.4096326E-006  0.1148659E+03  0.7561462E-02  0.1251815E+00
          2   -1    0    0  501    0  0.00000000000E+00  0.00000000000E+00  0.26696190086E+03  0.26696190086E+03  0.00000000000E+00 0. -1.
         -2   -1    0    0    0  501 -0.00000000000E+00 -0.00000000000E+00 -0.55719489904E+02  0.55719489904E+02  0.00000000000E+00 0.  1.
         23    2    1    2    0    0 -0.27222332603E+02 -0.48851934471E+02  0.98769924288E+02  0.14541062341E+03  0.90891058760E+02 0.  0.
          5    1    1    2  502    0  0.24136603389E+01  0.81594068196E+02  0.33857615989E+02  0.88471624160E+02  0.41800000000E+01 0. -1.
         -5    1    1    2    0  502  0.24808672264E+02 -0.32742133725E+02  0.78614870680E+02  0.88799143197E+02  0.41800000000E+01 0. -1.
        -11    1    3    3    0    0 -0.52711148213E+02 -0.12719978934E+01  0.47608962919E+02  0.71040104693E+02  0.00000000000E+00 0. -1.
         11    1    3    3    0    0  0.25488815610E+02 -0.47579936578E+02  0.51160961369E+02  0.74370518716E+02  0.00000000000E+00 0.  1.
</event>
<event>
 7    1  0.4096326E-006  0.9366636E+02  0.7561462E-02  0.1294208E+00
          1   -1    0    0  501    0  0.00000000000E+00  0.00000000000E+00  0.46638366481E+02  0.46638366481E+02  0.00000000000E+00 0. -1.
         -1   -1    0    0    0  501 -0.00000000000E+00 -0.00000000000E+00 -0.28521684958E+03  0.28521684958E+03  0.00000000000E+00 0.  1.
         23    2    1    2    0    0 -0.18166557835E+02  0.33708557179E+02 -0.88418799403E+02  0.13270252431E+03  0.91245740828E+02 0.  0.
          5    1    1    2  502    0 -0.35170535142E+02 -0.52199018568E+02 -0.38330703498E+02  0.73813408757E+02  0.41800000000E+01 0. -1.
         -5    1    1    2    0  502  0.53337092977E+02  0.18490461389E+02 -0.11182898019E+03  0.12533928299E+03  0.41800000000E+01 0. -1.
        -11    1    3    3    0    0  0.13894124990E+02  0.32745291275E+02 -0.93673383217E+02  0.10019981803E+03  0.00000000000E+00 0.  1.
         11    1    3    3    0    0 -0.32060682824E+02  0.96326590454E+00  0.52545838138E+01  0.32502706279E+02  0.00000000000E+00 0. -1.
</event>
<event>
 7    1  0.4096326E-006  0.1513432E+03  0.7561462E-02  0.1198832E+00
          1   -1    0    0  501    0  0.00000000000E+00  0.00000000000E+00  0.51812295177E+03  0.51812295177E+03  0.00000000000E+00 0. -1.
         -1   -1    0    0    0  501 -0.00000000000E+00 -0.00000000000E+00 -0.11430376568E+03  0.11430376568E+03  0.00000000000E+00 0.  1.
         23    2    1    2    0    0 -0.32893882445E+02  0.13810984781E+03  0.40049616951E+03  0.43426721172E+03  0.89635326846E+02 0.  0.
          5    1    1    2  502    0 -0.15598529277E+01 -0.84013522811E+02  0.67100816581E+02  0.10761364756E+03  0.41800000000E+01 0. -1.
         -5    1    1    2    0  502  0.34453735373E+02 -0.54096324995E+02 -0.63777799998E+02  0.90545858170E+02  0.41800000000E+01 0.  1.
        -11    1    3    3    0    0  0.12669811064E+02  0.77109387361E+02  0.11678672721E+03  0.14051875812E+03  0.00000000000E+00 0.  1.
         11    1    3    3    0    0 -0.45563693509E+02  0.61000460446E+02  0.28370944230E+03  0.29374845360E+03  0.00000000000E+00 0. -1.
</event>
<event>
 7    1  0.4096326E-006  0.1370110E+03  0.7561462E-02  0.1217408E+00
         -2   -1    0    0    0  501 -0.00000000000E+00  0.00000000000E+00  0.56561739300E+02  0.56561739300E+02  0.00000000000E+00 0.  1.
          2   -1    0    0  501    0  0.00000000000E+00 -0.00000000000E+00 -0.55265590809E+03  0.55265590809E+03  0.00000000000E+00 0. -1.
         23    2    1    2    0    0  0.72551995732E+02  0.76123718148E+02 -0.39134347873E+03  0.41510746789E+03  0.90032655205E+02 0.  0.
          5    1    1    2  502    0 -0.40059546344E+02  0.31326914863E+02 -0.30285928924E+02  0.59336773917E+02  0.41800000000E+01 0. -1.
         -5    1    1    2    0  502 -0.32492449388E+02 -0.10745063301E+03 -0.74464761136E+02  0.13477340558E+03  0.41800000000E+01 0. -1.
        -11    1    3    3    0    0  0.15611594638E+02  0.40727277133E+02 -0.46294656330E+02  0.63605252884E+02  0.00000000000E+00 0.  1.
         11    1    3    3    0    0  0.56940401094E+02  0.35396441015E+02 -0.34504882240E+03  0.35150221501E+03  0.00000000000E+00 0. -1.
</event>
<event>
 7    1  0.4096326E-006  0.2189588E+03  0.7561462E-02  0.1134662E+00
         -1   -1    0    0    0  501 -0.00000000000E+00  0.00000000000E+00  0.94654646285E+03  0.94654646285E+03  0.00000000000E+00 0.  1.
          1   -1    0    0  501    0  0.00000000000E+00 -0.00000000000E+00 -0.56344730102E+02  0.56344730102E+02  0.00000000000E+00 0. -1.
         23    2    1    2    0    0  0.12274982012E+03 -0.15922074990E+03  0.50064467357E+03  0.54701784173E+03  0.90358532833E+02 0.  0.
          5    1    1    2  502    0 -0.14010798976E+03  0.16635854862E+03  0.35646554616E+03  0.41760097400E+03  0.41800000000E+01 0.  1.
         -5    1    1    2    0  502  0.17358169647E+02 -0.71377987132E+01  0.33091513014E+02  0.38272377213E+02  0.41800000000E+01 0.  1.
        -11    1    3    3    0    0  0.61330576947E+02 -0.84916892631E+02  0.14722511987E+03  0.18068634216E+03  0.00000000000E+00 0.  1.
         11    1    3    3    0    0  0.61419243170E+02 -0.74303857271E+02  0.35341955370E+03  0.36633149957E+03  0.00000000000E+00 0. -1.
</event>
<event>
 7    1  0.4096326E-006  0.9459359E+02  0.7561462E-02  0.1292094E+00
         -1   -1    0    0    0  501 -0.00000000000E+00  0.00000000000E+00  0.52369888249E+02  0.52369888249E+02  0.00000000000E+00 0.  1.
          1   -1    0    0  501    0  0.00000000000E+00 -0.00000000000E+00 -0.29183230331E+03  0.29183230331E+03  0.00000000000E+00 0. -1.
         23    2    1    2    0    0 -0.37001918996E+02  0.47334372823E+02 -0.11420517917E+03  0.15726063711E+03  0.89879920876E+02 0.  0.
          5    1    1    2  502    0 -0.17275782674E+02  0.25921273086E+02 -0.78149474119E+02  0.84232878203E+02  0.41800000000E+01 0.  1.
         -5    1    1    2    0  502  0.54277701671E+02 -0.73255645908E+02 -0.47107761778E+02  0.10270867624E+03  0.41800000000E+01 0.  1.
        -11    1    3    3    0    0 -0.40988284056E+02  0.36282186046E+02 -0.12795647803E+03  0.13917362079E+03  0.00000000000E+00 0. -1.
         11    1    3    3    0    0  0.39863650601E+01  0.11052186777E+02  0.13751298865E+02  0.18087016321E+02  0.00000000000E+00 0.  1.
</event>
<event>
 7    1  0.4096326E-006  0.1141981E+03  0.7561462E-02  0.1252987E+00
         -3   -1    0    0    0  501 -0.00000000000E+00  0.00000000000E+00  0.24400947087E+03  0.24400947087E+03  0.00000000000E+00 0.  1.
          3   -1    0    0  501    0  0.00000000000E+00 -0.00000000000E+00 -0.63069146530E+02  0.63069146530E+02  0.00000000000E+00 0. -1.
         23    2    1    2    0    0 -0.55065868297E+02  0.23295701251E+02  0.83685103706E+02  0.13772540883E+03  0.91597773488E+02 0.  0.
          5    1    1    2  502    0  0.64216487167E+02 -0.57851483666E+02  0.10119452486E+03  0.13314787136E+03  0.41800000000E+01 0.  1.
         -5    1    1    2    0  502 -0.91506188693E+01  0.34555782415E+02 -0.39393042315E+01  0.36205337201E+02  0.41800000000E+01 0.  1.
        -11    1    3    3    0    0 -0.36057650935E+02 -0.31496490422E+02  0.20859318245E+02  0.52223502923E+02  0.00000000000E+00 0. -1.
         11    1    3    3    0    0 -0.19008217362E+02  0.54792191673E+02  0.62825785461E+02  0.85501905911E+02  0.00000000000E+00 0.  1.
</event>
<event>
 7    1  0.4096326E-006  0.1745745E+03  0.7561462E-02  0.1173160E+00
         -3   -1    0    0    0  501 -0.00000000000E+00  0.00000000000E+00  0.80870089044E+03  0.80870089044E+03  0.00000000000E+00 0.  1.
          3   -1    0    0  501    0  0.00000000000E+00 -0.00000000000E+00 -0.48064445881E+02  0.48064445881E+02  0.00000000000E+00 0. -1.
         23    2    1    2    0    0 -0.37997108690E+02  0.13779658170E+03  0.18794380154E+03  0.25339445681E+03  0.91946723738E+02 0.  0.
          5    1    1    2  502    0 -0.44360194453E+02 -0.29427921281E+02  0.17879521943E+03  0.18659858599E+03  0.41800000000E+01 0.  1.
         -5    1    1    2    0  502  0.82357303144E+02 -0.10836866041E+03  0.39389742359E+03  0.41677229352E+03  0.41800000000E+01 0.  1.
        -11    1    3    3    0    0 -0.58177225673E+02  0.11660382629E+03  0.18149061095E+03  0.22342758056E+03  0.00000000000E+00 0.  1.
         11    1    3    3    0    0  0.20180116983E+02  0.21192755402E+02  0.64531905933E+01  0.29966876244E+02  0.00000000000E+00 0. -1.
</event>
<event>
 7    1  0.4096326E-006  0.8572249E+02  0.7561462E-02  0.1313554E+00
         -1   -1    0    0    0  501 -0.00000000000E+00  0.00000000000E+00  0.13793098547E+03  0.13793098547E+03  0.00000000000E+00 0.  1.
          1   -1    0    0  501    0  0.00000000000E+00 -0.00000000000E+00 -0.12962871142E+03  0.12962871142E+03  0.00000000000E+00 0. -1.
         23    2    1    2    0    0 -0.70199348723E+02 -0.37267176526E+02 -0.38126752379E+01  0.11886097287E+03  0.88298376947E+02 0.  0.
          5    1    1    2  502    0  0.64145713658E+02  0.45490364576E+02  0.60351703415E+02  0.99216159748E+02  0.41800000000E+01 0. -1.
         -5    1    1    2    0  502  0.60536350648E+01 -0.82231880499E+01 -0.48236754121E+02  0.49482564276E+02  0.41800000000E+01 0. -1.
        -11    1    3    3    0    0 -0.22533180319E+02 -0.25171876451E+01  0.39591862871E+02  0.45624511553E+02  0.00000000000E+00 0.  1.
         11    1    3    3    0    0 -0.47666168404E+02 -0.34749988881E+02 -0.43404538109E+02  0.73236461315E+02  0.00000000000E+00 0. -1.
</event>
<event>
 7    1  0.4096326E-006  0.1023416E+03  0.7561462E-02  0.1275448E+00
         -1   -1    0    0    0  501 -0.00000000000E+00  0.00000000000E+00  0.42595924375E+02  0.42595924375E+02  0.00000000000E+00 0.  1.
          1   -1    0    0  501    0  0.00000000000E+00 -0.00000000000E+00 -0.37131392436E+03  0.37131392436E+03  0.00000000000E+00 0. -1.
         23    2    1    2    0    0 -0.26205205603E+01  0.60359768383E+02 -0.17379921503E+03  0.20582840366E+03  0.92244218472E+02 0.  0.
          5    1    1    2  502    0  0.37604149699E+02 -0.31724032068E+02 -0.15500532370E+03  0.16267946724E+03  0.41800000000E+01 0.  1.
         -5    1    1    2    0  502 -0.34983629138E+02 -0.28635736315E+02  0.86538751251E-01  0.45401977831E+02  0.41800000000E+01 0.  1.
        -11    1    3    3    0    0 -0.45706031552E+02  0.45063600716E+02 -0.93177736188E+02  0.11314530459E+03  0.00000000000E+00 0. -1.
         11    1    3    3    0    0  0.43085510992E+02  0.15296167667E+02 -0.80621478846E+02  0.92683099074E+02  0.00000000000E+00 0.  1.
</event>
<event>
 7    1  0.4096326E-006  0.1071684E+03  0.7561462E-02  0.1265905E+00
         -1   -1    0    0    0  501 -0.00000000000E+00  0.00000000000E+00  0.67708152155E+02  0.67708152155E+02  0.00000000000E+00 0.  1.
          1   -1    0    0  501    0  0.00000000000E+00 -0.00000000000E+00 -0.29663029663E+03  0.29663029663E+03  0.00000000000E+00 0. -1.
         23    2    1    2    0    0  0.75954981538E+02  0.45696337031E+02 -0.12931889649E+03  0.18151428727E+03  0.91469913395E+02 0.  0.
          5    1    1    2  502    0 -0.33812243838E+02 -0.22064762335E+02  0.25986292104E+02  0.48196279395E+02  0.41800000000E+01 0. -1.
         -5    1    1    2    0  502 -0.42142737700E+02 -0.23631574696E+02 -0.12558954009E+03  0.13462788212E+03  0.41800000000E+01 0. -1.
        -11    1    3    3    0    0  0.15078623367E+02  0.60705421593E+02 -0.81091104259E+02  0.10241230533E+03  0.00000000000E+00 0.  1.
         11    1    3    3    0    0  0.60876358171E+02 -0.15009084562E+02 -0.48227792230E+02  0.79101981941E+02  0.00000000000E+00 0. -1.
</event>
<event>
 7    1  0.4096326E-006  0.1266917E+03  0.7561462E-02  0.1232449E+00
         -2   -1    0    0    0  501 -0.00000000000E+00  0.00000000000E+00  0.30951707760E+02  0.30951707760E+02  0.00000000000E+00 0.  1.
          2   -1    0    0  501    0  0.00000000000E+00 -0.00000000000E+00 -0.74594657371E+03  0.74594657371E+03  0.00000000000E+00 0. -1.
         23    2    1    2    0    0 -0.61339219947E+02 -0.24093540239E+02 -0.54182849985E+03  0.55334276788E+03  0.90923577418E+02 0.  0.
          5    1    1    2  502    0  0.17691237455E+02 -0.51059125406E+02 -0.72004592769E+02  0.90122960170E+02  0.41800000000E+01 0.  1.
         -5    1    1    2    0  502  0.43647982492E+02  0.75152665645E+02 -0.10116177334E+03  0.13343255343E+03  0.41800000000E+01 0.  1.
        -11    1    3    3    0    0 -0.32405776038E+02 -0.58710291224E+02 -0.33626837429E+03  0.34288985427E+03  0.00000000000E+00 0.  1.
         11    1    3    3    0    0 -0.28933443909E+02  0.34616750985E+02 -0.20556012556E+03  0.21045291361E+03  0.00000000000E+00 0. -1.
</event>
<event>
 7    1  0.4096326E-006  0.6934351E+02  0.7561462E-02  0.1362340E+00
         -2   -1    0    0    0  501 -0.00000000000E+00  0.00000000000E+00  0.11939979646E+03  0.11939979646E+03  0.00000000000E+00 0. -1.
          2   -1    0    0  501    0  0.00000000000E+00 -0.00000000000E+00 -0.13873587083E+03  0.13873587083E+03  0.00000000000E+00 0.  1.
         23    2    1    2    0    0 -0.21979803099E+02 -0.15791691135E+02 -0.73074677176E+02  0.11932937959E+03  0.90372026286E+02 0.  0.
          5    1    1    2  502    0  0.39076563980E+01  0.54969962704E+02  0.72842600278E+02  0.91435678996E+02  0.41800000000E+01 0.  1.
         -5    1    1    2    0  502  0.18072146701E+02 -0.39178271569E+02 -0.19103997470E+02  0.47370608703E+02  0.41800000000E+01 0.  1.
        -11    1    3    3    0    0 -0.10840718199E+02 -0.23934077867E+02 -0.92129844856E+02  0.95803285787E+02  0.00000000000E+00 0.  1.
         11    1    3    3    0    0 -0.11139084901E+02  0.81423867319E+01  0.19055167680E+02  0.23526093799E+02  0.00000000000E+00 0. -1.
</event>
<event>
 7    1  0.4096326E-006  0.1564482E+03  0.7561462E-02  0.1192766E+00
         -2   -1    0    0    0  501 -0.00000000000E+00  0.00000000000E+00  0.35477077025E+02  0.35477077025E+02  0.00000000000E+00 0.  1.
          2   -1    0    0  501    0  0.00000000000E+00 -0.00000000000E+00 -0.90435787819E+03  0.90435787819E+03  0.00000000000E+00 0. -1.
         23    2    1    2    0    0 -0.13771100286E+03  0.28998299540E+02 -0.45516722892E+03  0.48528314513E+03  0.92289235488E+02 0.  0.
          5    1    1    2  502    0  0.70917663958E+02 -0.56257320337E+02 -0.11079652762E+03  0.14313470608E+03  0.41800000000E+01 0. -1.
         -5    1    1    2    0  502  0.66793338901E+02  0.27259020797E+02 -0.30291704464E+03  0.31141710400E+03  0.41800000000E+01 0. -1.
        -11    1    3    3    0    0 -0.97586142741E+02 -0.45812584140E+01 -0.38817591585E+03  0.40028063259E+03  0.00000000000E+00 0.  1.
         11    1    3    3    0    0 -0.40124860118E+02  0.33579557954E+02 -0.66991313069E+02  0.85002512543E+02  0.00000000000E+00 0. -1.
</event>
<event>
 7    1  0.4096326E-006  0.1048393E+03  0.7561462E-02  0.1270437E+00
         -1   -1    0    0    0  501 -0.00000000000E+00  0.00000000000E+00  0.28201535063E+03  0.28201535063E+03  0.00000000000E+00 0.  1.
          1   -1    0    0  501    0  0.00000000000E+00 -0.00000000000E+00 -0.52438204809E+02  0.52438204809E+02  0.00000000000E+00 0. -1.
         23    2    1    2    0    0 -0.28075560545E+02  0.94682296385E+01  0.83113659655E+02  0.13957533950E+03  0.10814578357E+03 0.  0.
          5    1    1    2  502    0  0.61582948320E+02  0.37834453071E+01  0.14604864118E+03  0.15860155097E+03  0.41800000000E+01 0.  1.
         -5    1    1    2    0  502 -0.33507387775E+02 -0.13251674946E+02  0.41484499223E+00  0.36276664962E+02  0.41800000000E+01 0.  1.
        -11    1    3    3    0    0  0.59049834411E+00  0.56489957680E+02  0.35070290811E+02  0.66493528291E+02  0.00000000000E+00 0.  1.
         11    1    3    3    0    0 -0.28666058889E+02 -0.47021728042E+02  0.48043368844E+02  0.73081811213E+02  0.00000000000E+00 0. -1.
</event>
<event>
 7    1  0.4096326E-006  0.1303725E+03  0.7561462E-02  0.1226904E+00
         -1   -1    0    0    0  501 -0.00000000000E+00  0.00000000000E+00  0.31930038349E+02  0.31930038349E+02  0.00000000000E+00 0.  1.
          1   -1    0    0  501    0  0.00000000000E+00 -0.00000000000E+00 -0.81998017628E+03  0.81998017628E+03  0.00000000000E+00 0. -1.
         23    2    1    2    0    0  0.63913315631E+02  0.88423867717E+02 -0.49111621663E+03  0.51173482821E+03  0.93668051481E+02 0.  0.
          5    1    1    2  502    0 -0.84243537955E+02 -0.47297740700E+02 -0.27003972271E+03  0.28683265888E+03  0.41800000000E+01 0. -1.
         -5    1    1    2    0  502  0.20330222323E+02 -0.41126127017E+02 -0.26894198598E+02  0.53342727539E+02  0.41800000000E+01 0. -1.
        -11    1    3    3    0    0  0.64642940442E+02  0.55951396707E+02 -0.45581832669E+03  0.46376676842E+03  0.00000000000E+00 0. -1.
         11    1    3    3    0    0 -0.72962481082E+00  0.32472471010E+02 -0.35297889939E+02  0.47968059790E+02  0.00000000000E+00 0.  1.
</event>
<event>
 7    1  0.4096326E-006  0.1310318E+03  0.7561462E-02  0.1225933E+00
          2   -1    0    0  501    0  0.00000000000E+00  0.00000000000E+00  0.57959993693E+03  0.57959993693E+03  0.00000000000E+00 0.  1.
         -2   -1    0    0    0  501 -0.00000000000E+00 -0.00000000000E+00 -0.10033845902E+03  0.10033845902E+03  0.00000000000E+00 0. -1.
         23    2    1    2    0    0  0.83882469981E+02  0.58212147011E+02  0.49891652908E+03  0.51727468936E+03  0.90721984305E+02 0.  0.
          5    1    1    2  502    0 -0.66357246885E+02 -0.96084553560E+02 -0.12228271926E+01  0.11685244265E+03  0.41800000000E+01 0.  1.
         -5    1    1    2    0  502 -0.17525223097E+02  0.37872406549E+02 -0.18432223979E+02  0.45811263934E+02  0.41800000000E+01 0.  1.
        -11    1    3    3    0    0  0.11514129039E+02  0.15282557375E+02  0.10826971517E+02  0.21985336924E+02  0.00000000000E+00 0. -1.
         11    1    3    3    0    0  0.72368340942E+02  0.42929589636E+02  0.48808955756E+03  0.49528935244E+03  0.00000000000E+00 0.  1.
</event>
<event>
 7    1  0.4096326E-006  0.1681856E+03  0.7561462E-02  0.1179753E+00
         -2   -1    0    0    0  501 -0.00000000000E+00  0.00000000000E+00  0.12834414240E+04  0.12834414240E+04  0.00000000000E+00 0.  1.
          2   -1    0    0  501    0  0.00000000000E+00 -0.00000000000E+00 -0.36504685906E+02  0.36504685906E+02  0.00000000000E+00 0. -1.
         23    2    1    2    0    0 -0.77784991628E+02 -0.12612279970E+03  0.25030153226E+03  0.30462029524E+03  0.90472104504E+02 0.  0.
          5    1    1    2  502    0  0.86636448861E+02  0.59427881219E+02  0.81182814350E+03  0.81860854767E+03  0.41800000000E+01 0. -1.
         -5    1    1    2    0  502 -0.88514572330E+01  0.66694918486E+02  0.18480706238E+03  0.19671726704E+03  0.41800000000E+01 0. -1.
        -11    1    3    3    0    0 -0.10973863457E+02 -0.84269369443E+02  0.78918667813E+02  0.11597374028E+03  0.00000000000E+00 0. -1.
         11    1    3    3    0    0 -0.66811128171E+02 -0.41853430262E+02  0.17138286445E+03  0.18864655496E+03  0.00000000000E+00 0.  1.
</event>
<event>
 7    1  0.4096326E-006  0.1216879E+03  0.7561462E-02  0.1240338E+00
         -1   -1    0    0    0  501 -0.00000000000E+00  0.00000000000E+00  0.93042235648E+02  0.93042235648E+02  0.00000000000E+00 0.  1.
          1   -1    0    0  501    0  0.00000000000E+00 -0.00000000000E+00 -0.17514776511E+03  0.17514776511E+03  0.00000000000E+00 0. -1.
         23    2    1    2    0    0  0.12931432412E+01 -0.64468448735E+02 -0.16159834839E+02  0.11277284286E+03  0.91097314573E+02 0.  0.
          5    1    1    2  502    0  0.54204343648E+02  0.92065929470E+01 -0.36555016698E+01  0.55260359359E+02  0.41800000000E+01 0. -1.
         -5    1    1    2    0  502 -0.55497486889E+02  0.55261855788E+02 -0.62290192958E+02  0.10015679855E+03  0.41800000000E+01 0. -1.
        -11    1    3    3    0    0 -0.36267535153E+02 -0.62417800646E+02 -0.94468340260E+00  0.72195625700E+02  0.00000000000E+00 0.  1.
         11    1    3    3    0    0  0.37560678394E+02 -0.20506480893E+01 -0.15215151436E+02  0.40577217157E+02  0.00000000000E+00 0. -1.
</event>
<event>
 7    1  0.4096326E-006  0.7711955E+02  0.7561462E-02  0.1337430E+00
          3   -1    0    0  501    0  0.00000000000E+00  0.00000000000E+00  0.57996292492E+02  0.57996292492E+02  0.00000000000E+00 0. -1.
         -3   -1    0    0    0  501 -0.00000000000E+00 -0.00000000000E+00 -0.23130070098E+03  0.23130070098E+03  0.00000000000E+00 0.  1.
         23    2    1    2    0    0  0.22763955296E+02 -0.20337843029E+01 -0.49203031470E+02  0.11161558624E+03  0.97543666359E+02 0.  0.
          5    1    1    2  502    0  0.15991538886E+02 -0.84175763888E+00  0.21382062749E+02  0.27038914166E+02  0.41800000000E+01 0.  1.
         -5    1    1    2    0  502 -0.38755494183E+02  0.28755419418E+01 -0.14548343977E+03  0.15064249307E+03  0.41800000000E+01 0.  1.
        -11    1    3    3    0    0  0.59907562532E+02  0.71718182439E+01 -0.39572735413E+02  0.72155058129E+02  0.00000000000E+00 0.  1.
         11    1    3    3    0    0 -0.37143607236E+02 -0.92056025468E+01 -0.96302960577E+01  0.39460528112E+02  0.00000000000E+00 0. -1.
</event>
<event>
 7    1  0.4096326E-006  0.9655430E+02  0.7561462E-02  0.1287713E+00
         -1   -1    0    0    0  501 -0.00000000000E+00  0.00000000000E+00  0.19470983890E+03  0.19470983890E+03  0.00000000000E+00 0.  1.
          1   -1    0    0  501    0  0.00000000000E+00 -0.00000000000E+00 -0.67061389413E+02  0.67061389413E+02  0.00000000000E+00 0. -1.
         23    2    1    2    0    0  0.19061461911E+02 -0.10361823738E+02  0.37495403671E+02  0.10606356830E+03  0.96813576025E+02 0.  0.
          5    1    1    2  502    0 -0.71733601218E+02 -0.46718967624E+01  0.52201596146E+02  0.88938266248E+02  0.41800000000E+01 0.  1.
         -5    1    1    2    0  502  0.52672139307E+02  0.15033720500E+02  0.37951449665E+02  0.66769393759E+02  0.41800000000E+01 0.  1.
        -11    1    3    3    0    0  0.19984199642E+02 -0.35646013455E+02  0.59736148398E+02  0.72376888134E+02  0.00000000000E+00 0.  1.
         11    1    3    3    0    0 -0.92273773129E+00  0.25284189717E+02 -0.22240744727E+02  0.33686680165E+02  0.00000000000E+00 0. -1.
</event>
<event>
 7    1  0.4096326E-006  0.8042649E+02  0.7561462E-02  0.1327845E+00
         -2   -1    0    0    0  501 -0.00000000000E+00  0.00000000000E+00  0.14792773649E+03  0.14792773649E+03  0.00000000000E+00 0. -1.
          2   -1    0    0  501    0  0.00000000000E+00 -0.00000000000E+00 -0.10017347055E+03  0.10017347055E+03  0.00000000000E+00 0.  1.
         23    2    1    2    0    0  0.31195721352E+02  0.34200254603E+02 -0.10590999515E+02  0.10251672267E+03  0.90855262432E+02 0.  0.
          5    1    1    2  502    0 -0.51054619354E+02 -0.26086858503E+02  0.90195267174E+02  0.10695679952E+03  0.41800000000E+01 0. -1.
         -5    1    1    2    0  502  0.19858898003E+02 -0.81133961006E+01 -0.31850001725E+02  0.38627684840E+02  0.41800000000E+01 0. -1.
        -11    1    3    3    0    0 -0.21394273723E+02  0.10349876919E+02 -0.32921662853E+02  0.40603827226E+02  0.00000000000E+00 0.  1.
         11    1    3    3    0    0  0.52589995075E+02  0.23850377684E+02  0.22330663338E+02  0.61912895448E+02  0.00000000000E+00 0. -1.
</event>
<event>
 7    1  0.5904381E-006  0.2100379E+03  0.7561462E-02  0.1141536E+00
         -2   -1    0    0    0  501 -0.00000000000E+00  0.00000000000E+00  0.27694629756E+03  0.27694629756E+03  0.00000000000E+00 0.  1.
          2   -1    0    0  501    0  0.00000000000E+00 -0.00000000000E+00 -0.18042718594E+03  0.18042718594E+03  0.00000000000E+00 0. -1.
         23    2    1    2    0    0  0.40145597177E+02  0.19008332989E+03  0.56693370258E+02  0.22290082567E+03  0.93420011654E+02 0.  0.
          5    1    1    2  502    0  0.31580392054E+02 -0.94464920680E+02 -0.18519181644E+02  0.10139711480E+03  0.41800000000E+01 0.  1.
         -5    1    1    2    0  502 -0.71725989231E+02 -0.95618409212E+02  0.58344923014E+02  0.13307554303E+03  0.41800000000E+01 0.  1.
        -11    1    3    3    0    0  0.47761314258E+02  0.10494206703E+03  0.72178509483E+02  0.13602837132E+03  0.00000000000E+00 0.  1.
         11    1    3    3    0    0 -0.76157170816E+01  0.85141262858E+02 -0.15485139225E+02  0.86872454349E+02  0.00000000000E+00 0. -1.
</event>
<event>
 7    1  0.4725704E-006  0.2312671E+03  0.7561462E-02  0.1125751E+00
          2   -1    0    0  501    0  0.00000000000E+00  0.00000000000E+00  0.36382287014E+03  0.36382287014E+03  0.00000000000E+00 0. -1.
         -2   -1    0    0    0  501 -0.00000000000E+00 -0.00000000000E+00 -0.17096905788E+03  0.17096905788E+03  0.00000000000E+00 0.  1.
         23    2    1    2    0    0 -0.19430689666E+03 -0.99379339829E+02  0.15856728933E+03  0.28091178145E+03  0.78335307760E+02 0.  0.
          5    1    1    2  502    0  0.15108164962E+03  0.32342908259E+02 -0.22065996580E+02  0.15612850212E+03  0.41800000000E+01 0. -1.
         -5    1    1    2    0  502  0.43225247033E+02  0.67036431570E+02  0.56352519508E+02  0.97751644455E+02  0.41800000000E+01 0. -1.
        -11    1    3    3    0    0 -0.14161706396E+03 -0.36854664387E+02  0.76743523881E+02  0.16523688314E+03  0.00000000000E+00 0.  1.
         11    1    3    3    0    0 -0.52689832700E+02 -0.62524675441E+02  0.81823765446E+02  0.11567489832E+03  0.00000000000E+00 0. -1.
</event>
<event>
 7    1  0.4096326E-006  0.1552930E+03  0.7561462E-02  0.1194116E+00
          1   -1    0    0  501    0  0.00000000000E+00  0.00000000000E+00  0.49812136530E+03  0.49812136530E+03  0.00000000000E+00 0. -1.
         -1   -1    0    0    0  501 -0.00000000000E+00 -0.00000000000E+00 -0.58707030828E+02  0.58707030828E+02  0.00000000000E+00 0.  1.
         23    2    1    2    0    0  0.85792804713E+02 -0.89565750672E+02  0.27801904731E+03  0.31792059626E+03  0.91632340468E+02 0.  0.
          5    1    1    2  502    0  0.26850799680E+02  0.24819394952E+02  0.72864887226E+02  0.81631685023E+02  0.41800000000E+01 0.  1.
         -5    1    1    2    0  502 -0.11264360439E+03  0.64746355721E+02  0.88530399927E+02  0.15727611485E+03  0.41800000000E+01 0.  1.
        -11    1    3    3    0    0  0.98563318425E+02 -0.85232512136E+02  0.27469100200E+03  0.30403035284E+03  0.00000000000E+00 0. -1.
         11    1    3    3    0    0 -0.12770513711E+02 -0.43332385360E+01  0.33280453113E+01  0.13890243420E+02  0.00000000000E+00 0.  1.
</event>
<event>
 7    1  0.4096326E-006  0.8890483E+02  0.7561462E-02  0.1305526E+00
          1   -1    0    0  501    0  0.00000000000E+00  0.00000000000E+00  0.32671252879E+03  0.32671252879E+03  0.00000000000E+00 0. -1.
         -1   -1    0    0    0  501 -0.00000000000E+00 -0.00000000000E+00 -0.38801945484E+02  0.38801945484E+02  0.00000000000E+00 0.  1.
         23    2    1    2    0    0  0.26082863540E+02  0.10956208379E+02  0.14334874022E+03  0.17225342885E+03  0.91225150896E+02 0.  0.
          5    1    1    2  502    0 -0.55059610087E+02 -0.39703523628E+02  0.35461380312E+02  0.76700145665E+02  0.41800000000E+01 0.  1.
         -5    1    1    2    0  502  0.28976746547E+02  0.28747315249E+02  0.10910046278E+03  0.11656089976E+03  0.41800000000E+01 0.  1.
        -11    1    3    3    0    0  0.59668639318E+00 -0.24828507706E+02  0.11991831459E+03  0.12246310875E+03  0.00000000000E+00 0. -1.
         11    1    3    3    0    0  0.25486177147E+02  0.35784716084E+02  0.23430425624E+02  0.49790320101E+02  0.00000000000E+00 0.  1.
</event>
<event>
 7    1  0.4096326E-006  0.1103716E+03  0.7561462E-02  0.1259883E+00
          2   -1    0    0  501    0  0.00000000000E+00  0.00000000000E+00  0.51698783093E+03  0.51698783093E+03  0.00000000000E+00 0. -1.
         -2   -1    0    0    0  501 -0.00000000000E+00 -0.00000000000E+00 -0.25186513190E+02  0.25186513190E+02  0.00000000000E+00 0.  1.
         23    2    1    2    0    0  0.26968395147E+02 -0.25247490075E+02  0.23217500516E+03  0.25162612634E+03  0.89698073240E+02 0.  0.
          5    1    1    2  502    0  0.12946548236E+02 -0.44534174805E+02  0.65248522647E+02  0.80160763123E+02  0.41800000000E+01 0. -1.
         -5    1    1    2    0  502 -0.39914943383E+02  0.69781664880E+02  0.19437778993E+03  0.21038745465E+03  0.41800000000E+01 0. -1.
        -11    1    3    3    0    0 -0.24440079864E+02  0.14746735418E+02  0.10407113376E+03  0.10791470980E+03  0.00000000000E+00 0.  1.
         11    1    3    3    0    0  0.51408475011E+02 -0.39994225493E+02  0.12810387141E+03  0.14371141655E+03  0.00000000000E+00 0. -1.
</event>
<event>
 7    1  0.4096326E-006  0.1505904E+03  0.7561462E-02  0.1199749E+00
         -2   -1    0    0    0  501 -0.00000000000E+00  0.00000000000E+00  0.16699205995E+02  0.16699205995E+02  0.00000000000E+00 0.  1.
          2   -1    0    0  501    0  0.00000000000E+00 -0.00000000000E+00 -0.14884931512E+04  0.14884931512E+04  0.00000000000E+00 0. -1.
         23    2    1    2    0    0  0.10802405243E+03 -0.46069329639E+02 -0.68033533637E+03  0.69534918985E+03  0.82841697678E+02 0.  0.
          5    1    1    2  502    0 -0.89538761305E+02  0.82405588493E+02 -0.68561209070E+03  0.69633991851E+03  0.41800000000E+01 0. -1.
         -5    1    1    2    0  502 -0.18485291124E+02 -0.36336258854E+02 -0.10584651811E+03  0.11350324881E+03  0.41800000000E+01 0. -1.
        -11    1    3    3    0    0  0.10290258876E+03 -0.11557121847E+02 -0.57871582285E+03  0.58790689182E+03  0.00000000000E+00 0. -1.
         11    1    3    3    0    0  0.51214636727E+01 -0.34512207792E+02 -0.10161951352E+03  0.10744229803E+03  0.00000000000E+00 0.  1.
</event>
<event>
 7    1  0.4096326E-006  0.1304396E+03  0.7561462E-02  0.1226805E+00
         -2   -1    0    0    0  501 -0.00000000000E+00  0.00000000000E+00  0.62539772569E+03  0.62539772569E+03  0.00000000000E+00 0.  1.
          2   -1    0    0  501    0  0.00000000000E+00 -0.00000000000E+00 -0.40036959059E+02  0.40036959059E+02  0.00000000000E+00 0. -1.
         23    2    1    2    0    0  0.32917904277E+02  0.65482429115E+02  0.85733248372E+02  0.14519720534E+03  0.91435778654E+02 0.  0.
          5    1    1    2  502    0  0.32993719009E+02  0.18555681677E+02  0.12824039399E+03  0.13377581944E+03  0.41800000000E+01 0. -1.
         -5    1    1    2    0  502 -0.65911623286E+02 -0.84038110792E+02  0.37138712427E+03  0.38646165996E+03  0.41800000000E+01 0. -1.
        -11    1    3    3    0    0  0.48242277012E+02 -0.42674303825E+00  0.25316971802E+02  0.54483469623E+02  0.00000000000E+00 0.  1.
         11    1    3    3    0    0 -0.15324372735E+02  0.65909172153E+02  0.60416276570E+02  0.90713735720E+02  0.00000000000E+00 0. -1.
</event>
<event>
 7    1  0.4096326E-006  0.1247589E+03  0.7561462E-02  0.1235447E+00
          1   -1    0    0  501    0  0.00000000000E+00  0.00000000000E+00  0.65088722292E+03  0.65088722292E+03  0.00000000000E+00 0. -1.
         -1   -1    0    0    0  501 -0.00000000000E+00 -0.00000000000E+00 -0.85589186462E+02  0.85589186462E+02  0.00000000000E+00 0.  1.
         23    2    1    2    0    0  0.11004577776E+03  0.15407746071E+02  0.54945703810E+03  0.56841063277E+03  0.94022012782E+02 0.  0.
          5    1    1    2  502    0 -0.35724583843E+02 -0.31333795292E+01  0.67556097895E+02  0.76598712266E+02  0.41800000000E+01 0.  1.
         -5    1    1    2    0  502 -0.74321193921E+02 -0.12274366541E+02 -0.51715099536E+02  0.91467064345E+02  0.41800000000E+01 0.  1.
        -11    1    3    3    0    0  0.11931337893E+02  0.35819412798E+02  0.81173868124E+02  0.89524209147E+02  0.00000000000E+00 0.  1.
         11    1    3    3    0    0  0.98114439871E+02 -0.20411666727E+02  0.46828316998E+03  0.47888642363E+03  0.00000000000E+00 0. -1.
</event>
<event>
 7    1  0.4096326E-006  0.4187204E+03  0.7561462E-02  0.1037484E+00
          1   -1    0    0  501    0  0.00000000000E+00  0.00000000000E+00  0.15856425154E+04  0.15856425154E+04  0.00000000000E+00 0. -1.
         -1   -1    0    0    0  501 -0.00000000000E+00 -0.00000000000E+00 -0.19354254080E+03  0.19354254080E+03  0.00000000000E+00 0.  1.
         23    2    1    2    0    0  0.38591053671E+03 -0.13303805647E+03  0.12675070789E+04  0.13344414836E+04  0.86797530784E+02 0.  0.
          5    1    1    2  502    0 -0.35038804669E+03  0.80459194726E+02  0.12646391648E+03  0.38112473005E+03  0.41800000000E+01 0.  1.
         -5    1    1    2    0  502 -0.35522490018E+02  0.52578861745E+02 -0.18710208163E+01  0.63618842479E+02  0.41800000000E+01 0.  1.
        -11    1    3    3    0    0  0.70412022760E+02  0.35958583423E+01  0.28211028178E+03  0.29078685361E+03  0.00000000000E+00 0.  1.
         11    1    3    3    0    0  0.31549851395E+03 -0.13663391481E+03  0.98539679712E+03  0.10436546300E+04  0.00000000000E+00 0. -1.
</event>
<event>
 7    1  0.4096326E-006  0.1308859E+03  0.7561462E-02  0.1226147E+00
          2   -1    0    0  501    0  0.00000000000E+00  0.00000000000E+00  0.39839019540E+03  0.39839019540E+03  0.00000000000E+00 0. -1.
         -2   -1    0    0    0  501 -0.00000000000E+00 -0.00000000000E+00 -0.45407914503E+02  0.45407914503E+02  0.00000000000E+00 0.  1.
         23    2    1    2    0    0  0.77072903664E+02  0.21378864486E+02  0.17455780478E+03  0.21167624100E+03  0.89101714165E+02 0.  0.
          5    1    1    2  502    0 -0.90756856451E+01  0.45519548650E+02  0.92920609014E+02  0.10395243796E+03  0.41800000000E+01 0. -1.
         -5    1    1    2    0  502 -0.67997218018E+02 -0.66898413137E+02  0.85503867104E+02  0.12816943094E+03  0.41800000000E+01 0. -1.
        -11    1    3    3    0    0  0.90127431318E+02  0.38627517153E+02  0.14069352465E+03  0.17149258537E+03  0.00000000000E+00 0. -1.
         11    1    3    3    0    0 -0.13054527654E+02 -0.17248652666E+02  0.33864280127E+02  0.40183655627E+02  0.00000000000E+00 0.  1.
</event>
<event>
 7    1  0.4096326E-006  0.1080797E+03  0.7561462E-02  0.1264168E+00
          1   -1    0    0  501    0  0.00000000000E+00  0.00000000000E+00  0.16311357741E+03  0.16311357741E+03  0.00000000000E+00 0. -1.
         -1   -1    0    0    0  501 -0.00000000000E+00 -0.00000000000E+00 -0.83219550215E+02  0.83219550215E+02  0.00000000000E+00 0.  1.
         23    2    1    2    0    0 -0.32469053503E+02 -0.22977311726E+02  0.37691106608E+02  0.10826225377E+03  0.93369694144E+02 0.  0.
          5    1    1    2  502    0 -0.12509851515E+02  0.66734287787E+02  0.15636772345E+02  0.69799302294E+02  0.41800000000E+01 0. -1.
         -5    1    1    2    0  502  0.44978905018E+02 -0.43756976060E+02  0.26566148238E+02  0.68271571556E+02  0.41800000000E+01 0. -1.
        -11    1    3    3    0    0 -0.76642484821E+01 -0.48822796228E+02 -0.81458868035E+01  0.50087539450E+02  0.00000000000E+00 0.  1.
         11    1    3    3    0    0 -0.24804805021E+02  0.25845484502E+02  0.45836993411E+02  0.58174714320E+02  0.00000000000E+00 0. -1.
</event>
<event>
 7    1  0.4096326E-006  0.8745050E+02  0.7561462E-02  0.1309146E+00
         -4   -1    0    0    0  501 -0.00000000000E+00  0.00000000000E+00  0.19364454615E+03  0.19364454615E+03  0.00000000000E+00 0.  1.
          4   -1    0    0  501    0  0.00000000000E+00 -0.00000000000E+00 -0.89781659508E+02  0.89781659508E+02  0.00000000000E+00 0. -1.
         23    2    1    2    0    0  0.48431227776E+02  0.23704751554E+02 -0.21964364477E+02  0.10667088824E+03  0.89379785305E+02 0.  0.
          5    1    1    2  502    0 -0.68319453837E+01 -0.33842800355E+02 -0.84208636365E+01  0.35782592947E+02  0.41800000000E+01 0. -1.
         -5    1    1    2    0  502 -0.41599282393E+02  0.10138048801E+02  0.13424811476E+03  0.14097272447E+03  0.41800000000E+01 0.  1.
        -11    1    3    3    0    0 -0.28960370224E+00  0.44233056617E+02 -0.29641766452E+02  0.53247361309E+02  0.00000000000E+00 0.  1.
         11    1    3    3    0    0  0.48720831479E+02 -0.20528305063E+02  0.76774019754E+01  0.53423526932E+02  0.00000000000E+00 0. -1.
</event>
<event>
 7    1  0.4096326E-006  0.1927062E+03  0.7561462E-02  0.1156043E+00
          1   -1    0    0  501    0  0.00000000000E+00  0.00000000000E+00  0.16528603521E+03  0.16528603521E+03  0.00000000000E+00 0. -1.
         -1   -1    0    0    0  501 -0.00000000000E+00 -0.00000000000E+00 -0.42488355168E+03  0.42488355168E+03  0.00000000000E+00 0.  1.
         23    2    1    2    0    0  0.25309973318E+02 -0.17047214522E+03  0.61696949728E+02  0.20471035024E+03  0.91643149468E+02 0.  0.
          5    1    1    2  502    0 -0.38691300032E+02  0.74239819300E+00 -0.91495977586E+02  0.99431152903E+02  0.41800000000E+01 0.  1.
         -5    1    1    2    0  502  0.13381326714E+02  0.16972974702E+03 -0.22979848861E+03  0.28602808375E+03  0.41800000000E+01 0.  1.
        -11    1    3    3    0    0 -0.19981780839E+01 -0.10779237433E+03  0.79626530179E+02  0.13402825444E+03  0.00000000000E+00 0. -1.
         11    1    3    3    0    0  0.27308151402E+02 -0.62679770888E+02 -0.17929580451E+02  0.70682095800E+02  0.00000000000E+00 0.  1.
</event>
<event>
 7    1  0.4096326E-006  0.2053465E+03  0.7561462E-02  0.1145305E+00
         -2   -1    0    0    0  501 -0.00000000000E+00  0.00000000000E+00  0.21346029882E+03  0.21346029882E+03  0.00000000000E+00 0.  1.
          2   -1    0    0  501    0  0.00000000000E+00 -0.00000000000E+00 -0.24477548574E+03  0.24477548574E+03  0.00000000000E+00 0. -1.
         23    2    1    2    0    0 -0.15283789743E+03  0.12893867406E+03 -0.31696215430E+02  0.22237157986E+03  0.91977523871E+02 0.  0.
          5    1    1    2  502    0  0.11894117844E+03 -0.74896335478E+02  0.55771747272E+02  0.15127599013E+03  0.41800000000E+01 0.  1.
         -5    1    1    2    0  502  0.33896718987E+02 -0.54042338582E+02 -0.55390718763E+02  0.84588214561E+02  0.41800000000E+01 0.  1.
        -11    1    3    3    0    0 -0.58459286245E+02  0.19491102303E+02  0.25837261293E+02  0.66820320924E+02  0.00000000000E+00 0.  1.
         11    1    3    3    0    0 -0.94378611186E+02  0.10944757176E+03 -0.57533476723E+02  0.15555125894E+03  0.00000000000E+00 0. -1.
</event>
<event>
 7    1  0.4096326E-006  0.9977095E+02  0.7561462E-02  0.1280778E+00
          2   -1    0    0  501    0  0.00000000000E+00  0.00000000000E+00  0.28081550782E+03  0.28081550782E+03  0.00000000000E+00 0. -1.
         -2   -1    0    0    0  501 -0.00000000000E+00 -0.00000000000E+00 -0.57620067019E+02  0.57620067019E+02  0.00000000000E+00 0.  1.
         23    2    1    2    0    0 -0.14181987728E+02 -0.68578268722E+02  0.93814704718E+02  0.14532171947E+03  0.86099335722E+02 0.  0.
          5    1    1    2  502    0 -0.28393903194E+02  0.56447731915E+02  0.79801246118E+01  0.63825660716E+02  0.41800000000E+01 0. -1.
         -5    1    1    2    0  502  0.42575890922E+02  0.12130536807E+02  0.12140061147E+03  0.12928819465E+03  0.41800000000E+01 0. -1.
        -11    1    3    3    0    0 -0.25000988464E+02 -0.28794774686E+01 -0.54925930791E+01  0.25758676080E+02  0.00000000000E+00 0.  1.
         11    1    3    3    0    0  0.10819000736E+02 -0.65698791253E+02  0.99307297798E+02  0.11956304339E+03  0.00000000000E+00 0. -1.
</event>
<event>
 7    1  0.4096326E-006  0.1263718E+03  0.7561462E-02  0.1232941E+00
          2   -1    0    0  501    0  0.00000000000E+00  0.00000000000E+00  0.46434184084E+02  0.46434184084E+02  0.00000000000E+00 0. -1.
         -2   -1    0    0    0  501 -0.00000000000E+00 -0.00000000000E+00 -0.45944487533E+03  0.45944487533E+03  0.00000000000E+00 0.  1.
         23    2    1    2    0    0 -0.59052840452E+02 -0.57451747478E+02 -0.96197003332E+02  0.15544050832E+03  0.90110748093E+02 0.  0.
          5    1    1    2  502    0 -0.27570273753E+02  0.27688468200E+02 -0.18957817205E+03  0.19360817902E+03  0.41800000000E+01 0.  1.
         -5    1    1    2    0  502  0.86623114205E+02  0.29763279278E+02 -0.12723551586E+03  0.15683037207E+03  0.41800000000E+01 0.  1.
        -11    1    3    3    0    0 -0.66467203015E+02 -0.27166408290E+01 -0.46760044761E+02  0.81312797271E+02  0.00000000000E+00 0.  1.
         11    1    3    3    0    0  0.74143625627E+01 -0.54735106649E+02 -0.49436958571E+02  0.74127711045E+02  0.00000000000E+00 0. -1.
</event>
<event>
 7    1  0.4096326E-006  0.1992816E+03  0.7561462E-02  0.1150347E+00
          1   -1    0    0  501    0  0.00000000000E+00  0.00000000000E+00  0.17150988626E+03  0.17150988626E+03  0.00000000000E+00 0. -1.
         -1   -1    0    0    0  501 -0.00000000000E+00 -0.00000000000E+00 -0.36521021011E+03  0.36521021011E+03  0.00000000000E+00 0.  1.
         23    2    1    2    0    0 -0.14955551884E+03 -0.10388614224E+03  0.46545582667E+02  0.21033890536E+03  0.94428703681E+02 0.  0.
          5    1    1    2  502    0  0.18116144821E+02  0.78196912696E+02 -0.13011044923E+03  0.15293512761E+03  0.41800000000E+01 0.  1.
         -5    1    1    2    0  502  0.13143937401E+03  0.25689229548E+02 -0.11013545729E+03  0.17344606340E+03  0.41800000000E+01 0.  1.
        -11    1    3    3    0    0 -0.12567694346E+03 -0.98597279369E+02  0.71844748470E+02  0.17515075078E+03  0.00000000000E+00 0. -1.
         11    1    3    3    0    0 -0.23878575371E+02 -0.52888628747E+01 -0.25299165804E+02  0.35188154578E+02  0.00000000000E+00 0.  1.
</event>
<event>
 7    1  0.4096326E-006  0.1076472E+03  0.7561462E-02  0.1264990E+00
         -1   -1    0    0    0  501 -0.00000000000E+00  0.00000000000E+00  0.25940772939E+02  0.25940772939E+02  0.00000000000E+00 0.  1.
          1   -1    0    0  501    0  0.00000000000E+00 -0.00000000000E+00 -0.86042666973E+03  0.86042666973E+03  0.00000000000E+00 0. -1.
         23    2    1    2    0    0  0.46385173865E+02  0.78465205790E+02 -0.48014288654E+03  0.49969776302E+03  0.10417432506E+03 0.  0.
          5    1    1    2  502    0 -0.17717127904E+02 -0.34697407332E+02 -0.32334850708E+03  0.32571388691E+03  0.41800000000E+01 0. -1.
         -5    1    1    2    0  502 -0.28668045962E+02 -0.43767798458E+02 -0.30994503174E+02  0.60955792737E+02  0.41800000000E+01 0. -1.
        -11    1    3    3    0    0 -0.44548302951E+00  0.76761302396E+02 -0.39613077006E+03  0.40349979304E+03  0.00000000000E+00 0. -1.
         11    1    3    3    0    0  0.46830656895E+02  0.17039033941E+01 -0.84012116479E+02  0.96197969975E+02  0.00000000000E+00 0.  1.
</event>
<event>
 7    1  0.4096326E-006  0.1761741E+03  0.7561462E-02  0.1171558E+00
         -1   -1    0    0    0  501 -0.00000000000E+00  0.00000000000E+00  0.54084137705E+03  0.54084137705E+03  0.00000000000E+00 0.  1.
          1   -1    0    0  501    0  0.00000000000E+00 -0.00000000000E+00 -0.69429823377E+02  0.69429823377E+02  0.00000000000E+00 0. -1.
         23    2    1    2    0    0  0.14848240860E+03 -0.20178749309E+02  0.12261770440E+03  0.21056774088E+03  0.82761491545E+02 0.  0.
          5    1    1    2  502    0 -0.34143536464E+02  0.53165023314E+02  0.59621153504E+02  0.86973876143E+02  0.41800000000E+01 0. -1.
         -5    1    1    2    0  502 -0.11433887213E+03 -0.32986274006E+02  0.28917269577E+03  0.31272958340E+03  0.41800000000E+01 0. -1.
        -11    1    3    3    0    0  0.11286521006E+02  0.23416290827E+02  0.28506738985E+02  0.38579040944E+02  0.00000000000E+00 0.  1.
         11    1    3    3    0    0  0.13719588759E+03 -0.43595040136E+02  0.94110965412E+02  0.17198869994E+03  0.00000000000E+00 0. -1.
</event>
<event>
 7    1  0.4096326E-006  0.1110459E+03  0.7561462E-02  0.1258645E+00
         -1   -1    0    0    0  501 -0.00000000000E+00  0.00000000000E+00  0.72123072834E+03  0.72123072834E+03  0.00000000000E+00 0.  1.
          1   -1    0    0  501    0  0.00000000000E+00 -0.00000000000E+00 -0.39191344230E+02  0.39191344230E+02  0.00000000000E+00 0. -1.
         23    2    1    2    0    0 -0.42427136441E+02 -0.77092233301E+02  0.10683918491E+03  0.16524275017E+03  0.90262288406E+02 0.  0.
          5    1    1    2  502    0 -0.13971689881E+02  0.71414177842E+02  0.15652473823E+03  0.17266342691E+03  0.41800000000E+01 0. -1.
         -5    1    1    2    0  502  0.56398826322E+02  0.56780554594E+01  0.41867546097E+03  0.42251589550E+03  0.41800000000E+01 0. -1.
        -11    1    3    3    0    0 -0.62045426614E+01 -0.40155304432E+02 -0.60349979922E+01  0.41077561082E+02  0.00000000000E+00 0. -1.
         11    1    3    3    0    0 -0.36222593780E+02 -0.36936928869E+02  0.11287418290E+03  0.12416518909E+03  0.00000000000E+00 0.  1.
</event>
<event>
 7    1  0.4096326E-006  0.1174533E+03  0.7561462E-02  0.1247358E+00
          2   -1    0    0  501    0  0.00000000000E+00  0.00000000000E+00  0.38507486835E+03  0.38507486835E+03  0.00000000000E+00 0. -1.
         -2   -1    0    0    0  501 -0.00000000000E+00 -0.00000000000E+00 -0.40107756346E+02  0.40107756346E+02  0.00000000000E+00 0.  1.
         23    2    1    2    0    0  0.49979573831E+02 -0.51113896584E+01  0.21841812575E+03  0.24028791226E+03  0.86647094669E+02 0.  0.
          5    1    1    2  502    0 -0.92143690876E+02  0.11554341021E+01  0.86342399553E+02  0.12634982056E+03  0.41800000000E+01 0.  1.
         -5    1    1    2    0  502  0.42164117045E+02  0.39559555563E+01  0.40206586693E+02  0.58544891870E+02  0.41800000000E+01 0.  1.
        -11    1    3    3    0    0  0.27988026949E+02 -0.45903745478E+02  0.12119260906E+03  0.13258254784E+03  0.00000000000E+00 0.  1.
         11    1    3    3    0    0  0.21991546882E+02  0.40792355819E+02  0.97225516693E+02  0.10770536442E+03  0.00000000000E+00 0. -1.
</event>
<event>
 7    1  0.4096326E-006  0.1489994E+03  0.7561462E-02  0.1201708E+00
          2   -1    0    0  501    0  0.00000000000E+00  0.00000000000E+00  0.82148936977E+03  0.82148936977E+03  0.00000000000E+00 0. -1.
         -2   -1    0    0    0  501 -0.00000000000E+00 -0.00000000000E+00 -0.41553483912E+02  0.41553483912E+02  0.00000000000E+00 0.  1.
         23    2    1    2    0    0  0.11504998144E+03 -0.56109338359E+01  0.59031046722E+03  0.60833979198E+03  0.91339334277E+02 0.  0.
          5    1    1    2  502    0  0.24921792426E+02 -0.46093392175E+01  0.52487179829E+02  0.58435590115E+02  0.41800000000E+01 0. -1.
         -5    1    1    2    0  502 -0.13997177387E+03  0.10220273053E+02  0.13713823881E+03  0.19626747159E+03  0.41800000000E+01 0. -1.
        -11    1    3    3    0    0  0.10116647858E+03  0.19671975883E+02  0.54477178886E+03  0.55443479775E+03  0.00000000000E+00 0. -1.
         11    1    3    3    0    0  0.13883502858E+02 -0.25282909719E+02  0.45538678365E+02  0.53904994227E+02  0.00000000000E+00 0.  1.
</event>
<event>
 7    1  0.4096326E-006  0.1085613E+03  0.7561462E-02  0.1263258E+00
          3   -1    0    0  501    0  0.00000000000E+00  0.00000000000E+00  0.21297322681E+02  0.21297322681E+02  0.00000000000E+00 0. -1.
         -3   -1    0    0    0  501 -0.00000000000E+00 -0.00000000000E+00 -0.72979749518E+03  0.72979749518E+03  0.00000000000E+00 0.  1.
         23    2    1    2    0    0 -0.34275239347E+02  0.15563424248E+02 -0.17007456286E+03  0.19705190265E+03  0.92125366749E+02 0.  0.
          5    1    1    2  502    0  0.61780809075E+01  0.51914969612E+02 -0.30267189586E+03  0.30718248924E+03  0.41800000000E+01 0. -1.
         -5    1    1    2    0  502  0.28097158439E+02 -0.67478393859E+02 -0.23575371378E+03  0.24686042597E+03  0.41800000000E+01 0. -1.
        -11    1    3    3    0    0 -0.53338877045E+02  0.35346235266E+02 -0.14984161715E+03  0.16293220180E+03  0.00000000000E+00 0.  1.
         11    1    3    3    0    0  0.19063637698E+02 -0.19782811018E+02 -0.20232945707E+02  0.34119700849E+02  0.00000000000E+00 0. -1.
</event>
<event>
 7    1  0.4096326E-006  0.2472289E+03  0.7561462E-02  0.1115069E+00
          1   -1    0    0  501    0  0.00000000000E+00  0.00000000000E+00  0.61675669905E+02  0.61675669905E+02  0.00000000000E+00 0. -1.
         -1   -1    0    0    0  501 -0.00000000000E+00 -0.00000000000E+00 -0.11167478334E+04  0.11167478334E+04  0.00000000000E+00 0.  1.
         23    2    1    2    0    0 -0.13237347419E+03  0.18900760577E+03 -0.38649868465E+03  0.46017268960E+03  0.95556576476E+02 0.  0.
          5    1    1    2  502    0  0.39892019432E+02  0.81108173234E+01 -0.15715903210E+03  0.16239948381E+03  0.41800000000E+01 0.  1.
         -5    1    1    2    0  502  0.92481454761E+02 -0.19711842310E+03 -0.51141444671E+03  0.55585132986E+03  0.41800000000E+01 0.  1.
        -11    1    3    3    0    0 -0.71497815465E+02  0.14151289534E+03 -0.18086013838E+03  0.24051658325E+03  0.00000000000E+00 0. -1.
         11    1    3    3    0    0 -0.60875658729E+02  0.47494710435E+02 -0.20563854627E+03  0.21965610635E+03  0.00000000000E+00 0.  1.
</event>
<event>
 7    1  0.4096326E-006  0.1063330E+03  0.7561462E-02  0.1267515E+00
         -1   -1    0    0    0  501 -0.00000000000E+00  0.00000000000E+00  0.46639201888E+02  0.46639201888E+02  0.00000000000E+00 0.  1.
          1   -1    0    0  501    0  0.00000000000E+00 -0.00000000000E+00 -0.29780661992E+03  0.29780661992E+03  0.00000000000E+00 0. -1.
         23    2    1    2    0    0  0.58838236223E+01 -0.31470831374E+02 -0.15806009946E+03  0.18526153685E+03  0.91180093142E+02 0.  0.
          5    1    1    2  502    0 -0.27424706881E+02  0.73066074933E+02 -0.76351807464E+02  0.10926040800E+03  0.41800000000E+01 0. -1.
         -5    1    1    2    0  502  0.21540883258E+02 -0.41595243559E+02 -0.16755511108E+02  0.49923876961E+02  0.41800000000E+01 0. -1.
        -11    1    3    3    0    0  0.43565516685E+02 -0.21062765264E+02 -0.12508448662E+03  0.13411831760E+03  0.00000000000E+00 0. -1.
         11    1    3    3    0    0 -0.37681693062E+02 -0.10408066109E+02 -0.32975612846E+02  0.51143219245E+02  0.00000000000E+00 0.  1.
</event>
<event>
 7    1  0.4096326E-006  0.8698193E+02  0.7561462E-02  0.1310329E+00
          3   -1    0    0  501    0  0.00000000000E+00  0.00000000000E+00  0.53009194923E+03  0.53009194923E+03  0.00000000000E+00 0. -1.
         -3   -1    0    0    0  501 -0.00000000000E+00 -0.00000000000E+00 -0.26678720832E+02  0.26678720832E+02  0.00000000000E+00 0.  1.
         23    2    1    2    0    0 -0.26423531752E+02 -0.40923889220E+02  0.23419565990E+03  0.25593960035E+03  0.91019251650E+02 0.  0.
          5    1    1    2  502    0  0.61190158709E+02  0.30917467022E+02  0.25077103264E+03  0.26000713163E+03  0.41800000000E+01 0.  1.
         -5    1    1    2    0  502 -0.34766626958E+02  0.10006422197E+02  0.18446535859E+02  0.40823938080E+02  0.41800000000E+01 0.  1.
        -11    1    3    3    0    0 -0.11483626733E+02  0.10346820346E+02 -0.27949886580E+00  0.15459899542E+02  0.00000000000E+00 0.  1.
         11    1    3    3    0    0 -0.14939905018E+02 -0.51270709566E+02  0.23447515877E+03  0.24047970081E+03  0.00000000000E+00 0. -1.
</event>
<event>
 7    1  0.4096326E-006  0.6144433E+02  0.7561462E-02  0.1391869E+00
         -2   -1    0    0    0  501 -0.00000000000E+00  0.00000000000E+00  0.53571913783E+02  0.53571913783E+02  0.00000000000E+00 0.  1.
          2   -1    0    0  501    0  0.00000000000E+00 -0.00000000000E+00 -0.23473379932E+03  0.23473379932E+03  0.00000000000E+00 0. -1.
         23    2    1    2    0    0  0.12590995655E+02  0.37753735552E+02 -0.82678245019E+02  0.12420751693E+03  0.83713423910E+02 0.  0.
          5    1    1    2  502    0 -0.11622866315E+02 -0.39031212378E+02  0.19976967682E+02  0.45553026231E+02  0.41800000000E+01 0.  1.
         -5    1    1    2    0  502 -0.96812933960E+00  0.12774768258E+01 -0.11846060820E+03  0.11854516995E+03  0.41800000000E+01 0.  1.
        -11    1    3    3    0    0  0.23246806336E+02  0.53573096815E+02 -0.86873527730E+02  0.10467808045E+03  0.00000000000E+00 0.  1.
         11    1    3    3    0    0 -0.10655810681E+02 -0.15819361263E+02  0.41952827111E+01  0.19529436476E+02  0.00000000000E+00 0. -1.
</event>
<event>
 7    1  0.4096326E-006  0.1349894E+03  0.7561462E-02  0.1220235E+00
          1   -1    0    0  501    0  0.00000000000E+00  0.00000000000E+00  0.17015375123E+03  0.17015375123E+03  0.00000000000E+00 0. -1.
         -1   -1    0    0    0  501 -0.00000000000E+00 -0.00000000000E+00 -0.12974449700E+03  0.12974449700E+03  0.00000000000E+00 0.  1.
         23    2    1    2    0    0 -0.56205219556E+02  0.74574623401E+02  0.58001667296E+02  0.14280609130E+03  0.91153634826E+02 0.  0.
          5    1    1    2  502    0  0.80017122019E+02 -0.90822896033E+02 -0.31008700275E+02  0.12502219864E+03  0.41800000000E+01 0. -1.
         -5    1    1    2    0  502 -0.23811902462E+02  0.16248272633E+02  0.13416287202E+02  0.32069958290E+02  0.41800000000E+01 0. -1.
        -11    1    3    3    0    0  0.18719082231E+02  0.13683124784E+02 -0.94411290883E+01  0.25035312299E+02  0.00000000000E+00 0.  1.
         11    1    3    3    0    0 -0.74924301787E+02  0.60891498616E+02  0.67442796384E+02  0.11777077900E+03  0.00000000000E+00 0. -1.
</event>
<event>
 7    1  0.4096326E-006  0.8814052E+02  0.7561462E-02  0.1307418E+00
          2   -1    0    0  501    0  0.00000000000E+00  0.00000000000E+00  0.17688645885E+03  0.17688645885E+03  0.00000000000E+00 0. -1.
         -2   -1    0    0    0  501 -0.00000000000E+00 -0.00000000000E+00 -0.96758743575E+02  0.96758743575E+02  0.00000000000E+00 0.  1.
         23    2    1    2    0    0  0.64142527626E+01 -0.47659815811E+02  0.99202226157E+02  0.13826572910E+03  0.83448963376E+02 0.  0.
          5    1    1    2  502    0  0.32856954758E+02  0.61550069923E+02 -0.47737908140E+02  0.84642606630E+02  0.41800000000E+01 0. -1.
         -5    1    1    2    0  502 -0.39271207520E+02 -0.13890254113E+02  0.28663397259E+02  0.50736866693E+02  0.41800000000E+01 0. -1.
        -11    1    3    3    0    0 -0.18482335284E+02 -0.22608781149E+02  0.98715210707E+02  0.10294389990E+03  0.00000000000E+00 0. -1.
         11    1    3    3    0    0  0.24896588046E+02 -0.25051034662E+02  0.48701545055E+00  0.35321829200E+02  0.00000000000E+00 0.  1.
</event>
<event>
 7    1  0.4096326E-006  0.1366589E+03  0.7561462E-02  0.1217897E+00
         -1   -1    0    0    0  501 -0.00000000000E+00  0.00000000000E+00  0.25731730021E+02  0.25731730021E+02  0.00000000000E+00 0.  1.
          1   -1    0    0  501    0  0.00000000000E+00 -0.00000000000E+00 -0.10579631429E+04  0.10579631429E+04  0.00000000000E+00 0. -1.
         23    2    1    2    0    0  0.67545409450E+02  0.81363042161E+02 -0.69361692619E+03  0.70754403673E+03  0.91278675776E+02 0.  0.
          5    1    1    2  502    0  0.23531309813E+02 -0.66240075482E+01 -0.16146874230E+03  0.16336225744E+03  0.41800000000E+01 0. -1.
         -5    1    1    2    0  502 -0.91076719263E+02 -0.74739034613E+02 -0.17714574437E+03  0.21278857872E+03  0.41800000000E+01 0. -1.
        -11    1    3    3    0    0  0.61626902620E+01 -0.15088460775E+02 -0.29910879992E+02  0.34063193358E+02  0.00000000000E+00 0. -1.
         11    1    3    3    0    0  0.61382719188E+02  0.96451502936E+02 -0.66370604620E+03  0.67348084337E+03  0.00000000000E+00 0.  1.
</event>
<event>
 7    1  0.4096326E-006  0.1242974E+03  0.7561462E-02  0.1236171E+00
          3   -1    0    0  501    0  0.00000000000E+00  0.00000000000E+00  0.36181924546E+02  0.36181924546E+02  0.00000000000E+00 0. -1.
         -3   -1    0    0    0  501 -0.00000000000E+00 -0.00000000000E+00 -0.64685942335E+03  0.64685942335E+03  0.00000000000E+00 0.  1.
         23    2    1    2    0    0  0.10626754571E+03 -0.12782283298E+01 -0.24522267864E+03  0.28241835371E+03  0.91277265816E+02 0.  0.
          5    1    1    2  502    0 -0.28405738572E+02 -0.40333376372E+02 -0.25193878356E+03  0.25675725948E+03  0.41800000000E+01 0. -1.
         -5    1    1    2    0  502 -0.77861807137E+02  0.41611604702E+02 -0.11351603661E+03  0.14386573471E+03  0.41800000000E+01 0. -1.
        -11    1    3    3    0    0  0.59886290206E+02 -0.16097547827E+02 -0.21796933929E+03  0.22661891287E+03  0.00000000000E+00 0.  1.
         11    1    3    3    0    0  0.46381255503E+02  0.14819319497E+02 -0.27253339352E+02  0.55799440841E+02  0.00000000000E+00 0. -1.
</event>
<event>
 7    1  0.4096326E-006  0.1515660E+03  0.7561462E-02  0.1198562E+00
          1   -1    0    0  501    0  0.00000000000E+00  0.00000000000E+00  0.12008835433E+04  0.12008835433E+04  0.00000000000E+00 0. -1.
         -1   -1    0    0    0  501 -0.00000000000E+00 -0.00000000000E+00 -0.20330055406E+02  0.20330055406E+02  0.00000000000E+00 0.  1.
         23    2    1    2    0    0  0.30640773696E+02 -0.10227880154E+03  0.68516064551E+03  0.69923557035E+03  0.89919199405E+02 0.  0.
          5    1    1    2  502    0  0.45193692607E+02  0.65721046112E+02  0.25679710878E+03  0.26893113102E+03  0.41800000000E+01 0. -1.
         -5    1    1    2    0  502 -0.75834466303E+02  0.36557755433E+02  0.23859573365E+03  0.25304689739E+03  0.41800000000E+01 0. -1.
        -11    1    3    3    0    0 -0.24862411632E+02 -0.71076744927E+02  0.33825274827E+03  0.34653277607E+03  0.00000000000E+00 0. -1.
         11    1    3    3    0    0  0.55503185327E+02 -0.31202056617E+02  0.34690789725E+03  0.35270279428E+03  0.00000000000E+00 0.  1.
</event>
<event>
 7    1  0.4096326E-006  0.8942846E+02  0.7561462E-02  0.1304242E+00
         -2   -1    0    0    0  501 -0.00000000000E+00  0.00000000000E+00  0.79613364961E+02  0.79613364961E+02  0.00000000000E+00 0.  1.
          2   -1    0    0  501    0  0.00000000000E+00 -0.00000000000E+00 -0.17413196146E+03  0.17413196146E+03  0.00000000000E+00 0. -1.
         23    2    1    2    0    0 -0.21993638307E+02  0.10960099223E+02 -0.83439604024E+02  0.12578401205E+03  0.90860366860E+02 0.  0.
          5    1    1    2  502    0  0.37750870847E+02  0.40056216276E+02  0.27774974216E+02  0.61794419689E+02  0.41800000000E+01 0.  1.
         -5    1    1    2    0  502 -0.15757232540E+02 -0.51016315499E+02 -0.38853966688E+02  0.66166894682E+02  0.41800000000E+01 0.  1.
        -11    1    3    3    0    0  0.13842379422E+02  0.27379809729E+02  0.29545997474E+01  0.30821990664E+02  0.00000000000E+00 0.  1.
         11    1    3    3    0    0 -0.35836017729E+02 -0.16419710505E+02 -0.86394203771E+02  0.94962021382E+02  0.00000000000E+00 0. -1.
</event>
<event>
 7    1  0.4096326E-006  0.8087671E+02  0.7561462E-02  0.1326582E+00
         -1   -1    0    0    0  501 -0.00000000000E+00  0.00000000000E+00  0.64771080339E+02  0.64771080339E+02  0.00000000000E+00 0.  1.
          1   -1    0    0  501    0  0.00000000000E+00 -0.00000000000E+00 -0.20265180924E+03  0.20265180924E+03  0.00000000000E+00 0. -1.
         23    2    1    2    0    0 -0.18954297793E+02 -0.20549131945E+02 -0.89599119620E+02  0.13045341801E+03  0.90601102671E+02 0.  0.
          5    1    1    2  502    0 -0.30176088854E+02 -0.14821881115E+02  0.24794674727E+02  0.41982529618E+02  0.41800000000E+01 0. -1.
         -5    1    1    2    0  502  0.49130386646E+02  0.35371013060E+02 -0.73076284011E+02  0.94986941954E+02  0.41800000000E+01 0. -1.
        -11    1    3    3    0    0  0.33858784105E+01  0.20328385897E+02  0.81580113011E+01  0.22164399252E+02  0.00000000000E+00 0.  1.
         11    1    3    3    0    0 -0.22340176203E+02 -0.40877517842E+02 -0.97757130921E+02  0.10828901876E+03  0.00000000000E+00 0. -1.
</event>
<event>
 7    1  0.4096326E-006  0.1158820E+03  0.7561462E-02  0.1250049E+00
         -1   -1    0    0    0  501 -0.00000000000E+00  0.00000000000E+00  0.10462949874E+03  0.10462949874E+03  0.00000000000E+00 0.  1.
          1   -1    0    0  501    0  0.00000000000E+00 -0.00000000000E+00 -0.23708385834E+03  0.23708385834E+03  0.00000000000E+00 0. -1.
         23    2    1    2    0    0  0.47064432154E+02  0.17050496238E+02 -0.17191284748E+03  0.20132148530E+03  0.92035499224E+02 0.  0.
          5    1    1    2  502    0  0.53248758442E+01  0.49011270470E+02  0.70910617825E+01  0.49982141741E+02  0.41800000000E+01 0.  1.
         -5    1    1    2    0  502 -0.52389307998E+02 -0.66061766708E+02  0.32367426109E+02  0.90409730041E+02  0.41800000000E+01 0.  1.
        -11    1    3    3    0    0 -0.24474114639E+02  0.68546457851E+00 -0.16708449310E+02  0.29641599609E+02  0.00000000000E+00 0. -1.
         11    1    3    3    0    0  0.71538546792E+02  0.16365031660E+02 -0.15520439817E+03  0.17167988569E+03  0.00000000000E+00 0.  1.
</event>
<event>
 7    1  0.4096326E-006  0.1369690E+03  0.7561462E-02  0.1217467E+00
         -2   -1    0    0    0  501 -0.00000000000E+00  0.00000000000E+00  0.51492435018E+02  0.51492435018E+02  0.00000000000E+00 0.  1.
          2   -1    0    0  501    0  0.00000000000E+00 -0.00000000000E+00 -0.43546608556E+03  0.43546608556E+03  0.00000000000E+00 0. -1.
         23    2    1    2    0    0  0.96098603911E+02 -0.35820664389E+02 -0.18193697296E+03  0.22814602147E+03  0.91823108821E+02 0.  0.
          5    1    1    2  502    0 -0.86046483859E+02 -0.26786325293E+02 -0.15647785103E+03  0.18062196674E+03  0.41800000000E+01 0.  1.
         -5    1    1    2    0  502 -0.10052120051E+02  0.62606989682E+02 -0.45558826558E+02  0.78190532367E+02  0.41800000000E+01 0.  1.
        -11    1    3    3    0    0  0.83993567696E+02 -0.17432647810E+01 -0.17073869404E+03  0.19028836021E+03  0.00000000000E+00 0. -1.
         11    1    3    3    0    0  0.12105036214E+02 -0.34077399608E+02 -0.11198278914E+02  0.37857661265E+02  0.00000000000E+00 0.  1.
</event>
<event>
 7    1  0.4096326E-006  0.1020022E+03  0.7561462E-02  0.1276141E+00
         -2   -1    0    0    0  501 -0.00000000000E+00  0.00000000000E+00  0.13129182485E+03  0.13129182485E+03  0.00000000000E+00 0.  1.
          2   -1    0    0  501    0  0.00000000000E+00 -0.00000000000E+00 -0.11672458545E+03  0.11672458545E+03  0.00000000000E+00 0. -1.
         23    2    1    2    0    0 -0.97697418248E+01 -0.30943196531E+02 -0.43734019292E+02  0.10624443936E+03  0.91226570609E+02 0.  0.
          5    1    1    2  502    0  0.30866901887E+02 -0.34571414448E+02 -0.66948637396E+01  0.47013210160E+02  0.41800000000E+01 0. -1.
         -5    1    1    2    0  502 -0.21097160062E+02  0.65514610979E+02  0.64996122427E+02  0.94758760782E+02  0.41800000000E+01 0. -1.
        -11    1    3    3    0    0  0.29525792012E+02  0.10563567500E+02  0.42121834052E+01  0.31640225051E+02  0.00000000000E+00 0.  1.
         11    1    3    3    0    0 -0.39295533837E+02 -0.41506764031E+02 -0.47946202697E+02  0.74604214311E+02  0.00000000000E+00 0. -1.
</event>
<event>
 7    1  0.4096326E-006  0.8234550E+02  0.7561462E-02  0.1322524E+00
         -2   -1    0    0    0  501 -0.00000000000E+00  0.00000000000E+00  0.14420528070E+03  0.14420528070E+03  0.00000000000E+00 0.  1.
          2   -1    0    0  501    0  0.00000000000E+00 -0.00000000000E+00 -0.11937161179E+03  0.11937161179E+03  0.00000000000E+00 0. -1.
         23    2    1    2    0    0  0.59220805820E+02 -0.23842874536E+02 -0.26311851631E+02  0.11411399472E+03  0.90852098193E+02 0.  0.
          5    1    1    2  502    0 -0.53840580292E+02  0.43046099847E+02 -0.22827601028E+02  0.72734768625E+02  0.41800000000E+01 0.  1.
         -5    1    1    2    0  502 -0.53802255283E+01 -0.19203225310E+02  0.73973121564E+02  0.76728129151E+02  0.41800000000E+01 0.  1.
        -11    1    3    3    0    0  0.47389269714E+02  0.13648883412E+01 -0.56024848601E+02  0.73392025895E+02  0.00000000000E+00 0.  1.
         11    1    3    3    0    0  0.11831536106E+02 -0.25207762878E+02  0.29712996970E+02  0.40721968823E+02  0.00000000000E+00 0. -1.
</event>
<event>
 7    1  0.4096326E-006  0.1151315E+03  0.7561462E-02  0.1251352E+00
          1   -1    0    0  501    0  0.00000000000E+00  0.00000000000E+00  0.25428098862E+02  0.25428098862E+02  0.00000000000E+00 0. -1.
         -1   -1    0    0    0  501 -0.00000000000E+00 -0.00000000000E+00 -0.60385456300E+03  0.60385456300E+03  0.00000000000E+00 0.  1.
         23    2    1    2    0    0 -0.10951413698E+01  0.50406652055E+02 -0.17527862105E+03  0.20417527834E+03  0.91776464208E+02 0.  0.
          5    1    1    2  502    0  0.56302065618E+02  0.39208226931E+01 -0.14898333429E+03  0.15937001518E+03  0.41800000000E+01 0. -1.
         -5    1    1    2    0  502 -0.55206924248E+02 -0.54327474748E+02 -0.25416450881E+03  0.26573736835E+03  0.41800000000E+01 0. -1.
        -11    1    3    3    0    0 -0.37539598495E+02  0.49879680673E+01 -0.11176598898E+03  0.11800736237E+03  0.00000000000E+00 0.  1.
         11    1    3    3    0    0  0.36444457126E+02  0.45418683988E+02 -0.63512632064E+02  0.86167915966E+02  0.00000000000E+00 0. -1.
</event>
<event>
 7    1  0.4096326E-006  0.1088549E+03  0.7561462E-02  0.1262705E+00
          4   -1    0    0  501    0  0.00000000000E+00  0.00000000000E+00  0.35936353446E+02  0.35936353446E+02  0.00000000000E+00 0.  1.
         -4   -1    0    0    0  501 -0.00000000000E+00 -0.00000000000E+00 -0.71248555621E+03  0.71248555621E+03  0.00000000000E+00 0. -1.
         23    2    1    2    0    0  0.59587375898E+01 -0.58573126010E+02 -0.75020790301E+02  0.13121083936E+03  0.90121294615E+02 0.  0.
          5    1    1    2  502    0 -0.52137042103E+02  0.16227089458E+02 -0.44803970197E+03  0.45137416467E+03  0.41800000000E+01 0. -1.
         -5    1    1    2    0  502  0.46178304513E+02  0.42346036552E+02 -0.15348871049E+03  0.16583690563E+03  0.41800000000E+01 0. -1.
        -11    1    3    3    0    0  0.40549032864E+02 -0.50258245806E+02 -0.23747916226E+02  0.68804642742E+02  0.00000000000E+00 0.  1.
         11    1    3    3    0    0 -0.34590295274E+02 -0.83148802035E+01 -0.51272874075E+02  0.62406196615E+02  0.00000000000E+00 0. -1.
</event>
<event>
 7    1  0.4096326E-006  0.9798605E+02  0.7561462E-02  0.1284589E+00
         -4   -1    0    0    0  501 -0.00000000000E+00  0.00000000000E+00  0.25121273154E+03  0.25121273154E+03  0.00000000000E+00 0.  1.
          4   -1    0    0  501    0  0.00000000000E+00 -0.00000000000E+00 -0.48777334373E+02  0.48777334373E+02  0.00000000000E+00 0. -1.
         23    2    1    2    0    0  0.23085637869E+02 -0.34258466915E+01  0.70718994434E+02  0.11684696081E+03  0.90040840603E+02 0.  0.
          5    1    1    2  502    0  0.39473419369E+02 -0.86543870086E+01  0.10738405553E+03  0.11481226866E+03  0.41800000000E+01 0.  1.
         -5    1    1    2    0  502 -0.62559057237E+02  0.12080233700E+02  0.24332347198E+02  0.68330836442E+02  0.41800000000E+01 0.  1.
        -11    1    3    3    0    0  0.43905032029E+02 -0.33283069695E+02  0.52662688830E+02  0.76215309227E+02  0.00000000000E+00 0.  1.
         11    1    3    3    0    0 -0.20819394160E+02  0.29857223003E+02  0.18056305604E+02  0.40631651587E+02  0.00000000000E+00 0. -1.
</event>
<event>
 7    1  0.4096326E-006  0.1196470E+03  0.7561462E-02  0.1243681E+00
         -2   -1    0    0    0  501 -0.00000000000E+00  0.00000000000E+00  0.44562846868E+02  0.44562846868E+02  0.00000000000E+00 0.  1.
          2   -1    0    0  501    0  0.00000000000E+00 -0.00000000000E+00 -0.35049482498E+03  0.35049482498E+03  0.00000000000E+00 0. -1.
         23    2    1    2    0    0 -0.44400901485E+02 -0.34498100889E+02 -0.17893677751E+03  0.20814158003E+03  0.90238506039E+02 0.  0.
          5    1    1    2  502    0 -0.38033041976E+02 -0.10655985368E+02 -0.20101200662E+02  0.44515087040E+02  0.41800000000E+01 0. -1.
         -5    1    1    2    0  502  0.82433943461E+02  0.45154086258E+02 -0.10689399994E+03  0.14240100479E+03  0.41800000000E+01 0. -1.
        -11    1    3    3    0    0 -0.47480637623E+02  0.19556122471E+02 -0.10011672732E+03  0.11251760735E+03  0.00000000000E+00 0. -1.
         11    1    3    3    0    0  0.30797361374E+01 -0.54054223360E+02 -0.78820050191E+02  0.95623972673E+02  0.00000000000E+00 0.  1.
</event>
<event>
 7    1  0.4096326E-006  0.1840920E+03  0.7561462E-02  0.1163900E+00
          2   -1    0    0  501    0  0.00000000000E+00  0.00000000000E+00  0.33690606570E+03  0.33690606570E+03  0.00000000000E+00 0.  1.
         -2   -1    0    0    0  501 -0.00000000000E+00 -0.00000000000E+00 -0.16892965734E+03  0.16892965734E+03  0.00000000000E+00 0. -1.
         23    2    1    2    0    0  0.67632786235E+02 -0.13530047434E+03  0.23878330614E+03  0.29716466916E+03  0.91700388075E+02 0.  0.
          5    1    1    2  502    0 -0.10442174149E+03  0.97699030683E+02 -0.45321338730E+02  0.15006830723E+03  0.41800000000E+01 0. -1.
         -5    1    1    2    0  502  0.36788955252E+02  0.37601443662E+02 -0.25485559051E+02  0.58602746643E+02  0.41800000000E+01 0. -1.
        -11    1    3    3    0    0 -0.17775382942E+02 -0.43362968907E+02  0.37737580279E+02  0.60170061297E+02  0.00000000000E+00 0. -1.
         11    1    3    3    0    0  0.85408169177E+02 -0.91937505437E+02  0.20104572586E+03  0.23699460786E+03  0.00000000000E+00 0.  1.
</event>
<event>
 7    1  0.4096326E-006  0.1411247E+03  0.7561462E-02  0.1211824E+00
         -1   -1    0    0    0  501 -0.00000000000E+00  0.00000000000E+00  0.21193845728E+03  0.21193845728E+03  0.00000000000E+00 0.  1.
          1   -1    0    0  501    0  0.00000000000E+00 -0.00000000000E+00 -0.41115066027E+03  0.41115066027E+03  0.00000000000E+00 0. -1.
         23    2    1    2    0    0 -0.97632223329E+02 -0.55066052006E+02 -0.33044156998E+03  0.36106301617E+03  0.92793045852E+02 0.  0.
          5    1    1    2  502    0  0.30216592100E+02  0.64963257512E+02 -0.36803737368E+02  0.80655159469E+02  0.41800000000E+01 0. -1.
         -5    1    1    2    0  502  0.67415631229E+02 -0.98972055064E+01  0.16803310436E+03  0.18137094191E+03  0.41800000000E+01 0.  1.
        -11    1    3    3    0    0 -0.11345163978E+03 -0.55689449411E+02 -0.31275816771E+03  0.33732812040E+03  0.00000000000E+00 0. -1.
         11    1    3    3    0    0  0.15819416453E+02  0.62339740569E+00 -0.17683402274E+02  0.23734895770E+02  0.00000000000E+00 0.  1.
</event>
<event>
 7    1  0.4096326E-006  0.1669858E+03  0.7561462E-02  0.1181028E+00
          1   -1    0    0  501    0  0.00000000000E+00  0.00000000000E+00  0.57519957257E+03  0.57519957257E+03  0.00000000000E+00 0. -1.
         -1   -1    0    0    0  501 -0.00000000000E+00 -0.00000000000E+00 -0.54246091211E+02  0.54246091211E+02  0.00000000000E+00 0.  1.
         23    2    1    2    0    0 -0.10757762684E+03 -0.86704352029E+02  0.26857469206E+03  0.31570555078E+03  0.91907775092E+02 0.  0.
          5    1    1    2  502    0  0.12519566738E+03  0.56868946430E+02  0.14088373061E+03  0.19691046226E+03  0.41800000000E+01 0. -1.
         -5    1    1    2    0  502 -0.17618040541E+02  0.29835405599E+02  0.11149505869E+03  0.11682965074E+03  0.41800000000E+01 0. -1.
        -11    1    3    3    0    0 -0.11335750991E+03 -0.49233426152E+02  0.17068688648E+03  0.21073174541E+03  0.00000000000E+00 0.  1.
         11    1    3    3    0    0  0.57798830768E+01 -0.37470925877E+02  0.97887805575E+02  0.10497380537E+03  0.00000000000E+00 0. -1.
</event>
<event>
 7    1  0.4096326E-006  0.1197150E+03  0.7561462E-02  0.1243568E+00
          2   -1    0    0  501    0  0.00000000000E+00  0.00000000000E+00  0.31511513652E+03  0.31511513652E+03  0.00000000000E+00 0. -1.
         -2   -1    0    0    0  501 -0.00000000000E+00 -0.00000000000E+00 -0.49837504549E+02  0.49837504549E+02  0.00000000000E+00 0.  1.
         23    2    1    2    0    0  0.45721821796E+02 -0.19241119973E+02  0.12812842373E+03  0.17280816482E+03  0.10480965211E+03 0.  0.
          5    1    1    2  502    0  0.35571837946E+02  0.22393431825E+02  0.86385417845E+02  0.96159941036E+02  0.41800000000E+01 0.  1.
         -5    1    1    2    0  502 -0.81293659742E+02 -0.31523118522E+01  0.50763790392E+02  0.95984535208E+02  0.41800000000E+01 0.  1.
        -11    1    3    3    0    0 -0.13613912672E+02 -0.47925482706E+02  0.60569614948E+02  0.78427474559E+02  0.00000000000E+00 0. -1.
         11    1    3    3    0    0  0.59335734467E+02  0.28684362733E+02  0.67558808783E+02  0.94380690262E+02  0.00000000000E+00 0.  1.
</event>
<event>
 7    1  0.4096326E-006  0.6700282E+02  0.7561462E-02  0.1370592E+00
         -1   -1    0    0    0  501 -0.00000000000E+00  0.00000000000E+00  0.45329935779E+02  0.45329935779E+02  0.00000000000E+00 0.  1.
          1   -1    0    0  501    0  0.00000000000E+00 -0.00000000000E+00 -0.34999148578E+03  0.34999148578E+03  0.00000000000E+00 0. -1.
         23    2    1    2    0    0  0.14425358130E+02 -0.47603443464E+02 -0.19991323603E+03  0.22475029423E+03  0.89851065824E+02 0.  0.
          5    1    1    2  502    0 -0.68033747780E+00 -0.24804260885E+01  0.27758152496E+02  0.28188699910E+02  0.41800000000E+01 0. -1.
         -5    1    1    2    0  502 -0.13745020652E+02  0.50083869553E+02 -0.13250646647E+03  0.14238242742E+03  0.41800000000E+01 0. -1.
        -11    1    3    3    0    0 -0.12177670269E+02 -0.48866546791E+02 -0.18962607099E+03  0.19619959696E+03  0.00000000000E+00 0. -1.
         11    1    3    3    0    0  0.26603028399E+02  0.12631033267E+01 -0.10287165039E+02  0.28550697269E+02  0.00000000000E+00 0.  1.
</event>
<event>
 7    1  0.4096326E-006  0.8723527E+02  0.7561462E-02  0.1309688E+00
         -2   -1    0    0    0  501 -0.00000000000E+00  0.00000000000E+00  0.18672937465E+03  0.18672937465E+03  0.00000000000E+00 0.  1.
          2   -1    0    0  501    0  0.00000000000E+00 -0.00000000000E+00 -0.10069399426E+03  0.10069399426E+03  0.00000000000E+00 0. -1.
         23    2    1    2    0    0 -0.70378777907E+02 -0.27878603249E+02  0.26467696818E-01  0.11779813450E+03  0.90255254092E+02 0.  0.
          5    1    1    2  502    0  0.29419066310E+01 -0.16467911293E+02  0.87107886302E+02  0.88798103432E+02  0.41800000000E+01 0. -1.
         -5    1    1    2    0  502  0.67436871275E+02  0.44346514542E+02 -0.10989736060E+01  0.80827130980E+02  0.41800000000E+01 0. -1.
        -11    1    3    3    0    0 -0.24421665242E+02 -0.15078499953E+02 -0.44228981476E+02  0.52725531732E+02  0.00000000000E+00 0. -1.
         11    1    3    3    0    0 -0.45957112665E+02 -0.12800103296E+02  0.44255449173E+02  0.65072602763E+02  0.00000000000E+00 0.  1.
</event>
<event>
 7    1  0.4096326E-006  0.8511391E+02  0.7561462E-02  0.1315135E+00
          2   -1    0    0  501    0  0.00000000000E+00  0.00000000000E+00  0.18127986118E+02  0.18127986118E+02  0.00000000000E+00 0. -1.
         -2   -1    0    0    0  501 -0.00000000000E+00 -0.00000000000E+00 -0.96380526388E+03  0.96380526388E+03  0.00000000000E+00 0.  1.
         23    2    1    2    0    0 -0.23947911015E+02 -0.23861270855E+02 -0.15919125121E+03  0.18484417436E+03  0.87650736701E+02 0.  0.
          5    1    1    2  502    0 -0.47343584185E+02  0.20559566499E+02 -0.21497340482E+03  0.22112247267E+03  0.41800000000E+01 0. -1.
         -5    1    1    2    0  502  0.71291495200E+02  0.33017043560E+01 -0.57151262173E+03  0.57596660297E+03  0.41800000000E+01 0. -1.
        -11    1    3    3    0    0 -0.18129206517E+02 -0.32100946143E+02 -0.16766493060E+03  0.17167022987E+03  0.00000000000E+00 0.  1.
         11    1    3    3    0    0 -0.58187044978E+01  0.82396752882E+01  0.84736793904E+01  0.13173944485E+02  0.00000000000E+00 0. -1.
</event>
<event>
 7    1  0.4096326E-006  0.1592461E+03  0.7561462E-02  0.1189551E+00
          1   -1    0    0  501    0  0.00000000000E+00  0.00000000000E+00  0.59537373282E+03  0.59537373282E+03  0.00000000000E+00 0. -1.
         -1   -1    0    0    0  501 -0.00000000000E+00 -0.00000000000E+00 -0.46395002597E+02  0.46395002597E+02  0.00000000000E+00 0.  1.
         23    2    1    2    0    0  0.98201132486E+02  0.70339488390E+02  0.30178353525E+03  0.33855437851E+03  0.94629060094E+02 0.  0.
          5    1    1    2  502    0 -0.88489450140E+02  0.57458007479E+01  0.18185961820E+03  0.20237042803E+03  0.41800000000E+01 0.  1.
         -5    1    1    2    0  502 -0.97116823454E+01 -0.76085289138E+02  0.65335576780E+02  0.10084392887E+03  0.41800000000E+01 0.  1.
        -11    1    3    3    0    0  0.10737593913E+03  0.29938083519E+02  0.23220287981E+03  0.25757340418E+03  0.00000000000E+00 0.  1.
         11    1    3    3    0    0 -0.91748066449E+01  0.40401404871E+02  0.69580655439E+02  0.80980974332E+02  0.00000000000E+00 0. -1.
</event>
<event>
 7    1  0.4096326E-006  0.1395168E+03  0.7561462E-02  0.1213981E+00
         -1   -1    0    0    0  501 -0.00000000000E+00  0.00000000000E+00  0.15982102902E+03  0.15982102902E+03  0.00000000000E+00 0.  1.
          1   -1    0    0  501    0  0.00000000000E+00 -0.00000000000E+00 -0.17312652175E+03  0.17312652175E+03  0.00000000000E+00 0. -1.
         23    2    1    2    0    0 -0.59615304443E+02  0.96368383532E+02 -0.58011275713E+02  0.15834302444E+03  0.94161326510E+02 0.  0.
          5    1    1    2  502    0 -0.14136331030E+02 -0.25429700127E+01  0.52836079793E+02  0.54912897204E+02  0.41800000000E+01 0. -1.
         -5    1    1    2    0  502  0.73751635473E+02 -0.93825413519E+02 -0.81302968110E+01  0.11969162913E+03  0.41800000000E+01 0. -1.
        -11    1    3    3    0    0 -0.52392473973E+02  0.45855688288E+01 -0.69082727899E+01  0.53044537923E+02  0.00000000000E+00 0.  1.
         11    1    3    3    0    0 -0.72228304705E+01  0.91782814703E+02 -0.51103002923E+02  0.10529848652E+03  0.00000000000E+00 0. -1.
</event>
<event>
 7    1  0.4096326E-006  0.1106569E+03  0.7561462E-02  0.1259358E+00
          1   -1    0    0  501    0  0.00000000000E+00  0.00000000000E+00  0.50685241444E+03  0.50685241444E+03  0.00000000000E+00 0. -1.
         -1   -1    0    0    0  501 -0.00000000000E+00 -0.00000000000E+00 -0.28641326763E+02  0.28641326763E+02  0.00000000000E+00 0.  1.
         23    2    1    2    0    0  0.38800784101E+02  0.97885029760E+00  0.28940371905E+03  0.30570697585E+03  0.90530566573E+02 0.  0.
          5    1    1    2  502    0 -0.31869991379E+02  0.60739987763E+02  0.98124857559E+02  0.11979566993E+03  0.41800000000E+01 0.  1.
         -5    1    1    2    0  502 -0.69307927224E+01 -0.61718838061E+02  0.90682511059E+02  0.10999109542E+03  0.41800000000E+01 0.  1.
        -11    1    3    3    0    0  0.26652618125E+02  0.40788365112E+02  0.21500767924E+03  0.22045941784E+03  0.00000000000E+00 0. -1.
         11    1    3    3    0    0  0.12148165976E+02 -0.39809514814E+02  0.74396039812E+02  0.85247558006E+02  0.00000000000E+00 0.  1.
</event>
<event>
 7    1  0.4096326E-006  0.2414344E+03  0.7561462E-02  0.1118841E+00
          2   -1    0    0  501    0  0.00000000000E+00  0.00000000000E+00  0.14426321903E+04  0.14426321903E+04  0.00000000000E+00 0. -1.
         -2   -1    0    0    0  501 -0.00000000000E+00 -0.00000000000E+00 -0.48729524883E+02  0.48729524883E+02  0.00000000000E+00 0.  1.
         23    2    1    2    0    0 -0.17283673246E+03  0.14579394821E+03  0.92223823375E+03  0.95354618136E+03  0.87169655027E+02 0.  0.
          5    1    1    2  502    0  0.44661830646E+02 -0.10661371006E+03  0.28841042942E+03  0.31073977938E+03  0.41800000000E+01 0. -1.
         -5    1    1    2    0  502  0.12817490182E+03 -0.39180238149E+02  0.18325400221E+03  0.22707575442E+03  0.41800000000E+01 0. -1.
        -11    1    3    3    0    0 -0.36363272779E+02  0.44553313869E+01  0.70608128731E+02  0.79546498527E+02  0.00000000000E+00 0.  1.
         11    1    3    3    0    0 -0.13647345968E+03  0.14133861683E+03  0.85163010502E+03  0.87399968283E+03  0.00000000000E+00 0. -1.
</event>
<event>
 7    1  0.4096326E-006  0.1868893E+03  0.7561462E-02  0.1161297E+00
         -1   -1    0    0    0  501 -0.00000000000E+00  0.00000000000E+00  0.13675613397E+03  0.13675613397E+03  0.00000000000E+00 0.  1.
          1   -1    0    0  501    0  0.00000000000E+00 -0.00000000000E+00 -0.26680021788E+03  0.26680021788E+03  0.00000000000E+00 0. -1.
         23    2    1    2    0    0 -0.14067395746E+03  0.65123359842E+02 -0.35884996750E+02  0.18322858147E+03  0.90855741551E+02 0.  0.
          5    1    1    2  502    0  0.11115729916E+03  0.15656049775E+02 -0.43740522221E+02  0.12054776122E+03  0.41800000000E+01 0.  1.
         -5    1    1    2    0  502  0.29516658298E+02 -0.80779409617E+02 -0.50418564944E+02  0.99780009151E+02  0.41800000000E+01 0.  1.
        -11    1    3    3    0    0 -0.78537316790E+01  0.39246020843E+02  0.83081074638E+01  0.40877327493E+02  0.00000000000E+00 0. -1.
         11    1    3    3    0    0 -0.13282022578E+03  0.25877338999E+02 -0.44193104214E+02  0.14235125398E+03  0.00000000000E+00 0.  1.
</event>
<event>
 7    1  0.6376455E-006  0.4342981E+03  0.7561462E-02  0.1032511E+00
         -1   -1    0    0    0  501 -0.00000000000E+00  0.00000000000E+00  0.29540921543E+03  0.29540921543E+03  0.00000000000E+00 0.  1.
          1   -1    0    0  501    0  0.00000000000E+00 -0.00000000000E+00 -0.71712699426E+03  0.71712699426E+03  0.00000000000E+00 0. -1.
         23    2    1    2    0    0  0.33219471718E+03  0.26707363223E+03 -0.34994103637E+03  0.56255727410E+03  0.11104189550E+03 0.  0.
          5    1    1    2  502    0 -0.10489871898E+03 -0.61692081705E+02  0.33048994596E+02  0.12617195660E+03  0.41800000000E+01 0. -1.
         -5    1    1    2    0  502 -0.22729599820E+03 -0.20538155053E+03 -0.10482573705E+03  0.32380697899E+03  0.41800000000E+01 0. -1.
        -11    1    3    3    0    0  0.18041303191E+03  0.21345629947E+03 -0.22370400026E+03  0.35798873390E+03  0.00000000000E+00 0.  1.
         11    1    3    3    0    0  0.15178168526E+03  0.53617332760E+02 -0.12623703611E+03  0.20456854020E+03  0.00000000000E+00 0. -1.
</event>
<event>
 7    1  0.4096326E-006  0.9339670E+02  0.7561462E-02  0.1294829E+00
         -1   -1    0    0    0  501 -0.00000000000E+00  0.00000000000E+00  0.17841721127E+03  0.17841721127E+03  0.00000000000E+00 0.  1.
          1   -1    0    0  501    0  0.00000000000E+00 -0.00000000000E+00 -0.72423148206E+02  0.72423148206E+02  0.00000000000E+00 0. -1.
         23    2    1    2    0    0  0.68174855527E+01  0.81510247381E+01  0.13091194124E+02  0.94662647054E+02  0.93148913413E+02 0.  0.
          5    1    1    2  502    0 -0.35319009353E+00 -0.66164032145E+02  0.57661902829E+02  0.87864505523E+02  0.41800000000E+01 0. -1.
         -5    1    1    2    0  502 -0.64642954591E+01  0.58013007407E+02  0.35240966108E+02  0.68313206896E+02  0.41800000000E+01 0. -1.
        -11    1    3    3    0    0 -0.19527381640E+02  0.24223608685E+02 -0.28957449171E+02  0.42504537569E+02  0.00000000000E+00 0.  1.
         11    1    3    3    0    0  0.26344867193E+02 -0.16072583947E+02  0.42048643295E+02  0.52158109485E+02  0.00000000000E+00 0. -1.
</event>
<event>
 6    1  0.4096326E-006  0.6601773E+02  0.7561462E-02  0.1374184E+00
         -1   -1    0    0    0  501 -0.00000000000E+00  0.00000000000E+00  0.89986497367E+02  0.89986497367E+02  0.00000000000E+00 0.  1.
          1   -1    0    0  501    0  0.00000000000E+00 -0.00000000000E+00 -0.13811827641E+03  0.13811827641E+03  0.00000000000E+00 0. -1.
          5    1    1    2  502    0  0.58594372729E+02 -0.26062050336E+01  0.58262888397E+02  0.82777589869E+02  0.41800000000E+01 0. -1.
         -5    1    1    2    0  502  0.52425578264E+01  0.42133850528E+01 -0.57090791872E+02  0.57637383205E+02  0.41800000000E+01 0. -1.
        -11    1    1    2    0    0 -0.47365209452E+02  0.48723084263E+01 -0.16459821824E+02  0.50379839125E+02  0.00000000000E+00 0.  1.
         11    1    1    2    0    0 -0.16471721104E+02 -0.64794884454E+01 -0.32844053744E+02  0.37309961578E+02  0.00000000000E+00 0. -1.
</event>
<event>
 7    1  0.4096326E-006  0.1394264E+03  0.7561462E-02  0.1214103E+00
         -2   -1    0    0    0  501 -0.00000000000E+00  0.00000000000E+00  0.33086459710E+03  0.33086459710E+03  0.00000000000E+00 0.  1.
          2   -1    0    0  501    0  0.00000000000E+00 -0.00000000000E+00 -0.61279281178E+02  0.61279281178E+02  0.00000000000E+00 0. -1.
         23    2    1    2    0    0  0.91257397058E+02 -0.64397313505E+01  0.10466690022E+03  0.16583558141E+03  0.90426198658E+02 0.  0.
          5    1    1    2  502    0 -0.11146598502E+03 -0.24307985553E+02  0.10094701653E+03  0.15239198314E+03  0.41800000000E+01 0.  1.
         -5    1    1    2    0  502  0.20208587966E+02  0.30747716903E+02  0.63971399180E+02  0.73916313730E+02  0.41800000000E+01 0.  1.
        -11    1    3    3    0    0  0.10266385051E+03 -0.25193153355E+02  0.78428908257E+02  0.13162695327E+03  0.00000000000E+00 0. -1.
         11    1    3    3    0    0 -0.11406453450E+02  0.18753422004E+02  0.26237991960E+02  0.34208628141E+02  0.00000000000E+00 0.  1.
</event>
<event>
 7    1  0.4096326E-006  0.1734908E+03  0.7561462E-02  0.1174256E+00
          2   -1    0    0  501    0  0.00000000000E+00  0.00000000000E+00  0.14120247874E+04  0.14120247874E+04  0.00000000000E+00 0. -1.
         -2   -1    0    0    0  501 -0.00000000000E+00 -0.00000000000E+00 -0.22057261551E+02  0.22057261551E+02  0.00000000000E+00 0.  1.
         23    2    1    2    0    0 -0.55048342575E+02  0.12509035163E+03  0.75367591818E+03  0.77136480063E+03  0.91095279287E+02 0.  0.
          5    1    1    2  502    0 -0.39605920383E+00  0.24664134955E+02  0.70522189787E+02  0.74828658068E+02  0.41800000000E+01 0. -1.
         -5    1    1    2    0  502  0.55444401778E+02 -0.14975448659E+03  0.56576941786E+03  0.58788859023E+03  0.41800000000E+01 0. -1.
        -11    1    3    3    0    0 -0.76524541683E+02  0.72507791386E+02  0.42934242030E+03  0.44209535076E+03  0.00000000000E+00 0.  1.
         11    1    3    3    0    0  0.21476199108E+02  0.52582560248E+02  0.32433349788E+03  0.32926944987E+03  0.00000000000E+00 0. -1.
</event>
<event>
 7    1  0.4096326E-006  0.9598841E+02  0.7561462E-02  0.1288965E+00
          4   -1    0    0  501    0  0.00000000000E+00  0.00000000000E+00  0.10812864844E+03  0.10812864844E+03  0.00000000000E+00 0. -1.
         -4   -1    0    0    0  501 -0.00000000000E+00 -0.00000000000E+00 -0.12343618149E+03  0.12343618149E+03  0.00000000000E+00 0.  1.
         23    2    1    2    0    0 -0.51097968741E+02  0.24887514635E+02 -0.33877442048E+01  0.10710885315E+03  0.90721765957E+02 0.  0.
          5    1    1    2  502    0  0.83658830020E+02 -0.25162792512E+02  0.48424380643E+01  0.87595020256E+02  0.41800000000E+01 0. -1.
         -5    1    1    2    0  502 -0.32560861278E+02  0.27527787718E+00 -0.16762226912E+02  0.36860956528E+02  0.41800000000E+01 0.  1.
        -11    1    3    3    0    0 -0.56244904575E+02  0.11588552749E+02 -0.38549551881E+02  0.69165394495E+02  0.00000000000E+00 0.  1.
         11    1    3    3    0    0  0.51469358334E+01  0.13298961885E+02  0.35161807676E+02  0.37943458656E+02  0.00000000000E+00 0. -1.
</event>
<event>
 7    1  0.4096326E-006  0.1555381E+03  0.7561462E-02  0.1193828E+00
         -1   -1    0    0    0  501 -0.00000000000E+00  0.00000000000E+00  0.82357753214E+02  0.82357753214E+02  0.00000000000E+00 0.  1.
          1   -1    0    0  501    0  0.00000000000E+00 -0.00000000000E+00 -0.43874422545E+03  0.43874422545E+03  0.00000000000E+00 0. -1.
         23    2    1    2    0    0  0.87466271340E+02 -0.97106046914E+02 -0.28503061394E+03  0.32663184967E+03  0.91465738766E+02 0.  0.
          5    1    1    2  502    0 -0.77475640890E+02  0.60248346115E+01  0.70655880201E+00  0.77825093568E+02  0.41800000000E+01 0. -1.
         -5    1    1    2    0  502 -0.99906304501E+01  0.91081212302E+02 -0.72062417100E+02  0.11664503543E+03  0.41800000000E+01 0. -1.
        -11    1    3    3    0    0  0.42188496845E+02 -0.99951624046E+01 -0.16981009268E+03  0.17525763924E+03  0.00000000000E+00 0. -1.
         11    1    3    3    0    0  0.45277774495E+02 -0.87110884509E+02 -0.11522052126E+03  0.15137421043E+03  0.00000000000E+00 0.  1.
</event>
<event>
 7    1  0.4096326E-006  0.1192570E+03  0.7561462E-02  0.1244328E+00
         -2   -1    0    0    0  501 -0.00000000000E+00  0.00000000000E+00  0.16160144044E+03  0.16160144044E+03  0.00000000000E+00 0.  1.
          2   -1    0    0  501    0  0.00000000000E+00 -0.00000000000E+00 -0.13220108995E+03  0.13220108995E+03  0.00000000000E+00 0. -1.
         23    2    1    2    0    0  0.92766923749E+02 -0.24598339020E+02 -0.31191831773E+00  0.13336431943E+03  0.92602181286E+02 0.  0.
          5    1    1    2  502    0 -0.28830798223E+02 -0.31448228455E+02  0.56749752870E+02  0.71121113953E+02  0.41800000000E+01 0.  1.
         -5    1    1    2    0  502 -0.63936125526E+02  0.56046567475E+02 -0.27037484059E+02  0.89317097004E+02  0.41800000000E+01 0.  1.
        -11    1    3    3    0    0  0.91720195411E+02 -0.36394386992E+02  0.28085950864E+02  0.10259613193E+03  0.00000000000E+00 0.  1.
         11    1    3    3    0    0  0.10467283383E+01  0.11796047972E+02 -0.28397869182E+02  0.30768187500E+02  0.00000000000E+00 0. -1.
</event>
<event>
 7    1  0.4096326E-006  0.1812035E+03  0.7561462E-02  0.1166643E+00
         -1   -1    0    0    0  501 -0.00000000000E+00  0.00000000000E+00  0.28295037449E+02  0.28295037449E+02  0.00000000000E+00 0.  1.
          1   -1    0    0  501    0  0.00000000000E+00 -0.00000000000E+00 -0.12977164464E+04  0.12977164464E+04  0.00000000000E+00 0. -1.
         23    2    1    2    0    0 -0.14074400979E+03 -0.69929220148E+02 -0.63843076865E+03  0.66382182412E+03  0.91469096952E+02 0.  0.
          5    1    1    2  502    0  0.12386546497E+03  0.92099452765E+02 -0.38839131258E+03  0.41795962329E+03  0.41800000000E+01 0.  1.
         -5    1    1    2    0  502  0.16878544817E+02 -0.22170232617E+02 -0.24259932773E+03  0.24423003645E+03  0.41800000000E+01 0.  1.
        -11    1    3    3    0    0 -0.15219824362E+03 -0.56933845159E+02 -0.54154604487E+03  0.56540064273E+03  0.00000000000E+00 0.  1.
         11    1    3    3    0    0  0.11454233838E+02 -0.12995374989E+02 -0.96884723778E+02  0.98421181387E+02  0.00000000000E+00 0. -1.
</event>
<event>
 7    1  0.4096326E-006  0.2864489E+03  0.7561462E-02  0.1092218E+00
         -1   -1    0    0    0  501 -0.00000000000E+00  0.00000000000E+00  0.40706480621E+03  0.40706480621E+03  0.00000000000E+00 0.  1.
          1   -1    0    0  501    0  0.00000000000E+00 -0.00000000000E+00 -0.25365004452E+03  0.25365004452E+03  0.00000000000E+00 0. -1.
         23    2    1    2    0    0  0.19449386797E+03  0.20597017004E+03 -0.19473940001E+02  0.30604696066E+03  0.11416624791E+03 0.  0.
          5    1    1    2  502    0 -0.16164957291E+03 -0.16241170958E+03  0.18961488522E+03  0.29745491242E+03  0.41800000000E+01 0.  1.
         -5    1    1    2    0  502 -0.32844295057E+02 -0.43558460469E+02 -0.16726183521E+02  0.57212977648E+02  0.41800000000E+01 0.  1.
        -11    1    3    3    0    0  0.85246464541E+02  0.13175605902E+03  0.38857575954E+02  0.16166796224E+03  0.00000000000E+00 0.  1.
         11    1    3    3    0    0  0.10924740343E+03  0.74214111028E+02 -0.58331515955E+02  0.14437899842E+03  0.00000000000E+00 0. -1.
</event>
<event>
 7    1  0.4096326E-006  0.8650872E+02  0.7561462E-02  0.1311534E+00
          2   -1    0    0  501    0  0.00000000000E+00  0.00000000000E+00  0.24850972384E+03  0.24850972384E+03  0.00000000000E+00 0. -1.
         -2   -1    0    0    0  501 -0.00000000000E+00 -0.00000000000E+00 -0.49238971526E+02  0.49238971526E+02  0.00000000000E+00 0.  1.
         23    2    1    2    0    0 -0.44499816072E+01  0.12290989075E+02  0.11265810751E+03  0.14504317671E+03  0.90414618151E+02 0.  0.
          5    1    1    2  502    0 -0.39706046920E+02 -0.13203065137E+01  0.97818804942E+02  0.10566127186E+03  0.41800000000E+01 0.  1.
         -5    1    1    2    0  502  0.44156028528E+02 -0.10970682561E+02 -0.11206160134E+02  0.47044246791E+02  0.41800000000E+01 0.  1.
        -11    1    3    3    0    0 -0.19306182067E+02  0.46356485277E+02  0.43085242783E+02  0.66166385264E+02  0.00000000000E+00 0.  1.
         11    1    3    3    0    0  0.14856200459E+02 -0.34065496202E+02  0.69572864723E+02  0.78876791449E+02  0.00000000000E+00 0. -1.
</event>
<event>
 7    1  0.4096326E-006  0.1117478E+03  0.7561462E-02  0.1257367E+00
          3   -1    0    0  501    0  0.00000000000E+00  0.00000000000E+00  0.12484579388E+02  0.12484579388E+02  0.00000000000E+00 0. -1.
         -3   -1    0    0    0  501 -0.00000000000E+00 -0.00000000000E+00 -0.11206214985E+04  0.11206214985E+04  0.00000000000E+00 0.  1.
         23    2    1    2    0    0 -0.89858662023E+01 -0.40353660692E+02 -0.40054477768E+03  0.41335338422E+03  0.93358114792E+02 0.  0.
          5    1    1    2  502    0  0.62506510716E+02  0.33344123391E+02 -0.28482123935E+03  0.29352939415E+03  0.41800000000E+01 0.  1.
         -5    1    1    2    0  502 -0.53520644514E+02  0.70095373008E+01 -0.42277090211E+03  0.42622329954E+03  0.41800000000E+01 0.  1.
        -11    1    3    3    0    0  0.12805405731E+02 -0.64560686464E+02 -0.31533773511E+03  0.32213343173E+03  0.00000000000E+00 0. -1.
         11    1    3    3    0    0 -0.21791271934E+02  0.24207025772E+02 -0.85207042565E+02  0.91219952488E+02  0.00000000000E+00 0.  1.
</event>
<event>
 7    1  0.4096326E-006  0.9195405E+02  0.7561462E-02  0.1298188E+00
         -1   -1    0    0    0  501 -0.00000000000E+00  0.00000000000E+00  0.93928744002E+02  0.93928744002E+02  0.00000000000E+00 0.  1.
          1   -1    0    0  501    0  0.00000000000E+00 -0.00000000000E+00 -0.20746453514E+03  0.20746453514E+03  0.00000000000E+00 0. -1.
         23    2    1    2    0    0  0.28353385201E+02  0.15215864382E+02 -0.13756668442E+03  0.17001694131E+03  0.94581872934E+02 0.  0.
          5    1    1    2  502    0  0.78841653100E+01 -0.41523599218E+02 -0.36476060349E+02  0.55985218882E+02  0.41800000000E+01 0. -1.
         -5    1    1    2    0  502 -0.36237550511E+02  0.26307734837E+02  0.60506953632E+02  0.75391118953E+02  0.41800000000E+01 0. -1.
        -11    1    3    3    0    0  0.61288469979E+02  0.30934980448E+01 -0.64897720940E+02  0.89317190203E+02  0.00000000000E+00 0.  1.
         11    1    3    3    0    0 -0.32935084778E+02  0.12122366337E+02 -0.72668963478E+02  0.80699751102E+02  0.00000000000E+00 0. -1.
</event>
<event>
 7    1  0.4096326E-006  0.9367657E+02  0.7561462E-02  0.1294185E+00
         -3   -1    0    0    0  501 -0.00000000000E+00  0.00000000000E+00  0.17784121881E+03  0.17784121881E+03  0.00000000000E+00 0.  1.
          3   -1    0    0  501    0  0.00000000000E+00 -0.00000000000E+00 -0.87919856548E+02  0.87919856548E+02  0.00000000000E+00 0. -1.
         23    2    1    2    0    0 -0.12353035774E+01  0.63532006223E+02  0.16568764852E+02  0.11617258750E+03  0.95831645750E+02 0.  0.
          5    1    1    2  502    0  0.13928615110E+02 -0.11171171682E+02 -0.28730727354E+02  0.34084138392E+02  0.41800000000E+01 0. -1.
         -5    1    1    2    0  502 -0.12693311532E+02 -0.52360834541E+02  0.10208332477E+03  0.11550434947E+03  0.41800000000E+01 0.  1.
        -11    1    3    3    0    0 -0.47472665083E+02  0.44187509399E+02  0.86270772354E+01  0.65426419576E+02  0.00000000000E+00 0.  1.
         11    1    3    3    0    0  0.46237361505E+02  0.19344496825E+02  0.79416876169E+01  0.50746167920E+02  0.00000000000E+00 0. -1.
</event>
<event>
 7    1  0.4096326E-006  0.2328335E+03  0.7561462E-02  0.1124661E+00
         -2   -1    0    0    0  501 -0.00000000000E+00  0.00000000000E+00  0.27561323985E+03  0.27561323985E+03  0.00000000000E+00 0.  1.
          2   -1    0    0  501    0  0.00000000000E+00 -0.00000000000E+00 -0.22224108720E+03  0.22224108720E+03  0.00000000000E+00 0. -1.
         23    2    1    2    0    0 -0.15338043392E+03  0.15945777634E+03  0.85016465676E+01  0.23975161653E+03  0.91957705984E+02 0.  0.
          5    1    1    2  502    0 -0.10913172076E+02 -0.56298623309E+01  0.29790071923E+02  0.32491744487E+02  0.41800000000E+01 0.  1.
         -5    1    1    2    0  502  0.16429360599E+03 -0.15382791401E+03  0.15080434168E+02  0.22561096603E+03  0.41800000000E+01 0.  1.
        -11    1    3    3    0    0 -0.13067426567E+02  0.43938826847E+02  0.32827496273E+02  0.56382822325E+02  0.00000000000E+00 0.  1.
         11    1    3    3    0    0 -0.14031300735E+03  0.11551894949E+03 -0.24325849706E+02  0.18336879421E+03  0.00000000000E+00 0. -1.
</event>
<event>
 7    1  0.4096326E-006  0.1052908E+03  0.7561462E-02  0.1269548E+00
         -1   -1    0    0    0  501 -0.00000000000E+00  0.00000000000E+00  0.56095674464E+03  0.56095674464E+03  0.00000000000E+00 0.  1.
          1   -1    0    0  501    0  0.00000000000E+00 -0.00000000000E+00 -0.27575776044E+02  0.27575776044E+02  0.00000000000E+00 0. -1.
         23    2    1    2    0    0  0.42188224316E+02 -0.13077336898E+02  0.14483146602E+03  0.17796255433E+03  0.93507508713E+02 0.  0.
          5    1    1    2  502    0 -0.76119629917E+02  0.16476132935E+02  0.35147244417E+03  0.36002223880E+03  0.41800000000E+01 0. -1.
         -5    1    1    2    0  502  0.33931405602E+02 -0.33987960365E+01  0.37077058408E+02  0.50547727554E+02  0.41800000000E+01 0. -1.
        -11    1    3    3    0    0  0.25272414398E+02 -0.50882819055E+02  0.55148317773E+02  0.79177605152E+02  0.00000000000E+00 0. -1.
         11    1    3    3    0    0  0.16915809918E+02  0.37805482156E+02  0.89683148242E+02  0.98784949182E+02  0.00000000000E+00 0.  1.
</event>
<event>
 7    1  0.4096326E-006  0.9038216E+02  0.7561462E-02  0.1301929E+00
         -2   -1    0    0    0  501 -0.00000000000E+00  0.00000000000E+00  0.11544541749E+03  0.11544541749E+03  0.00000000000E+00 0.  1.
          2   -1    0    0  501    0  0.00000000000E+00 -0.00000000000E+00 -0.21805586360E+03  0.21805586360E+03  0.00000000000E+00 0. -1.
         23    2    1    2    0    0  0.18293467729E+02 -0.50188572848E+01 -0.15906121539E+03  0.19496044309E+03  0.11112724345E+03 0.  0.
          5    1    1    2  502    0 -0.55320296006E+02  0.34200756021E+02  0.63138949126E+02  0.90741534918E+02  0.41800000000E+01 0. -1.
         -5    1    1    2    0  502  0.37026828277E+02 -0.29181898737E+02 -0.66881798442E+01  0.47799303089E+02  0.41800000000E+01 0. -1.
        -11    1    3    3    0    0  0.34126386563E+02 -0.25336961165E+02 -0.99660751001E+01  0.43656551786E+02  0.00000000000E+00 0.  1.
         11    1    3    3    0    0 -0.15832918833E+02  0.20318103880E+02 -0.14909514029E+03  0.15130389130E+03  0.00000000000E+00 0. -1.
</event>
<event>
 7    1  0.4096326E-006  0.1170542E+03  0.7561462E-02  0.1248037E+00
         -2   -1    0    0    0  501 -0.00000000000E+00  0.00000000000E+00  0.49904757777E+02  0.49904757777E+02  0.00000000000E+00 0. -1.
          2   -1    0    0  501    0  0.00000000000E+00 -0.00000000000E+00 -0.35073490105E+03  0.35073490105E+03  0.00000000000E+00 0.  1.
         23    2    1    2    0    0 -0.68871095481E+02  0.10491793070E+02 -0.10052442513E+03  0.15442246225E+03  0.94275295202E+02 0.  0.
          5    1    1    2  502    0  0.98126509224E+02 -0.28769091495E+02 -0.11410880869E+03  0.15328002172E+03  0.41800000000E+01 0.  1.
         -5    1    1    2    0  502 -0.29255413744E+02  0.18277298425E+02 -0.86196909451E+02  0.92937174854E+02  0.41800000000E+01 0.  1.
        -11    1    3    3    0    0  0.28848245442E+00 -0.21017180288E+02 -0.69024572331E+02  0.72153978926E+02  0.00000000000E+00 0.  1.
         11    1    3    3    0    0 -0.69159577935E+02  0.31508973358E+02 -0.31499852799E+02  0.82268483325E+02  0.00000000000E+00 0. -1.
</event>
<event>
 7    1  0.4096326E-006  0.9700134E+02  0.7561462E-02  0.1286731E+00
          1   -1    0    0  501    0  0.00000000000E+00  0.00000000000E+00  0.24668432395E+03  0.24668432395E+03  0.00000000000E+00 0. -1.
         -1   -1    0    0    0  501 -0.00000000000E+00 -0.00000000000E+00 -0.53245661241E+02  0.53245661241E+02  0.00000000000E+00 0.  1.
         23    2    1    2    0    0  0.28482771816E+02 -0.23785331872E+02  0.83825544865E+02  0.12951878090E+03  0.91495258514E+02 0.  0.
          5    1    1    2  502    0 -0.35543632506E+02 -0.38840163748E+02  0.12023809051E+02  0.54165971936E+02  0.41800000000E+01 0. -1.
         -5    1    1    2    0  502  0.70608606896E+01  0.62625495620E+02  0.97589308796E+02  0.11624523236E+03  0.41800000000E+01 0. -1.
        -11    1    3    3    0    0 -0.16544337815E+02  0.12060942957E+02 -0.73030582802E+01  0.21737435888E+02  0.00000000000E+00 0.  1.
         11    1    3    3    0    0  0.45027109631E+02 -0.35846274828E+02  0.91128603145E+02  0.10778134501E+03  0.00000000000E+00 0. -1.
</event>
<event>
 7    1  0.4096326E-006  0.8788604E+02  0.7561462E-02  0.1308053E+00
          2   -1    0    0  501    0  0.00000000000E+00  0.00000000000E+00  0.87826935401E+02  0.87826935401E+02  0.00000000000E+00 0. -1.
         -2   -1    0    0    0  501 -0.00000000000E+00 -0.00000000000E+00 -0.14518507519E+03  0.14518507519E+03  0.00000000000E+00 0.  1.
         23    2    1    2    0    0  0.24043972115E+02 -0.62735827120E+01  0.71200290145E+01  0.90102741266E+02  0.86315344728E+02 0.  0.
          5    1    1    2  502    0  0.43095501397E+02 -0.19326921327E+02 -0.51083146803E+02  0.69697291310E+02  0.41800000000E+01 0.  1.
         -5    1    1    2    0  502 -0.67139473512E+02  0.25600504039E+02 -0.13395022002E+02  0.73211978015E+02  0.41800000000E+01 0.  1.
        -11    1    3    3    0    0  0.34077937009E+02  0.11503467880E+02  0.38487699916E+02  0.52677686062E+02  0.00000000000E+00 0. -1.
         11    1    3    3    0    0 -0.10033964894E+02 -0.17777050592E+02 -0.31367670901E+02  0.37425055204E+02  0.00000000000E+00 0.  1.
</event>
<event>
 7    1  0.4096326E-006  0.8468311E+02  0.7561462E-02  0.1316263E+00
          1   -1    0    0  501    0  0.00000000000E+00  0.00000000000E+00  0.42079989525E+03  0.42079989525E+03  0.00000000000E+00 0. -1.
         -1   -1    0    0    0  501 -0.00000000000E+00 -0.00000000000E+00 -0.36262448734E+02  0.36262448734E+02  0.00000000000E+00 0.  1.
         23    2    1    2    0    0  0.60475462188E+01  0.40587812744E+02  0.24798302582E+03  0.26738037432E+03  0.91174229473E+02 0.  0.
          5    1    1    2  502    0  0.27661383534E+02 -0.31889578344E+02 -0.60316664438E+01  0.42847995823E+02  0.41800000000E+01 0. -1.
         -5    1    1    2    0  502 -0.33708929753E+02 -0.86982344000E+01  0.14258608714E+03  0.14683397383E+03  0.41800000000E+01 0. -1.
        -11    1    3    3    0    0  0.29476144922E+02 -0.13886153764E+02  0.14434693010E+03  0.14797873028E+03  0.00000000000E+00 0. -1.
         11    1    3    3    0    0 -0.23428598703E+02  0.54473966508E+02  0.10363609572E+03  0.11940164404E+03  0.00000000000E+00 0.  1.
</event>
<event>
 7    1  0.4096326E-006  0.7249123E+02  0.7561462E-02  0.1351821E+00
          1   -1    0    0  501    0  0.00000000000E+00  0.00000000000E+00  0.15748738227E+03  0.15748738227E+03  0.00000000000E+00 0. -1.
         -1   -1    0    0    0  501 -0.00000000000E+00 -0.00000000000E+00 -0.78152478775E+02  0.78152478775E+02  0.00000000000E+00 0.  1.
         23    2    1    2    0    0  0.19844148036E+02 -0.14549111659E+02  0.39944369421E+02  0.10220673047E+03  0.90803062962E+02 0.  0.
          5    1    1    2  502    0  0.14630101499E+02  0.20009981583E+01 -0.41644463898E+02  0.44382177018E+02  0.41800000000E+01 0. -1.
         -5    1    1    2    0  502 -0.34474249535E+02  0.12548113501E+02  0.81034997970E+02  0.89050953557E+02  0.41800000000E+01 0. -1.
        -11    1    3    3    0    0  0.17310057439E+01 -0.51516325617E+02  0.13518742526E+02  0.53288690971E+02  0.00000000000E+00 0.  1.
         11    1    3    3    0    0  0.18113142292E+02  0.36967213958E+02  0.26425626895E+02  0.48918039497E+02  0.00000000000E+00 0. -1.
</event>
<event>
 7    1  0.4096326E-006  0.1795985E+03  0.7561462E-02  0.1168192E+00
         -1   -1    0    0    0  501 -0.00000000000E+00  0.00000000000E+00  0.24425491635E+03  0.24425491635E+03  0.00000000000E+00 0.  1.
          1   -1    0    0  501    0  0.00000000000E+00 -0.00000000000E+00 -0.14246545775E+03  0.14246545775E+03  0.00000000000E+00 0. -1.
         23    2    1    2    0    0  0.11401053304E+03  0.86427629802E+02  0.91550700339E+00  0.17156457168E+03  0.94685940167E+02 0.  0.
          5    1    1    2  502    0  0.26585745902E+02 -0.82916913036E+01  0.75851655044E+01  0.29164381797E+02  0.41800000000E+01 0.  1.
         -5    1    1    2    0  502 -0.14059627894E+03 -0.78135938498E+02  0.93288786085E+02  0.18599142062E+03  0.41800000000E+01 0.  1.
        -11    1    3    3    0    0  0.23339422082E+02  0.75236535884E+02  0.11445291634E+02  0.79600625974E+02  0.00000000000E+00 0.  1.
         11    1    3    3    0    0  0.90671110956E+02  0.11191093918E+02 -0.10529784631E+02  0.91963945704E+02  0.00000000000E+00 0. -1.
</event>
<event>
 7    1  0.4096326E-006  0.8770657E+02  0.7561462E-02  0.1308503E+00
         -1   -1    0    0    0  501 -0.00000000000E+00  0.00000000000E+00  0.14797527101E+03  0.14797527101E+03  0.00000000000E+00 0.  1.
          1   -1    0    0  501    0  0.00000000000E+00 -0.00000000000E+00 -0.10408489530E+03  0.10408489530E+03  0.00000000000E+00 0. -1.
         23    2    1    2    0    0  0.43853825320E+02  0.33774481361E+02  0.46687792480E+01  0.10975310455E+03  0.94657661461E+02 0.  0.
          5    1    1    2  502    0 -0.42603482286E+02 -0.13280383096E+02  0.82687774302E+02  0.94054057313E+02  0.41800000000E+01 0.  1.
         -5    1    1    2    0  502 -0.12503430348E+01 -0.20494098265E+02 -0.43466177840E+02  0.48253004439E+02  0.41800000000E+01 0.  1.
        -11    1    3    3    0    0 -0.10610732174E+02 -0.26414350839E+02  0.42399828018E+00  0.28469024255E+02  0.00000000000E+00 0.  1.
         11    1    3    3    0    0  0.54464557494E+02  0.60188832200E+02  0.42447809679E+01  0.81284080299E+02  0.00000000000E+00 0. -1.
</event>
<event>
 7    1  0.4096326E-006  0.1048965E+03  0.7561462E-02  0.1270324E+00
          2   -1    0    0  501    0  0.00000000000E+00  0.00000000000E+00  0.81066997257E+02  0.81066997257E+02  0.00000000000E+00 0. -1.
         -2   -1    0    0    0  501 -0.00000000000E+00 -0.00000000000E+00 -0.26423144994E+03  0.26423144994E+03  0.00000000000E+00 0.  1.
         23    2    1    2    0    0 -0.29725455112E+02  0.83550023475E+02 -0.35105609940E+02  0.13214162595E+03  0.91459260638E+02 0.  0.
          5    1    1    2  502    0  0.51510948145E+02 -0.30849803117E+02 -0.65627548643E+01  0.60544448817E+02  0.41800000000E+01 0. -1.
         -5    1    1    2    0  502 -0.21785493033E+02 -0.52700220358E+02 -0.14149608788E+03  0.15261237242E+03  0.41800000000E+01 0. -1.
        -11    1    3    3    0    0 -0.19421133418E+02  0.78658038530E+02 -0.62592405991E+02  0.10238201373E+03  0.00000000000E+00 0.  1.
         11    1    3    3    0    0 -0.10304321694E+02  0.48919849444E+01  0.27486796052E+02  0.29759612219E+02  0.00000000000E+00 0. -1.
</event>
<event>
 7    1  0.4096326E-006  0.8945737E+02  0.7561462E-02  0.1304171E+00
          2   -1    0    0  501    0  0.00000000000E+00  0.00000000000E+00  0.41272414450E+02  0.41272414450E+02  0.00000000000E+00 0. -1.
         -2   -1    0    0    0  501 -0.00000000000E+00 -0.00000000000E+00 -0.36212153590E+03  0.36212153590E+03  0.00000000000E+00 0.  1.
         23    2    1    2    0    0 -0.22765789713E+02  0.15854978787E+02 -0.55684868317E+02  0.10889538565E+03  0.89374151310E+02 0.  0.
          5    1    1    2  502    0  0.68899864591E+02 -0.32586984692E+02 -0.13149860951E+03  0.15204755708E+03  0.41800000000E+01 0.  1.
         -5    1    1    2    0  502 -0.46134074878E+02  0.16732005906E+02 -0.13366564362E+03  0.14245100762E+03  0.41800000000E+01 0.  1.
        -11    1    3    3    0    0  0.83813047937E+01 -0.98592877329E+01  0.19584699351E+02  0.23473650617E+02  0.00000000000E+00 0. -1.
         11    1    3    3    0    0 -0.31147094507E+02  0.25714266519E+02 -0.75269567668E+02  0.85421735031E+02  0.00000000000E+00 0.  1.
</event>
<event>
 7    1  0.4096326E-006  0.9619647E+02  0.7561462E-02  0.1288504E+00
          1   -1    0    0  501    0  0.00000000000E+00  0.00000000000E+00  0.22120667702E+03  0.22120667702E+03  0.00000000000E+00 0. -1.
         -1   -1    0    0    0  501 -0.00000000000E+00 -0.00000000000E+00 -0.55604043454E+02  0.55604043454E+02  0.00000000000E+00 0.  1.
         23    2    1    2    0    0 -0.25584743806E+01 -0.14621917312E+02  0.96109931984E+02  0.13292177915E+03  0.90613101091E+02 0.  0.
          5    1    1    2  502    0  0.36035168024E+02 -0.32357350280E+02  0.70982333968E+02  0.86031945156E+02  0.41800000000E+01 0. -1.
         -5    1    1    2    0  502 -0.33476693643E+02  0.46979267592E+02 -0.14896323888E+01  0.57856996167E+02  0.41800000000E+01 0. -1.
        -11    1    3    3    0    0 -0.20161075395E+01  0.35631278784E+02  0.17820859180E+02  0.39890296305E+02  0.00000000000E+00 0.  1.
         11    1    3    3    0    0 -0.54236684109E+00 -0.50253196096E+02  0.78289072804E+02  0.93031482844E+02  0.00000000000E+00 0. -1.
</event>
<event>
 7    1  0.4096326E-006  0.2356028E+03  0.7561462E-02  0.1122757E+00
         -1   -1    0    0    0  501 -0.00000000000E+00  0.00000000000E+00  0.65736015286E+02  0.65736015286E+02  0.00000000000E+00 0.  1.
          1   -1    0    0  501    0  0.00000000000E+00 -0.00000000000E+00 -0.96192842204E+03  0.96192842204E+03  0.00000000000E+00 0. -1.
         23    2    1    2    0    0  0.19485423210E+03  0.11707648460E+03 -0.48324218650E+03  0.53996553619E+03  0.79779035181E+02 0.  0.
          5    1    1    2  502    0 -0.73544687410E+02 -0.68275366597E+02 -0.29472509761E+03  0.31136907729E+03  0.41800000000E+01 0.  1.
         -5    1    1    2    0  502 -0.12130954469E+03 -0.48801118001E+02 -0.11822512265E+03  0.17632982384E+03  0.41800000000E+01 0.  1.
        -11    1    3    3    0    0  0.12398336567E+03  0.11490104642E+03 -0.31752717463E+03  0.35971882361E+03  0.00000000000E+00 0.  1.
         11    1    3    3    0    0  0.70870866427E+02  0.21754381824E+01 -0.16571501187E+03  0.18024671258E+03  0.00000000000E+00 0. -1.
</event>
<event>
 7    1  0.4096326E-006  0.1956288E+03  0.7561462E-02  0.1153480E+00
          2   -1    0    0  501    0  0.00000000000E+00  0.00000000000E+00  0.65243943177E+03  0.65243943177E+03  0.00000000000E+00 0. -1.
         -2   -1    0    0    0  501 -0.00000000000E+00 -0.00000000000E+00 -0.74849764286E+02  0.74849764286E+02  0.00000000000E+00 0.  1.
         23    2    1    2    0    0  0.18460224358E+03  0.47268346915E+02  0.32866330835E+03  0.38977073490E+03  0.87116993601E+02 0.  0.
          5    1    1    2  502    0 -0.33271417191E+02  0.35332294922E+01 -0.83289956995E+01  0.34732052659E+02  0.41800000000E+01 0. -1.
         -5    1    1    2    0  502 -0.15133082639E+03 -0.50801576407E+02  0.25725535483E+03  0.30278640849E+03  0.41800000000E+01 0. -1.
        -11    1    3    3    0    0  0.72237467765E+02  0.45697943206E+02  0.80801590043E+02  0.11762419273E+03  0.00000000000E+00 0.  1.
         11    1    3    3    0    0  0.11236477581E+03  0.15704037090E+01  0.24786171831E+03  0.27214654217E+03  0.00000000000E+00 0. -1.
</event>
<event>
 7    1  0.4096326E-006  0.1180360E+03  0.7561462E-02  0.1246373E+00
         -1   -1    0    0    0  501 -0.00000000000E+00  0.00000000000E+00  0.21819979692E+02  0.21819979692E+02  0.00000000000E+00 0.  1.
          1   -1    0    0  501    0  0.00000000000E+00 -0.00000000000E+00 -0.70449595229E+03  0.70449595229E+03  0.00000000000E+00 0. -1.
         23    2    1    2    0    0  0.51201277144E+02 -0.21053470058E+01 -0.39408977354E+03  0.40763689560E+03  0.90747373360E+02 0.  0.
          5    1    1    2  502    0  0.39781531160E+02  0.77140600960E+01 -0.59712246432E+02  0.72284865072E+02  0.41800000000E+01 0.  1.
         -5    1    1    2    0  502 -0.90982808303E+02 -0.56087130901E+01 -0.22887395263E+03  0.24639417132E+03  0.41800000000E+01 0.  1.
        -11    1    3    3    0    0  0.11948518286E+02  0.42802219332E+02 -0.15813489089E+03  0.16426028365E+03  0.00000000000E+00 0.  1.
         11    1    3    3    0    0  0.39252758858E+02 -0.44907566338E+02 -0.23595488265E+03  0.24337661194E+03  0.00000000000E+00 0. -1.
</event>
<event>
 7    1  0.4096326E-006  0.1553376E+03  0.7561462E-02  0.1194063E+00
         -1   -1    0    0    0  501 -0.00000000000E+00  0.00000000000E+00  0.36371807422E+02  0.36371807422E+02  0.00000000000E+00 0.  1.
          1   -1    0    0  501    0  0.00000000000E+00 -0.00000000000E+00 -0.89827160046E+03  0.89827160046E+03  0.00000000000E+00 0. -1.
         23    2    1    2    0    0 -0.25140118152E+02  0.13231834314E+03 -0.27162358602E+03  0.31640912885E+03  0.90527315591E+02 0.  0.
          5    1    1    2  502    0  0.50300908360E+02 -0.22718552149E+02 -0.33093585404E+03  0.33553289836E+03  0.41800000000E+01 0.  1.
         -5    1    1    2    0  502 -0.25160790208E+02 -0.10959979099E+03 -0.25934035298E+03  0.28270138067E+03  0.41800000000E+01 0.  1.
        -11    1    3    3    0    0  0.14043912509E+02  0.43682039411E+02 -0.26882295658E+02  0.53179035958E+02  0.00000000000E+00 0.  1.
         11    1    3    3    0    0 -0.39184030661E+02  0.88636303726E+02 -0.24474129036E+03  0.26323009289E+03  0.00000000000E+00 0. -1.
</event>
<event>
 7    1  0.4096326E-006  0.1402886E+03  0.7561462E-02  0.1212941E+00
          1   -1    0    0  501    0  0.00000000000E+00  0.00000000000E+00  0.52778390113E+02  0.52778390113E+02  0.00000000000E+00 0. -1.
         -1   -1    0    0    0  501 -0.00000000000E+00 -0.00000000000E+00 -0.64253114194E+03  0.64253114194E+03  0.00000000000E+00 0.  1.
         23    2    1    2    0    0  0.33692004433E+02 -0.82314396104E+02 -0.59294162037E+02  0.14309106915E+03  0.95123317064E+02 0.  0.
          5    1    1    2  502    0  0.34463080948E+02  0.76060270769E+02 -0.32684479921E+03  0.33736903223E+03  0.41800000000E+01 0.  1.
         -5    1    1    2    0  502 -0.68155085381E+02  0.62541253351E+01 -0.20361379058E+03  0.21484943067E+03  0.41800000000E+01 0.  1.
        -11    1    3    3    0    0 -0.30891385606E+02 -0.42463195430E+02 -0.12648821931E+02  0.54012900005E+02  0.00000000000E+00 0.  1.
         11    1    3    3    0    0  0.64583390039E+02 -0.39851200675E+02 -0.46645340105E+02  0.89078169142E+02  0.00000000000E+00 0. -1.
</event>
<event>
 7    1  0.4096326E-006  0.6538630E+02  0.7561462E-02  0.1376524E+00
          2   -1    0    0  501    0  0.00000000000E+00  0.00000000000E+00  0.65016180622E+02  0.65016180622E+02  0.00000000000E+00 0. -1.
         -2   -1    0    0    0  501 -0.00000000000E+00 -0.00000000000E+00 -0.18026992086E+03  0.18026992086E+03  0.00000000000E+00 0.  1.
         23    2    1    2    0    0 -0.11006100945E+02  0.37558459688E+02 -0.11055476186E+02  0.77846541680E+02  0.66378372575E+02 0.  0.
          5    1    1    2  502    0  0.17828978921E+02 -0.32266781219E+01 -0.12508835016E+03  0.12646284707E+03  0.41800000000E+01 0.  1.
         -5    1    1    2    0  502 -0.68228779754E+01 -0.34331781566E+02  0.20890086109E+02  0.40976712740E+02  0.41800000000E+01 0.  1.
        -11    1    3    3    0    0  0.27878890264E+02  0.11737695027E+02 -0.65704611935E+01  0.30954433724E+02  0.00000000000E+00 0.  1.
         11    1    3    3    0    0 -0.38884991209E+02  0.25820764661E+02 -0.44850149930E+01  0.46892107955E+02  0.00000000000E+00 0. -1.
</event>
<event>
 7    1  0.4096326E-006  0.1935726E+03  0.7561462E-02  0.1155278E+00
         -2   -1    0    0    0  501 -0.00000000000E+00  0.00000000000E+00  0.44168700333E+02  0.44168700333E+02  0.00000000000E+00 0.  1.
          2   -1    0    0  501    0  0.00000000000E+00 -0.00000000000E+00 -0.94999392052E+03  0.94999392052E+03  0.00000000000E+00 0. -1.
         23    2    1    2    0    0 -0.13346112447E+02  0.17196615456E+03 -0.53579312409E+03  0.57009336615E+03  0.90452734992E+02 0.  0.
          5    1    1    2  502    0 -0.55734353514E+01 -0.18219124707E+03 -0.34870844815E+03  0.39349684611E+03  0.41800000000E+01 0. -1.
         -5    1    1    2    0  502  0.18919547798E+02  0.10225092505E+02 -0.21323647949E+02  0.30572408598E+02  0.41800000000E+01 0.  1.
        -11    1    3    3    0    0 -0.34972500739E+02  0.65293798175E+02 -0.31931162802E+03  0.32778998105E+03  0.00000000000E+00 0.  1.
         11    1    3    3    0    0  0.21626388292E+02  0.10667235639E+03 -0.21648149608E+03  0.24230338510E+03  0.00000000000E+00 0. -1.
</event>
<event>
 7    1  0.4096326E-006  0.1708732E+03  0.7561462E-02  0.1176940E+00
         -2   -1    0    0    0  501 -0.00000000000E+00  0.00000000000E+00  0.90157316263E+02  0.90157316263E+02  0.00000000000E+00 0.  1.
          2   -1    0    0  501    0  0.00000000000E+00 -0.00000000000E+00 -0.43456430019E+03  0.43456430019E+03  0.00000000000E+00 0. -1.
         23    2    1    2    0    0  0.13686056439E+03 -0.38870492334E+02 -0.27423939539E+03  0.32269856830E+03  0.93195443749E+02 0.  0.
          5    1    1    2  502    0 -0.34977958240E+02 -0.38618255501E+02  0.66320290138E+01  0.52690449129E+02  0.41800000000E+01 0. -1.
         -5    1    1    2    0  502 -0.10188260615E+03  0.77488747835E+02 -0.76799617546E+02  0.14933259903E+03  0.41800000000E+01 0. -1.
        -11    1    3    3    0    0  0.76415299323E+02  0.17895616660E+02 -0.82868139636E+02  0.11413448047E+03  0.00000000000E+00 0.  1.
         11    1    3    3    0    0  0.60445265066E+02 -0.56766108994E+02 -0.19137125576E+03  0.20856408782E+03  0.00000000000E+00 0. -1.
</event>
<event>
 7    1  0.4096326E-006  0.8784463E+02  0.7561462E-02  0.1308157E+00
         -2   -1    0    0    0  501 -0.00000000000E+00  0.00000000000E+00  0.23002401873E+03  0.23002401873E+03  0.00000000000E+00 0.  1.
          2   -1    0    0  501    0  0.00000000000E+00 -0.00000000000E+00 -0.63846279152E+02  0.63846279152E+02  0.00000000000E+00 0. -1.
         23    2    1    2    0    0  0.34056905188E+02 -0.11092731624E+02  0.25096702195E+02  0.10194818969E+03  0.92090539331E+02 0.  0.
          5    1    1    2  502    0  0.34571355099E+02 -0.85675042143E+01  0.24640521393E+01  0.35946135742E+02  0.41800000000E+01 0. -1.
         -5    1    1    2    0  502 -0.68628260287E+02  0.19660235838E+02  0.13861698524E+03  0.15597597245E+03  0.41800000000E+01 0. -1.
        -11    1    3    3    0    0  0.29774906361E+02 -0.33895098333E+02 -0.21438300398E+02  0.49950209847E+02  0.00000000000E+00 0. -1.
         11    1    3    3    0    0  0.42819988277E+01  0.22802366709E+02  0.46535002593E+02  0.51997979844E+02  0.00000000000E+00 0.  1.
</event>
<event>
 7    1  0.4096326E-006  0.1339666E+03  0.7561462E-02  0.1221686E+00
         -1   -1    0    0    0  501 -0.00000000000E+00  0.00000000000E+00  0.37715364756E+02  0.37715364756E+02  0.00000000000E+00 0.  1.
          1   -1    0    0  501    0  0.00000000000E+00 -0.00000000000E+00 -0.56925821591E+03  0.56925821591E+03  0.00000000000E+00 0. -1.
         23    2    1    2    0    0  0.89115546716E+02 -0.32553032847E+02 -0.29498719532E+03  0.32305830122E+03  0.91367061716E+02 0.  0.
          5    1    1    2  502    0  0.15214159678E+02 -0.15638556328E+02 -0.11284240490E+03  0.11500832944E+03  0.41800000000E+01 0.  1.
         -5    1    1    2    0  502 -0.10432970639E+03  0.48191589174E+02 -0.12371325094E+03  0.16890695001E+03  0.41800000000E+01 0.  1.
        -11    1    3    3    0    0  0.17987140072E+02 -0.53604404662E+02 -0.14754676105E+03  0.15800954434E+03  0.00000000000E+00 0. -1.
         11    1    3    3    0    0  0.71128406643E+02  0.21051371816E+02 -0.14744043427E+03  0.16504875687E+03  0.00000000000E+00 0.  1.
</event>
<event>
 7    1  0.4096326E-006  0.1306605E+03  0.7561462E-02  0.1226479E+00
         -3   -1    0    0    0  501 -0.00000000000E+00  0.00000000000E+00  0.25210875658E+03  0.25210875658E+03  0.00000000000E+00 0.  1.
          3   -1    0    0  501    0  0.00000000000E+00 -0.00000000000E+00 -0.10990077490E+03  0.10990077490E+03  0.00000000000E+00 0. -1.
         23    2    1    2    0    0 -0.99445485439E+02 -0.70611406106E+02  0.10071242868E+03  0.18244235338E+03  0.90922185240E+02 0.  0.
          5    1    1    2  502    0  0.84492566557E+02  0.63761785715E+02 -0.26736911091E+02  0.10925609336E+03  0.41800000000E+01 0.  1.
         -5    1    1    2    0  502  0.14952918882E+02  0.68496203910E+01  0.68232464091E+02  0.70311084748E+02  0.41800000000E+01 0.  1.
        -11    1    3    3    0    0 -0.68588371271E+02 -0.85649891553E+01  0.88147479676E+02  0.11201652506E+03  0.00000000000E+00 0.  1.
         11    1    3    3    0    0 -0.30857114168E+02 -0.62046416950E+02  0.12564949008E+02  0.70425828321E+02  0.00000000000E+00 0. -1.
</event>
<event>
 7    1  0.4096326E-006  0.1480572E+03  0.7561462E-02  0.1202881E+00
          1   -1    0    0  501    0  0.00000000000E+00  0.00000000000E+00  0.43424501709E+03  0.43424501709E+03  0.00000000000E+00 0. -1.
         -1   -1    0    0    0  501 -0.00000000000E+00 -0.00000000000E+00 -0.78619566302E+02  0.78619566302E+02  0.00000000000E+00 0.  1.
         23    2    1    2    0    0 -0.90903189958E+02  0.99750164885E+02  0.25818806200E+03  0.30464470706E+03  0.89072087876E+02 0.  0.
          5    1    1    2  502    0  0.58442321061E+02 -0.11154631710E+03  0.25844262411E+02  0.12862147584E+03  0.41800000000E+01 0. -1.
         -5    1    1    2    0  502  0.32460868896E+02  0.11796152211E+02  0.71593126380E+02  0.79598400495E+02  0.41800000000E+01 0. -1.
        -11    1    3    3    0    0 -0.52524378430E+02  0.50242766822E+02  0.52589210027E+02  0.89714942783E+02  0.00000000000E+00 0.  1.
         11    1    3    3    0    0 -0.38378811528E+02  0.49507398063E+02  0.20559885198E+03  0.21492976427E+03  0.00000000000E+00 0. -1.
</event>
<event>
 7    1  0.4096326E-006  0.1809168E+03  0.7561462E-02  0.1166919E+00
         -2   -1    0    0    0  501 -0.00000000000E+00  0.00000000000E+00  0.85270798690E+02  0.85270798690E+02  0.00000000000E+00 0.  1.
          2   -1    0    0  501    0  0.00000000000E+00 -0.00000000000E+00 -0.45925593150E+03  0.45925593150E+03  0.00000000000E+00 0. -1.
         23    2    1    2    0    0  0.12647246699E+03 -0.10637392665E+03 -0.18437447378E+03  0.26361815764E+03  0.90498007038E+02 0.  0.
          5    1    1    2  502    0 -0.91762850378E+02  0.11235874966E+02 -0.14060086088E+03  0.16832332006E+03  0.41800000000E+01 0. -1.
         -5    1    1    2    0  502 -0.34709616610E+02  0.95138051686E+02 -0.49009798146E+02  0.11258525249E+03  0.41800000000E+01 0. -1.
        -11    1    3    3    0    0  0.36244301379E+02 -0.14140192025E+02 -0.39913287714E+00  0.38906988061E+02  0.00000000000E+00 0.  1.
         11    1    3    3    0    0  0.90228165609E+02 -0.92233734627E+02 -0.18397534091E+03  0.22471116958E+03  0.00000000000E+00 0. -1.
</event>
<event>
 7    1  0.4096326E-006  0.1367066E+03  0.7561462E-02  0.1217830E+00
          2   -1    0    0  501    0  0.00000000000E+00  0.00000000000E+00  0.64910560368E+03  0.64910560368E+03  0.00000000000E+00 0.  1.
         -2   -1    0    0    0  501 -0.00000000000E+00 -0.00000000000E+00 -0.32910690121E+02  0.32910690121E+02  0.00000000000E+00 0. -1.
         23    2    1    2    0    0 -0.94355618504E+02  0.24799319909E+02  0.26030763767E+03  0.29237686870E+03  0.90587957868E+02 0.  0.
          5    1    1    2  502    0 -0.29102761584E+02  0.13750875994E+01  0.41827846273E+02  0.51145896429E+02  0.41800000000E+01 0.  1.
         -5    1    1    2    0  502  0.12345838009E+03 -0.26174407508E+02  0.31405942961E+03  0.33849352867E+03  0.41800000000E+01 0.  1.
        -11    1    3    3    0    0 -0.56245162822E+02 -0.19261506955E+02  0.19948628774E+03  0.20815691914E+03  0.00000000000E+00 0.  1.
         11    1    3    3    0    0 -0.38110455682E+02  0.44060826864E+02  0.60821349934E+02  0.84219949561E+02  0.00000000000E+00 0. -1.
</event>
<event>
 7    1  0.4096326E-006  0.1313818E+03  0.7561462E-02  0.1225420E+00
         -2   -1    0    0    0  501 -0.00000000000E+00  0.00000000000E+00  0.32221688573E+02  0.32221688573E+02  0.00000000000E+00 0.  1.
          2   -1    0    0  501    0  0.00000000000E+00 -0.00000000000E+00 -0.63120889472E+03  0.63120889472E+03  0.00000000000E+00 0. -1.
         23    2    1    2    0    0 -0.95488603316E+02 -0.40457471038E+02 -0.25984470503E+03  0.29016955860E+03  0.76968965686E+02 0.  0.
          5    1    1    2  502    0  0.92554249143E+02  0.62239827454E+02 -0.33123081525E+03  0.34953027126E+03  0.41800000000E+01 0. -1.
         -5    1    1    2    0  502  0.29343541730E+01 -0.21782356416E+02 -0.79116858695E+01  0.23730753438E+02  0.41800000000E+01 0.  1.
        -11    1    3    3    0    0 -0.44090346228E+02 -0.59421145531E+02 -0.13833027183E+03  0.15687605066E+03  0.00000000000E+00 0. -1.
         11    1    3    3    0    0 -0.51398257088E+02  0.18963674493E+02 -0.12151443320E+03  0.13329350793E+03  0.00000000000E+00 0.  1.
</event>
<event>
 7    1  0.4096326E-006  0.1423525E+03  0.7561462E-02  0.1210198E+00
         -1   -1    0    0    0  501 -0.00000000000E+00  0.00000000000E+00  0.28388421719E+03  0.28388421719E+03  0.00000000000E+00 0.  1.
          1   -1    0    0  501    0  0.00000000000E+00 -0.00000000000E+00 -0.82433060846E+02  0.82433060846E+02  0.00000000000E+00 0. -1.
         23    2    1    2    0    0  0.60454018627E+02 -0.86944398784E+02  0.11465025287E+03  0.18085038176E+03  0.91368283615E+02 0.  0.
          5    1    1    2  502    0 -0.57661253752E+01 -0.22004976025E+02  0.54622706899E+02  0.59317616950E+02  0.41800000000E+01 0.  1.
         -5    1    1    2    0  502 -0.54687893251E+02  0.10894937481E+03  0.32178196573E+02  0.12614927933E+03  0.41800000000E+01 0.  1.
        -11    1    3    3    0    0  0.86015455688E+01  0.19436594720E+02  0.21610219588E+02  0.30311209001E+02  0.00000000000E+00 0. -1.
         11    1    3    3    0    0  0.51852473058E+02 -0.10638099350E+03  0.93040033281E+02  0.15053917276E+03  0.00000000000E+00 0.  1.
</event>
<event>
 7    1  0.4096326E-006  0.1235344E+03  0.7561462E-02  0.1237378E+00
          2   -1    0    0  501    0  0.00000000000E+00  0.00000000000E+00  0.70862272904E+03  0.70862272904E+03  0.00000000000E+00 0. -1.
         -2   -1    0    0    0  501 -0.00000000000E+00 -0.00000000000E+00 -0.27155351953E+02  0.27155351953E+02  0.00000000000E+00 0.  1.
         23    2    1    2    0    0 -0.55917470011E+02  0.55507562119E+02  0.40398913392E+03  0.42137476718E+03  0.90230932549E+02 0.  0.
          5    1    1    2  502    0  0.22102443544E+02 -0.81422201574E+02  0.95680166879E+02  0.12763330151E+03  0.41800000000E+01 0. -1.
         -5    1    1    2    0  502  0.33815026467E+02  0.25914639456E+02  0.18179807629E+03  0.18677001230E+03  0.41800000000E+01 0. -1.
        -11    1    3    3    0    0 -0.60851811723E+02 -0.31412392228E+01  0.20607265629E+03  0.21489241505E+03  0.00000000000E+00 0. -1.
         11    1    3    3    0    0  0.49343417112E+01  0.58648801341E+02  0.19791647763E+03  0.20648235214E+03  0.00000000000E+00 0.  1.
</event>
<event>
 6    1  0.2622122E-005  0.3383585E+03  0.7561462E-02  0.1067497E+00
         -2   -1    0    0    0  501 -0.00000000000E+00  0.00000000000E+00  0.10841475078E+03  0.10841475078E+03  0.00000000000E+00 0. -1.
          2   -1    0    0  501    0  0.00000000000E+00 -0.00000000000E+00 -0.13340649831E+04  0.13340649831E+04  0.00000000000E+00 0.  1.
          5    1    1    2  502    0 -0.11662266517E+03  0.50063341033E+01 -0.56211796993E+02  0.12962695681E+03  0.41800000000E+01 0. -1.
         -5    1    1    2    0  502 -0.15220587290E+03 -0.78459465131E+02 -0.24868664561E+03  0.30196860022E+03  0.41800000000E+01 0. -1.
        -11    1    1    2    0    0  0.22235159119E+03  0.17104486878E+03 -0.80513681026E+03  0.85260885550E+03  0.00000000000E+00 0.  1.
         11    1    1    2    0    0  0.46476946868E+02 -0.97591737756E+02 -0.11561497943E+03  0.15827532131E+03  0.00000000000E+00 0. -1.
</event>
<event>
 7    1  0.4096326E-006  0.1225365E+03  0.7561462E-02  0.1238970E+00
         -1   -1    0    0    0  501 -0.00000000000E+00  0.00000000000E+00  0.31848864206E+03  0.31848864206E+03  0.00000000000E+00 0.  1.
          1   -1    0    0  501    0  0.00000000000E+00 -0.00000000000E+00 -0.85106719061E+02  0.85106719061E+02  0.00000000000E+00 0. -1.
         23    2    1    2    0    0 -0.76758452061E+02 -0.30005156780E+02 -0.42509234340E+00  0.12590899583E+03  0.95187841294E+02 0.  0.
          5    1    1    2  502    0  0.10888971396E+03  0.26280773335E+02  0.14635243948E+03  0.18434792594E+03  0.41800000000E+01 0. -1.
         -5    1    1    2    0  502 -0.32131261902E+02  0.37243834449E+01  0.87454575862E+02  0.93338439363E+02  0.41800000000E+01 0. -1.
        -11    1    3    3    0    0 -0.85510785313E+02 -0.21528556948E+02 -0.30623316523E+02  0.93345383839E+02  0.00000000000E+00 0. -1.
         11    1    3    3    0    0  0.87523332521E+01 -0.84765998316E+01  0.30198224179E+02  0.32563611987E+02  0.00000000000E+00 0.  1.
</event>
<event>
 7    1  0.4096326E-006  0.1105635E+03  0.7561462E-02  0.1259530E+00
          2   -1    0    0  501    0  0.00000000000E+00  0.00000000000E+00  0.11928903970E+04  0.11928903970E+04  0.00000000000E+00 0. -1.
         -2   -1    0    0    0  501 -0.00000000000E+00 -0.00000000000E+00 -0.15194216702E+02  0.15194216702E+02  0.00000000000E+00 0.  1.
         23    2    1    2    0    0 -0.58124659780E+01 -0.77997223875E+02  0.60023877601E+03  0.61207871406E+03  0.90754681889E+02 0.  0.
          5    1    1    2  502    0 -0.21805389269E+02  0.39866982214E+01  0.41193023516E+03  0.41254740310E+03  0.41800000000E+01 0.  1.
         -5    1    1    2    0  502  0.27617855247E+02  0.74010525654E+02  0.16552716916E+03  0.18345849658E+03  0.41800000000E+01 0.  1.
        -11    1    3    3    0    0  0.41805974633E+02 -0.27413432981E+02  0.27432206042E+03  0.27884014894E+03  0.00000000000E+00 0.  1.
         11    1    3    3    0    0 -0.47618440611E+02 -0.50583790894E+02  0.32591671559E+03  0.33323856513E+03  0.00000000000E+00 0. -1.
</event>
<event>
 7    1  0.4096326E-006  0.2280977E+03  0.7561462E-02  0.1127986E+00
         -2   -1    0    0    0  501 -0.00000000000E+00  0.00000000000E+00  0.67888079511E+02  0.67888079511E+02  0.00000000000E+00 0.  1.
          2   -1    0    0  501    0  0.00000000000E+00 -0.00000000000E+00 -0.83719651742E+03  0.83719651742E+03  0.00000000000E+00 0. -1.
         23    2    1    2    0    0  0.16073086132E+03 -0.13499399814E+03 -0.43232341685E+03  0.48883392371E+03  0.89427506358E+02 0.  0.
          5    1    1    2  502    0 -0.86024852298E+02 -0.26648023705E+01 -0.14222007115E+03  0.16628709337E+03  0.41800000000E+01 0.  1.
         -5    1    1    2    0  502 -0.74706009023E+02  0.13765880051E+03 -0.19476494992E+03  0.24996357986E+03  0.41800000000E+01 0.  1.
        -11    1    3    3    0    0  0.85396923687E+02 -0.46872188301E+02 -0.11342356398E+03  0.14951435208E+03  0.00000000000E+00 0.  1.
         11    1    3    3    0    0  0.75333937634E+02 -0.88121809835E+02 -0.31889985287E+03  0.33931957163E+03  0.00000000000E+00 0. -1.
</event>
<event>
 7    1  0.4096326E-006  0.7789697E+02  0.7561462E-02  0.1335128E+00
          2   -1    0    0  501    0  0.00000000000E+00  0.00000000000E+00  0.18045119017E+03  0.18045119017E+03  0.00000000000E+00 0. -1.
         -2   -1    0    0    0  501 -0.00000000000E+00 -0.00000000000E+00 -0.68511264630E+02  0.68511264630E+02  0.00000000000E+00 0.  1.
         23    2    1    2    0    0 -0.40875169428E+01 -0.54766315957E+01  0.81018094077E+02  0.11991071149E+03  0.88135951092E+02 0.  0.
          5    1    1    2  502    0  0.39038754309E+02  0.78187152424E+01 -0.35717544941E+02  0.53650461906E+02  0.41800000000E+01 0.  1.
         -5    1    1    2    0  502 -0.34951237366E+02 -0.23420836467E+01  0.66639376407E+02  0.75401281403E+02  0.41800000000E+01 0.  1.
        -11    1    3    3    0    0 -0.15133670549E+02  0.35209441241E+02  0.14131907077E+02  0.40846585346E+02  0.00000000000E+00 0.  1.
         11    1    3    3    0    0  0.11046153606E+02 -0.40686072836E+02  0.66886187000E+02  0.79064126149E+02  0.00000000000E+00 0. -1.
</event>
<event>
 7    1  0.4096326E-006  0.1037169E+03  0.7561462E-02  0.1272668E+00
          1   -1    0    0  501    0  0.00000000000E+00  0.00000000000E+00  0.28961568377E+03  0.28961568377E+03  0.00000000000E+00 0. -1.
         -1   -1    0    0    0  501 -0.00000000000E+00 -0.00000000000E+00 -0.56328247726E+02  0.56328247726E+02  0.00000000000E+00 0.  1.
         23    2    1    2    0    0 -0.54176661065E+02 -0.25528403316E+02  0.14359222417E+03  0.18077489440E+03  0.92054470955E+02 0.  0.
          5    1    1    2  502    0  0.79381538710E+02  0.47306715125E+02  0.31014932060E+02  0.97564093777E+02  0.41800000000E+01 0.  1.
         -5    1    1    2    0  502 -0.25204877644E+02 -0.21778311809E+02  0.58680279820E+02  0.67604943326E+02  0.41800000000E+01 0.  1.
        -11    1    3    3    0    0 -0.62590223977E+01 -0.32357482594E+02  0.42066609763E+01  0.33224660085E+02  0.00000000000E+00 0.  1.
         11    1    3    3    0    0 -0.47917638667E+02  0.68290792780E+01  0.13938556319E+03  0.14755023431E+03  0.00000000000E+00 0. -1.
</event>
<event>
 7    1  0.4096326E-006  0.8795407E+02  0.7561462E-02  0.1307883E+00
          2   -1    0    0  501    0  0.00000000000E+00  0.00000000000E+00  0.26925310909E+03  0.26925310909E+03  0.00000000000E+00 0. -1.
         -2   -1    0    0    0  501 -0.00000000000E+00 -0.00000000000E+00 -0.47922012621E+02  0.47922012621E+02  0.00000000000E+00 0.  1.
         23    2    1    2    0    0  0.28735983494E+02 -0.10440520348E+02  0.11774453732E+03  0.15191071966E+03  0.90985325554E+02 0.  0.
          5    1    1    2  502    0 -0.75197573157E+02  0.28959906287E+01  0.37944261677E+02  0.84381876992E+02  0.41800000000E+01 0.  1.
         -5    1    1    2    0  502  0.46461589663E+02  0.75445297198E+01  0.65642297471E+02  0.80882525059E+02  0.41800000000E+01 0.  1.
        -11    1    3    3    0    0  0.91354879190E+01 -0.26445220604E+02  0.12293542914E+03  0.12607904889E+03  0.00000000000E+00 0. -1.
         11    1    3    3    0    0  0.19600495575E+02  0.16004700256E+02 -0.51908918119E+01  0.25831670772E+02  0.00000000000E+00 0.  1.
</event>
<event>
 7    1  0.4096326E-006  0.1514514E+03  0.7561462E-02  0.1198701E+00
         -1   -1    0    0    0  501 -0.00000000000E+00  0.00000000000E+00  0.91679566659E+03  0.91679566659E+03  0.00000000000E+00 0.  1.
          1   -1    0    0  501    0  0.00000000000E+00 -0.00000000000E+00 -0.35858385039E+02  0.35858385039E+02  0.00000000000E+00 0. -1.
         23    2    1    2    0    0  0.31893017842E+02 -0.10939256219E+03  0.21450722731E+03  0.26507781241E+03  0.10615554068E+03 0.  0.
          5    1    1    2  502    0  0.34855277487E+02  0.76586197999E+02  0.47009213112E+03  0.47758184663E+03  0.41800000000E+01 0. -1.
         -5    1    1    2    0  502 -0.66748295329E+02  0.32806364189E+02  0.19633792313E+03  0.20999439259E+03  0.41800000000E+01 0. -1.
        -11    1    3    3    0    0  0.48114933205E+02 -0.11680514168E+03  0.21238718009E+03  0.24711698078E+03  0.00000000000E+00 0.  1.
         11    1    3    3    0    0 -0.16221915363E+02  0.74125794916E+01  0.21200472119E+01  0.17960831633E+02  0.00000000000E+00 0. -1.
</event>
<event>
 7    1  0.4096326E-006  0.8910508E+02  0.7561462E-02  0.1305033E+00
         -1   -1    0    0    0  501 -0.00000000000E+00  0.00000000000E+00  0.29719591707E+03  0.29719591707E+03  0.00000000000E+00 0.  1.
          1   -1    0    0  501    0  0.00000000000E+00 -0.00000000000E+00 -0.42769347289E+02  0.42769347289E+02  0.00000000000E+00 0. -1.
         23    2    1    2    0    0 -0.14305410390E+02  0.24573176695E+02  0.65908245855E+02  0.10968792946E+03  0.82940094158E+02 0.  0.
          5    1    1    2  502    0 -0.31741801906E+02 -0.47415166968E+02  0.32154779124E+02  0.65628821926E+02  0.41800000000E+01 0. -1.
         -5    1    1    2    0  502  0.46047212296E+02  0.22841990273E+02  0.15636354480E+03  0.16464851297E+03  0.41800000000E+01 0.  1.
        -11    1    3    3    0    0 -0.36965805104E+02  0.28179200218E+02  0.76930372299E+01  0.47113914014E+02  0.00000000000E+00 0. -1.
         11    1    3    3    0    0  0.22660394714E+02 -0.36060235224E+01  0.58215208625E+02  0.62574015450E+02  0.00000000000E+00 0.  1.
</event>
<event>
 7    1  0.4096326E-006  0.8147706E+02  0.7561462E-02  0.1324911E+00
         -2   -1    0    0    0  501 -0.00000000000E+00  0.00000000000E+00  0.63739096519E+02  0.63739096519E+02  0.00000000000E+00 0.  1.
          2   -1    0    0  501    0  0.00000000000E+00 -0.00000000000E+00 -0.21735934518E+03  0.21735934518E+03  0.00000000000E+00 0. -1.
         23    2    1    2    0    0 -0.42592656899E+02  0.13760080596E+02 -0.64753392004E+02  0.12126276833E+03  0.92239812272E+02 0.  0.
          5    1    1    2  502    0 -0.69643065549E+01 -0.12876296395E+02  0.28528993889E+02  0.32336921112E+02  0.41800000000E+01 0. -1.
         -5    1    1    2    0  502  0.49556963453E+02 -0.88378420068E+00 -0.11739585054E+03  0.12749875225E+03  0.41800000000E+01 0. -1.
        -11    1    3    3    0    0 -0.69134812178E+02  0.25640713960E+01 -0.60958447864E+02  0.92206990423E+02  0.00000000000E+00 0. -1.
         11    1    3    3    0    0  0.26542155279E+02  0.11196009200E+02 -0.37949441401E+01  0.29055777909E+02  0.00000000000E+00 0.  1.
</event>
<event>
 7    1  0.4096326E-006  0.8272649E+02  0.7561462E-02  0.1321487E+00
         -2   -1    0    0    0  501 -0.00000000000E+00  0.00000000000E+00  0.34849865243E+02  0.34849865243E+02  0.00000000000E+00 0.  1.
          2   -1    0    0  501    0  0.00000000000E+00 -0.00000000000E+00 -0.36529927281E+03  0.36529927281E+03  0.00000000000E+00 0. -1.
         23    2    1    2    0    0 -0.22678803643E+01  0.27380817862E+02 -0.15995574456E+03  0.18691304979E+03  0.92713513014E+02 0.  0.
          5    1    1    2  502    0 -0.56994008013E+01  0.28890036652E+02  0.36877663808E+01  0.29969808277E+02  0.41800000000E+01 0. -1.
         -5    1    1    2    0  502  0.79672811657E+01 -0.56270854514E+02 -0.17418142939E+03  0.18326627999E+03  0.41800000000E+01 0. -1.
        -11    1    3    3    0    0  0.10083225393E+02 -0.23920132339E+02 -0.97850270514E+01  0.27741501759E+02  0.00000000000E+00 0.  1.
         11    1    3    3    0    0 -0.12351105758E+02  0.51300950201E+02 -0.15017071751E+03  0.15917154803E+03  0.00000000000E+00 0. -1.
</event>
<event>
 7    1  0.4096326E-006  0.1108772E+03  0.7561462E-02  0.1258954E+00
          4   -1    0    0  501    0  0.00000000000E+00  0.00000000000E+00  0.16657972173E+03  0.16657972173E+03  0.00000000000E+00 0. -1.
         -4   -1    0    0    0  501 -0.00000000000E+00 -0.00000000000E+00 -0.14371579579E+03  0.14371579579E+03  0.00000000000E+00 0.  1.
         23    2    1    2    0    0  0.61945857480E+02 -0.54546270322E+02  0.82721946190E+02  0.14891629098E+03  0.92306860381E+02 0.  0.
          5    1    1    2  502    0 -0.39079819056E+02  0.76221982527E+02 -0.85081911380E+02  0.12080325708E+03  0.41800000000E+01 0.  1.
         -5    1    1    2    0  502 -0.22866038424E+02 -0.21675712205E+02  0.25223891134E+02  0.40575969449E+02  0.41800000000E+01 0.  1.
        -11    1    3    3    0    0  0.47895986074E+02 -0.10082280880E-01  0.79115541884E+02  0.92484023222E+02  0.00000000000E+00 0. -1.
         11    1    3    3    0    0  0.14049871407E+02 -0.54536188041E+02  0.36064043060E+01  0.56432267761E+02  0.00000000000E+00 0.  1.
</event>
<event>
 7    1  0.4096326E-006  0.1032690E+03  0.7561462E-02  0.1273568E+00
          2   -1    0    0  501    0  0.00000000000E+00  0.00000000000E+00  0.90080835846E+03  0.90080835846E+03  0.00000000000E+00 0. -1.
         -2   -1    0    0    0  501 -0.00000000000E+00 -0.00000000000E+00 -0.12655029409E+02  0.12655029409E+02  0.00000000000E+00 0.  1.
         23    2    1    2    0    0  0.20595941956E+01  0.75980509964E+01  0.39152210472E+03  0.40126000779E+03  0.87510359701E+02 0.  0.
          5    1    1    2  502    0 -0.48881485823E+02 -0.38548426702E+02  0.34207223674E+03  0.34771578682E+03  0.41800000000E+01 0.  1.
         -5    1    1    2    0  502  0.46821891628E+02  0.30950375706E+02  0.15455898759E+03  0.16448759326E+03  0.41800000000E+01 0.  1.
        -11    1    3    3    0    0 -0.13543751353E+02  0.45182335202E+02  0.20942872417E+03  0.21467479387E+03  0.00000000000E+00 0. -1.
         11    1    3    3    0    0  0.15603345549E+02 -0.37584284206E+02  0.18209338055E+03  0.18658521392E+03  0.00000000000E+00 0.  1.
</event>
<event>
 7    1  0.4096326E-006  0.1124454E+03  0.7561462E-02  0.1256107E+00
          3   -1    0    0  501    0  0.00000000000E+00  0.00000000000E+00  0.29861019925E+03  0.29861019925E+03  0.00000000000E+00 0. -1.
         -3   -1    0    0    0  501 -0.00000000000E+00 -0.00000000000E+00 -0.57135488822E+02  0.57135488822E+02  0.00000000000E+00 0.  1.
         23    2    1    2    0    0 -0.47671597016E+02  0.45913019795E+02  0.14819711002E+03  0.18625311925E+03  0.91363310269E+02 0.  0.
          5    1    1    2  502    0 -0.19249471472E+02 -0.60705956786E+02  0.15373019584E+02  0.65647219838E+02  0.41800000000E+01 0. -1.
         -5    1    1    2    0  502  0.66921068488E+02  0.14792936992E+02  0.77904580821E+02  0.10384534898E+03  0.41800000000E+01 0. -1.
        -11    1    3    3    0    0 -0.51441759198E+02  0.54083474574E+01  0.13321073169E+03  0.14290067827E+03  0.00000000000E+00 0. -1.
         11    1    3    3    0    0  0.37701621817E+01  0.40504672337E+02  0.14986378335E+02  0.43352440988E+02  0.00000000000E+00 0.  1.
</event>
<event>
 7    1  0.4096326E-006  0.1349150E+03  0.7561462E-02  0.1220340E+00
          1   -1    0    0  501    0  0.00000000000E+00  0.00000000000E+00  0.61694634214E+03  0.61694634214E+03  0.00000000000E+00 0. -1.
         -1   -1    0    0    0  501 -0.00000000000E+00 -0.00000000000E+00 -0.43843705892E+02  0.43843705892E+02  0.00000000000E+00 0.  1.
         23    2    1    2    0    0 -0.39306812116E+02 -0.11641262123E+03  0.23964347682E+03  0.28404040153E+03  0.90294129719E+02 0.  0.
          5    1    1    2  502    0  0.44487565038E+02  0.11409317086E+03  0.15238290531E+03  0.19553623017E+03  0.41800000000E+01 0.  1.
         -5    1    1    2    0  502 -0.51807529219E+01  0.23194503697E+01  0.18107625411E+03  0.18121341632E+03  0.41800000000E+01 0.  1.
        -11    1    3    3    0    0  0.19406299137E+02 -0.25951045395E+02  0.11372415712E+03  0.11825077216E+03  0.00000000000E+00 0. -1.
         11    1    3    3    0    0 -0.58713111253E+02 -0.90461575831E+02  0.12591931970E+03  0.16578962937E+03  0.00000000000E+00 0.  1.
</event>
<event>
 7    1  0.4096326E-006  0.1021566E+03  0.7561462E-02  0.1275825E+00
          1   -1    0    0  501    0  0.00000000000E+00  0.00000000000E+00  0.75094600933E+02  0.75094600933E+02  0.00000000000E+00 0. -1.
         -1   -1    0    0    0  501 -0.00000000000E+00 -0.00000000000E+00 -0.23213428823E+03  0.23213428823E+03  0.00000000000E+00 0.  1.
         23    2    1    2    0    0 -0.65615754855E+02 -0.67331785196E+01 -0.31360968162E+02  0.11799737431E+03  0.92677435451E+02 0.  0.
          5    1    1    2  502    0  0.11117872185E+02  0.56443991055E+02 -0.21592988065E+02  0.61589453169E+02  0.41800000000E+01 0. -1.
         -5    1    1    2    0  502  0.54497882670E+02 -0.49710812535E+02 -0.10408573107E+03  0.12764206168E+03  0.41800000000E+01 0. -1.
        -11    1    3    3    0    0 -0.37089755767E+02 -0.19029975295E+02 -0.61774327385E+02  0.74524207251E+02  0.00000000000E+00 0.  1.
         11    1    3    3    0    0 -0.28525999089E+02  0.12296796776E+02  0.30413359223E+02  0.43473167059E+02  0.00000000000E+00 0. -1.
</event>
<event>
 7    1  0.4096326E-006  0.8927953E+02  0.7561462E-02  0.1304606E+00
         -1   -1    0    0    0  501 -0.00000000000E+00  0.00000000000E+00  0.70347518675E+03  0.70347518675E+03  0.00000000000E+00 0.  1.
          1   -1    0    0  501    0  0.00000000000E+00 -0.00000000000E+00 -0.22583356605E+02  0.22583356605E+02  0.00000000000E+00 0. -1.
         23    2    1    2    0    0 -0.76544588577E+01 -0.61769994749E+02  0.27625096297E+03  0.29797453954E+03  0.92736770924E+02 0.  0.
          5    1    1    2  502    0  0.16639154261E+02  0.17433509249E+02  0.37037042870E+03  0.37117720237E+03  0.41800000000E+01 0.  1.
         -5    1    1    2    0  502 -0.89846954029E+01  0.44336485499E+02  0.34270438472E+02  0.56906801448E+02  0.41800000000E+01 0.  1.
        -11    1    3    3    0    0  0.37645084957E+02 -0.82254809667E+01  0.67099268192E+02  0.77376499989E+02  0.00000000000E+00 0.  1.
         11    1    3    3    0    0 -0.45299543815E+02 -0.53544513782E+02  0.20915169478E+03  0.22059803955E+03  0.00000000000E+00 0. -1.
</event>
<event>
 7    1  0.4096326E-006  0.1950859E+03  0.7561462E-02  0.1153953E+00
         -1   -1    0    0    0  501 -0.00000000000E+00  0.00000000000E+00  0.16887444513E+03  0.16887444513E+03  0.00000000000E+00 0.  1.
          1   -1    0    0  501    0  0.00000000000E+00 -0.00000000000E+00 -0.22953041848E+03  0.22953041848E+03  0.00000000000E+00 0. -1.
         23    2    1    2    0    0 -0.97980576412E+02  0.13130982385E+03 -0.46291209273E+02  0.19177343364E+03  0.88270666711E+02 0.  0.
          5    1    1    2  502    0  0.12426548847E+03 -0.80055100977E+02 -0.38508430009E+01  0.14792914591E+03  0.41800000000E+01 0. -1.
         -5    1    1    2    0  502 -0.26284912055E+02 -0.51254722871E+02 -0.10513921072E+02  0.58702284067E+02  0.41800000000E+01 0. -1.
        -11    1    3    3    0    0  0.11006761752E+02 -0.31577873991E+01 -0.93574132559E+01  0.14787887218E+02  0.00000000000E+00 0.  1.
         11    1    3    3    0    0 -0.10898733816E+03  0.13446761125E+03 -0.36933796017E+02  0.17698554642E+03  0.00000000000E+00 0. -1.
</event>
<event>
 7    1  0.4096326E-006  0.1356714E+03  0.7561462E-02  0.1219275E+00
         -1   -1    0    0    0  501 -0.00000000000E+00  0.00000000000E+00  0.74811300298E+03  0.74811300298E+03  0.00000000000E+00 0.  1.
          1   -1    0    0  501    0  0.00000000000E+00 -0.00000000000E+00 -0.33729707805E+02  0.33729707805E+02  0.00000000000E+00 0. -1.
         23    2    1    2    0    0 -0.89815483898E+02  0.30761816585E+02  0.15331585740E+03  0.19921367914E+03  0.84659478620E+02 0.  0.
          5    1    1    2  502    0  0.45765990072E+02 -0.78841300576E+02  0.34809934276E+03  0.35986261455E+03  0.41800000000E+01 0. -1.
         -5    1    1    2    0  502  0.44049493826E+02  0.48079483991E+02  0.21296809502E+03  0.22276641709E+03  0.41800000000E+01 0. -1.
        -11    1    3    3    0    0 -0.92408748364E+02  0.90198305245E+01  0.15091094316E+03  0.17718591051E+03  0.00000000000E+00 0. -1.
         11    1    3    3    0    0  0.25932644656E+01  0.21741986061E+02  0.24049142353E+01  0.22027768633E+02  0.00000000000E+00 0.  1.
</event>
<event>
 7    1  0.4096326E-006  0.7843319E+02  0.7561462E-02  0.1333558E+00
         -2   -1    0    0    0  501 -0.00000000000E+00  0.00000000000E+00  0.68600114255E+03  0.68600114255E+03  0.00000000000E+00 0. -1.
          2   -1    0    0  501    0  0.00000000000E+00 -0.00000000000E+00 -0.26139860273E+02  0.26139860273E+02  0.00000000000E+00 0.  1.
         23    2    1    2    0    0 -0.38211972584E+02 -0.17451869662E+02  0.12351563903E+03  0.15980159339E+03  0.92280623981E+02 0.  0.
          5    1    1    2  502    0 -0.49184261828E+01 -0.50618708897E+01 -0.44577652018E+01  0.93358193863E+01  0.41800000000E+01 0.  1.
         -5    1    1    2    0  502  0.43130398767E+02  0.22513740552E+02  0.54080340845E+03  0.54300359005E+03  0.41800000000E+01 0.  1.
        -11    1    3    3    0    0 -0.55647850875E+02  0.19505726527E+02  0.58872792993E+02  0.83325640886E+02  0.00000000000E+00 0.  1.
         11    1    3    3    0    0  0.17435878291E+02 -0.36957596189E+02  0.64642846036E+02  0.76475952505E+02  0.00000000000E+00 0. -1.
</event>
<event>
 7    1  0.4096326E-006  0.1200175E+03  0.7561462E-02  0.1243068E+00
         -3   -1    0    0    0  501 -0.00000000000E+00  0.00000000000E+00  0.25021390440E+02  0.25021390440E+02  0.00000000000E+00 0.  1.
          3   -1    0    0  501    0  0.00000000000E+00 -0.00000000000E+00 -0.64344670992E+03  0.64344670992E+03  0.00000000000E+00 0. -1.
         23    2    1    2    0    0 -0.54025513190E+02 -0.24446033841E+02 -0.34863733140E+03  0.36523680205E+03  0.91288378695E+02 0.  0.
          5    1    1    2  502    0 -0.29956773226E+02 -0.25438612138E+02 -0.60982634649E+02  0.72669700553E+02  0.41800000000E+01 0.  1.
         -5    1    1    2    0  502  0.83982286416E+02  0.49884645979E+02 -0.20880535343E+03  0.23056159775E+03  0.41800000000E+01 0.  1.
        -11    1    3    3    0    0 -0.46691679035E+02 -0.54523650571E+02 -0.29196066630E+03  0.30065590304E+03  0.00000000000E+00 0. -1.
         11    1    3    3    0    0 -0.73338341556E+01  0.30077616731E+02 -0.56676665091E+02  0.64580899014E+02  0.00000000000E+00 0.  1.
</event>
<event>
 7    1  0.4096326E-006  0.2116811E+03  0.7561462E-02  0.1140242E+00
         -3   -1    0    0    0  501 -0.00000000000E+00  0.00000000000E+00  0.72715582012E+02  0.72715582012E+02  0.00000000000E+00 0.  1.
          3   -1    0    0  501    0  0.00000000000E+00 -0.00000000000E+00 -0.76437934012E+03  0.76437934012E+03  0.00000000000E+00 0. -1.
         23    2    1    2    0    0 -0.45783530293E+02  0.19151999679E+03 -0.45968619292E+03  0.50810092190E+03  0.89883869856E+02 0.  0.
          5    1    1    2  502    0 -0.32007669618E+01 -0.12922086090E+03 -0.21003013190E+03  0.24665442325E+03  0.41800000000E+01 0.  1.
         -5    1    1    2    0  502  0.48984297255E+02 -0.62299135893E+02 -0.21947433292E+02  0.82339576989E+02  0.41800000000E+01 0.  1.
        -11    1    3    3    0    0 -0.69531627413E+02  0.11336207721E+03 -0.25221665607E+03  0.28512953085E+03  0.00000000000E+00 0.  1.
         11    1    3    3    0    0  0.23748097120E+02  0.78157919576E+02 -0.20746953684E+03  0.22297139105E+03  0.00000000000E+00 0. -1.
</event>
<event>
 7    1  0.4096326E-006  0.1106591E+03  0.7561462E-02  0.1259354E+00
          2   -1    0    0  501    0  0.00000000000E+00  0.00000000000E+00  0.95006245449E+03  0.95006245449E+03  0.00000000000E+00 0. -1.
         -2   -1    0    0    0  501 -0.00000000000E+00 -0.00000000000E+00 -0.29694898146E+02  0.29694898146E+02  0.00000000000E+00 0.  1.
         23    2    1    2    0    0 -0.49092261265E+02  0.31649166383E+02  0.33762239063E+03  0.35685196086E+03  0.99713206088E+02 0.  0.
          5    1    1    2  502    0  0.76420607566E+02 -0.47175476892E+02  0.58428375924E+03  0.59116040005E+03  0.41800000000E+01 0. -1.
         -5    1    1    2    0  502 -0.27328346301E+02  0.15526310510E+02 -0.15385935182E+01  0.31744991725E+02  0.41800000000E+01 0.  1.
        -11    1    3    3    0    0 -0.38061565975E+02 -0.22653389400E+02  0.65008733991E+02  0.78663805851E+02  0.00000000000E+00 0.  1.
         11    1    3    3    0    0 -0.11030695289E+02  0.54302555783E+02  0.27261365664E+03  0.27818815501E+03  0.00000000000E+00 0. -1.
</event>
<event>
 7    1  0.4096326E-006  0.2040525E+03  0.7561462E-02  0.1146364E+00
          1   -1    0    0  501    0  0.00000000000E+00  0.00000000000E+00  0.61995112692E+03  0.61995112692E+03  0.00000000000E+00 0. -1.
         -1   -1    0    0    0  501 -0.00000000000E+00 -0.00000000000E+00 -0.13441337360E+03  0.13441337360E+03  0.00000000000E+00 0.  1.
         23    2    1    2    0    0  0.65955458925E+02 -0.18604788013E+03  0.47315970538E+03  0.52034988024E+03  0.88994127969E+02 0.  0.
          5    1    1    2  502    0 -0.32705483716E+01  0.10386890377E+03 -0.47667985951E+02  0.11440784476E+03  0.41800000000E+01 0. -1.
         -5    1    1    2    0  502 -0.62684910554E+02  0.82178976356E+02  0.60046033896E+02  0.11960677553E+03  0.41800000000E+01 0. -1.
        -11    1    3    3    0    0  0.10612506960E+02 -0.83125943789E+02  0.29972715397E+03  0.31122164877E+03  0.00000000000E+00 0. -1.
         11    1    3    3    0    0  0.55342951965E+02 -0.10292193634E+03  0.17343255141E+03  0.20912823147E+03  0.00000000000E+00 0.  1.
</event>
<event>
 6    1  0.6708145E-006  0.5973781E+02  0.7561462E-02  0.1398935E+00
          2   -1    0    0  501    0  0.00000000000E+00  0.00000000000E+00  0.27764769547E+02  0.27764769547E+02  0.00000000000E+00 0. -1.
         -2   -1    0    0    0  501 -0.00000000000E+00 -0.00000000000E+00 -0.28266425571E+03  0.28266425571E+03  0.00000000000E+00 0.  1.
          5    1    1    2  502    0 -0.42487891105E+02  0.22440671842E+02 -0.16191688916E+02  0.50876790713E+02  0.41800000000E+01 0. -1.
         -5    1    1    2    0  502  0.20195763956E+02 -0.20370683699E+02 -0.19414222751E+03  0.19629444857E+03  0.41800000000E+01 0.  1.
        -11    1    1    2    0    0 -0.71902784510E+01  0.83199912973E+01 -0.22348138289E+02  0.24907060131E+02  0.00000000000E+00 0.  1.
         11    1    1    2    0    0  0.29482405599E+02 -0.10389979441E+02 -0.22217431446E+02  0.38350725844E+02  0.00000000000E+00 0. -1.
</event>
<event>
 7    1  0.4096326E-006  0.2008114E+03  0.7561462E-02  0.1149056E+00
          3   -1    0    0  501    0  0.00000000000E+00  0.00000000000E+00  0.14537007049E+03  0.14537007049E+03  0.00000000000E+00 0. -1.
         -3   -1    0    0    0  501 -0.00000000000E+00 -0.00000000000E+00 -0.35029672000E+03  0.35029672000E+03  0.00000000000E+00 0.  1.
         23    2    1    2    0    0  0.85142924749E+02 -0.15420104072E+03 -0.22248486225E+01  0.19941883615E+03  0.93464665324E+02 0.  0.
          5    1    1    2  502    0 -0.10841182236E+03  0.12144689281E+03 -0.19677288476E+03  0.25542026462E+03  0.41800000000E+01 0.  1.
         -5    1    1    2    0  502  0.23268897612E+02  0.32754147915E+02 -0.59289161210E+01  0.40827689723E+02  0.41800000000E+01 0.  1.
        -11    1    3    3    0    0  0.76886561273E+02 -0.45451818341E+02 -0.11064115760E+02  0.89999031953E+02  0.00000000000E+00 0.  1.
         11    1    3    3    0    0  0.82563634755E+01 -0.10874922238E+03  0.88392671371E+01  0.10941980419E+03  0.00000000000E+00 0. -1.
</event>
<event>
 7    1  0.4096326E-006  0.1027665E+03  0.7561462E-02  0.1274584E+00
         -1   -1    0    0    0  501 -0.00000000000E+00  0.00000000000E+00  0.55357954135E+02  0.55357954135E+02  0.00000000000E+00 0.  1.
          1   -1    0    0  501    0  0.00000000000E+00 -0.00000000000E+00 -0.24784446391E+03  0.24784446391E+03  0.00000000000E+00 0. -1.
         23    2    1    2    0    0  0.29594814159E+02 -0.61663885099E+01 -0.12658545114E+03  0.15861954031E+03  0.90677476564E+02 0.  0.
          5    1    1    2  502    0  0.29964319660E+02 -0.42142156257E+02 -0.27510095989E+02  0.58720520842E+02  0.41800000000E+01 0.  1.
         -5    1    1    2    0  502 -0.59559133819E+02  0.48308544767E+02 -0.38390962653E+02  0.85862356898E+02  0.41800000000E+01 0.  1.
        -11    1    3    3    0    0  0.45761659682E+02  0.16817051774E+02 -0.12033019106E+03  0.12983180507E+03  0.00000000000E+00 0. -1.
         11    1    3    3    0    0 -0.16166845523E+02 -0.22983440283E+02 -0.62552600737E+01  0.28787735236E+02  0.00000000000E+00 0.  1.
</event>
<event>
 7    1  0.4096326E-006  0.1074427E+03  0.7561462E-02  0.1265380E+00
          1   -1    0    0  501    0  0.00000000000E+00  0.00000000000E+00  0.30497267158E+03  0.30497267158E+03  0.00000000000E+00 0. -1.
         -1   -1    0    0    0  501 -0.00000000000E+00 -0.00000000000E+00 -0.51329292075E+02  0.51329292075E+02  0.00000000000E+00 0.  1.
         23    2    1    2    0    0 -0.19195317665E+02 -0.29788684560E+02  0.18331392649E+03  0.20848547851E+03  0.92770540345E+02 0.  0.
          5    1    1    2  502    0  0.72490487056E+02  0.22563313807E+02  0.42770468491E+02  0.87239665397E+02  0.41800000000E+01 0. -1.
         -5    1    1    2    0  502 -0.53295169392E+02  0.72253707535E+01  0.27558984524E+02  0.60576819750E+02  0.41800000000E+01 0. -1.
        -11    1    3    3    0    0  0.29679646312E+02 -0.17700649282E+02  0.13257936579E+03  0.13700906037E+03  0.00000000000E+00 0. -1.
         11    1    3    3    0    0 -0.48874963977E+02 -0.12088035278E+02  0.50734560701E+02  0.71476418140E+02  0.00000000000E+00 0.  1.
</event>
<event>
 7    1  0.4096326E-006  0.1051751E+03  0.7561462E-02  0.1269775E+00
          1   -1    0    0  501    0  0.00000000000E+00  0.00000000000E+00  0.33661935444E+03  0.33661935444E+03  0.00000000000E+00 0. -1.
         -1   -1    0    0    0  501 -0.00000000000E+00 -0.00000000000E+00 -0.52269730404E+02  0.52269730404E+02  0.00000000000E+00 0.  1.
         23    2    1    2    0    0  0.51531901792E+02  0.45652191822E+02  0.17267177798E+03  0.20761849336E+03  0.92467488100E+02 0.  0.
          5    1    1    2  502    0 -0.25652733795E+02 -0.60132781030E+02  0.13041518184E+03  0.14594384591E+03  0.41800000000E+01 0.  1.
         -5    1    1    2    0  502 -0.25879167997E+02  0.14480589208E+02 -0.18737335785E+02  0.35326745566E+02  0.41800000000E+01 0.  1.
        -11    1    3    3    0    0 -0.20214294477E+02  0.37608660536E+02  0.56079386360E+02  0.70483520223E+02  0.00000000000E+00 0.  1.
         11    1    3    3    0    0  0.71746196269E+02  0.80435312863E+01  0.11659239162E+03  0.13713497314E+03  0.00000000000E+00 0. -1.
</event>
<event>
 7    1  0.4096326E-006  0.1177640E+03  0.7561462E-02  0.1246832E+00
         -2   -1    0    0    0  501 -0.00000000000E+00  0.00000000000E+00  0.75497269655E+02  0.75497269655E+02  0.00000000000E+00 0.  1.
          2   -1    0    0  501    0  0.00000000000E+00 -0.00000000000E+00 -0.22405291344E+03  0.22405291344E+03  0.00000000000E+00 0. -1.
         23    2    1    2    0    0  0.47366814472E+02 -0.35819654458E+02 -0.11173022101E+03  0.15614711110E+03  0.91496531403E+02 0.  0.
          5    1    1    2  502    0  0.30471564649E+02  0.45249326518E+02 -0.34830881758E+02  0.64858927886E+02  0.41800000000E+01 0. -1.
         -5    1    1    2    0  502 -0.77838379121E+02 -0.94296720604E+01 -0.19945410113E+01  0.78544144105E+02  0.41800000000E+01 0.  1.
        -11    1    3    3    0    0 -0.72500340075E+01 -0.46145844273E+02 -0.24591701752E+02  0.52789712368E+02  0.00000000000E+00 0.  1.
         11    1    3    3    0    0  0.54616848479E+02  0.10326189815E+02 -0.87138519259E+02  0.10335739873E+03  0.00000000000E+00 0. -1.
</event>
<event>
 7    1  0.4096326E-006  0.1577456E+03  0.7561462E-02  0.1191266E+00
         -3   -1    0    0    0  501 -0.00000000000E+00  0.00000000000E+00  0.33418315315E+03  0.33418315315E+03  0.00000000000E+00 0.  1.
          3   -1    0    0  501    0  0.00000000000E+00 -0.00000000000E+00 -0.10810408892E+03  0.10810408892E+03  0.00000000000E+00 0. -1.
         23    2    1    2    0    0  0.95453649784E+02  0.10758957412E+03  0.17471969191E+03  0.24487432092E+03  0.93539011053E+02 0.  0.
          5    1    1    2  502    0 -0.75048500252E+02 -0.90950417803E+02  0.91440764297E+02  0.14927538867E+03  0.41800000000E+01 0.  1.
         -5    1    1    2    0  502 -0.20405149533E+02 -0.16639156315E+02 -0.40081391976E+02  0.48137532478E+02  0.41800000000E+01 0.  1.
        -11    1    3    3    0    0  0.11264991182E+03  0.79395929866E+02  0.14941751837E+03  0.20327152065E+03  0.00000000000E+00 0. -1.
         11    1    3    3    0    0 -0.17196262037E+02  0.28193644252E+02  0.25302173541E+02  0.41602800268E+02  0.00000000000E+00 0.  1.
</event>
<event>
 7    1  0.4096326E-006  0.9972324E+02  0.7561462E-02  0.1280879E+00
          2   -1    0    0  501    0  0.00000000000E+00  0.00000000000E+00  0.17463304901E+03  0.17463304901E+03  0.00000000000E+00 0.  1.
         -2   -1    0    0    0  501 -0.00000000000E+00 -0.00000000000E+00 -0.15486048710E+03  0.15486048710E+03  0.00000000000E+00 0. -1.
         23    2    1    2    0    0  0.44677628507E+02  0.49408294284E+02  0.11403555327E+03  0.15928494377E+03  0.89052320959E+02 0.  0.
          5    1    1    2  502    0 -0.55304207035E+02  0.22029909591E+02 -0.12385627635E+02  0.60948735871E+02  0.41800000000E+01 0. -1.
         -5    1    1    2    0  502  0.10626578528E+02 -0.71438203875E+02 -0.81877363725E+02  0.10925985646E+03  0.41800000000E+01 0. -1.
        -11    1    3    3    0    0  0.27557478380E+02  0.37639966710E+02  0.34632586141E+01  0.46777942118E+02  0.00000000000E+00 0. -1.
         11    1    3    3    0    0  0.17120150127E+02  0.11768327575E+02  0.11057229466E+03  0.11250700165E+03  0.00000000000E+00 0.  1.
</event>
<event>
 7    1  0.4096326E-006  0.1681307E+03  0.7561462E-02  0.1179811E+00
         -1   -1    0    0    0  501 -0.00000000000E+00  0.00000000000E+00  0.16373915603E+03  0.16373915603E+03  0.00000000000E+00 0.  1.
          1   -1    0    0  501    0  0.00000000000E+00 -0.00000000000E+00 -0.21295402885E+03  0.21295402885E+03  0.00000000000E+00 0. -1.
         23    2    1    2    0    0 -0.13416987160E+03 -0.24422278433E+02 -0.94784198344E+02  0.19303155074E+03  0.98382585834E+02 0.  0.
          5    1    1    2  502    0 -0.13211461223E+01  0.39903544013E+02  0.10924150006E+01  0.40158486307E+02  0.41800000000E+01 0. -1.
         -5    1    1    2    0  502  0.13549101772E+03 -0.15481265581E+02  0.44476910524E+02  0.14350314783E+03  0.41800000000E+01 0.  1.
        -11    1    3    3    0    0 -0.15093861093E+02 -0.36982997369E+02  0.59610059275E+00  0.39948993391E+02  0.00000000000E+00 0.  1.
         11    1    3    3    0    0 -0.11907601051E+03  0.12560718936E+02 -0.95380298937E+02  0.15308255735E+03  0.00000000000E+00 0. -1.
</event>
<event>
 7    1  0.4096326E-006  0.1156364E+03  0.7561462E-02  0.1250474E+00
          1   -1    0    0  501    0  0.00000000000E+00  0.00000000000E+00  0.88737823322E+02  0.88737823322E+02  0.00000000000E+00 0. -1.
         -1   -1    0    0    0  501 -0.00000000000E+00 -0.00000000000E+00 -0.18390692081E+03  0.18390692081E+03  0.00000000000E+00 0.  1.
         23    2    1    2    0    0  0.48379177216E+02 -0.21170125201E+02  0.32774597651E+01  0.10493740082E+03  0.90622278495E+02 0.  0.
          5    1    1    2  502    0  0.26892684111E+01  0.61192326552E+02 -0.78585965663E+02  0.99724417233E+02  0.41800000000E+01 0. -1.
         -5    1    1    2    0  502 -0.51068445627E+02 -0.40022201350E+02 -0.19860591593E+02  0.67982926078E+02  0.41800000000E+01 0. -1.
        -11    1    3    3    0    0  0.69869762101E+02 -0.36147910862E+02  0.34392000553E+01  0.78741877123E+02  0.00000000000E+00 0.  1.
         11    1    3    3    0    0 -0.21490584885E+02  0.14977785661E+02 -0.16174029016E+00  0.26195523700E+02  0.00000000000E+00 0. -1.
</event>
<event>
 7    1  0.4096326E-006  0.1108866E+03  0.7561462E-02  0.1258937E+00
          1   -1    0    0  501    0  0.00000000000E+00  0.00000000000E+00  0.28767100953E+03  0.28767100953E+03  0.00000000000E+00 0. -1.
         -1   -1    0    0    0  501 -0.00000000000E+00 -0.00000000000E+00 -0.94768681513E+02  0.94768681513E+02  0.00000000000E+00 0.  1.
         23    2    1    2    0    0 -0.34436748086E+02  0.26751901158E+02  0.22439970554E+03  0.24627317827E+03  0.91617119865E+02 0.  0.
          5    1    1    2  502    0  0.21057613568E+02  0.43591896815E+02  0.14800202243E+02  0.50795619333E+02  0.41800000000E+01 0. -1.
         -5    1    1    2    0  502  0.13379134519E+02 -0.70343797972E+02 -0.46297579772E+02  0.85370893438E+02  0.41800000000E+01 0. -1.
        -11    1    3    3    0    0 -0.22986990135E+02  0.61082795288E+02  0.14606207343E+03  0.15998012030E+03  0.00000000000E+00 0. -1.
         11    1    3    3    0    0 -0.11449757951E+02 -0.34330894130E+02  0.78337632114E+02  0.86293057972E+02  0.00000000000E+00 0.  1.
</event>
<event>
 7    1  0.4096326E-006  0.1574285E+03  0.7561462E-02  0.1191631E+00
          1   -1    0    0  501    0  0.00000000000E+00  0.00000000000E+00  0.47122608945E+03  0.47122608945E+03  0.00000000000E+00 0. -1.
         -1   -1    0    0    0  501 -0.00000000000E+00 -0.00000000000E+00 -0.53294518543E+02  0.53294518543E+02  0.00000000000E+00 0.  1.
         23    2    1    2    0    0  0.22096223363E+02  0.11234597752E+03  0.21529847840E+03  0.26028369377E+03  0.91018155800E+02 0.  0.
          5    1    1    2  502    0 -0.71815014856E+02 -0.86841997268E+02  0.12305628769E+03  0.16691090794E+03  0.41800000000E+01 0.  1.
         -5    1    1    2    0  502  0.49718791493E+02 -0.25503980255E+02  0.79576804807E+02  0.97326006286E+02  0.41800000000E+01 0.  1.
        -11    1    3    3    0    0  0.44472526291E+02  0.16186349797E+02  0.76432483656E+02  0.89898431979E+02  0.00000000000E+00 0.  1.
         11    1    3    3    0    0 -0.22376302928E+02  0.96159627725E+02  0.13886599475E+03  0.17038526179E+03  0.00000000000E+00 0. -1.
</event>
<event>
 7    1  0.4096326E-006  0.7912802E+02  0.7561462E-02  0.1331544E+00
         -4   -1    0    0    0  501 -0.00000000000E+00  0.00000000000E+00  0.28972458323E+03  0.28972458323E+03  0.00000000000E+00 0.  1.
          4   -1    0    0  501    0  0.00000000000E+00 -0.00000000000E+00 -0.58525425490E+02  0.58525425490E+02  0.00000000000E+00 0. -1.
         23    2    1    2    0    0  0.24188867482E+02 -0.33822589395E+02  0.22429185270E+02  0.10599369737E+03  0.94881645570E+02 0.  0.
          5    1    1    2  502    0  0.10261665761E+02 -0.24551567552E+02  0.49066501470E+01  0.27379351145E+02  0.41800000000E+01 0. -1.
         -5    1    1    2    0  502 -0.34450533243E+02  0.58374156947E+02  0.20386332232E+03  0.21487696020E+03  0.41800000000E+01 0.  1.
        -11    1    3    3    0    0 -0.49160532320E+01 -0.33950015041E+02  0.53415238255E+02  0.63481956322E+02  0.00000000000E+00 0.  1.
         11    1    3    3    0    0  0.29104920714E+02  0.12742564556E+00 -0.30986052985E+02  0.42511741044E+02  0.00000000000E+00 0. -1.
</event>
<event>
 7    1  0.4096326E-006  0.1006152E+03  0.7561462E-02  0.1279007E+00
         -2   -1    0    0    0  501 -0.00000000000E+00  0.00000000000E+00  0.10826487355E+03  0.10826487355E+03  0.00000000000E+00 0.  1.
          2   -1    0    0  501    0  0.00000000000E+00 -0.00000000000E+00 -0.15438769683E+03  0.15438769683E+03  0.00000000000E+00 0. -1.
         23    2    1    2    0    0  0.56196885160E+02 -0.30894724737E+02 -0.50612764596E+02  0.12200018692E+03  0.90608055660E+02 0.  0.
          5    1    1    2  502    0 -0.35880890447E+02  0.63233479557E+02  0.44370457673E+02  0.85276732761E+02  0.41800000000E+01 0.  1.
         -5    1    1    2    0  502 -0.20315994713E+02 -0.32338754821E+02 -0.39880516358E+02  0.55375650692E+02  0.41800000000E+01 0.  1.
        -11    1    3    3    0    0 -0.13175271210E+02 -0.12629710158E+02 -0.46719962499E+02  0.50158271960E+02  0.00000000000E+00 0. -1.
         11    1    3    3    0    0  0.69372156370E+02 -0.18265014579E+02 -0.38928020973E+01  0.71841914961E+02  0.00000000000E+00 0.  1.
</event>
<event>
 7    1  0.4096326E-006  0.1303771E+03  0.7561462E-02  0.1226897E+00
          2   -1    0    0  501    0  0.00000000000E+00  0.00000000000E+00  0.70299374735E+03  0.70299374735E+03  0.00000000000E+00 0. -1.
         -2   -1    0    0    0  501 -0.00000000000E+00 -0.00000000000E+00 -0.31394742169E+02  0.31394742169E+02  0.00000000000E+00 0.  1.
         23    2    1    2    0    0 -0.77919042702E+02  0.44941912739E+02  0.42354419159E+03  0.44238167747E+03  0.90668150904E+02 0.  0.
          5    1    1    2  502    0  0.53567221281E+02  0.25625681042E+02  0.42129297792E+02  0.72927860637E+02  0.41800000000E+01 0. -1.
         -5    1    1    2    0  502  0.24351821421E+02 -0.70567593781E+02  0.20592551579E+03  0.21907895141E+03  0.41800000000E+01 0. -1.
        -11    1    3    3    0    0 -0.16930297272E+02  0.61069582218E+02  0.24323654305E+03  0.25135660866E+03  0.00000000000E+00 0. -1.
         11    1    3    3    0    0 -0.60988745430E+02 -0.16127669479E+02  0.18030764854E+03  0.19102506881E+03  0.00000000000E+00 0.  1.
</event>
<event>
 7    1  0.4096326E-006  0.1871119E+03  0.7561462E-02  0.1161092E+00
         -1   -1    0    0    0  501 -0.00000000000E+00  0.00000000000E+00  0.22249280743E+03  0.22249280743E+03  0.00000000000E+00 0.  1.
          1   -1    0    0  501    0  0.00000000000E+00 -0.00000000000E+00 -0.18482836792E+03  0.18482836792E+03  0.00000000000E+00 0. -1.
         23    2    1    2    0    0 -0.41658924282E+02 -0.13765309442E+03 -0.13462004888E+02  0.17139482207E+03  0.92255726538E+02 0.  0.
          5    1    1    2  502    0 -0.39674939783E+02 -0.25861206847E+02  0.13431022645E+02  0.49404125695E+02  0.41800000000E+01 0. -1.
         -5    1    1    2    0  502  0.81333864065E+02  0.16351430127E+03  0.37695421751E+02  0.18652222759E+03  0.41800000000E+01 0.  1.
        -11    1    3    3    0    0 -0.29477859739E+02 -0.85109419416E+02  0.37149662145E+02  0.97430256521E+02  0.00000000000E+00 0.  1.
         11    1    3    3    0    0 -0.12181064543E+02 -0.52543675007E+02 -0.50611667032E+02  0.73964565546E+02  0.00000000000E+00 0. -1.
</event>
<event>
 7    1  0.4096326E-006  0.8766785E+02  0.7561462E-02  0.1308600E+00
         -2   -1    0    0    0  501 -0.00000000000E+00  0.00000000000E+00  0.62535253233E+02  0.62535253233E+02  0.00000000000E+00 0.  1.
          2   -1    0    0  501    0  0.00000000000E+00 -0.00000000000E+00 -0.21289967444E+03  0.21289967444E+03  0.00000000000E+00 0. -1.
         23    2    1    2    0    0  0.85732312506E+01  0.19131669877E+02 -0.10650034541E+03  0.14123037095E+03  0.90355813418E+02 0.  0.
          5    1    1    2  502    0 -0.18134048712E+01  0.44291112445E+02 -0.53455856769E+02  0.69570051759E+02  0.41800000000E+01 0.  1.
         -5    1    1    2    0  502 -0.67598263795E+01 -0.63422782322E+02  0.95917809749E+01  0.64634504968E+02  0.41800000000E+01 0.  1.
        -11    1    3    3    0    0 -0.16419705692E+02 -0.16559578302E+02 -0.92605448799E+02  0.95496573320E+02  0.00000000000E+00 0. -1.
         11    1    3    3    0    0  0.24992936942E+02  0.35691248179E+02 -0.13894896616E+02  0.45733797629E+02  0.00000000000E+00 0.  1.
</event>
<event>
 7    1  0.4096326E-006  0.9457222E+02  0.7561462E-02  0.1292142E+00
          2   -1    0    0  501    0  0.00000000000E+00  0.00000000000E+00  0.28493744149E+03  0.28493744149E+03  0.00000000000E+00 0. -1.
         -2   -1    0    0    0  501 -0.00000000000E+00 -0.00000000000E+00 -0.53686015593E+02  0.53686015593E+02  0.00000000000E+00 0.  1.
         23    2    1    2    0    0  0.47234811886E+02  0.36896207766E+02  0.10907908517E+03  0.15377900842E+03  0.90317656115E+02 0.  0.
          5    1    1    2  502    0  0.11803555918E+02 -0.45837957338E+01 -0.21975099530E+02  0.25704328721E+02  0.41800000000E+01 0. -1.
         -5    1    1    2    0  502 -0.59038367804E+02 -0.32312412032E+02  0.14414744026E+03  0.15914011995E+03  0.41800000000E+01 0. -1.
        -11    1    3    3    0    0  0.45058491352E+02 -0.21511181268E+02  0.48844297098E+02  0.69848149019E+02  0.00000000000E+00 0. -1.
         11    1    3    3    0    0  0.21763205343E+01  0.58407389034E+02  0.60234788073E+02  0.83930859396E+02  0.00000000000E+00 0.  1.
</event>
<event>
 7    1  0.4096326E-006  0.1492594E+03  0.7561462E-02  0.1201386E+00
         -4   -1    0    0    0  501 -0.00000000000E+00  0.00000000000E+00  0.40069713794E+03  0.40069713794E+03  0.00000000000E+00 0.  1.
          4   -1    0    0  501    0  0.00000000000E+00 -0.00000000000E+00 -0.69214931517E+02  0.69214931517E+02  0.00000000000E+00 0. -1.
         23    2    1    2    0    0  0.23767433978E+02  0.12333355398E+03  0.16058460833E+03  0.22367501413E+03  0.92016515138E+02 0.  0.
          5    1    1    2  502    0 -0.34251283984E+02 -0.13226549797E+03  0.18231355784E+03  0.22786622870E+03  0.41800000000E+01 0.  1.
         -5    1    1    2    0  502  0.10483850006E+02  0.89319439878E+01 -0.11415959745E+02  0.18370826635E+02  0.41800000000E+01 0.  1.
        -11    1    3    3    0    0  0.46839172584E+02  0.11266678291E+03  0.15566348125E+03  0.19778481098E+03  0.00000000000E+00 0.  1.
         11    1    3    3    0    0 -0.23071738606E+02  0.10666771074E+02  0.49211270788E+01  0.25890203151E+02  0.00000000000E+00 0. -1.
</event>
<event>
 7    1  0.4096326E-006  0.2758005E+03  0.7561462E-02  0.1098005E+00
         -4   -1    0    0    0  501 -0.00000000000E+00  0.00000000000E+00  0.94909215784E+03  0.94909215784E+03  0.00000000000E+00 0.  1.
          4   -1    0    0  501    0  0.00000000000E+00 -0.00000000000E+00 -0.12698184494E+03  0.12698184494E+03  0.00000000000E+00 0. -1.
         23    2    1    2    0    0 -0.87895326985E+01 -0.26414371215E+03  0.10020576042E+03  0.29720138441E+03  0.91860284780E+02 0.  0.
          5    1    1    2  502    0 -0.49563862305E+02  0.14072673671E+03  0.29430947575E+03  0.32999413751E+03  0.41800000000E+01 0. -1.
         -5    1    1    2    0  502  0.58353395004E+02  0.12341697544E+03  0.42759507674E+03  0.44887848087E+03  0.41800000000E+01 0. -1.
        -11    1    3    3    0    0 -0.18357581318E+02 -0.13176216163E+03  0.96632175411E+02  0.16442641319E+03  0.00000000000E+00 0.  1.
         11    1    3    3    0    0  0.95680486200E+01 -0.13238155053E+03  0.35735850073E+01  0.13277497123E+03  0.00000000000E+00 0. -1.
</event>
<event>
 7    1  0.4096326E-006  0.1108068E+03  0.7561462E-02  0.1259083E+00
          1   -1    0    0  501    0  0.00000000000E+00  0.00000000000E+00  0.41277475737E+02  0.41277475737E+02  0.00000000000E+00 0. -1.
         -1   -1    0    0    0  501 -0.00000000000E+00 -0.00000000000E+00 -0.57528129345E+03  0.57528129345E+03  0.00000000000E+00 0.  1.
         23    2    1    2    0    0  0.64097103197E+02 -0.42178663434E+02 -0.93847239343E+02  0.15258299397E+03  0.92664920166E+02 0.  0.
          5    1    1    2  502    0  0.28640188852E+02 -0.17847101147E+02 -0.14114541275E+03  0.14518360574E+03  0.41800000000E+01 0. -1.
         -5    1    1    2    0  502 -0.92737292049E+02  0.60025764582E+02 -0.29901116563E+03  0.31879216948E+03  0.41800000000E+01 0. -1.
        -11    1    3    3    0    0  0.45824889406E+02 -0.33905378136E+02 -0.11190918002E+03  0.12559124065E+03  0.00000000000E+00 0.  1.
         11    1    3    3    0    0  0.18272213791E+02 -0.82732852983E+01  0.18061940674E+02  0.26991753322E+02  0.00000000000E+00 0. -1.
</event>
<event>
 7    1  0.4096326E-006  0.1031001E+03  0.7561462E-02  0.1273909E+00
          1   -1    0    0  501    0  0.00000000000E+00  0.00000000000E+00  0.74951372194E+02  0.74951372194E+02  0.00000000000E+00 0. -1.
         -1   -1    0    0    0  501 -0.00000000000E+00 -0.00000000000E+00 -0.24403086724E+03  0.24403086724E+03  0.00000000000E+00 0.  1.
         23    2    1    2    0    0  0.77498359605E+02  0.84823311777E+01 -0.81377261325E+02  0.14746843107E+03  0.95114319731E+02 0.  0.
          5    1    1    2  502    0 -0.11964627994E+02  0.25273304129E+02 -0.93278011536E+02  0.97468723500E+02  0.41800000000E+01 0.  1.
         -5    1    1    2    0  502 -0.65533731611E+02 -0.33755635307E+02  0.55757778158E+01  0.74045084861E+02  0.41800000000E+01 0.  1.
        -11    1    3    3    0    0  0.11827515804E+02 -0.26979806886E+02 -0.64559884278E+02  0.70963221232E+02  0.00000000000E+00 0.  1.
         11    1    3    3    0    0  0.65670843802E+02  0.35462138064E+02 -0.16817377047E+02  0.76505209838E+02  0.00000000000E+00 0. -1.
</event>
<event>
 7    1  0.4096326E-006  0.7858411E+02  0.7561462E-02  0.1333118E+00
         -2   -1    0    0    0  501 -0.00000000000E+00  0.00000000000E+00  0.25214349800E+02  0.25214349800E+02  0.00000000000E+00 0.  1.
          2   -1    0    0  501    0  0.00000000000E+00 -0.00000000000E+00 -0.44275377776E+03  0.44275377776E+03  0.00000000000E+00 0. -1.
         23    2    1    2    0    0 -0.16938176805E+02 -0.22420946669E+01 -0.25045827315E+03  0.26668852766E+03  0.90008307264E+02 0.  0.
          5    1    1    2  502    0  0.39216532677E+02 -0.93129286918E+01 -0.17082276489E+03  0.17556353972E+03  0.41800000000E+01 0. -1.
         -5    1    1    2    0  502 -0.22278355872E+02  0.11555023359E+02  0.37416100731E+01  0.25716060178E+02  0.41800000000E+01 0.  1.
        -11    1    3    3    0    0 -0.52451430837E+02  0.10463270275E+02 -0.15914478316E+03  0.16789191353E+03  0.00000000000E+00 0.  1.
         11    1    3    3    0    0  0.35513254032E+02 -0.12705364942E+02 -0.91313489989E+02  0.98796614134E+02  0.00000000000E+00 0. -1.
</event>
<event>
 7    1  0.4096326E-006  0.1047802E+03  0.7561462E-02  0.1270553E+00
         -2   -1    0    0    0  501 -0.00000000000E+00  0.00000000000E+00  0.11769545466E+03  0.11769545466E+03  0.00000000000E+00 0.  1.
          2   -1    0    0  501    0  0.00000000000E+00 -0.00000000000E+00 -0.18486655281E+03  0.18486655281E+03  0.00000000000E+00 0. -1.
         23    2    1    2    0    0 -0.29404209974E+02 -0.70249061591E+01 -0.12681366974E+03  0.15901457015E+03  0.91049271358E+02 0.  0.
          5    1    1    2  502    0 -0.26578644561E+02  0.44744882805E+02 -0.17000681453E+01  0.52238793206E+02  0.41800000000E+01 0. -1.
         -5    1    1    2    0  502  0.55982854535E+02 -0.37719976646E+02  0.61342639735E+02  0.91308644113E+02  0.41800000000E+01 0.  1.
        -11    1    3    3    0    0  0.27045334442E+02 -0.17622015402E+02 -0.75039508579E+02  0.81687902346E+02  0.00000000000E+00 0.  1.
         11    1    3    3    0    0 -0.56449544416E+02  0.10597109242E+02 -0.51774161163E+02  0.77326667801E+02  0.00000000000E+00 0. -1.
</event>
<event>
 7    1  0.4096326E-006  0.1189386E+03  0.7561462E-02  0.1244858E+00
         -3   -1    0    0    0  501 -0.00000000000E+00  0.00000000000E+00  0.18309962866E+03  0.18309962866E+03  0.00000000000E+00 0.  1.
          3   -1    0    0  501    0  0.00000000000E+00 -0.00000000000E+00 -0.92966897508E+02  0.92966897508E+02  0.00000000000E+00 0. -1.
         23    2    1    2    0    0  0.61155816224E+02  0.23268656459E+02  0.99096482762E+01  0.11368959772E+03  0.92442735079E+02 0.  0.
          5    1    1    2  502    0 -0.88999282077E+02  0.31903375536E+01  0.85324151567E+02  0.12340475560E+03  0.41800000000E+01 0.  1.
         -5    1    1    2    0  502  0.27843465853E+02 -0.26458994013E+02 -0.51010686910E+01  0.38972172851E+02  0.41800000000E+01 0.  1.
        -11    1    3    3    0    0  0.13689890005E+02 -0.33440081937E+02  0.15937248886E+02  0.39492379903E+02  0.00000000000E+00 0.  1.
         11    1    3    3    0    0  0.47465926219E+02  0.56708738397E+02 -0.60276006102E+01  0.74197217815E+02  0.00000000000E+00 0. -1.
</event>
<event>
 7    1  0.4096326E-006  0.1499093E+03  0.7561462E-02  0.1200584E+00
          2   -1    0    0  501    0  0.00000000000E+00  0.00000000000E+00  0.78060973823E+03  0.78060973823E+03  0.00000000000E+00 0. -1.
         -2   -1    0    0    0  501 -0.00000000000E+00 -0.00000000000E+00 -0.31345756954E+02  0.31345756954E+02  0.00000000000E+00 0.  1.
         23    2    1    2    0    0  0.76201157300E+02  0.79415387968E+02  0.40459127386E+03  0.42912339651E+03  0.91320152921E+02 0.  0.
          5    1    1    2  502    0 -0.98370830479E+02 -0.27816364886E+02  0.16135087146E+03  0.19105534948E+03  0.41800000000E+01 0. -1.
         -5    1    1    2    0  502  0.22169673179E+02 -0.51599023082E+02  0.18332183595E+03  0.19177674919E+03  0.41800000000E+01 0. -1.
        -11    1    3    3    0    0  0.62348013497E+02  0.99122609499E+02  0.35812920711E+03  0.37678786536E+03  0.00000000000E+00 0. -1.
         11    1    3    3    0    0  0.13853143803E+02 -0.19707221531E+02  0.46462066755E+02  0.52335531151E+02  0.00000000000E+00 0.  1.
</event>
<event>
 7    1  0.4096326E-006  0.8159138E+02  0.7561462E-02  0.1324595E+00
         -2   -1    0    0    0  501 -0.00000000000E+00  0.00000000000E+00  0.17677590088E+03  0.17677590088E+03  0.00000000000E+00 0.  1.
          2   -1    0    0  501    0  0.00000000000E+00 -0.00000000000E+00 -0.75381976996E+02  0.75381976996E+02  0.00000000000E+00 0. -1.
         23    2    1    2    0    0  0.12718826607E+02  0.17841682629E+02  0.87236490062E+01  0.94946955058E+02  0.91971343545E+02 0.  0.
          5    1    1    2  502    0 -0.34280179331E+02  0.44745974999E+02  0.23021083766E+02  0.61030940279E+02  0.41800000000E+01 0. -1.
         -5    1    1    2    0  502  0.21561352724E+02 -0.62587657628E+02  0.69649191112E+02  0.96179982539E+02  0.41800000000E+01 0. -1.
        -11    1    3    3    0    0 -0.58215853652E+01  0.20761198321E+02  0.47335506763E+02  0.52015078702E+02  0.00000000000E+00 0.  1.
         11    1    3    3    0    0  0.18540411972E+02 -0.29195156921E+01 -0.38611857757E+02  0.42931876356E+02  0.00000000000E+00 0. -1.
</event>
<event>
 7    1  0.4096326E-006  0.9796877E+02  0.7561462E-02  0.1284626E+00
         -2   -1    0    0    0  501 -0.00000000000E+00  0.00000000000E+00  0.75192192837E+02  0.75192192837E+02  0.00000000000E+00 0.  1.
          2   -1    0    0  501    0  0.00000000000E+00 -0.00000000000E+00 -0.18865081805E+03  0.18865081805E+03  0.00000000000E+00 0. -1.
         23    2    1    2    0    0 -0.38604087664E+01 -0.41425316303E+01 -0.10375615163E+03  0.13824809452E+03  0.91187352817E+02 0.  0.
          5    1    1    2  502    0 -0.42671450602E+02  0.44887944792E+02  0.36517812167E+01  0.62181896000E+02  0.41800000000E+01 0.  1.
         -5    1    1    2    0  502  0.46531859368E+02 -0.40745413161E+02 -0.13354254793E+02  0.63413020359E+02  0.41800000000E+01 0.  1.
        -11    1    3    3    0    0 -0.11582608008E+02 -0.36662068429E+02 -0.11511129155E+02  0.40134401256E+02  0.00000000000E+00 0.  1.
         11    1    3    3    0    0  0.77221992419E+01  0.32519536799E+02 -0.92245022478E+02  0.98113693268E+02  0.00000000000E+00 0. -1.
</event>
<event>
 7    1  0.4096326E-006  0.1122896E+03  0.7561462E-02  0.1256388E+00
         -1   -1    0    0    0  501 -0.00000000000E+00  0.00000000000E+00  0.35877820289E+02  0.35877820289E+02  0.00000000000E+00 0.  1.
          1   -1    0    0  501    0  0.00000000000E+00 -0.00000000000E+00 -0.37713152365E+03  0.37713152365E+03  0.00000000000E+00 0. -1.
         23    2    1    2    0    0 -0.15345069430E+02 -0.41263794702E+02 -0.15973535984E+03  0.18821005602E+03  0.89271877396E+02 0.  0.
          5    1    1    2  502    0  0.63463073797E+02  0.52779254157E+02 -0.12073402337E+03  0.14631263857E+03  0.41800000000E+01 0.  1.
         -5    1    1    2    0  502 -0.48118004367E+02 -0.11515459455E+02 -0.60784320147E+02  0.78486649352E+02  0.41800000000E+01 0.  1.
        -11    1    3    3    0    0  0.17865968682E+02 -0.53869834225E+02 -0.13012792528E+03  0.14196629464E+03  0.00000000000E+00 0. -1.
         11    1    3    3    0    0 -0.33211038112E+02  0.12606039523E+02 -0.29607434557E+02  0.46243761374E+02  0.00000000000E+00 0.  1.
</event>
<event>
 7    1  0.4096326E-006  0.9838078E+02  0.7561462E-02  0.1283738E+00
          1   -1    0    0  501    0  0.00000000000E+00  0.00000000000E+00  0.74602883014E+02  0.74602883014E+02  0.00000000000E+00 0. -1.
         -1   -1    0    0    0  501 -0.00000000000E+00 -0.00000000000E+00 -0.30323091441E+03  0.30323091441E+03  0.00000000000E+00 0.  1.
         23    2    1    2    0    0  0.67750345210E+02 -0.13078616091E+02 -0.15395736850E+02  0.12117048997E+03  0.98407822100E+02 0.  0.
          5    1    1    2  502    0  0.52594872691E+01  0.36926874646E+02 -0.92442870302E+01  0.38654695966E+02  0.41800000000E+01 0. -1.
         -5    1    1    2    0  502 -0.73009832480E+02 -0.23848258555E+02 -0.20398800752E+03  0.21800861150E+03  0.41800000000E+01 0. -1.
        -11    1    3    3    0    0  0.27337730116E+02 -0.28091204001E+02 -0.51651395418E+02  0.64840834964E+02  0.00000000000E+00 0.  1.
         11    1    3    3    0    0  0.40412615094E+02  0.15012587910E+02  0.36255658568E+02  0.56329655002E+02  0.00000000000E+00 0. -1.
</event>
<event>
 7    1  0.4096326E-006  0.1209548E+03  0.7561462E-02  0.1241530E+00
         -2   -1    0    0    0  501 -0.00000000000E+00  0.00000000000E+00  0.10615322160E+03  0.10615322160E+03  0.00000000000E+00 0.  1.
          2   -1    0    0  501    0  0.00000000000E+00 -0.00000000000E+00 -0.18784199357E+03  0.18784199357E+03  0.00000000000E+00 0. -1.
         23    2    1    2    0    0  0.43441229984E+02  0.77220290289E+02 -0.53590759310E+02  0.13814322472E+03  0.91441059479E+02 0.  0.
          5    1    1    2  502    0 -0.80760167414E+01  0.23594164196E+02 -0.40986405849E+02  0.48158742664E+02  0.41800000000E+01 0. -1.
         -5    1    1    2    0  502 -0.35365213242E+02 -0.10081445449E+03  0.12888393190E+02  0.10769324779E+03  0.41800000000E+01 0. -1.
        -11    1    3    3    0    0  0.35029972021E+00  0.64880461782E+02 -0.65053307714E+02  0.91877798599E+02  0.00000000000E+00 0. -1.
         11    1    3    3    0    0  0.43090930264E+02  0.12339828507E+02  0.11462548403E+02  0.46265426124E+02  0.00000000000E+00 0.  1.
</event>
<event>
 7    1  0.4096326E-006  0.5941801E+02  0.7561462E-02  0.1400290E+00
          4   -1    0    0  501    0  0.00000000000E+00  0.00000000000E+00  0.33499654208E+03  0.33499654208E+03  0.00000000000E+00 0. -1.
         -4   -1    0    0    0  501 -0.00000000000E+00 -0.00000000000E+00 -0.36734085869E+02  0.36734085869E+02  0.00000000000E+00 0.  1.
         23    2    1    2    0    0 -0.22359715021E+02 -0.14034660690E+01  0.12240310553E+03  0.15475939285E+03  0.92010993150E+02 0.  0.
          5    1    1    2  502    0  0.12742758218E+02 -0.12784303434E+02 -0.15892042844E+02  0.24409951394E+02  0.41800000000E+01 0. -1.
         -5    1    1    2    0  502  0.96169568028E+01  0.14187769503E+02  0.19175139353E+03  0.19256128371E+03  0.41800000000E+01 0. -1.
        -11    1    3    3    0    0 -0.15026100466E+02 -0.40338365330E+02  0.25409782526E+02  0.49986242715E+02  0.00000000000E+00 0.  1.
         11    1    3    3    0    0 -0.73336145547E+01  0.38934899261E+02  0.96993323000E+02  0.10477315014E+03  0.00000000000E+00 0. -1.
</event>
<event>
 7    1  0.4096326E-006  0.1065096E+03  0.7561462E-02  0.1267174E+00
         -1   -1    0    0    0  501 -0.00000000000E+00  0.00000000000E+00  0.67049923909E+03  0.67049923909E+03  0.00000000000E+00 0.  1.
          1   -1    0    0  501    0  0.00000000000E+00 -0.00000000000E+00 -0.32575302017E+02  0.32575302017E+02  0.00000000000E+00 0. -1.
         23    2    1    2    0    0 -0.54647327545E+02 -0.81448228438E+02  0.22698450345E+03  0.26246308679E+03  0.88004333980E+02 0.  0.
          5    1    1    2  502    0  0.57333097512E+02  0.58285688538E+02  0.10211039290E+03  0.13087517067E+03  0.41800000000E+01 0. -1.
         -5    1    1    2    0  502 -0.26857699675E+01  0.23162539900E+02  0.30882904072E+03  0.30973628364E+03  0.41800000000E+01 0. -1.
        -11    1    3    3    0    0 -0.82068309093E+01 -0.51625454117E+02  0.18737249601E+03  0.19452761205E+03  0.00000000000E+00 0.  1.
         11    1    3    3    0    0 -0.46440496635E+02 -0.29822774321E+02  0.39612007438E+02  0.67935474748E+02  0.00000000000E+00 0. -1.
</event>
<event>
 6    1  0.4096326E-006  0.1001443E+03  0.7561462E-02  0.1279993E+00
         -2   -1    0    0    0  501 -0.00000000000E+00  0.00000000000E+00  0.51791416852E+02  0.51791416852E+02  0.00000000000E+00 0. -1.
          2   -1    0    0  501    0  0.00000000000E+00 -0.00000000000E+00 -0.35275982493E+03  0.35275982493E+03  0.00000000000E+00 0.  1.
          5    1    1    2  502    0 -0.18182404366E+02  0.51689671343E+02  0.10487513040E+02  0.55945350851E+02  0.41800000000E+01 0. -1.
         -5    1    1    2    0  502 -0.37727077374E+01  0.42788974911E+02 -0.14660747238E+03  0.15282785432E+03  0.41800000000E+01 0. -1.
        -11    1    1    2    0    0 -0.64304768574E+01 -0.42220842154E+02 -0.94218290310E+02  0.10344581564E+03  0.00000000000E+00 0.  1.
         11    1    1    2    0    0  0.28385588961E+02 -0.52257804100E+02 -0.70630158425E+02  0.92332220969E+02  0.00000000000E+00 0. -1.
</event>
<event>
 7    1  0.4096326E-006  0.1280026E+03  0.7561462E-02  0.1230450E+00
          1   -1    0    0  501    0  0.00000000000E+00  0.00000000000E+00  0.10752367045E+04  0.10752367045E+04  0.00000000000E+00 0. -1.
         -1   -1    0    0    0  501 -0.00000000000E+00 -0.00000000000E+00 -0.23783770704E+02  0.23783770704E+02  0.00000000000E+00 0.  1.
         23    2    1    2    0    0 -0.39908176971E+02  0.10981249495E+03  0.45083533102E+03  0.47448432722E+03  0.90727253034E+02 0.  0.
          5    1    1    2  502    0  0.44164613300E+02 -0.73679967015E+02  0.57098916920E+03  0.57742995623E+03  0.41800000000E+01 0.  1.
         -5    1    1    2    0  502 -0.42564363291E+01 -0.36132527938E+02  0.29628433572E+02  0.47106191752E+02  0.41800000000E+01 0.  1.
        -11    1    3    3    0    0 -0.49718012192E+02  0.42652730548E+02  0.32475572618E+03  0.33129657083E+03  0.00000000000E+00 0.  1.
         11    1    3    3    0    0  0.98098352213E+01  0.67159764406E+02  0.12607960485E+03  0.14318775639E+03  0.00000000000E+00 0. -1.
</event>
<event>
 7    1  0.4096326E-006  0.1673098E+03  0.7561462E-02  0.1180683E+00
         -1   -1    0    0    0  501 -0.00000000000E+00  0.00000000000E+00  0.80386538262E+02  0.80386538262E+02  0.00000000000E+00 0.  1.
          1   -1    0    0  501    0  0.00000000000E+00 -0.00000000000E+00 -0.47588275449E+03  0.47588275449E+03  0.00000000000E+00 0. -1.
         23    2    1    2    0    0  0.13469910765E+03  0.36269252333E+02 -0.30471850547E+03  0.34807065393E+03  0.94023955920E+02 0.  0.
          5    1    1    2  502    0 -0.67605829924E+02 -0.72531723901E+02 -0.14574901093E+02  0.10030602850E+03  0.41800000000E+01 0. -1.
         -5    1    1    2    0  502 -0.67093277728E+02  0.36262471568E+02 -0.76202809668E+02  0.10789261032E+03  0.41800000000E+01 0. -1.
        -11    1    3    3    0    0  0.76766754759E+02 -0.18835364802E+02 -0.94733151996E+02  0.12337858684E+03  0.00000000000E+00 0.  1.
         11    1    3    3    0    0  0.57932352893E+02  0.55104617134E+02 -0.20998535347E+03  0.22469206709E+03  0.00000000000E+00 0. -1.
</event>
<event>
 7    1  0.4281858E-006  0.2847907E+03  0.7561462E-02  0.1093101E+00
          1   -1    0    0  501    0  0.00000000000E+00  0.00000000000E+00  0.81849081533E+03  0.81849081533E+03  0.00000000000E+00 0. -1.
         -1   -1    0    0    0  501 -0.00000000000E+00 -0.00000000000E+00 -0.10985776104E+03  0.10985776104E+03  0.00000000000E+00 0.  1.
         23    2    1    2    0    0  0.15684739657E+03  0.22681763133E+03  0.35803777905E+03  0.46508658140E+03  0.10985050421E+03 0.  0.
          5    1    1    2  502    0 -0.12811768625E+03 -0.10388573042E+03  0.13412751528E+03  0.21263595479E+03  0.41800000000E+01 0. -1.
         -5    1    1    2    0  502 -0.28729710328E+02 -0.12293190091E+03  0.21646775996E+03  0.25062604019E+03  0.41800000000E+01 0. -1.
        -11    1    3    3    0    0  0.56482342866E+02  0.11430915868E+03  0.24657327681E+03  0.27758821958E+03  0.00000000000E+00 0.  1.
         11    1    3    3    0    0  0.10036505371E+03  0.11250847265E+03  0.11146450224E+03  0.18749836182E+03  0.00000000000E+00 0. -1.
</event>
<event>
 7    1  0.4096326E-006  0.9987136E+02  0.7561462E-02  0.1280567E+00
          1   -1    0    0  501    0  0.00000000000E+00  0.00000000000E+00  0.42587149085E+03  0.42587149085E+03  0.00000000000E+00 0. -1.
         -1   -1    0    0    0  501 -0.00000000000E+00 -0.00000000000E+00 -0.36193003557E+02  0.36193003557E+02  0.00000000000E+00 0.  1.
         23    2    1    2    0    0 -0.25586160094E+02 -0.24579178666E+02  0.25992387245E+03  0.27837216752E+03  0.93122803682E+02 0.  0.
          5    1    1    2  502    0  0.43500424973E+02 -0.30529137809E+02  0.15501862767E+02  0.55516622533E+02  0.41800000000E+01 0. -1.
         -5    1    1    2    0  502 -0.17914264879E+02  0.55108316474E+02  0.11425275207E+03  0.12817570435E+03  0.41800000000E+01 0. -1.
        -11    1    3    3    0    0  0.26910954842E+02 -0.23658062831E+02  0.47174938393E+02  0.59240005400E+02  0.00000000000E+00 0.  1.
         11    1    3    3    0    0 -0.52497114936E+02 -0.92111583460E+00  0.21274893406E+03  0.21913216212E+03  0.00000000000E+00 0. -1.
</event>
<event>
 7    1  0.4096326E-006  0.9494615E+02  0.7561462E-02  0.1291297E+00
         -2   -1    0    0    0  501 -0.00000000000E+00  0.00000000000E+00  0.65922659039E+02  0.65922659039E+02  0.00000000000E+00 0.  1.
          2   -1    0    0  501    0  0.00000000000E+00 -0.00000000000E+00 -0.29751400045E+03  0.29751400045E+03  0.00000000000E+00 0. -1.
         23    2    1    2    0    0  0.19653219684E+02  0.24107192468E+02 -0.19138554186E+03  0.22840838386E+03  0.12072513579E+03 0.  0.
          5    1    1    2  502    0  0.24341481038E+02 -0.44625983363E+02 -0.63147777928E+02  0.81173273604E+02  0.41800000000E+01 0.  1.
         -5    1    1    2    0  502 -0.43994700722E+02  0.20518790895E+02  0.22941978377E+02  0.53855002026E+02  0.41800000000E+01 0.  1.
        -11    1    3    3    0    0 -0.17773003521E+02 -0.23590017062E+02 -0.15480964249E+03  0.15760201130E+03  0.00000000000E+00 0. -1.
         11    1    3    3    0    0  0.37426223206E+02  0.47697209530E+02 -0.36575899378E+02  0.70806372564E+02  0.00000000000E+00 0.  1.
</event>
<event>
 7    1  0.4096326E-006  0.9232697E+02  0.7561462E-02  0.1297312E+00
          2   -1    0    0  501    0  0.00000000000E+00  0.00000000000E+00  0.95834975092E+03  0.95834975092E+03  0.00000000000E+00 0. -1.
         -2   -1    0    0    0  501 -0.00000000000E+00 -0.00000000000E+00 -0.14963255870E+02  0.14963255870E+02  0.00000000000E+00 0.  1.
         23    2    1    2    0    0 -0.13654557799E+02  0.33344881227E+02  0.40641912604E+03  0.41830425948E+03  0.92215071603E+02 0.  0.
          5    1    1    2  502    0  0.31805728941E+02  0.14768819185E+02  0.46564229428E+03  0.46697959381E+03  0.41800000000E+01 0. -1.
         -5    1    1    2    0  502 -0.18151171142E+02 -0.48113700413E+02  0.71325074725E+02  0.88029153499E+02  0.41800000000E+01 0.  1.
        -11    1    3    3    0    0 -0.52630374901E+02  0.22881115175E+02  0.20496237653E+03  0.21284519630E+03  0.00000000000E+00 0.  1.
         11    1    3    3    0    0  0.38975817102E+02  0.10463766053E+02  0.20145674951E+03  0.20545906318E+03  0.00000000000E+00 0. -1.
</event>
<event>
 7    1  0.4096326E-006  0.5452620E+02  0.7561462E-02  0.1422353E+00
          1   -1    0    0  501    0  0.00000000000E+00  0.00000000000E+00  0.28963296610E+02  0.28963296610E+02  0.00000000000E+00 0. -1.
         -1   -1    0    0    0  501 -0.00000000000E+00 -0.00000000000E+00 -0.50228019723E+03  0.50228019723E+03  0.00000000000E+00 0.  1.
         23    2    1    2    0    0 -0.18373845900E+02 -0.14135718208E+02 -0.11317323552E+03  0.14928817933E+03  0.94558778052E+02 0.  0.
          5    1    1    2  502    0 -0.98319834535E+01  0.20168063888E+02 -0.35052046340E+03  0.35126270278E+03  0.41800000000E+01 0.  1.
         -5    1    1    2    0  502  0.28205829354E+02 -0.60323456792E+01 -0.96232016965E+01  0.30692611730E+02  0.41800000000E+01 0.  1.
        -11    1    3    3    0    0  0.16737125988E+02 -0.14237017654E+02  0.78046689816E+01  0.23318167079E+02  0.00000000000E+00 0. -1.
         11    1    3    3    0    0 -0.35110971889E+02  0.10129944563E+00 -0.12097790450E+03  0.12597001225E+03  0.00000000000E+00 0.  1.
</event>
<event>
 7    1  0.4173787E-006  0.2401948E+03  0.7561462E-02  0.1119663E+00
         -2   -1    0    0    0  501 -0.00000000000E+00  0.00000000000E+00  0.43625856975E+03  0.43625856975E+03  0.00000000000E+00 0.  1.
          2   -1    0    0  501    0  0.00000000000E+00 -0.00000000000E+00 -0.14589528994E+03  0.14589528994E+03  0.00000000000E+00 0. -1.
         23    2    1    2    0    0  0.14114287163E+03  0.17450225162E+03  0.98961574625E+02  0.26175711377E+03  0.91384064949E+02 0.  0.
          5    1    1    2  502    0 -0.28340948875E+02  0.10985262253E+02 -0.39520194977E+00  0.30684099376E+02  0.41800000000E+01 0. -1.
         -5    1    1    2    0  502 -0.11280192275E+03 -0.18548751387E+03  0.19179690714E+03  0.28971264654E+03  0.41800000000E+01 0. -1.
        -11    1    3    3    0    0  0.13315130780E+03  0.12566671450E+03  0.10633226132E+03  0.21172610538E+03  0.00000000000E+00 0.  1.
         11    1    3    3    0    0  0.79915638267E+01  0.48835537118E+02 -0.73706866979E+01  0.50031008389E+02  0.00000000000E+00 0. -1.
</event>
<event>
 7    1  0.4096326E-006  0.1356828E+03  0.7561462E-02  0.1219259E+00
         -1   -1    0    0    0  501 -0.00000000000E+00  0.00000000000E+00  0.37375899164E+03  0.37375899164E+03  0.00000000000E+00 0.  1.
          1   -1    0    0  501    0  0.00000000000E+00 -0.00000000000E+00 -0.80523410069E+02  0.80523410069E+02  0.00000000000E+00 0. -1.
         23    2    1    2    0    0 -0.16582478035E+02  0.78303135655E+02  0.41804073441E+01  0.12099922951E+03  0.90647548812E+02 0.  0.
          5    1    1    2  502    0  0.26635283599E+02  0.39357185957E+02  0.79994476591E+02  0.93139761133E+02  0.41800000000E+01 0. -1.
         -5    1    1    2    0  502 -0.10052805564E+02 -0.11766032161E+03  0.20906069764E+03  0.24014341107E+03  0.41800000000E+01 0.  1.
        -11    1    3    3    0    0 -0.37047602658E+02  0.16802204589E+02  0.30703341686E+02  0.50966009580E+02  0.00000000000E+00 0.  1.
         11    1    3    3    0    0  0.20465124624E+02  0.61500931067E+02 -0.26522934342E+02  0.70033219932E+02  0.00000000000E+00 0. -1.
</event>
<event>
 7    1  0.4096326E-006  0.1833474E+03  0.7561462E-02  0.1164602E+00
         -1   -1    0    0    0  501 -0.00000000000E+00  0.00000000000E+00  0.37391828515E+02  0.37391828515E+02  0.00000000000E+00 0.  1.
          1   -1    0    0  501    0  0.00000000000E+00 -0.00000000000E+00 -0.11611496091E+04  0.11611496091E+04  0.00000000000E+00 0. -1.
         23    2    1    2    0    0 -0.16551869824E+03  0.30301270211E+02 -0.70174273971E+03  0.72731043768E+03  0.90680723322E+02 0.  0.
          5    1    1    2  502    0  0.97735613540E+02 -0.42334862862E+02 -0.11598813342E+03  0.15752844271E+03  0.41800000000E+01 0. -1.
         -5    1    1    2    0  502  0.67783084701E+02  0.12033592651E+02 -0.30602690742E+03  0.31370255719E+03  0.41800000000E+01 0. -1.
        -11    1    3    3    0    0 -0.10307840215E+03 -0.26815318311E+02 -0.38642439656E+03  0.40083417088E+03  0.00000000000E+00 0. -1.
         11    1    3    3    0    0 -0.62440296092E+02  0.57116588522E+02 -0.31531834315E+03  0.32647626680E+03  0.00000000000E+00 0.  1.
</event>
<event>
 7    1  0.4096326E-006  0.1031526E+03  0.7561462E-02  0.1273803E+00
          2   -1    0    0  501    0  0.00000000000E+00  0.00000000000E+00  0.14670009635E+03  0.14670009635E+03  0.00000000000E+00 0. -1.
         -2   -1    0    0    0  501 -0.00000000000E+00 -0.00000000000E+00 -0.13155101400E+03  0.13155101400E+03  0.00000000000E+00 0.  1.
         23    2    1    2    0    0 -0.70784228755E+01 -0.39890699005E+02  0.74636925755E+02  0.12093253972E+03  0.86096669731E+02 0.  0.
          5    1    1    2  502    0 -0.50236057207E+02  0.21853864979E+01  0.18155346407E+02  0.53623934591E+02  0.41800000000E+01 0. -1.
         -5    1    1    2    0  502  0.57314480082E+02  0.37705312507E+02 -0.77643189813E+02  0.10369463604E+03  0.41800000000E+01 0.  1.
        -11    1    3    3    0    0 -0.39132746991E+02 -0.38703950855E+02  0.21961684796E+02  0.59259457455E+02  0.00000000000E+00 0. -1.
         11    1    3    3    0    0  0.32054324115E+02 -0.11867481495E+01  0.52675240959E+02  0.61673082262E+02  0.00000000000E+00 0.  1.
</event>
<event>
 7    1  0.4096326E-006  0.1186396E+03  0.7561462E-02  0.1245358E+00
         -2   -1    0    0    0  501 -0.00000000000E+00  0.00000000000E+00  0.14759570049E+02  0.14759570049E+02  0.00000000000E+00 0.  1.
          2   -1    0    0  501    0  0.00000000000E+00 -0.00000000000E+00 -0.10073814443E+04  0.10073814443E+04  0.00000000000E+00 0. -1.
         23    2    1    2    0    0 -0.29298810748E+02  0.41146677679E+02 -0.52545683490E+03  0.53588688826E+03  0.92295190900E+02 0.  0.
          5    1    1    2  502    0  0.63217391560E+02  0.18639581086E+02 -0.22740779587E+03  0.23680297845E+03  0.41800000000E+01 0.  1.
         -5    1    1    2    0  502 -0.33918580812E+02 -0.59786258764E+02 -0.23975724346E+03  0.24945114763E+03  0.41800000000E+01 0.  1.
        -11    1    3    3    0    0 -0.61304200811E+02  0.31633999369E+02 -0.40739793978E+03  0.41319728495E+03  0.00000000000E+00 0.  1.
         11    1    3    3    0    0  0.32005390063E+02  0.95126783094E+01 -0.11805889512E+03  0.12268960331E+03  0.00000000000E+00 0. -1.
</event>
<event>
 7    1  0.4096326E-006  0.1034951E+03  0.7561462E-02  0.1273113E+00
         -2   -1    0    0    0  501 -0.00000000000E+00  0.00000000000E+00  0.49296625981E+02  0.49296625981E+02  0.00000000000E+00 0.  1.
          2   -1    0    0  501    0  0.00000000000E+00 -0.00000000000E+00 -0.39935917054E+03  0.39935917054E+03  0.00000000000E+00 0. -1.
         23    2    1    2    0    0 -0.22677666329E+02  0.37274185440E+02 -0.28071894552E+03  0.29912292445E+03  0.93636296961E+02 0.  0.
          5    1    1    2  502    0  0.19432677493E+02  0.33871559054E+02 -0.67587023980E+02  0.78168981558E+02  0.41800000000E+01 0.  1.
         -5    1    1    2    0  502  0.32449888352E+01 -0.71145744494E+02 -0.17565750526E+01  0.71363890505E+02  0.41800000000E+01 0.  1.
        -11    1    3    3    0    0 -0.55616703829E+02  0.27319233584E+02 -0.22718396554E+03  0.23548272223E+03  0.00000000000E+00 0. -1.
         11    1    3    3    0    0  0.32939037501E+02  0.99549518556E+01 -0.53534979981E+02  0.63640202227E+02  0.00000000000E+00 0.  1.
</event>
<event>
 7    1  0.4096326E-006  0.2117311E+03  0.7561462E-02  0.1140202E+00
          2   -1    0    0  501    0  0.00000000000E+00  0.00000000000E+00  0.82018205974E+03  0.82018205974E+03  0.00000000000E+00 0. -1.
         -2   -1    0    0    0  501 -0.00000000000E+00 -0.00000000000E+00 -0.78212285203E+02  0.78212285203E+02  0.00000000000E+00 0.  1.
         23    2    1    2    0    0  0.19466843221E+03 -0.31410488159E+02  0.56580238727E+03  0.60588608267E+03  0.89906542993E+02 0.  0.
          5    1    1    2  502    0  0.62520413517E+00  0.97452929299E+01 -0.14969543586E+02  0.18355414724E+02  0.41800000000E+01 0.  1.
         -5    1    1    2    0  502 -0.19529363634E+03  0.21665195229E+02  0.19113693085E+03  0.27415284754E+03  0.41800000000E+01 0.  1.
        -11    1    3    3    0    0  0.16603117268E+03  0.95724332005E+01  0.41869607477E+03  0.45051568764E+03  0.00000000000E+00 0.  1.
         11    1    3    3    0    0  0.28637259523E+02 -0.40982921360E+02  0.14710631250E+03  0.15537039504E+03  0.00000000000E+00 0. -1.
</event>
<event>
 7    1  0.4096326E-006  0.6150590E+02  0.7561462E-02  0.1391619E+00
         -1   -1    0    0    0  501 -0.00000000000E+00  0.00000000000E+00  0.21685611230E+02  0.21685611230E+02  0.00000000000E+00 0.  1.
          1   -1    0    0  501    0  0.00000000000E+00 -0.00000000000E+00 -0.58367465393E+03  0.58367465393E+03  0.00000000000E+00 0. -1.
         23    2    1    2    0    0  0.23211530752E+02 -0.15912249800E+02 -0.26893925801E+03  0.28548922251E+03  0.91563075610E+02 0.  0.
          5    1    1    2  502    0 -0.29756941307E+01  0.18677424889E+02 -0.29784930849E+03  0.29847844801E+03  0.41800000000E+01 0.  1.
         -5    1    1    2    0  502 -0.20235836621E+02 -0.27651750898E+01  0.47995237994E+01  0.21392594647E+02  0.41800000000E+01 0.  1.
        -11    1    3    3    0    0  0.66878143946E+01  0.31699670826E+02 -0.18313801080E+03  0.18598152326E+03  0.00000000000E+00 0. -1.
         11    1    3    3    0    0  0.16523716357E+02 -0.47611920625E+02 -0.85801247206E+02  0.99507699250E+02  0.00000000000E+00 0.  1.
</event>
<event>
 7    1  0.4096326E-006  0.1295140E+03  0.7561462E-02  0.1228179E+00
         -1   -1    0    0    0  501 -0.00000000000E+00  0.00000000000E+00  0.64416507887E+03  0.64416507887E+03  0.00000000000E+00 0.  1.
          1   -1    0    0  501    0  0.00000000000E+00 -0.00000000000E+00 -0.38718169467E+02  0.38718169467E+02  0.00000000000E+00 0. -1.
         23    2    1    2    0    0 -0.92975949579E+02  0.32329094716E+01  0.13672827927E+03  0.18892162337E+03  0.91333337398E+02 0.  0.
          5    1    1    2  502    0  0.10067352714E+03  0.22489911501E+02  0.21192451667E+03  0.23573380825E+03  0.41800000000E+01 0. -1.
         -5    1    1    2    0  502 -0.76975775598E+01 -0.25722820973E+02  0.25679411346E+03  0.25822781672E+03  0.41800000000E+01 0. -1.
        -11    1    3    3    0    0 -0.63612598233E+02 -0.40885298947E+02  0.95286497923E+02  0.12164574391E+03  0.00000000000E+00 0. -1.
         11    1    3    3    0    0 -0.29363351346E+02  0.44118208418E+02  0.41441781350E+02  0.67275879465E+02  0.00000000000E+00 0.  1.
</event>
<event>
 7    1  0.4096326E-006  0.9081060E+02  0.7561462E-02  0.1300900E+00
          2   -1    0    0  501    0  0.00000000000E+00  0.00000000000E+00  0.17403648898E+03  0.17403648898E+03  0.00000000000E+00 0. -1.
         -2   -1    0    0    0  501 -0.00000000000E+00 -0.00000000000E+00 -0.74826420495E+02  0.74826420495E+02  0.00000000000E+00 0.  1.
         23    2    1    2    0    0  0.26856077563E+02  0.27683170968E+02  0.50855510454E+02  0.10932856699E+03  0.88762862496E+02 0.  0.
          5    1    1    2  502    0 -0.44736863417E+02  0.10024249861E+02 -0.26945157533E+02  0.53342163887E+02  0.41800000000E+01 0. -1.
         -5    1    1    2    0  502  0.17880785854E+02 -0.37707420829E+02  0.75299715567E+02  0.86192178606E+02  0.41800000000E+01 0. -1.
        -11    1    3    3    0    0  0.33237861361E+02  0.55725161974E+02  0.21805556112E+02  0.68450941427E+02  0.00000000000E+00 0.  1.
         11    1    3    3    0    0 -0.63817837976E+01 -0.28041991006E+02  0.29049954342E+02  0.40877625558E+02  0.00000000000E+00 0. -1.
</event>
<event>
 7    1  0.4096326E-006  0.7489952E+02  0.7561462E-02  0.1344182E+00
          1   -1    0    0  501    0  0.00000000000E+00  0.00000000000E+00  0.16711685605E+03  0.16711685605E+03  0.00000000000E+00 0. -1.
         -1   -1    0    0    0  501 -0.00000000000E+00 -0.00000000000E+00 -0.77026617304E+02  0.77026617304E+02  0.00000000000E+00 0.  1.
         23    2    1    2    0    0 -0.12826439769E+02  0.25638547253E+02  0.51248882888E+02  0.11002414887E+03  0.93043068926E+02 0.  0.
          5    1    1    2  502    0 -0.92421406361E+01 -0.39567755179E+02 -0.36187632861E+02  0.54571435619E+02  0.41800000000E+01 0. -1.
         -5    1    1    2    0  502  0.22068580405E+02  0.13929207927E+02  0.75028988720E+02  0.79547888865E+02  0.41800000000E+01 0. -1.
        -11    1    3    3    0    0 -0.36290589015E+02  0.40785720540E+02  0.59647829825E+02  0.80860036197E+02  0.00000000000E+00 0. -1.
         11    1    3    3    0    0  0.23464149246E+02 -0.15147173287E+02 -0.83989469364E+01  0.29164112674E+02  0.00000000000E+00 0.  1.
</event>
<event>
 7    1  0.4096326E-006  0.2027494E+03  0.7561462E-02  0.1147440E+00
         -1   -1    0    0    0  501 -0.00000000000E+00  0.00000000000E+00  0.35206764724E+02  0.35206764724E+02  0.00000000000E+00 0.  1.
          1   -1    0    0  501    0  0.00000000000E+00 -0.00000000000E+00 -0.14170093192E+04  0.14170093192E+04  0.00000000000E+00 0. -1.
         23    2    1    2    0    0 -0.19849123450E+01 -0.18133234790E+03 -0.85701154349E+03  0.88306013166E+03  0.11153945575E+03 0.  0.
          5    1    1    2  502    0  0.38749647109E+02  0.23470515159E+02 -0.50773952635E+02  0.68175266036E+02  0.41800000000E+01 0.  1.
         -5    1    1    2    0  502 -0.36764734764E+02  0.15786183274E+03 -0.47401705831E+03  0.50098068618E+03  0.41800000000E+01 0.  1.
        -11    1    3    3    0    0  0.35003305884E+02 -0.47443653641E+02 -0.12790038025E+03  0.14083550320E+03  0.00000000000E+00 0.  1.
         11    1    3    3    0    0 -0.36988218229E+02 -0.13388869426E+03 -0.72911116324E+03  0.74222462846E+03  0.00000000000E+00 0. -1.
</event>
<event>
 6    1  0.4096326E-006  0.1548461E+03  0.7561462E-02  0.1194641E+00
         -1   -1    0    0    0  501 -0.00000000000E+00  0.00000000000E+00  0.36613347566E+02  0.36613347566E+02  0.00000000000E+00 0.  1.
          1   -1    0    0  501    0  0.00000000000E+00 -0.00000000000E+00 -0.11687498296E+04  0.11687498296E+04  0.00000000000E+00 0. -1.
          5    1    1    2  502    0  0.10127534425E+03 -0.69543295267E+02 -0.11123478694E+03  0.16578183102E+03  0.41800000000E+01 0.  1.
         -5    1    1    2    0  502 -0.73303352800E+01 -0.51303801699E+01 -0.13493002439E+03  0.13529094020E+03  0.41800000000E+01 0.  1.
        -11    1    1    2    0    0 -0.43984366062E+02 -0.35107273625E+02 -0.19873371613E+03  0.20654838427E+03  0.00000000000E+00 0.  1.
         11    1    1    2    0    0 -0.49960642910E+02  0.10978094906E+03 -0.68723795454E+03  0.69774202165E+03  0.00000000000E+00 0. -1.
</event>
<event>
 7    1  0.4096326E-006  0.1485933E+03  0.7561462E-02  0.1202212E+00
          3   -1    0    0  501    0  0.00000000000E+00  0.00000000000E+00  0.78336941049E+02  0.78336941049E+02  0.00000000000E+00 0. -1.
         -3   -1    0    0    0  501 -0.00000000000E+00 -0.00000000000E+00 -0.32954324340E+03  0.32954324340E+03  0.00000000000E+00 0.  1.
         23    2    1    2    0    0  0.47923323806E+02 -0.93039397041E+02 -0.44499253221E+02  0.14457969666E+03  0.89275588957E+02 0.  0.
          5    1    1    2  502    0 -0.83942904305E+02  0.34685841723E+02 -0.90384080858E+02  0.12820402986E+03  0.41800000000E+01 0. -1.
         -5    1    1    2    0  502  0.36019580498E+02  0.58353555318E+02 -0.11632296827E+03  0.13509645793E+03  0.41800000000E+01 0. -1.
        -11    1    3    3    0    0  0.51779948800E+01 -0.94644197744E+02 -0.30742015983E+02  0.99646411598E+02  0.00000000000E+00 0. -1.
         11    1    3    3    0    0  0.42745328926E+02  0.16048007034E+01 -0.13757237238E+02  0.44933285065E+02  0.00000000000E+00 0.  1.
</event>
<event>
 7    1  0.4096326E-006  0.1061757E+03  0.7561462E-02  0.1267820E+00
         -1   -1    0    0    0  501 -0.00000000000E+00  0.00000000000E+00  0.58259343038E+02  0.58259343038E+02  0.00000000000E+00 0.  1.
          1   -1    0    0  501    0  0.00000000000E+00 -0.00000000000E+00 -0.36054502072E+03  0.36054502072E+03  0.00000000000E+00 0. -1.
         23    2    1    2    0    0  0.13041934893E+01 -0.47859701766E+02 -0.27851532427E+03  0.29637290436E+03  0.89296475908E+02 0.  0.
          5    1    1    2  502    0 -0.12685500949E+02  0.78994106301E+02 -0.34657697177E+02  0.87290429820E+02  0.41800000000E+01 0. -1.
         -5    1    1    2    0  502  0.11381307459E+02 -0.31134404534E+02  0.10887343772E+02  0.35141029575E+02  0.41800000000E+01 0.  1.
        -11    1    3    3    0    0  0.38808605418E+02 -0.47473776824E+02 -0.13939336775E+03  0.15228387411E+03  0.00000000000E+00 0.  1.
         11    1    3    3    0    0 -0.37504411929E+02 -0.38592494228E+00 -0.13912195652E+03  0.14408903025E+03  0.00000000000E+00 0. -1.
</event>
<event>
 7    1  0.4096326E-006  0.1660776E+03  0.7561462E-02  0.1182001E+00
          2   -1    0    0  501    0  0.00000000000E+00  0.00000000000E+00  0.99338799200E+02  0.99338799200E+02  0.00000000000E+00 0. -1.
         -2   -1    0    0    0  501 -0.00000000000E+00 -0.00000000000E+00 -0.38764930877E+03  0.38764930877E+03  0.00000000000E+00 0.  1.
         23    2    1    2    0    0 -0.86601649777E+01  0.10326621012E+03 -0.70652867290E+02  0.15742181337E+03  0.95136171144E+02 0.  0.
          5    1    1    2  502    0  0.21528857630E+02  0.42938293887E+02  0.18369643300E+02  0.51595590778E+02  0.41800000000E+01 0. -1.
         -5    1    1    2    0  502 -0.12868692653E+02 -0.14620450401E+03 -0.23602728558E+03  0.27797070382E+03  0.41800000000E+01 0.  1.
        -11    1    3    3    0    0  0.25400028558E+02 -0.29470300217E+01 -0.28221831586E+02  0.38083043664E+02  0.00000000000E+00 0.  1.
         11    1    3    3    0    0 -0.34060193535E+02  0.10621324014E+03 -0.42431035704E+02  0.11933876971E+03  0.00000000000E+00 0. -1.
</event>
<event>
 7    1  0.4096326E-006  0.1060553E+03  0.7561462E-02  0.1268054E+00
          1   -1    0    0  501    0  0.00000000000E+00  0.00000000000E+00  0.12673623504E+03  0.12673623504E+03  0.00000000000E+00 0. -1.
         -1   -1    0    0    0  501 -0.00000000000E+00 -0.00000000000E+00 -0.14436752385E+03  0.14436752385E+03  0.00000000000E+00 0.  1.
         23    2    1    2    0    0 -0.85598917864E+01 -0.66906619464E+02  0.37807330734E+02  0.11855704081E+03  0.89869962685E+02 0.  0.
          5    1    1    2  502    0 -0.39243887711E+02  0.33406333076E+02 -0.74775739712E+02  0.90911767455E+02  0.41800000000E+01 0. -1.
         -5    1    1    2    0  502  0.47803779498E+02  0.33500286388E+02  0.19337120160E+02  0.61634950624E+02  0.41800000000E+01 0. -1.
        -11    1    3    3    0    0  0.30613776323E+02 -0.88913513517E+01 -0.10432837572E+02  0.33542562953E+02  0.00000000000E+00 0.  1.
         11    1    3    3    0    0 -0.39173668109E+02 -0.58015268112E+02  0.48240168306E+02  0.85014477858E+02  0.00000000000E+00 0. -1.
</event>
<event>
 7    1  0.4096326E-006  0.1490457E+03  0.7561462E-02  0.1201651E+00
         -1   -1    0    0    0  501 -0.00000000000E+00  0.00000000000E+00  0.18807775353E+02  0.18807775353E+02  0.00000000000E+00 0.  1.
          1   -1    0    0  501    0  0.00000000000E+00 -0.00000000000E+00 -0.15016781047E+04  0.15016781047E+04  0.00000000000E+00 0. -1.
         23    2    1    2    0    0  0.10321120643E+03 -0.62603966601E+02 -0.88731855316E+03  0.90008227380E+03  0.90785874774E+02 0.  0.
          5    1    1    2  502    0 -0.68949873494E+02 -0.69686937759E+01 -0.12070291453E+03  0.13924551599E+03  0.41800000000E+01 0. -1.
         -5    1    1    2    0  502 -0.34261332933E+02  0.69572660377E+02 -0.47484886164E+03  0.48115809025E+03  0.41800000000E+01 0. -1.
        -11    1    3    3    0    0 -0.94670602821E+01  0.12430357932E+02 -0.85533263736E+02  0.86948710365E+02  0.00000000000E+00 0.  1.
         11    1    3    3    0    0  0.11267826671E+03 -0.75034324533E+02 -0.80178528943E+03  0.81313356344E+03  0.00000000000E+00 0. -1.
</event>
<event>
 7    1  0.4096326E-006  0.1765150E+03  0.7561462E-02  0.1171219E+00
          2   -1    0    0  501    0  0.00000000000E+00  0.00000000000E+00  0.49343659524E+03  0.49343659524E+03  0.00000000000E+00 0. -1.
         -2   -1    0    0    0  501 -0.00000000000E+00 -0.00000000000E+00 -0.73470744374E+02  0.73470744374E+02  0.00000000000E+00 0.  1.
         23    2    1    2    0    0 -0.18218511387E+02  0.15463741429E+03  0.20858560884E+03  0.27609231025E+03  0.92056306188E+02 0.  0.
          5    1    1    2  502    0  0.33828898914E+02 -0.16748861482E+03  0.20906006739E+03  0.27003780230E+03  0.41800000000E+01 0.  1.
         -5    1    1    2    0  502 -0.15610387527E+02  0.12851200532E+02  0.23201746320E+01  0.20777227057E+02  0.41800000000E+01 0.  1.
        -11    1    3    3    0    0  0.13730473955E+02  0.60887462814E+02  0.14638489303E+03  0.15913624964E+03  0.00000000000E+00 0. -1.
         11    1    3    3    0    0 -0.31948985342E+02  0.93749951475E+02  0.62200715816E+02  0.11695606061E+03  0.00000000000E+00 0.  1.
</event>
<event>
 7    1  0.4096326E-006  0.1040367E+03  0.7561462E-02  0.1272029E+00
         -1   -1    0    0    0  501 -0.00000000000E+00  0.00000000000E+00  0.10695439509E+03  0.10695439509E+03  0.00000000000E+00 0.  1.
          1   -1    0    0  501    0  0.00000000000E+00 -0.00000000000E+00 -0.35292439673E+03  0.35292439673E+03  0.00000000000E+00 0. -1.
         23    2    1    2    0    0  0.31685536830E+02  0.20068726672E+02 -0.31063596365E+03  0.32586620037E+03  0.91034892178E+02 0.  0.
          5    1    1    2  502    0  0.35000033015E+02  0.16867229976E+02  0.33788761123E+02  0.51659060545E+02  0.41800000000E+01 0. -1.
         -5    1    1    2    0  502 -0.66685569845E+02 -0.36935956649E+02  0.30877200890E+02  0.82353530914E+02  0.41800000000E+01 0.  1.
        -11    1    3    3    0    0 -0.21090897030E+02  0.32205335009E+02 -0.77646074023E+02  0.86665577663E+02  0.00000000000E+00 0.  1.
         11    1    3    3    0    0  0.52776433860E+02 -0.12136608336E+02 -0.23298988963E+03  0.23920062270E+03  0.00000000000E+00 0. -1.
</event>
<event>
 7    1  0.4096326E-006  0.1650951E+03  0.7561462E-02  0.1183062E+00
         -1   -1    0    0    0  501 -0.00000000000E+00  0.00000000000E+00  0.49020643481E+03  0.49020643481E+03  0.00000000000E+00 0.  1.
          1   -1    0    0  501    0  0.00000000000E+00 -0.00000000000E+00 -0.19139737317E+03  0.19139737317E+03  0.00000000000E+00 0. -1.
         23    2    1    2    0    0  0.12923759660E+03  0.26103934040E+02 -0.13651469010E+03  0.20986381732E+03  0.89570025456E+02 0.  0.
          5    1    1    2  502    0 -0.99779803664E+02 -0.71293764729E+02  0.24701776869E+03  0.27581526527E+03  0.41800000000E+01 0. -1.
         -5    1    1    2    0  502 -0.29457792936E+02  0.45189830689E+02  0.18830598306E+03  0.19592472538E+03  0.41800000000E+01 0. -1.
        -11    1    3    3    0    0  0.78320687408E+02  0.54182001992E+02 -0.55775097653E+02  0.11036612222E+03  0.00000000000E+00 0. -1.
         11    1    3    3    0    0  0.50916909192E+02 -0.28078067952E+02 -0.80739592450E+02  0.99497695102E+02  0.00000000000E+00 0.  1.
</event>
<event>
 7    1  0.4096326E-006  0.8522344E+02  0.7561462E-02  0.1314849E+00
          2   -1    0    0  501    0  0.00000000000E+00  0.00000000000E+00  0.17265530348E+02  0.17265530348E+02  0.00000000000E+00 0. -1.
         -2   -1    0    0    0  501 -0.00000000000E+00 -0.00000000000E+00 -0.86044150789E+03  0.86044150789E+03  0.00000000000E+00 0.  1.
         23    2    1    2    0    0  0.38844928678E+02  0.33219214023E+02 -0.24543750512E+03  0.26682977035E+03  0.91357061909E+02 0.  0.
          5    1    1    2  502    0 -0.47666208189E+02 -0.17738902489E+02 -0.95279458248E+02  0.10808507588E+03  0.41800000000E+01 0. -1.
         -5    1    1    2    0  502  0.88212795107E+01 -0.15480311534E+02 -0.50245901417E+03  0.50279219201E+03  0.41800000000E+01 0.  1.
        -11    1    3    3    0    0  0.61516773736E+02  0.44370173363E+02 -0.21023384040E+03  0.22349785991E+03  0.00000000000E+00 0. -1.
         11    1    3    3    0    0 -0.22671845058E+02 -0.11150959340E+02 -0.35203664718E+02  0.43331910437E+02  0.00000000000E+00 0.  1.
</event>
<event>
 7    1  0.4096326E-006  0.1966162E+03  0.7561462E-02  0.1152626E+00
         -2   -1    0    0    0  501 -0.00000000000E+00  0.00000000000E+00  0.33259575429E+02  0.33259575429E+02  0.00000000000E+00 0.  1.
          2   -1    0    0  501    0  0.00000000000E+00 -0.00000000000E+00 -0.11894452129E+04  0.11894452129E+04  0.00000000000E+00 0. -1.
         23    2    1    2    0    0  0.10892533462E+03 -0.12366973470E+03 -0.50989106850E+03  0.54410072756E+03  0.94327982027E+02 0.  0.
          5    1    1    2  502    0 -0.92499317092E+01 -0.24826664424E+02 -0.11152096948E+03  0.11470101803E+03  0.41800000000E+01 0. -1.
         -5    1    1    2    0  502 -0.99675402910E+02  0.14849639913E+03 -0.53477359950E+03  0.56390304275E+03  0.41800000000E+01 0. -1.
        -11    1    3    3    0    0  0.32363718602E+02 -0.10335510737E+03 -0.25116329613E+03  0.27351908493E+03  0.00000000000E+00 0. -1.
         11    1    3    3    0    0  0.76561616017E+02 -0.20314627335E+02 -0.25872777237E+03  0.27058164263E+03  0.00000000000E+00 0.  1.
</event>
<event>
 7    1  0.4096326E-006  0.2034022E+03  0.7561462E-02  0.1146900E+00
         -2   -1    0    0    0  501 -0.00000000000E+00  0.00000000000E+00  0.39490987987E+02  0.39490987987E+02  0.00000000000E+00 0.  1.
          2   -1    0    0  501    0  0.00000000000E+00 -0.00000000000E+00 -0.10949525612E+04  0.10949525612E+04  0.00000000000E+00 0. -1.
         23    2    1    2    0    0  0.17467817987E+03  0.26682083142E+02 -0.62217869988E+03  0.65296885913E+03  0.89652642578E+02 0.  0.
          5    1    1    2  502    0 -0.17155071691E+03 -0.55747659176E+02 -0.37182779490E+03  0.41329267043E+03  0.41800000000E+01 0. -1.
         -5    1    1    2    0  502 -0.31274629547E+01  0.29065576034E+02 -0.61455078446E+02  0.68182019635E+02  0.41800000000E+01 0.  1.
        -11    1    3    3    0    0  0.43710003639E+02 -0.31151570386E+02 -0.13816341419E+03  0.14822318907E+03  0.00000000000E+00 0. -1.
         11    1    3    3    0    0  0.13096817623E+03  0.57833653527E+02 -0.48401528569E+03  0.50474567006E+03  0.00000000000E+00 0.  1.
</event>
<event>
 7    1  0.4096326E-006  0.9672843E+02  0.7561462E-02  0.1287330E+00
          1   -1    0    0  501    0  0.00000000000E+00  0.00000000000E+00  0.36002406199E+03  0.36002406199E+03  0.00000000000E+00 0. -1.
         -1   -1    0    0    0  501 -0.00000000000E+00 -0.00000000000E+00 -0.45377117114E+02  0.45377117114E+02  0.00000000000E+00 0.  1.
         23    2    1    2    0    0  0.48969862440E+02  0.32081102564E+02  0.19526457293E+03  0.22284968438E+03  0.90036014020E+02 0.  0.
          5    1    1    2  502    0  0.16022262020E+02 -0.71782998808E+01 -0.19855087112E+02  0.26831655813E+02  0.41800000000E+01 0. -1.
         -5    1    1    2    0  502 -0.64992124460E+02 -0.24902802683E+02  0.13923745906E+03  0.15571983891E+03  0.41800000000E+01 0. -1.
        -11    1    3    3    0    0  0.56870736983E+02 -0.14295037626E+02  0.88310961669E+02  0.10600686193E+03  0.00000000000E+00 0.  1.
         11    1    3    3    0    0 -0.79008745429E+01  0.46376140190E+02  0.10695361126E+03  0.11684282245E+03  0.00000000000E+00 0. -1.
</event>
<event>
 7    1  0.4096326E-006  0.8259587E+02  0.7561462E-02  0.1321842E+00
         -1   -1    0    0    0  501 -0.00000000000E+00  0.00000000000E+00  0.19396961379E+03  0.19396961379E+03  0.00000000000E+00 0.  1.
          1   -1    0    0  501    0  0.00000000000E+00 -0.00000000000E+00 -0.72206928814E+02  0.72206928814E+02  0.00000000000E+00 0. -1.
         23    2    1    2    0    0  0.23269964795E+02  0.29232231586E+00  0.63063842412E+01  0.94363170243E+02  0.91230810049E+02 0.  0.
          5    1    1    2  502    0  0.15375799075E+02  0.34514876746E+02  0.11339212753E+03  0.11959489495E+03  0.41800000000E+01 0.  1.
         -5    1    1    2    0  502 -0.38645763870E+02 -0.34807199062E+02  0.20641732073E+01  0.52218477407E+02  0.41800000000E+01 0.  1.
        -11    1    3    3    0    0  0.28626531859E+02  0.31945727249E+02 -0.24894415165E+02  0.49595763147E+02  0.00000000000E+00 0. -1.
         11    1    3    3    0    0 -0.53565670637E+01 -0.31653404933E+02  0.31200799406E+02  0.44767407096E+02  0.00000000000E+00 0.  1.
</event>
<event>
 7    1  0.4096326E-006  0.1885442E+03  0.7561462E-02  0.1159781E+00
         -2   -1    0    0    0  501 -0.00000000000E+00  0.00000000000E+00  0.17870995139E+03  0.17870995139E+03  0.00000000000E+00 0.  1.
          2   -1    0    0  501    0  0.00000000000E+00 -0.00000000000E+00 -0.23975314191E+03  0.23975314191E+03  0.00000000000E+00 0. -1.
         23    2    1    2    0    0 -0.47626361974E+02 -0.16925642091E+03 -0.39612608098E+02  0.20161468274E+03  0.90351066420E+02 0.  0.
          5    1    1    2  502    0 -0.98693588952E+01  0.10563838740E+03  0.37621249797E+02  0.11264858621E+03  0.41800000000E+01 0.  1.
         -5    1    1    2    0  502  0.57495720869E+02  0.63618033504E+02 -0.59051832225E+02  0.10419982435E+03  0.41800000000E+01 0.  1.
        -11    1    3    3    0    0  0.13520193396E+02 -0.35431720717E+02 -0.39115495932E+02  0.54481414119E+02  0.00000000000E+00 0. -1.
         11    1    3    3    0    0 -0.61146555370E+02 -0.13382470019E+03 -0.49711216552E+00  0.14713326862E+03  0.00000000000E+00 0.  1.
</event>
<event>
 7    1  0.4096326E-006  0.1091658E+03  0.7561462E-02  0.1262123E+00
          1   -1    0    0  501    0  0.00000000000E+00  0.00000000000E+00  0.65654325580E+03  0.65654325580E+03  0.00000000000E+00 0. -1.
         -1   -1    0    0    0  501 -0.00000000000E+00 -0.00000000000E+00 -0.22040407740E+02  0.22040407740E+02  0.00000000000E+00 0.  1.
         23    2    1    2    0    0  0.90461279781E+01 -0.59461958136E+02  0.25655673586E+03  0.27837366392E+03  0.89738403979E+02 0.  0.
          5    1    1    2  502    0 -0.37645625727E+02 -0.19525011993E+02  0.80276759688E+02  0.90885916267E+02  0.41800000000E+01 0. -1.
         -5    1    1    2    0  502  0.28599497749E+02  0.78986970128E+02  0.29766935251E+03  0.30932408335E+03  0.41800000000E+01 0.  1.
        -11    1    3    3    0    0 -0.12126110569E+02  0.12010131666E+02  0.79421193647E+01  0.18824533996E+02  0.00000000000E+00 0.  1.
         11    1    3    3    0    0  0.21172238547E+02 -0.71472089802E+02  0.24861461650E+03  0.25954912992E+03  0.00000000000E+00 0. -1.
</event>
<event>
 7    1  0.4096326E-006  0.1211388E+03  0.7561462E-02  0.1241230E+00
          2   -1    0    0  501    0  0.00000000000E+00  0.00000000000E+00  0.40898796527E+03  0.40898796527E+03  0.00000000000E+00 0.  1.
         -2   -1    0    0    0  501 -0.00000000000E+00 -0.00000000000E+00 -0.52548405658E+02  0.52548405658E+02  0.00000000000E+00 0. -1.
         23    2    1    2    0    0  0.39501044095E+02 -0.57064576737E+02  0.27325255051E+03  0.29605392471E+03  0.90356358793E+02 0.  0.
          5    1    1    2  502    0  0.38873582395E+02 -0.67327176339E+01  0.10840771336E+02  0.41127601658E+02  0.41800000000E+01 0. -1.
         -5    1    1    2    0  502 -0.78374626490E+02  0.63797294371E+02  0.72346237766E+02  0.12435484456E+03  0.41800000000E+01 0. -1.
        -11    1    3    3    0    0 -0.19948786994E+02 -0.30267350919E+02  0.17083305942E+03  0.17463676825E+03  0.00000000000E+00 0.  1.
         11    1    3    3    0    0  0.59449831088E+02 -0.26797225818E+02  0.10241949109E+03  0.12141715646E+03  0.00000000000E+00 0. -1.
</event>
<event>
 7    1  0.4096326E-006  0.1031822E+03  0.7561462E-02  0.1273743E+00
          2   -1    0    0  501    0  0.00000000000E+00  0.00000000000E+00  0.20950290164E+03  0.20950290164E+03  0.00000000000E+00 0. -1.
         -2   -1    0    0    0  501 -0.00000000000E+00 -0.00000000000E+00 -0.69213797391E+02  0.69213797391E+02  0.00000000000E+00 0.  1.
         23    2    1    2    0    0 -0.31805337421E+02 -0.50736265971E+01  0.10838211468E+03  0.14566578188E+03  0.91839621361E+02 0.  0.
          5    1    1    2  502    0 -0.97402602315E+01  0.51037857520E+02 -0.16103328679E+02  0.54557539939E+02  0.41800000000E+01 0.  1.
         -5    1    1    2    0  502  0.41545597652E+02 -0.45964230923E+02  0.48010318248E+02  0.78493377217E+02  0.41800000000E+01 0.  1.
        -11    1    3    3    0    0  0.29535414343E+02 -0.84044431121E+01  0.60249990561E+02  0.67624231804E+02  0.00000000000E+00 0. -1.
         11    1    3    3    0    0 -0.61340751763E+02  0.33308165150E+01  0.48132124121E+02  0.78041550074E+02  0.00000000000E+00 0.  1.
</event>
<event>
 7    1  0.4096326E-006  0.9846992E+02  0.7561462E-02  0.1283547E+00
         -1   -1    0    0    0  501 -0.00000000000E+00  0.00000000000E+00  0.48557121509E+02  0.48557121509E+02  0.00000000000E+00 0.  1.
          1   -1    0    0  501    0  0.00000000000E+00 -0.00000000000E+00 -0.43119453668E+03  0.43119453668E+03  0.00000000000E+00 0. -1.
         23    2    1    2    0    0 -0.26560568321E+02  0.76588107900E+02 -0.24537036981E+03  0.27711440495E+03  0.10007283840E+03 0.  0.
          5    1    1    2  502    0  0.19152711263E+02  0.98458843070E+01 -0.10917260256E+03  0.11135482628E+03  0.41800000000E+01 0.  1.
         -5    1    1    2    0  502  0.74078570579E+01 -0.86433992207E+02 -0.28094442795E+02  0.91282426956E+02  0.41800000000E+01 0.  1.
        -11    1    3    3    0    0 -0.40728112631E+01  0.60170202400E+02 -0.24160451416E+03  0.24901763454E+03  0.00000000000E+00 0. -1.
         11    1    3    3    0    0 -0.22487757058E+02  0.16417905500E+02 -0.37658556489E+01  0.28096770406E+02  0.00000000000E+00 0.  1.
</event>
<event>
 7    1  0.4096326E-006  0.9687785E+02  0.7561462E-02  0.1287002E+00
         -1   -1    0    0    0  501 -0.00000000000E+00  0.00000000000E+00  0.23035931686E+03  0.23035931686E+03  0.00000000000E+00 0.  1.
          1   -1    0    0  501    0  0.00000000000E+00 -0.00000000000E+00 -0.72336198440E+02  0.72336198440E+02  0.00000000000E+00 0. -1.
         23    2    1    2    0    0 -0.40777807664E+02 -0.46966974722E+02  0.23561717635E+02  0.10879820532E+03  0.86099759754E+02 0.  0.
          5    1    1    2  502    0  0.14014794434E+02  0.60043811540E+02  0.61465523559E+01  0.62104156650E+02  0.41800000000E+01 0. -1.
         -5    1    1    2    0  502  0.26763013230E+02 -0.13076836818E+02  0.12831484843E+03  0.13179315333E+03  0.41800000000E+01 0. -1.
        -11    1    3    3    0    0  0.17796575364E+02 -0.38864673556E+02 -0.51670212950E+01  0.43056695813E+02  0.00000000000E+00 0. -1.
         11    1    3    3    0    0 -0.58574383027E+02 -0.81023011666E+01  0.28728738930E+02  0.65741509503E+02  0.00000000000E+00 0.  1.
</event>
<event>
 7    1  0.4096326E-006  0.1045892E+03  0.7561462E-02  0.1270931E+00
         -2   -1    0    0    0  501 -0.00000000000E+00  0.00000000000E+00  0.16056227018E+02  0.16056227018E+02  0.00000000000E+00 0.  1.
          2   -1    0    0  501    0  0.00000000000E+00 -0.00000000000E+00 -0.74694943975E+03  0.74694943975E+03  0.00000000000E+00 0. -1.
         23    2    1    2    0    0  0.48402268078E+01 -0.21733956226E+02 -0.31320602483E+03  0.32642112758E+03  0.89201714644E+02 0.  0.
          5    1    1    2  502    0  0.55087195956E+02  0.33641354719E+02 -0.18537475908E+03  0.19633546193E+03  0.41800000000E+01 0.  1.
         -5    1    1    2    0  502 -0.59927422764E+02 -0.11907398492E+02 -0.23231242883E+03  0.24024907726E+03  0.41800000000E+01 0.  1.
        -11    1    3    3    0    0 -0.34638922074E+02 -0.26327672147E+02 -0.23159361141E+03  0.23564507652E+03  0.00000000000E+00 0. -1.
         11    1    3    3    0    0  0.39479148882E+02  0.45937159203E+01 -0.81612413420E+02  0.90776051064E+02  0.00000000000E+00 0.  1.
</event>
<event>
 7    1  0.4096326E-006  0.1312436E+03  0.7561462E-02  0.1225622E+00
          2   -1    0    0  501    0  0.00000000000E+00  0.00000000000E+00  0.11594565106E+04  0.11594565106E+04  0.00000000000E+00 0.  1.
         -2   -1    0    0    0  501 -0.00000000000E+00 -0.00000000000E+00 -0.16556393288E+02  0.16556393288E+02  0.00000000000E+00 0. -1.
         23    2    1    2    0    0 -0.18782433353E+02 -0.80913135994E+02  0.41781374754E+03  0.43554179936E+03  0.90711719089E+02 0.  0.
          5    1    1    2  502    0  0.28558375256E+02  0.11263459837E+03  0.53864065607E+03  0.55104751367E+03  0.41800000000E+01 0. -1.
         -5    1    1    2    0  502 -0.97759419025E+01 -0.31721462375E+02  0.18644571370E+03  0.18942359085E+03  0.41800000000E+01 0. -1.
        -11    1    3    3    0    0 -0.46431710106E+02 -0.31415498313E+02  0.29490801336E+03  0.30018922963E+03  0.00000000000E+00 0.  1.
         11    1    3    3    0    0  0.27649276752E+02 -0.49497637681E+02  0.12290573417E+03  0.13535256973E+03  0.00000000000E+00 0. -1.
</event>
<event>
 7    1  0.4096326E-006  0.1027937E+03  0.7561462E-02  0.1274529E+00
          2   -1    0    0  501    0  0.00000000000E+00  0.00000000000E+00  0.69412859448E+03  0.69412859448E+03  0.00000000000E+00 0. -1.
         -2   -1    0    0    0  501 -0.00000000000E+00 -0.00000000000E+00 -0.20568091312E+02  0.20568091312E+02  0.00000000000E+00 0.  1.
         23    2    1    2    0    0 -0.42330027192E+02  0.24308170243E+02  0.33392720602E+03  0.34948305684E+03  0.90820205650E+02 0.  0.
          5    1    1    2  502    0  0.43080018224E+02 -0.61677118123E+02  0.11521669358E+03  0.13766740264E+03  0.41800000000E+01 0.  1.
         -5    1    1    2    0  502 -0.74999103278E+00  0.37368947881E+02  0.22441660357E+03  0.22754622631E+03  0.41800000000E+01 0.  1.
        -11    1    3    3    0    0  0.82381249819E+01  0.39086934039E+02  0.22459491822E+03  0.22811955726E+03  0.00000000000E+00 0. -1.
         11    1    3    3    0    0 -0.50568152174E+02 -0.14778763796E+02  0.10933228780E+03  0.12136349958E+03  0.00000000000E+00 0.  1.
</event>
<event>
 7    1  0.4393848E-006  0.2683185E+03  0.7561462E-02  0.1102246E+00
          2   -1    0    0  501    0  0.00000000000E+00  0.00000000000E+00  0.25867887745E+03  0.25867887745E+03  0.00000000000E+00 0. -1.
         -2   -1    0    0    0  501 -0.00000000000E+00 -0.00000000000E+00 -0.31560116041E+03  0.31560116041E+03  0.00000000000E+00 0.  1.
         23    2    1    2    0    0  0.15426856841E+03 -0.21408737749E+03 -0.39104446917E+02  0.28171027462E+03  0.90550122364E+02 0.  0.
          5    1    1    2  502    0 -0.72307034060E+02  0.62173712360E+02 -0.62654032071E+02  0.11417914791E+03  0.41800000000E+01 0. -1.
         -5    1    1    2    0  502 -0.81961534346E+02  0.15191366513E+03  0.44836196030E+02  0.17839061533E+03  0.41800000000E+01 0. -1.
        -11    1    3    3    0    0  0.49250263366E+02 -0.11064551730E+03 -0.55822803570E+02  0.13335743076E+03  0.00000000000E+00 0. -1.
         11    1    3    3    0    0  0.10501830504E+03 -0.10344186019E+03  0.16718356652E+02  0.14835284386E+03  0.00000000000E+00 0.  1.
</event>
<event>
 7    1  0.4096326E-006  0.2084987E+03  0.7561462E-02  0.1142760E+00
         -2   -1    0    0    0  501 -0.00000000000E+00  0.00000000000E+00  0.37319350576E+03  0.37319350576E+03  0.00000000000E+00 0.  1.
          2   -1    0    0  501    0  0.00000000000E+00 -0.00000000000E+00 -0.12581449952E+03  0.12581449952E+03  0.00000000000E+00 0. -1.
         23    2    1    2    0    0 -0.11633024096E+03  0.14483357971E+03  0.14472899109E+03  0.25264743131E+03  0.91513676101E+02 0.  0.
          5    1    1    2  502    0  0.82983767687E+02 -0.16246121880E+03  0.10056735473E+03  0.20835359021E+03  0.41800000000E+01 0. -1.
         -5    1    1    2    0  502  0.33346473273E+02  0.17627639093E+02  0.20826604107E+01  0.38006983754E+02  0.41800000000E+01 0. -1.
        -11    1    3    3    0    0  0.18996267820E+01  0.35457107303E+02  0.62319082240E+02  0.71725051770E+02  0.00000000000E+00 0.  1.
         11    1    3    3    0    0 -0.11822986774E+03  0.10937647241E+03  0.82409908849E+02  0.18092237954E+03  0.00000000000E+00 0. -1.
</event>
<event>
 7    1  0.1798694E-005  0.3895912E+03  0.7561462E-02  0.1047445E+00
         -1   -1    0    0    0  501 -0.00000000000E+00  0.00000000000E+00  0.60013915585E+02  0.60013915585E+02  0.00000000000E+00 0.  1.
          1   -1    0    0  501    0  0.00000000000E+00 -0.00000000000E+00 -0.27591751217E+04  0.27591751217E+04  0.00000000000E+00 0. -1.
         23    2    1    2    0    0 -0.71870123974E+02  0.37216682480E+03 -0.16800170887E+04  0.17246682753E+04  0.91377137468E+02 0.  0.
          5    1    1    2  502    0  0.91995633791E+02 -0.22312539261E+03 -0.72508239512E+03  0.76420552836E+03  0.41800000000E+01 0.  1.
         -5    1    1    2    0  502 -0.20125509816E+02 -0.14904143219E+03 -0.29406172230E+03  0.33031523364E+03  0.41800000000E+01 0.  1.
        -11    1    3    3    0    0  0.84423125409E+00  0.20558902984E+03 -0.79266488046E+03  0.81889265147E+03  0.00000000000E+00 0.  1.
         11    1    3    3    0    0 -0.72714355229E+02  0.16657779495E+03 -0.88735220822E+03  0.90577562380E+03  0.00000000000E+00 0. -1.
</event>
<event>
 7    1  0.4096326E-006  0.1243199E+03  0.7561462E-02  0.1236136E+00
         -1   -1    0    0    0  501 -0.00000000000E+00  0.00000000000E+00  0.33676114457E+02  0.33676114457E+02  0.00000000000E+00 0.  1.
          1   -1    0    0  501    0  0.00000000000E+00 -0.00000000000E+00 -0.53649062968E+03  0.53649062968E+03  0.00000000000E+00 0. -1.
         23    2    1    2    0    0 -0.23870366260E+01  0.71741297337E+02 -0.27988350112E+03  0.30465393361E+03  0.96575014261E+02 0.  0.
          5    1    1    2  502    0  0.42375849930E+02  0.13577808168E+02 -0.41307021034E+02  0.60858951015E+02  0.41800000000E+01 0. -1.
         -5    1    1    2    0  502 -0.39988813304E+02 -0.85319105505E+02 -0.18162399307E+03  0.20465385951E+03  0.41800000000E+01 0. -1.
        -11    1    3    3    0    0  0.99614178285E+01  0.88362094558E+02 -0.26395345719E+03  0.27852920343E+03  0.00000000000E+00 0. -1.
         11    1    3    3    0    0 -0.12348454454E+02 -0.16620797221E+02 -0.15930043932E+02  0.26124730187E+02  0.00000000000E+00 0.  1.
</event>
<event>
 7    1  0.4096326E-006  0.1197055E+03  0.7561462E-02  0.1243584E+00
          1   -1    0    0  501    0  0.00000000000E+00  0.00000000000E+00  0.58885706747E+02  0.58885706747E+02  0.00000000000E+00 0.  1.
         -1   -1    0    0    0  501 -0.00000000000E+00 -0.00000000000E+00 -0.50073266790E+03  0.50073266790E+03  0.00000000000E+00 0. -1.
         23    2    1    2    0    0 -0.61913308874E+02 -0.46169362121E+02 -0.35814476039E+02  0.12778935979E+03  0.95302549633E+02 0.  0.
          5    1    1    2  502    0  0.89877210250E+02 -0.10986482766E+01 -0.28467498131E+03  0.29855725972E+03  0.41800000000E+01 0. -1.
         -5    1    1    2    0  502 -0.27963901375E+02  0.47268010397E+02 -0.12135750381E+03  0.13327175514E+03  0.41800000000E+01 0. -1.
        -11    1    3    3    0    0 -0.83102838790E+01 -0.39464563129E+02 -0.56947559496E+02  0.69782068569E+02  0.00000000000E+00 0. -1.
         11    1    3    3    0    0 -0.53603024995E+02 -0.67047989918E+01  0.21133083458E+02  0.58007291219E+02  0.00000000000E+00 0.  1.
</event>
<event>
 7    1  0.4096326E-006  0.8602836E+02  0.7561462E-02  0.1312765E+00
         -1   -1    0    0    0  501 -0.00000000000E+00  0.00000000000E+00  0.18581310158E+04  0.18581310158E+04  0.00000000000E+00 0.  1.
          1   -1    0    0  501    0  0.00000000000E+00 -0.00000000000E+00 -0.92804471550E+01  0.92804471550E+01  0.00000000000E+00 0. -1.
         23    2    1    2    0    0 -0.10015877740E+02 -0.35183071477E+02  0.38901197752E+03  0.40176725923E+03  0.93533125732E+02 0.  0.
          5    1    1    2  502    0  0.30709949094E+00  0.57443037957E+02  0.13964054782E+04  0.13975927622E+04  0.41800000000E+01 0. -1.
         -5    1    1    2    0  502  0.97087782490E+01 -0.22259966480E+02  0.63433112941E+02  0.68051441573E+02  0.41800000000E+01 0. -1.
        -11    1    3    3    0    0  0.23242056524E+02 -0.48666427575E+02  0.31417645932E+03  0.31877180232E+03  0.00000000000E+00 0.  1.
         11    1    3    3    0    0 -0.33257934264E+02  0.13483356098E+02  0.74835518206E+02  0.82995456913E+02  0.00000000000E+00 0. -1.
</event>
<event>
 7    1  0.4096326E-006  0.1790083E+03  0.7561462E-02  0.1168766E+00
          2   -1    0    0  501    0  0.00000000000E+00  0.00000000000E+00  0.14206664044E+03  0.14206664044E+03  0.00000000000E+00 0. -1.
         -2   -1    0    0    0  501 -0.00000000000E+00 -0.00000000000E+00 -0.25659550691E+03  0.25659550691E+03  0.00000000000E+00 0.  1.
         23    2    1    2    0    0  0.64067068730E+01 -0.15535641872E+03 -0.74477679162E+02  0.19512322172E+03  0.91375512209E+02 0.  0.
          5    1    1    2  502    0 -0.23065214620E+02  0.16710167472E+03 -0.55492280155E+02  0.17762837435E+03  0.41800000000E+01 0.  1.
         -5    1    1    2    0  502  0.16658507747E+02 -0.11745256002E+02  0.15441092846E+02  0.25910551271E+02  0.41800000000E+01 0.  1.
        -11    1    3    3    0    0  0.32812855355E+02 -0.11961388908E+03 -0.21344636741E+02  0.12585610615E+03  0.00000000000E+00 0. -1.
         11    1    3    3    0    0 -0.26406148482E+02 -0.35742529635E+02 -0.53133042421E+02  0.69267115570E+02  0.00000000000E+00 0.  1.
</event>
<event>
 7    1  0.4096326E-006  0.1255472E+03  0.7561462E-02  0.1234217E+00
          1   -1    0    0  501    0  0.00000000000E+00  0.00000000000E+00  0.22903581230E+02  0.22903581230E+02  0.00000000000E+00 0. -1.
         -1   -1    0    0    0  501 -0.00000000000E+00 -0.00000000000E+00 -0.12401316998E+04  0.12401316998E+04  0.00000000000E+00 0.  1.
         23    2    1    2    0    0  0.37157941522E+02 -0.87188704522E+02 -0.26607172861E+03  0.29901792989E+03  0.98157907536E+02 0.  0.
          5    1    1    2  502    0 -0.21883095198E+02  0.11786958461E+03 -0.65910007347E+03  0.66992722596E+03  0.41800000000E+01 0.  1.
         -5    1    1    2    0  502 -0.15274846324E+02 -0.30680880083E+02 -0.29205631645E+03  0.29409012515E+03  0.41800000000E+01 0.  1.
        -11    1    3    3    0    0  0.38094642689E+02 -0.72558939119E+02 -0.27133593416E+03  0.28344168821E+03  0.00000000000E+00 0.  1.
         11    1    3    3    0    0 -0.93670116690E+00 -0.14629765403E+02  0.52642055459E+01  0.15576241679E+02  0.00000000000E+00 0. -1.
</event>
<event>
 7    1  0.4096326E-006  0.1165750E+03  0.7561462E-02  0.1248857E+00
         -1   -1    0    0    0  501 -0.00000000000E+00  0.00000000000E+00  0.19666511180E+03  0.19666511180E+03  0.00000000000E+00 0.  1.
          1   -1    0    0  501    0  0.00000000000E+00 -0.00000000000E+00 -0.74228620217E+02  0.74228620217E+02  0.00000000000E+00 0. -1.
         23    2    1    2    0    0 -0.16267895188E+02  0.32962240668E+02  0.26617526801E+02  0.10015316590E+03  0.89280514020E+02 0.  0.
          5    1    1    2  502    0 -0.26230902701E+02 -0.75970307895E+02  0.59468412307E+02  0.10006753919E+03  0.41800000000E+01 0. -1.
         -5    1    1    2    0  502  0.42498797889E+02  0.43008067228E+02  0.36350552476E+02  0.70673026920E+02  0.41800000000E+01 0.  1.
        -11    1    3    3    0    0 -0.44395493847E+02 -0.51512692689E+01  0.28043382057E+02  0.52762929470E+02  0.00000000000E+00 0. -1.
         11    1    3    3    0    0  0.28127598659E+02  0.38113509937E+02 -0.14258552561E+01  0.47390236433E+02  0.00000000000E+00 0.  1.
</event>
<event>
 7    1  0.4096326E-006  0.2701073E+03  0.7561462E-02  0.1101218E+00
          2   -1    0    0  501    0  0.00000000000E+00  0.00000000000E+00  0.71523322670E+03  0.71523322670E+03  0.00000000000E+00 0.  1.
         -2   -1    0    0    0  501 -0.00000000000E+00 -0.00000000000E+00 -0.11579786386E+03  0.11579786386E+03  0.00000000000E+00 0. -1.
         23    2    1    2    0    0 -0.21636339086E+03 -0.13106132611E+03  0.17818195868E+03  0.32398837569E+03  0.96070125842E+02 0.  0.
          5    1    1    2  502    0  0.17482344075E+03  0.14636020723E+03  0.39297657867E+03  0.45434855505E+03  0.41800000000E+01 0.  1.
         -5    1    1    2    0  502  0.41539950107E+02 -0.15298881125E+02  0.28276825496E+02  0.52694159816E+02  0.41800000000E+01 0.  1.
        -11    1    3    3    0    0 -0.16050528183E+03 -0.13767484279E+03  0.12033956181E+03  0.24330622263E+03  0.00000000000E+00 0. -1.
         11    1    3    3    0    0 -0.55858109028E+02  0.66135166841E+01  0.57842396872E+02  0.80682153064E+02  0.00000000000E+00 0.  1.
</event>
<event>
 7    1  0.4096326E-006  0.3660435E+03  0.7561462E-02  0.1056216E+00
         -1   -1    0    0    0  501 -0.00000000000E+00  0.00000000000E+00  0.58172794597E+02  0.58172794597E+02  0.00000000000E+00 0.  1.
          1   -1    0    0  501    0  0.00000000000E+00 -0.00000000000E+00 -0.29206959969E+04  0.29206959969E+04  0.00000000000E+00 0. -1.
         23    2    1    2    0    0 -0.35503854404E+03 -0.39639162239E+02 -0.20450101215E+04  0.20779813764E+04  0.91195243152E+02 0.  0.
          5    1    1    2  502    0  0.28334672517E+03  0.42076248133E+01 -0.51364086495E+03  0.58664084525E+03  0.41800000000E+01 0. -1.
         -5    1    1    2    0  502  0.71691818870E+02  0.35431537426E+02 -0.30387221577E+03  0.31424656984E+03  0.41800000000E+01 0. -1.
        -11    1    3    3    0    0 -0.21479851273E+03 -0.68428989728E+02 -0.12743114140E+04  0.12940983377E+04  0.00000000000E+00 0.  1.
         11    1    3    3    0    0 -0.14024003132E+03  0.28789827489E+02 -0.77069870750E+03  0.78388303866E+03  0.00000000000E+00 0. -1.
</event>
<event>
 7    1  0.4096326E-006  0.9835937E+02  0.7561462E-02  0.1283784E+00
          1   -1    0    0  501    0  0.00000000000E+00  0.00000000000E+00  0.74834409011E+02  0.74834409011E+02  0.00000000000E+00 0. -1.
         -1   -1    0    0    0  501 -0.00000000000E+00 -0.00000000000E+00 -0.19863570437E+03  0.19863570437E+03  0.00000000000E+00 0.  1.
         23    2    1    2    0    0 -0.21096443879E+02  0.37444136090E+02 -0.15103762598E+02  0.10226765177E+03  0.91561048935E+02 0.  0.
          5    1    1    2  502    0  0.49368939172E+02  0.22189054727E+02 -0.14642580149E+02  0.56227429766E+02  0.41800000000E+01 0.  1.
         -5    1    1    2    0  502 -0.28272495293E+02 -0.59633190817E+02 -0.94054952616E+02  0.11497503185E+03  0.41800000000E+01 0.  1.
        -11    1    3    3    0    0 -0.34038932676E+02 -0.26791689126E+01 -0.40560718183E+02  0.53018852716E+02  0.00000000000E+00 0.  1.
         11    1    3    3    0    0  0.12942488797E+02  0.40123305002E+02  0.25456955585E+02  0.49248799054E+02  0.00000000000E+00 0. -1.
</event>
<event>
 7    1  0.4096326E-006  0.1226726E+03  0.7561462E-02  0.1238752E+00
          1   -1    0    0  501    0  0.00000000000E+00  0.00000000000E+00  0.66464714617E+03  0.66464714617E+03  0.00000000000E+00 0. -1.
         -1   -1    0    0    0  501 -0.00000000000E+00 -0.00000000000E+00 -0.32064021144E+02  0.32064021144E+02  0.00000000000E+00 0.  1.
         23    2    1    2    0    0  0.35323118461E+02 -0.91134251855E+02  0.30893783957E+03  0.33622883575E+03  0.89744452263E+02 0.  0.
          5    1    1    2  502    0 -0.26728837291E+02  0.11634422828E+03  0.30539959979E+03  0.32792803806E+03  0.41800000000E+01 0.  1.
         -5    1    1    2    0  502 -0.85942811702E+01 -0.25209976423E+02  0.18245685670E+02  0.32554293505E+02  0.41800000000E+01 0.  1.
        -11    1    3    3    0    0  0.27718515819E+01 -0.25736602664E+02  0.88176366075E+01  0.27346052607E+02  0.00000000000E+00 0.  1.
         11    1    3    3    0    0  0.32551266879E+02 -0.65397649192E+02  0.30012020296E+03  0.30888278314E+03  0.00000000000E+00 0. -1.
</event>
<event>
 7    1  0.4096326E-006  0.1711494E+03  0.7561462E-02  0.1176654E+00
          1   -1    0    0  501    0  0.00000000000E+00  0.00000000000E+00  0.79832622672E+03  0.79832622672E+03  0.00000000000E+00 0. -1.
         -1   -1    0    0    0  501 -0.00000000000E+00 -0.00000000000E+00 -0.48859740939E+02  0.48859740939E+02  0.00000000000E+00 0.  1.
         23    2    1    2    0    0 -0.14118079793E+03 -0.31747667087E+02  0.52522678797E+03  0.55244381966E+03  0.91602745611E+02 0.  0.
          5    1    1    2  502    0  0.79248168415E+02 -0.45496620819E+02  0.94960603124E+02  0.13185296071E+03  0.41800000000E+01 0. -1.
         -5    1    1    2    0  502  0.61932629517E+02  0.77244287906E+02  0.12927909469E+03  0.16288918729E+03  0.41800000000E+01 0. -1.
        -11    1    3    3    0    0 -0.90506596496E+02 -0.42401779708E+02  0.45098547722E+03  0.46192776015E+03  0.00000000000E+00 0. -1.
         11    1    3    3    0    0 -0.50674201437E+02  0.10654112621E+02  0.74241310755E+02  0.90516059512E+02  0.00000000000E+00 0.  1.
</event>
<event>
 7    1  0.4096326E-006  0.8183646E+02  0.7561462E-02  0.1323919E+00
         -1   -1    0    0    0  501 -0.00000000000E+00  0.00000000000E+00  0.40141439782E+03  0.40141439782E+03  0.00000000000E+00 0.  1.
          1   -1    0    0  501    0  0.00000000000E+00 -0.00000000000E+00 -0.72222756049E+02  0.72222756049E+02  0.00000000000E+00 0. -1.
         23    2    1    2    0    0  0.11743974370E+02 -0.28575093673E+02 -0.20458554214E+02  0.10100310791E+03  0.93960728262E+02 0.  0.
          5    1    1    2  502    0  0.57237431253E+00  0.44317276644E+02  0.34938752245E+03  0.35221223980E+03  0.41800000000E+01 0.  1.
         -5    1    1    2    0  502 -0.12316348683E+02 -0.15742182971E+02  0.26267354351E+00  0.20421806163E+02  0.41800000000E+01 0.  1.
        -11    1    3    3    0    0  0.16898236952E+02 -0.62334595480E+02 -0.10520031552E+02  0.65435642196E+02  0.00000000000E+00 0. -1.
         11    1    3    3    0    0 -0.51542625813E+01  0.33759501807E+02 -0.99385226618E+01  0.35567465719E+02  0.00000000000E+00 0.  1.
</event>
<event>
 7    1  0.4096326E-006  0.7734935E+02  0.7561462E-02  0.1336746E+00
          1   -1    0    0  501    0  0.00000000000E+00  0.00000000000E+00  0.22500594941E+03  0.22500594941E+03  0.00000000000E+00 0. -1.
         -1   -1    0    0    0  501 -0.00000000000E+00 -0.00000000000E+00 -0.56711864355E+02  0.56711864355E+02  0.00000000000E+00 0.  1.
         23    2    1    2    0    0  0.15894020068E+02  0.14795989275E+02  0.10375388712E+03  0.13929884247E+03  0.90375645220E+02 0.  0.
          5    1    1    2  502    0 -0.28513577041E+02  0.12581596883E+02  0.94571509222E+02  0.99662246675E+02  0.41800000000E+01 0. -1.
         -5    1    1    2    0  502  0.12619556973E+02 -0.27377586158E+02 -0.30031311289E+02  0.42756724615E+02  0.41800000000E+01 0. -1.
        -11    1    3    3    0    0  0.14018399748E+00  0.52217017591E+02  0.54715682528E+02  0.75633606897E+02  0.00000000000E+00 0.  1.
         11    1    3    3    0    0  0.15753836071E+02 -0.37421028317E+02  0.49038204590E+02  0.63665235573E+02  0.00000000000E+00 0. -1.
</event>
<event>
 7    1  0.4096326E-006  0.1006941E+03  0.7561462E-02  0.1278843E+00
         -3   -1    0    0    0  501 -0.00000000000E+00  0.00000000000E+00  0.12585012880E+03  0.12585012880E+03  0.00000000000E+00 0.  1.
          3   -1    0    0  501    0  0.00000000000E+00 -0.00000000000E+00 -0.11034210152E+03  0.11034210152E+03  0.00000000000E+00 0. -1.
         23    2    1    2    0    0  0.31380207212E+00  0.40270959036E+02 -0.12357873050E+00  0.10386455131E+03  0.95739130633E+02 0.  0.
          5    1    1    2  502    0  0.77171513002E+01 -0.73932207209E+02 -0.25237374607E+02  0.78612487329E+02  0.41800000000E+01 0.  1.
         -5    1    1    2    0  502 -0.80309533724E+01  0.33661248173E+02  0.40868980615E+02  0.53715191679E+02  0.41800000000E+01 0.  1.
        -11    1    3    3    0    0  0.36434461623E+02  0.42390481806E+02 -0.23662650664E+02  0.60698797171E+02  0.00000000000E+00 0. -1.
         11    1    3    3    0    0 -0.36120659551E+02 -0.21195227706E+01  0.23539071934E+02  0.43165754142E+02  0.00000000000E+00 0.  1.
</event>
<event>
 7    1  0.4096326E-006  0.3424960E+03  0.7561462E-02  0.1065738E+00
          2   -1    0    0  501    0  0.00000000000E+00  0.00000000000E+00  0.16821964094E+03  0.16821964094E+03  0.00000000000E+00 0. -1.
         -2   -1    0    0    0  501 -0.00000000000E+00 -0.00000000000E+00 -0.77223198801E+03  0.77223198801E+03  0.00000000000E+00 0.  1.
         23    2    1    2    0    0 -0.32446406657E+03 -0.67120936421E+02 -0.17978410423E+03  0.38782813436E+03  0.91138285436E+02 0.  0.
          5    1    1    2  502    0  0.16519893559E+03 -0.26727133534E+02 -0.22982268781E+03  0.28432546178E+03  0.41800000000E+01 0.  1.
         -5    1    1    2    0  502  0.15926513098E+03  0.93848069956E+02 -0.19440555504E+03  0.26829803281E+03  0.41800000000E+01 0.  1.
        -11    1    3    3    0    0 -0.16735492002E+03 -0.49903118033E+02 -0.45580598438E+02  0.18048706712E+03  0.00000000000E+00 0. -1.
         11    1    3    3    0    0 -0.15710914655E+03 -0.17217818388E+02 -0.13420350579E+03  0.20734106724E+03  0.00000000000E+00 0.  1.
</event>
<event>
 7    1  0.4096326E-006  0.1776936E+03  0.7561462E-02  0.1170054E+00
          2   -1    0    0  501    0  0.00000000000E+00  0.00000000000E+00  0.16456198058E+03  0.16456198058E+03  0.00000000000E+00 0. -1.
         -2   -1    0    0    0  501 -0.00000000000E+00 -0.00000000000E+00 -0.26892594639E+03  0.26892594639E+03  0.00000000000E+00 0.  1.
         23    2    1    2    0    0  0.23597735922E+02 -0.10282950098E+03  0.66190215255E+02  0.15498071192E+03  0.92234034158E+02 0.  0.
          5    1    1    2  502    0  0.83425009851E+02  0.66509007624E+02 -0.90181968841E+02  0.13976208451E+03  0.41800000000E+01 0. -1.
         -5    1    1    2    0  502 -0.10702274577E+03  0.36320493361E+02 -0.80372212223E+02  0.13874513054E+03  0.41800000000E+01 0.  1.
        -11    1    3    3    0    0 -0.18475802511E+02  0.55231025560E+01 -0.32909401102E+01  0.19562469861E+02  0.00000000000E+00 0.  1.
         11    1    3    3    0    0  0.42073538432E+02 -0.10835260354E+03  0.69481155365E+02  0.13541824205E+03  0.00000000000E+00 0. -1.
</event>
<event>
 7    1  0.4096326E-006  0.9205885E+02  0.7561462E-02  0.1297941E+00
         -2   -1    0    0    0  501 -0.00000000000E+00  0.00000000000E+00  0.19098243715E+03  0.19098243715E+03  0.00000000000E+00 0.  1.
          2   -1    0    0  501    0  0.00000000000E+00 -0.00000000000E+00 -0.11194177334E+03  0.11194177334E+03  0.00000000000E+00 0. -1.
         23    2    1    2    0    0 -0.57708704072E+01  0.75650852156E+02 -0.29478818351E+02  0.12077194102E+03  0.89221671302E+02 0.  0.
          5    1    1    2  502    0  0.31747565389E+02 -0.55889832560E+01 -0.16492920920E+02  0.36450424996E+02  0.41800000000E+01 0.  1.
         -5    1    1    2    0  502 -0.25976694981E+02 -0.70061868900E+02  0.12501240308E+03  0.14570184446E+03  0.41800000000E+01 0.  1.
        -11    1    3    3    0    0 -0.89503918848E+01  0.40441769786E+02  0.30301411227E+02  0.51320773383E+02  0.00000000000E+00 0.  1.
         11    1    3    3    0    0  0.31795214776E+01  0.35209082369E+02 -0.59780229577E+02  0.69451167639E+02  0.00000000000E+00 0. -1.
</event>
<event>
 7    1  0.5040226E-006  0.1663959E+03  0.7561462E-02  0.1181659E+00
         -2   -1    0    0    0  501 -0.00000000000E+00  0.00000000000E+00  0.68288144897E+02  0.68288144897E+02  0.00000000000E+00 0.  1.
          2   -1    0    0  501    0  0.00000000000E+00 -0.00000000000E+00 -0.63585031482E+03  0.63585031482E+03  0.00000000000E+00 0. -1.
         23    2    1    2    0    0 -0.14025973794E+03  0.68383976496E+02 -0.41402814555E+03  0.45200917284E+03  0.92432811805E+02 0.  0.
          5    1    1    2  502    0  0.14740471188E+03 -0.59227205003E+02 -0.80650214813E+02  0.17820757685E+03  0.41800000000E+01 0.  1.
         -5    1    1    2    0  502 -0.71449739428E+01 -0.91567714924E+01 -0.72883809564E+02  0.73921710027E+02  0.41800000000E+01 0.  1.
        -11    1    3    3    0    0 -0.86860414855E+02  0.19246054058E+02 -0.32602158643E+03  0.33794262395E+03  0.00000000000E+00 0. -1.
         11    1    3    3    0    0 -0.53399323085E+02  0.49137922437E+02 -0.88006559115E+02  0.11406654889E+03  0.00000000000E+00 0.  1.
</event>
<event>
 7    1  0.4096326E-006  0.1634190E+03  0.7561462E-02  0.1184890E+00
         -3   -1    0    0    0  501 -0.00000000000E+00  0.00000000000E+00  0.26742164988E+03  0.26742164988E+03  0.00000000000E+00 0.  1.
          3   -1    0    0  501    0  0.00000000000E+00 -0.00000000000E+00 -0.14409858014E+03  0.14409858014E+03  0.00000000000E+00 0. -1.
         23    2    1    2    0    0  0.44459259707E+02  0.13257728400E+03 -0.29687838378E+02  0.16941844894E+03  0.90927889494E+02 0.  0.
          5    1    1    2  502    0  0.80184064375E+01 -0.11700472932E+03  0.54643758492E+02  0.12945197668E+03  0.41800000000E+01 0. -1.
         -5    1    1    2    0  502 -0.52477666144E+02 -0.15572554678E+02  0.98367149624E+02  0.11264980439E+03  0.41800000000E+01 0. -1.
        -11    1    3    3    0    0  0.30810749219E+01  0.10458016841E+03  0.10705654340E+02  0.10517183883E+03  0.00000000000E+00 0.  1.
         11    1    3    3    0    0  0.41378184785E+02  0.27997115591E+02 -0.40393492717E+02  0.64246610116E+02  0.00000000000E+00 0. -1.
</event>
<event>
 7    1  0.4096326E-006  0.7232190E+02  0.7561462E-02  0.1352371E+00
          1   -1    0    0  501    0  0.00000000000E+00  0.00000000000E+00  0.48135092157E+03  0.48135092157E+03  0.00000000000E+00 0. -1.
         -1   -1    0    0    0  501 -0.00000000000E+00 -0.00000000000E+00 -0.24928641844E+02  0.24928641844E+02  0.00000000000E+00 0.  1.
         23    2    1    2    0    0 -0.10253759038E+02  0.14679145923E+02  0.20584654344E+03  0.22564458970E+03  0.90675600433E+02 0.  0.
          5    1    1    2  502    0 -0.83345060520E+01  0.25522482214E+02  0.23003464942E+03  0.23163392114E+03  0.41800000000E+01 0. -1.
         -5    1    1    2    0  502  0.18588265090E+02 -0.40201628136E+02  0.20541086866E+02  0.49001052575E+02  0.41800000000E+01 0. -1.
        -11    1    3    3    0    0  0.97986541233E+01 -0.25915718281E+02  0.15543482392E+03  0.15788483956E+03  0.00000000000E+00 0. -1.
         11    1    3    3    0    0 -0.20052413161E+02  0.40594864204E+02  0.50411719520E+02  0.67759750134E+02  0.00000000000E+00 0.  1.
</event>
<event>
 7    1  0.4096326E-006  0.9220525E+02  0.7561462E-02  0.1297598E+00
          4   -1    0    0  501    0  0.00000000000E+00  0.00000000000E+00  0.38090898098E+02  0.38090898098E+02  0.00000000000E+00 0. -1.
         -4   -1    0    0    0  501 -0.00000000000E+00 -0.00000000000E+00 -0.30840036061E+03  0.30840036061E+03  0.00000000000E+00 0.  1.
         23    2    1    2    0    0  0.74596412543E+01  0.28034299335E+01 -0.10049849608E+03  0.13542869874E+03  0.90429415904E+02 0.  0.
          5    1    1    2  502    0  0.53477827476E+02  0.22805589614E+02 -0.91634543334E+02  0.10860172596E+03  0.41800000000E+01 0.  1.
         -5    1    1    2    0  502 -0.60937468731E+02 -0.25609019548E+02 -0.78176423101E+02  0.10246083401E+03  0.41800000000E+01 0.  1.
        -11    1    3    3    0    0 -0.84244751093E+01 -0.25817781585E+02  0.25779472321E+01  0.27279579153E+02  0.00000000000E+00 0. -1.
         11    1    3    3    0    0  0.15884116364E+02  0.28621211519E+02 -0.10307644331E+03  0.10814911958E+03  0.00000000000E+00 0.  1.
</event>
<event>
 7    1  0.4096326E-006  0.7104525E+02  0.7561462E-02  0.1356574E+00
         -1   -1    0    0    0  501 -0.00000000000E+00  0.00000000000E+00  0.22236567429E+03  0.22236567429E+03  0.00000000000E+00 0.  1.
          1   -1    0    0  501    0  0.00000000000E+00 -0.00000000000E+00 -0.77763221127E+02  0.77763221127E+02  0.00000000000E+00 0. -1.
         23    2    1    2    0    0 -0.26234599967E+02  0.38079501382E+02 -0.24647001740E+01  0.10160235862E+03  0.90435954516E+02 0.  0.
          5    1    1    2  502    0 -0.33857892334E+00  0.24983245450E+02 -0.99320949442E+01  0.27210220485E+02  0.41800000000E+01 0. -1.
         -5    1    1    2    0  502  0.26573178890E+02 -0.63062746832E+02  0.15699924829E+03  0.17131631632E+03  0.41800000000E+01 0. -1.
        -11    1    3    3    0    0 -0.22828111530E+02  0.21799605857E+02 -0.45550113324E+02  0.55418032403E+02  0.00000000000E+00 0. -1.
         11    1    3    3    0    0 -0.34064884365E+01  0.16279895525E+02  0.43085413150E+02  0.46184326217E+02  0.00000000000E+00 0.  1.
</event>
<event>
 7    1  0.4096326E-006  0.1605804E+03  0.7561462E-02  0.1188043E+00
          2   -1    0    0  501    0  0.00000000000E+00  0.00000000000E+00  0.85497657462E+03  0.85497657462E+03  0.00000000000E+00 0. -1.
         -2   -1    0    0    0  501 -0.00000000000E+00 -0.00000000000E+00 -0.34997193779E+02  0.34997193779E+02  0.00000000000E+00 0.  1.
         23    2    1    2    0    0 -0.13338168570E+03 -0.63715638195E+01  0.40598569259E+03  0.43734496851E+03  0.92816851872E+02 0.  0.
          5    1    1    2  502    0  0.14515678710E+03 -0.54702030104E+01  0.26149363127E+03  0.29916017040E+03  0.41800000000E+01 0.  1.
         -5    1    1    2    0  502 -0.11775101398E+02  0.11841766830E+02  0.15250005699E+03  0.15346862948E+03  0.41800000000E+01 0.  1.
        -11    1    3    3    0    0 -0.93704787808E+02  0.36179331736E+02  0.30098372595E+03  0.31730227637E+03  0.00000000000E+00 0.  1.
         11    1    3    3    0    0 -0.39676897893E+02 -0.42550895555E+02  0.10500196664E+03  0.12004269214E+03  0.00000000000E+00 0. -1.
</event>
<event>
 7    1  0.4096326E-006  0.2145696E+03  0.7561462E-02  0.1137998E+00
          2   -1    0    0  501    0  0.00000000000E+00  0.00000000000E+00  0.60640386829E+03  0.60640386829E+03  0.00000000000E+00 0. -1.
         -2   -1    0    0    0  501 -0.00000000000E+00 -0.00000000000E+00 -0.81950962277E+02  0.81950962277E+02  0.00000000000E+00 0.  1.
         23    2    1    2    0    0 -0.50537965020E+02 -0.18543054630E+03  0.29679992485E+03  0.36521493720E+03  0.91395741408E+02 0.  0.
          5    1    1    2  502    0 -0.85867356255E+01 -0.16066413456E+02  0.25590668400E+02  0.31689373285E+02  0.41800000000E+01 0.  1.
         -5    1    1    2    0  502  0.59124700645E+02  0.20149695976E+03  0.20206231275E+03  0.29145052008E+03  0.41800000000E+01 0.  1.
        -11    1    3    3    0    0 -0.15968812345E+02 -0.15023652657E+03  0.16126188957E+03  0.22097831095E+03  0.00000000000E+00 0.  1.
         11    1    3    3    0    0 -0.34569152675E+02 -0.35194019732E+02  0.13553803528E+03  0.14423662624E+03  0.00000000000E+00 0. -1.
</event>
<event>
 7    1  0.4096326E-006  0.1679804E+03  0.7561462E-02  0.1179971E+00
          1   -1    0    0  501    0  0.00000000000E+00  0.00000000000E+00  0.42949218923E+03  0.42949218923E+03  0.00000000000E+00 0. -1.
         -1   -1    0    0    0  501 -0.00000000000E+00 -0.00000000000E+00 -0.12278637119E+03  0.12278637119E+03  0.00000000000E+00 0.  1.
         23    2    1    2    0    0 -0.11305461950E+03 -0.95839458896E+02  0.31274765977E+03  0.35823065683E+03  0.92474623174E+02 0.  0.
          5    1    1    2  502    0  0.53521076103E+02 -0.19160409756E+02 -0.26533691678E+02  0.62873969839E+02  0.41800000000E+01 0.  1.
         -5    1    1    2    0  502  0.59533543398E+02  0.11499986865E+03  0.20491849950E+02  0.13117393374E+03  0.41800000000E+01 0.  1.
        -11    1    3    3    0    0 -0.13899718193E+02 -0.45728906914E+01 -0.29904834639E+01  0.14935075711E+02  0.00000000000E+00 0.  1.
         11    1    3    3    0    0 -0.99154901307E+02 -0.91266568205E+02  0.31573814323E+03  0.34329558112E+03  0.00000000000E+00 0. -1.
</event>
<event>
 7    1  0.4096326E-006  0.1355108E+03  0.7561462E-02  0.1219500E+00
         -2   -1    0    0    0  501 -0.00000000000E+00  0.00000000000E+00  0.15894663498E+03  0.15894663498E+03  0.00000000000E+00 0.  1.
          2   -1    0    0  501    0  0.00000000000E+00 -0.00000000000E+00 -0.51611422948E+03  0.51611422948E+03  0.00000000000E+00 0. -1.
         23    2    1    2    0    0  0.44995770858E+02  0.98831553801E+02 -0.37924983808E+03  0.40465538599E+03  0.90129053610E+02 0.  0.
          5    1    1    2  502    0  0.29227720035E+01  0.12337725076E+02 -0.98552259135E+02  0.99452411921E+02  0.41800000000E+01 0. -1.
         -5    1    1    2    0  502 -0.47918542861E+02 -0.11116927888E+03  0.12063450272E+03  0.17095306655E+03  0.41800000000E+01 0.  1.
        -11    1    3    3    0    0 -0.14839584496E+02  0.67280838380E+02 -0.14012730855E+03  0.15614924618E+03  0.00000000000E+00 0.  1.
         11    1    3    3    0    0  0.59835355354E+02  0.31550715421E+02 -0.23912252954E+03  0.24850613981E+03  0.00000000000E+00 0. -1.
</event>
<event>
 7    1  0.4096326E-006  0.1312962E+03  0.7561462E-02  0.1225545E+00
          2   -1    0    0  501    0  0.00000000000E+00  0.00000000000E+00  0.29294565781E+03  0.29294565781E+03  0.00000000000E+00 0. -1.
         -2   -1    0    0    0  501 -0.00000000000E+00 -0.00000000000E+00 -0.62173735221E+02  0.62173735221E+02  0.00000000000E+00 0.  1.
         23    2    1    2    0    0 -0.48124058478E+02  0.64696094231E+02  0.10254468660E+03  0.15867407669E+03  0.90335708607E+02 0.  0.
          5    1    1    2  502    0  0.41921129291E+02 -0.98717103188E+02  0.11932101748E+03  0.16049119962E+03  0.41800000000E+01 0. -1.
         -5    1    1    2    0  502  0.62029291868E+01  0.34021008957E+02  0.89062185004E+01  0.35954116717E+02  0.41800000000E+01 0. -1.
        -11    1    3    3    0    0 -0.36353240137E+02  0.87507790057E+02  0.87155721329E+02  0.12874506262E+03  0.00000000000E+00 0. -1.
         11    1    3    3    0    0 -0.11770818341E+02 -0.22811695825E+02  0.15388965273E+02  0.29929014067E+02  0.00000000000E+00 0.  1.
</event>
<event>
 7    1  0.4096326E-006  0.1589411E+03  0.7561462E-02  0.1189897E+00
          2   -1    0    0  501    0  0.00000000000E+00  0.00000000000E+00  0.97140073511E+02  0.97140073511E+02  0.00000000000E+00 0. -1.
         -2   -1    0    0    0  501 -0.00000000000E+00 -0.00000000000E+00 -0.35848759717E+03  0.35848759717E+03  0.00000000000E+00 0.  1.
         23    2    1    2    0    0 -0.32058183896E+02 -0.13890496996E+03 -0.60920194324E+02  0.17969089074E+03  0.90858286938E+02 0.  0.
          5    1    1    2  502    0 -0.16776982375E+02  0.96980007014E+02 -0.46278412279E+02  0.10883819523E+03  0.41800000000E+01 0.  1.
         -5    1    1    2    0  502  0.48835166271E+02  0.41924962943E+02 -0.15414891706E+03  0.16709858471E+03  0.41800000000E+01 0.  1.
        -11    1    3    3    0    0 -0.46834695505E+02 -0.68792674110E+02 -0.68298285126E+02  0.10765953959E+03  0.00000000000E+00 0.  1.
         11    1    3    3    0    0  0.14776511609E+02 -0.70112295847E+02  0.73780908019E+01  0.72031351148E+02  0.00000000000E+00 0. -1.
</event>
<event>
 7    1  0.4096326E-006  0.9629331E+02  0.7561462E-02  0.1288290E+00
          1   -1    0    0  501    0  0.00000000000E+00  0.00000000000E+00  0.31554860577E+03  0.31554860577E+03  0.00000000000E+00 0. -1.
         -1   -1    0    0    0  501 -0.00000000000E+00 -0.00000000000E+00 -0.45679709122E+02  0.45679709122E+02  0.00000000000E+00 0.  1.
         23    2    1    2    0    0 -0.10195857293E+02  0.48533812454E+02  0.14301710789E+03  0.17625552545E+03  0.90291919058E+02 0.  0.
          5    1    1    2  502    0  0.61751744448E+02 -0.18839227344E+02  0.30196270152E+02  0.71396649504E+02  0.41800000000E+01 0.  1.
         -5    1    1    2    0  502 -0.51555887155E+02 -0.29694585110E+02  0.96655518611E+02  0.11357613994E+03  0.41800000000E+01 0.  1.
        -11    1    3    3    0    0  0.16421261694E+02  0.49017403858E+01 -0.64350614361E+01  0.18305597781E+02  0.00000000000E+00 0.  1.
         11    1    3    3    0    0 -0.26617118988E+02  0.43632072068E+02  0.14945216932E+03  0.15794992767E+03  0.00000000000E+00 0. -1.
</event>
<event>
 7    1  0.4096326E-006  0.1251776E+03  0.7561462E-02  0.1234792E+00
          2   -1    0    0  501    0  0.00000000000E+00  0.00000000000E+00  0.39133775640E+03  0.39133775640E+03  0.00000000000E+00 0. -1.
         -2   -1    0    0    0  501 -0.00000000000E+00 -0.00000000000E+00 -0.51917524771E+02  0.51917524771E+02  0.00000000000E+00 0.  1.
         23    2    1    2    0    0  0.16691796033E+02 -0.85540928881E+02  0.19718939334E+03  0.23475310688E+03  0.92895090176E+02 0.  0.
          5    1    1    2  502    0 -0.53435071932E+02  0.23683940151E+02  0.12228508570E+02  0.59860210118E+02  0.41800000000E+01 0. -1.
         -5    1    1    2    0  502  0.36743275899E+02  0.61856988730E+02  0.13000232973E+03  0.14864196417E+03  0.41800000000E+01 0. -1.
        -11    1    3    3    0    0  0.27852777735E+02 -0.98630223285E+02  0.19045638471E+03  0.21628068025E+03  0.00000000000E+00 0. -1.
         11    1    3    3    0    0 -0.11160981702E+02  0.13089294405E+02  0.67330086253E+01  0.18472426633E+02  0.00000000000E+00 0.  1.
</event>
<event>
 7    1  0.4096326E-006  0.1109265E+03  0.7561462E-02  0.1258864E+00
         -1   -1    0    0    0  501 -0.00000000000E+00  0.00000000000E+00  0.34832871681E+02  0.34832871681E+02  0.00000000000E+00 0.  1.
          1   -1    0    0  501    0  0.00000000000E+00 -0.00000000000E+00 -0.38969731769E+03  0.38969731769E+03  0.00000000000E+00 0. -1.
         23    2    1    2    0    0  0.36811199143E+02 -0.11122272537E+02 -0.19356280946E+03  0.21683172604E+03  0.89836890432E+02 0.  0.
          5    1    1    2  502    0  0.21413909303E+02  0.49904482422E+02 -0.10308625683E+03  0.11659014377E+03  0.41800000000E+01 0. -1.
         -5    1    1    2    0  502 -0.58225108447E+02 -0.38782209885E+02 -0.58215379716E+02  0.91108319557E+02  0.41800000000E+01 0. -1.
        -11    1    3    3    0    0  0.12118391434E+02 -0.49889774454E+02 -0.92092538820E+02  0.10543661941E+03  0.00000000000E+00 0.  1.
         11    1    3    3    0    0  0.24692807709E+02  0.38767501917E+02 -0.10147027064E+03  0.11139510663E+03  0.00000000000E+00 0. -1.
</event>
<event>
 7    1  0.4096326E-006  0.1237620E+03  0.7561462E-02  0.1237017E+00
          2   -1    0    0  501    0  0.00000000000E+00  0.00000000000E+00  0.11139779729E+03  0.11139779729E+03  0.00000000000E+00 0. -1.
         -2   -1    0    0    0  501 -0.00000000000E+00 -0.00000000000E+00 -0.17971242791E+03  0.17971242791E+03  0.00000000000E+00 0.  1.
         23    2    1    2    0    0 -0.34973269927E+02  0.94068733890E+02 -0.48731283605E+02  0.14049148633E+03  0.85387724087E+02 0.  0.
          5    1    1    2  502    0  0.70452640120E+01  0.12677903690E+02  0.26875573027E+02  0.30824240664E+02  0.41800000000E+01 0. -1.
         -5    1    1    2    0  502  0.27928005915E+02 -0.10674663758E+03 -0.46458920043E+02  0.11979449821E+03  0.41800000000E+01 0.  1.
        -11    1    3    3    0    0 -0.55879563954E+02  0.76299478390E+02 -0.58687927624E+02  0.11130322960E+03  0.00000000000E+00 0. -1.
         11    1    3    3    0    0  0.20906294027E+02  0.17769255500E+02  0.99566440194E+01  0.29188256732E+02  0.00000000000E+00 0.  1.
</event>
<event>
 7    1  0.4096326E-006  0.9935759E+02  0.7561462E-02  0.1281653E+00
         -1   -1    0    0    0  501 -0.00000000000E+00  0.00000000000E+00  0.41195418297E+02  0.41195418297E+02  0.00000000000E+00 0.  1.
          1   -1    0    0  501    0  0.00000000000E+00 -0.00000000000E+00 -0.32363409986E+03  0.32363409986E+03  0.00000000000E+00 0. -1.
         23    2    1    2    0    0 -0.91880302037E+00 -0.26927705238E+02 -0.16824448208E+03  0.19332478774E+03  0.91336314220E+02 0.  0.
          5    1    1    2  502    0 -0.44869809680E+02  0.38664969066E+02 -0.14544965616E+02  0.61133526631E+02  0.41800000000E+01 0. -1.
         -5    1    1    2    0  502  0.45788612700E+02 -0.11737263829E+02 -0.99649233875E+02  0.11037120379E+03  0.41800000000E+01 0. -1.
        -11    1    3    3    0    0 -0.42733045359E+02 -0.26076121742E+02 -0.65848872986E+02  0.82717297854E+02  0.00000000000E+00 0.  1.
         11    1    3    3    0    0  0.41814242339E+02 -0.85158349596E+00 -0.10239560909E+03  0.11060748988E+03  0.00000000000E+00 0. -1.
</event>
<event>
 7    1  0.4096326E-006  0.1076107E+03  0.7561462E-02  0.1265059E+00
          2   -1    0    0  501    0  0.00000000000E+00  0.00000000000E+00  0.99457823593E+02  0.99457823593E+02  0.00000000000E+00 0. -1.
         -2   -1    0    0    0  501 -0.00000000000E+00 -0.00000000000E+00 -0.15126634059E+03  0.15126634059E+03  0.00000000000E+00 0.  1.
         23    2    1    2    0    0  0.49176045460E+02  0.24820059326E+02 -0.14430049279E+02  0.10902462797E+03  0.92972169970E+02 0.  0.
          5    1    1    2  502    0  0.37015137520E+02 -0.21527708722E+02 -0.34749478194E+02  0.55304260986E+02  0.41800000000E+01 0.  1.
         -5    1    1    2    0  502 -0.86191182980E+02 -0.32923506041E+01 -0.26289895229E+01  0.86395275229E+02  0.41800000000E+01 0.  1.
        -11    1    3    3    0    0  0.36006931712E+02  0.47506953537E+02 -0.40479707728E+02  0.72055648657E+02  0.00000000000E+00 0.  1.
         11    1    3    3    0    0  0.13169113748E+02 -0.22686894210E+02  0.26049658449E+02  0.36968979309E+02  0.00000000000E+00 0. -1.
</event>
<event>
 7    1  0.4096326E-006  0.1209862E+03  0.7561462E-02  0.1241479E+00
         -1   -1    0    0    0  501 -0.00000000000E+00  0.00000000000E+00  0.18372110434E+03  0.18372110434E+03  0.00000000000E+00 0.  1.
          1   -1    0    0  501    0  0.00000000000E+00 -0.00000000000E+00 -0.37457109439E+03  0.37457109439E+03  0.00000000000E+00 0. -1.
         23    2    1    2    0    0  0.54681318520E+02  0.12216612665E+02 -0.33939447699E+03  0.35617299520E+03  0.92365032787E+02 0.  0.
          5    1    1    2  502    0 -0.16643795135E+01 -0.61363779169E+02  0.89889334441E+02  0.10893047507E+03  0.41800000000E+01 0. -1.
         -5    1    1    2    0  502 -0.53016939006E+02  0.49147166503E+02  0.58655152497E+02  0.93188728457E+02  0.41800000000E+01 0. -1.
        -11    1    3    3    0    0  0.63744228483E+02 -0.25934193983E+02 -0.21639356167E+03  0.22707285750E+03  0.00000000000E+00 0.  1.
         11    1    3    3    0    0 -0.90629099634E+01  0.38150806649E+02 -0.12300091532E+03  0.12910013770E+03  0.00000000000E+00 0. -1.
</event>
<event>
 7    1  0.4096326E-006  0.1867102E+03  0.7561462E-02  0.1161462E+00
         -2   -1    0    0    0  501 -0.00000000000E+00  0.00000000000E+00  0.68810816977E+02  0.68810816977E+02  0.00000000000E+00 0. -1.
          2   -1    0    0  501    0  0.00000000000E+00 -0.00000000000E+00 -0.63984226664E+03  0.63984226664E+03  0.00000000000E+00 0.  1.
         23    2    1    2    0    0  0.44307391168E+02  0.16552052707E+03 -0.36213478068E+03  0.41096031416E+03  0.91578330606E+02 0.  0.
          5    1    1    2  502    0 -0.39180567082E+01 -0.13142453671E+03 -0.69987515566E+02  0.14900833786E+03  0.41800000000E+01 0.  1.
         -5    1    1    2    0  502 -0.40389334459E+02 -0.34095990365E+02 -0.13890915341E+03  0.14868443159E+03  0.41800000000E+01 0.  1.
        -11    1    3    3    0    0 -0.20936378954E+01  0.13099735804E+03 -0.29207150742E+03  0.32011006948E+03  0.00000000000E+00 0.  1.
         11    1    3    3    0    0  0.46401029063E+02  0.34523169035E+02 -0.70063273261E+02  0.90850244680E+02  0.00000000000E+00 0. -1.
</event>
<event>
 7    1  0.4096326E-006  0.4024257E+03  0.7561462E-02  0.1042943E+00
          2   -1    0    0  501    0  0.00000000000E+00  0.00000000000E+00  0.13104062088E+04  0.13104062088E+04  0.00000000000E+00 0. -1.
         -2   -1    0    0    0  501 -0.00000000000E+00 -0.00000000000E+00 -0.22137763179E+03  0.22137763179E+03  0.00000000000E+00 0.  1.
         23    2    1    2    0    0 -0.37264565578E+03  0.12949014521E+03  0.10385902844E+04  0.11148624805E+04  0.92822890458E+02 0.  0.
          5    1    1    2  502    0  0.25870122545E+03 -0.37988275817E+02  0.66538087133E+02  0.26984110619E+03  0.41800000000E+01 0. -1.
         -5    1    1    2    0  502  0.11394443032E+03 -0.91501869397E+02 -0.16099794555E+02  0.14708025391E+03  0.41800000000E+01 0. -1.
        -11    1    3    3    0    0 -0.25414150035E+03  0.11052175235E+03  0.81898471547E+03  0.86460333339E+03  0.00000000000E+00 0.  1.
         11    1    3    3    0    0 -0.11850415543E+03  0.18968392869E+02  0.21960556894E+03  0.25025914707E+03  0.00000000000E+00 0. -1.
</event>
<event>
 7    1  0.4096326E-006  0.1464607E+03  0.7561462E-02  0.1204891E+00
          1   -1    0    0  501    0  0.00000000000E+00  0.00000000000E+00  0.11026420161E+04  0.11026420161E+04  0.00000000000E+00 0. -1.
         -1   -1    0    0    0  501 -0.00000000000E+00 -0.00000000000E+00 -0.20797120637E+02  0.20797120637E+02  0.00000000000E+00 0.  1.
         23    2    1    2    0    0 -0.98044727348E+02 -0.79742575648E+00  0.52836083524E+03  0.54758670707E+03  0.10522654178E+03 0.  0.
          5    1    1    2  502    0  0.31153074787E+02 -0.58186306158E+02  0.17767806711E+03  0.18958673009E+03  0.41800000000E+01 0. -1.
         -5    1    1    2    0  502  0.66891652561E+02  0.58983731915E+02  0.37580599308E+03  0.38626569955E+03  0.41800000000E+01 0. -1.
        -11    1    3    3    0    0 -0.74662638996E+02  0.44223253051E+02  0.24977835161E+03  0.26442282562E+03  0.00000000000E+00 0.  1.
         11    1    3    3    0    0 -0.23382088352E+02 -0.45020678808E+02  0.27858248363E+03  0.28316388145E+03  0.00000000000E+00 0. -1.
</event>
<event>
 7    1  0.4096326E-006  0.2058508E+03  0.7561462E-02  0.1144895E+00
         -1   -1    0    0    0  501 -0.00000000000E+00  0.00000000000E+00  0.15350789590E+03  0.15350789590E+03  0.00000000000E+00 0.  1.
          1   -1    0    0  501    0  0.00000000000E+00 -0.00000000000E+00 -0.32230943630E+03  0.32230943630E+03  0.00000000000E+00 0. -1.
         23    2    1    2    0    0 -0.18385523703E+03  0.41015475948E+02 -0.13048258386E+03  0.24646798375E+03  0.90751004802E+02 0.  0.
          5    1    1    2  502    0  0.54532259776E+01  0.16980494790E+02  0.25285639359E+02  0.31223562172E+02  0.41800000000E+01 0. -1.
         -5    1    1    2    0  502  0.17840201106E+03 -0.57995970738E+02 -0.63604595899E+02  0.19812578628E+03  0.41800000000E+01 0. -1.
        -11    1    3    3    0    0 -0.12160439658E+03 -0.14333407239E+02 -0.55677080402E+02  0.13451027140E+03  0.00000000000E+00 0. -1.
         11    1    3    3    0    0 -0.62250840452E+02  0.55348883187E+02 -0.74805503456E+02  0.11195771235E+03  0.00000000000E+00 0.  1.
</event>
<event>
 7    1  0.4096326E-006  0.1634374E+03  0.7561462E-02  0.1184870E+00
          2   -1    0    0  501    0  0.00000000000E+00  0.00000000000E+00  0.71322098505E+03  0.71322098505E+03  0.00000000000E+00 0. -1.
         -2   -1    0    0    0  501 -0.00000000000E+00 -0.00000000000E+00 -0.38309612332E+02  0.38309612332E+02  0.00000000000E+00 0.  1.
         23    2    1    2    0    0  0.85598327005E+02  0.89624843852E+02  0.34423598022E+03  0.37688877511E+03  0.90482332546E+02 0.  0.
          5    1    1    2  502    0  0.29772463045E+02 -0.24989893940E+00  0.53793306017E+02  0.61625109959E+02  0.41800000000E+01 0. -1.
         -5    1    1    2    0  502 -0.11537079005E+03 -0.89374944912E+02  0.27688208648E+03  0.31301671232E+03  0.41800000000E+01 0. -1.
        -11    1    3    3    0    0 -0.11821368018E+02  0.39540802280E+02  0.65692457024E+02  0.77580401498E+02  0.00000000000E+00 0.  1.
         11    1    3    3    0    0  0.97419695023E+02  0.50084041571E+02  0.27854352320E+03  0.29930837361E+03  0.00000000000E+00 0. -1.
</event>
<event>
 7    1  0.4096326E-006  0.3859871E+03  0.7561462E-02  0.1048743E+00
         -2   -1    0    0    0  501 -0.00000000000E+00  0.00000000000E+00  0.20587880220E+03  0.20587880220E+03  0.00000000000E+00 0.  1.
          2   -1    0    0  501    0  0.00000000000E+00 -0.00000000000E+00 -0.76956564004E+03  0.76956564004E+03  0.00000000000E+00 0. -1.
         23    2    1    2    0    0  0.15508404705E+03  0.34655769930E+03 -0.21941525780E+03  0.44788146981E+03  0.91112321049E+02 0.  0.
          5    1    1    2  502    0 -0.50730277363E+02 -0.18195392896E+03 -0.96076500710E+02  0.21196452461E+03  0.41800000000E+01 0.  1.
         -5    1    1    2    0  502 -0.10435376969E+03 -0.16460377034E+03 -0.24819507933E+03  0.31559844782E+03  0.41800000000E+01 0.  1.
        -11    1    3    3    0    0  0.44690058181E+02  0.19816943172E+03 -0.90231574793E+02  0.22228374223E+03  0.00000000000E+00 0. -1.
         11    1    3    3    0    0  0.11039398887E+03  0.14838826758E+03 -0.12918368300E+03  0.22559772758E+03  0.00000000000E+00 0.  1.
</event>
<event>
 7    1  0.4096326E-006  0.2860363E+03  0.7561462E-02  0.1092437E+00
         -2   -1    0    0    0  501 -0.00000000000E+00  0.00000000000E+00  0.26617522916E+03  0.26617522916E+03  0.00000000000E+00 0.  1.
          2   -1    0    0  501    0  0.00000000000E+00 -0.00000000000E+00 -0.38995737669E+03  0.38995737669E+03  0.00000000000E+00 0. -1.
         23    2    1    2    0    0  0.22057426561E+03 -0.16169871492E+03 -0.19392961072E+03  0.34731829888E+03  0.90674283945E+02 0.  0.
          5    1    1    2  502    0 -0.38997916700E+02 -0.22772704568E+01  0.49576897436E+02  0.63256340607E+02  0.41800000000E+01 0.  1.
         -5    1    1    2    0  502 -0.18157634891E+03  0.16397598538E+03  0.20570565756E+02  0.24555796636E+03  0.41800000000E+01 0.  1.
        -11    1    3    3    0    0  0.91009505867E+02 -0.14779045125E+02 -0.59254412080E+02  0.10960034527E+03  0.00000000000E+00 0.  1.
         11    1    3    3    0    0  0.12956475975E+03 -0.14691966980E+03 -0.13467519864E+03  0.23771795361E+03  0.00000000000E+00 0. -1.
</event>
<event>
 7    1  0.4096326E-006  0.9074001E+02  0.7561462E-02  0.1301069E+00
         -2   -1    0    0    0  501 -0.00000000000E+00  0.00000000000E+00  0.74460823698E+02  0.74460823698E+02  0.00000000000E+00 0.  1.
          2   -1    0    0  501    0  0.00000000000E+00 -0.00000000000E+00 -0.19179002909E+03  0.19179002909E+03  0.00000000000E+00 0. -1.
         23    2    1    2    0    0 -0.16122205915E+02 -0.48901264532E+02 -0.53460732663E+02  0.11665992894E+03  0.90001277137E+02 0.  0.
          5    1    1    2  502    0  0.43729577689E+02 -0.81528475523E+00  0.19919486407E+02  0.48241050909E+02  0.41800000000E+01 0.  1.
         -5    1    1    2    0  502 -0.27607371774E+02  0.49716549287E+02 -0.83787959140E+02  0.10134987295E+03  0.41800000000E+01 0.  1.
        -11    1    3    3    0    0 -0.39363812242E+02 -0.22467011484E+02  0.78161318264E+01  0.45993132487E+02  0.00000000000E+00 0.  1.
         11    1    3    3    0    0  0.23241606327E+02 -0.26434253047E+02 -0.61276864489E+02  0.70666796450E+02  0.00000000000E+00 0. -1.
</event>
<event>
 7    1  0.4096326E-006  0.8912343E+02  0.7561462E-02  0.1304988E+00
          2   -1    0    0  501    0  0.00000000000E+00  0.00000000000E+00  0.21994989172E+03  0.21994989172E+03  0.00000000000E+00 0. -1.
         -2   -1    0    0    0  501 -0.00000000000E+00 -0.00000000000E+00 -0.72325182616E+02  0.72325182616E+02  0.00000000000E+00 0.  1.
         23    2    1    2    0    0 -0.91852780177E+01 -0.50192600156E+02  0.12240248105E+03  0.15282264848E+03  0.75952143329E+02 0.  0.
          5    1    1    2  502    0 -0.48613824279E+02  0.34136047738E+02  0.46618154221E+02  0.75626042929E+02  0.41800000000E+01 0. -1.
         -5    1    1    2    0  502  0.57799102297E+02  0.16056552419E+02 -0.21395926168E+02  0.63826382934E+02  0.41800000000E+01 0.  1.
        -11    1    3    3    0    0 -0.17042612433E+02 -0.15644283861E+02  0.11411418350E+03  0.11643556644E+03  0.00000000000E+00 0. -1.
         11    1    3    3    0    0  0.78573344151E+01 -0.34548316296E+02  0.82882975567E+01  0.36387082040E+02  0.00000000000E+00 0.  1.
</event>
<event>
 7    1  0.4096326E-006  0.1268495E+03  0.7561462E-02  0.1232207E+00
         -2   -1    0    0    0  501 -0.00000000000E+00  0.00000000000E+00  0.23401232698E+02  0.23401232698E+02  0.00000000000E+00 0.  1.
          2   -1    0    0  501    0  0.00000000000E+00 -0.00000000000E+00 -0.83047652533E+03  0.83047652533E+03  0.00000000000E+00 0. -1.
         23    2    1    2    0    0 -0.64144188637E+02  0.31192606034E+02 -0.51896763167E+03  0.53179161695E+03  0.91583107227E+02 0.  0.
          5    1    1    2  502    0 -0.32225881351E+02  0.15370593561E+02 -0.89226639111E+02  0.96195780065E+02  0.41800000000E+01 0. -1.
         -5    1    1    2    0  502  0.96370069988E+02 -0.46563199595E+02 -0.19888102185E+03  0.22589036101E+03  0.41800000000E+01 0. -1.
        -11    1    3    3    0    0 -0.26902760459E+02 -0.29190079825E+02 -0.11542522436E+03  0.12206064763E+03  0.00000000000E+00 0.  1.
         11    1    3    3    0    0 -0.37241428178E+02  0.60382685859E+02 -0.40354240731E+03  0.40973096932E+03  0.00000000000E+00 0. -1.
</event>
<event>
 7    1  0.4096326E-006  0.1171810E+03  0.7561462E-02  0.1247821E+00
         -2   -1    0    0    0  501 -0.00000000000E+00  0.00000000000E+00  0.10153017384E+03  0.10153017384E+03  0.00000000000E+00 0.  1.
          2   -1    0    0  501    0  0.00000000000E+00 -0.00000000000E+00 -0.33229827066E+03  0.33229827066E+03  0.00000000000E+00 0. -1.
         23    2    1    2    0    0 -0.80082250126E+02 -0.57821206125E+01 -0.25559797402E+03  0.28312509781E+03  0.91558161750E+02 0.  0.
          5    1    1    2  502    0  0.60588949272E+02  0.62691808245E+02  0.23476316407E+02  0.90387462775E+02  0.41800000000E+01 0. -1.
         -5    1    1    2    0  502  0.19493300853E+02 -0.56909687632E+02  0.13535607923E+01  0.60315883906E+02  0.41800000000E+01 0. -1.
        -11    1    3    3    0    0 -0.36048179664E+02  0.13779849288E+02 -0.21616267204E+02  0.44233680735E+02  0.00000000000E+00 0.  1.
         11    1    3    3    0    0 -0.44034070461E+02 -0.19561969900E+02 -0.23398170682E+03  0.23889141708E+03  0.00000000000E+00 0. -1.
</event>
<event>
 7    1  0.4096326E-006  0.1049168E+03  0.7561462E-02  0.1270284E+00
         -1   -1    0    0    0  501 -0.00000000000E+00  0.00000000000E+00  0.61341163048E+02  0.61341163048E+02  0.00000000000E+00 0. -1.
          1   -1    0    0  501    0  0.00000000000E+00 -0.00000000000E+00 -0.36607505086E+03  0.36607505086E+03  0.00000000000E+00 0.  1.
         23    2    1    2    0    0  0.24015554671E+02 -0.83672387631E+02 -0.21778781371E+03  0.25196186730E+03  0.92062128232E+02 0.  0.
          5    1    1    2  502    0  0.24118088199E+02  0.67460777859E+02  0.32706236673E+01  0.71838764653E+02  0.41800000000E+01 0.  1.
         -5    1    1    2    0  502 -0.48133642871E+02  0.16211609772E+02 -0.90216697761E+02  0.10361558195E+03  0.41800000000E+01 0.  1.
        -11    1    3    3    0    0  0.12677660555E+02 -0.38496176850E+02 -0.19670189906E+03  0.20083405041E+03  0.00000000000E+00 0.  1.
         11    1    3    3    0    0  0.11337894116E+02 -0.45176210781E+02 -0.21085914650E+02  0.51127816893E+02  0.00000000000E+00 0. -1.
</event>
<event>
 7    1  0.4096326E-006  0.1015676E+03  0.7561462E-02  0.1277034E+00
         -1   -1    0    0    0  501 -0.00000000000E+00  0.00000000000E+00  0.18986020709E+02  0.18986020709E+02  0.00000000000E+00 0.  1.
          1   -1    0    0  501    0  0.00000000000E+00 -0.00000000000E+00 -0.73892794754E+03  0.73892794754E+03  0.00000000000E+00 0. -1.
         23    2    1    2    0    0 -0.29881195479E+02  0.41588498006E+02 -0.32321833196E+03  0.33879605002E+03  0.87693696382E+02 0.  0.
          5    1    1    2  502    0 -0.13145816118E+02 -0.55837660540E+02 -0.76680402067E+02  0.95854124988E+02  0.41800000000E+01 0.  1.
         -5    1    1    2    0  502  0.43027011597E+02  0.14249162534E+02 -0.32004319280E+03  0.32326379324E+03  0.41800000000E+01 0.  1.
        -11    1    3    3    0    0  0.20731958762E+02 -0.13928259315E+02 -0.58138944423E+02  0.63276752289E+02  0.00000000000E+00 0.  1.
         11    1    3    3    0    0 -0.50613154241E+02  0.55516757321E+02 -0.26507938754E+03  0.27551929773E+03  0.00000000000E+00 0. -1.
</event>
<event>
 7    1  0.4096326E-006  0.1116878E+03  0.7561462E-02  0.1257476E+00
          2   -1    0    0  501    0  0.00000000000E+00  0.00000000000E+00  0.26839570088E+03  0.26839570088E+03  0.00000000000E+00 0.  1.
         -2   -1    0    0    0  501 -0.00000000000E+00 -0.00000000000E+00 -0.69832092011E+02  0.69832092011E+02  0.00000000000E+00 0. -1.
         23    2    1    2    0    0 -0.17634346004E+02 -0.68779127409E+02  0.93705832200E+02  0.16022843622E+03  0.10886151872E+03 0.  0.
          5    1    1    2  502    0 -0.21337981858E+02  0.67285281002E+02  0.11719985100E+03  0.13687912911E+03  0.41800000000E+01 0. -1.
         -5    1    1    2    0  502  0.38972327862E+02  0.14938464073E+01 -0.12342074338E+02  0.41120227565E+02  0.41800000000E+01 0. -1.
        -11    1    3    3    0    0  0.36258562913E+02 -0.25648368013E+02  0.71577064483E+00  0.44418852911E+02  0.00000000000E+00 0.  1.
         11    1    3    3    0    0 -0.53892908917E+02 -0.43130759396E+02  0.92990061555E+02  0.11580958331E+03  0.00000000000E+00 0. -1.
</event>
<event>
 7    1  0.4096326E-006  0.1008691E+03  0.7561462E-02  0.1278479E+00
          1   -1    0    0  501    0  0.00000000000E+00  0.00000000000E+00  0.30929539968E+03  0.30929539968E+03  0.00000000000E+00 0. -1.
         -1   -1    0    0    0  501 -0.00000000000E+00 -0.00000000000E+00 -0.60424383425E+02  0.60424383425E+02  0.00000000000E+00 0.  1.
         23    2    1    2    0    0  0.50034632916E+02  0.53836962533E+01  0.19991214592E+03  0.22627147683E+03  0.93281651263E+02 0.  0.
          5    1    1    2  502    0 -0.27185582252E+02 -0.44872482128E+02  0.74331068476E+02  0.91077855023E+02  0.41800000000E+01 0.  1.
         -5    1    1    2    0  502 -0.22849050664E+02  0.39488785875E+02 -0.25372198142E+02  0.52370451255E+02  0.41800000000E+01 0.  1.
        -11    1    3    3    0    0  0.74567593560E+02  0.16480266694E+02  0.16782870261E+03  0.18438654674E+03  0.00000000000E+00 0.  1.
         11    1    3    3    0    0 -0.24532960644E+02 -0.11096570441E+02  0.32083443310E+02  0.41884930084E+02  0.00000000000E+00 0. -1.
</event>
<event>
 7    1  0.4096326E-006  0.8584664E+02  0.7561462E-02  0.1313233E+00
         -1   -1    0    0    0  501 -0.00000000000E+00  0.00000000000E+00  0.19595502934E+03  0.19595502934E+03  0.00000000000E+00 0.  1.
          1   -1    0    0  501    0  0.00000000000E+00 -0.00000000000E+00 -0.69264544546E+02  0.69264544546E+02  0.00000000000E+00 0. -1.
         23    2    1    2    0    0 -0.35994837290E+02 -0.13912323993E+02  0.32822228029E+02  0.10413745595E+03  0.90984229445E+02 0.  0.
          5    1    1    2  502    0  0.45922505195E+02 -0.99793987341E+01 -0.14683123852E+02  0.49411854939E+02  0.41800000000E+01 0.  1.
         -5    1    1    2    0  502 -0.99276679044E+01  0.23891722728E+02  0.10855138061E+03  0.11167026300E+03  0.41800000000E+01 0.  1.
        -11    1    3    3    0    0  0.14015726374E+02 -0.39654685225E+02  0.19366819828E+02  0.46303437846E+02  0.00000000000E+00 0. -1.
         11    1    3    3    0    0 -0.50010563664E+02  0.25742361232E+02  0.13455408201E+02  0.57834018101E+02  0.00000000000E+00 0.  1.
</event>
<event>
 7    1  0.4096326E-006  0.9184003E+02  0.7561462E-02  0.1298456E+00
         -1   -1    0    0    0  501 -0.00000000000E+00  0.00000000000E+00  0.28577018880E+03  0.28577018880E+03  0.00000000000E+00 0.  1.
          1   -1    0    0  501    0  0.00000000000E+00 -0.00000000000E+00 -0.51110939453E+02  0.51110939453E+02  0.00000000000E+00 0. -1.
         23    2    1    2    0    0  0.84432534201E+01 -0.45610530484E+02  0.64969435783E+02  0.12102675691E+03  0.90966143604E+02 0.  0.
          5    1    1    2  502    0 -0.37584043817E+02 -0.23656343845E+02  0.21215992579E+02  0.49394065381E+02  0.41800000000E+01 0. -1.
         -5    1    1    2    0  502  0.29140790397E+02  0.69266874329E+02  0.14847382099E+03  0.16646030597E+03  0.41800000000E+01 0. -1.
        -11    1    3    3    0    0 -0.11788613687E+02 -0.41531639186E+02 -0.91125384058E+01  0.44123540456E+02  0.00000000000E+00 0. -1.
         11    1    3    3    0    0  0.20231867107E+02 -0.40788912975E+01  0.74081974189E+02  0.76903216452E+02  0.00000000000E+00 0.  1.
</event>
<event>
 7    1  0.4096326E-006  0.2266834E+03  0.7561462E-02  0.1128996E+00
         -1   -1    0    0    0  501 -0.00000000000E+00  0.00000000000E+00  0.68821047010E+02  0.68821047010E+02  0.00000000000E+00 0.  1.
          1   -1    0    0  501    0  0.00000000000E+00 -0.00000000000E+00 -0.10185161157E+04  0.10185161157E+04  0.00000000000E+00 0. -1.
         23    2    1    2    0    0 -0.50463336716E+02 -0.20331170125E+03 -0.70972342642E+03  0.74511516117E+03  0.87218491016E+02 0.  0.
          5    1    1    2  502    0  0.20292181152E+02  0.21130341026E+03 -0.21325408458E+03  0.30092470951E+03  0.41800000000E+01 0. -1.
         -5    1    1    2    0  502  0.30171155565E+02 -0.79917090082E+01 -0.26717557712E+02  0.41297292055E+02  0.41800000000E+01 0. -1.
        -11    1    3    3    0    0 -0.26033237994E+02 -0.92976106794E+02 -0.18858306162E+03  0.21186282601E+03  0.00000000000E+00 0.  1.
         11    1    3    3    0    0 -0.24430098722E+02 -0.11033559446E+03 -0.52114036480E+03  0.53325233516E+03  0.00000000000E+00 0. -1.
</event>
<event>
 7    1  0.4096326E-006  0.1532551E+03  0.7561462E-02  0.1196529E+00
          1   -1    0    0  501    0  0.00000000000E+00  0.00000000000E+00  0.24098177404E+03  0.24098177404E+03  0.00000000000E+00 0. -1.
         -1   -1    0    0    0  501 -0.00000000000E+00 -0.00000000000E+00 -0.12539616932E+03  0.12539616932E+03  0.00000000000E+00 0.  1.
         23    2    1    2    0    0 -0.10601297967E+03 -0.81019337724E+02  0.69658745858E+02  0.17780537356E+03  0.94654767705E+02 0.  0.
          5    1    1    2  502    0  0.76528125439E+02  0.84159902223E+02  0.83029893882E+02  0.14089314676E+03  0.41800000000E+01 0.  1.
         -5    1    1    2    0  502  0.29484854231E+02 -0.31405644993E+01 -0.37103035011E+02  0.47679423039E+02  0.41800000000E+01 0.  1.
        -11    1    3    3    0    0 -0.47804127172E+02 -0.91834649513E+02  0.52956788044E+02  0.11628954736E+03  0.00000000000E+00 0. -1.
         11    1    3    3    0    0 -0.58208852497E+02  0.10815311789E+02  0.16701957815E+02  0.61515826200E+02  0.00000000000E+00 0.  1.
</event>
<event>
 7    1  0.4096326E-006  0.1335489E+03  0.7561462E-02  0.1222283E+00
          1   -1    0    0  501    0  0.00000000000E+00  0.00000000000E+00  0.17475097424E+03  0.17475097424E+03  0.00000000000E+00 0. -1.
         -1   -1    0    0    0  501 -0.00000000000E+00 -0.00000000000E+00 -0.16141923725E+03  0.16141923725E+03  0.00000000000E+00 0.  1.
         23    2    1    2    0    0  0.10859935094E+03  0.49407376545E+02  0.49490348847E+02  0.15790968461E+03  0.90836479356E+02 0.  0.
          5    1    1    2  502    0 -0.91532169022E+02 -0.54151108795E+02  0.29240143434E+02  0.11037635135E+03  0.41800000000E+01 0. -1.
         -5    1    1    2    0  502 -0.17067181923E+02  0.47437322502E+01 -0.65398755288E+02  0.67884175532E+02  0.41800000000E+01 0.  1.
        -11    1    3    3    0    0 -0.11706666622E+02 -0.15549365514E+01  0.21139130886E+02  0.24214184391E+02  0.00000000000E+00 0. -1.
         11    1    3    3    0    0  0.12030601757E+03  0.50962313096E+02  0.28351217961E+02  0.13369550022E+03  0.00000000000E+00 0.  1.
</event>
<event>
 7    1  0.4096326E-006  0.8629572E+02  0.7561462E-02  0.1312078E+00
          2   -1    0    0  501    0  0.00000000000E+00  0.00000000000E+00  0.23309469920E+03  0.23309469920E+03  0.00000000000E+00 0. -1.
         -2   -1    0    0    0  501 -0.00000000000E+00 -0.00000000000E+00 -0.52270288368E+02  0.52270288368E+02  0.00000000000E+00 0.  1.
         23    2    1    2    0    0 -0.22652006590E+02 -0.84893278446E+00  0.82547856303E+02  0.12468706101E+03  0.90658041638E+02 0.  0.
          5    1    1    2  502    0 -0.60915278540E+01 -0.53619961915E+02  0.13457885341E+02  0.55774493321E+02  0.41800000000E+01 0. -1.
         -5    1    1    2    0  502  0.28743534444E+02  0.54468894699E+02  0.84818669182E+02  0.10490343323E+03  0.41800000000E+01 0. -1.
        -11    1    3    3    0    0 -0.33250486624E+02 -0.17056663743E+02 -0.25083333663E+01  0.37454190354E+02  0.00000000000E+00 0.  1.
         11    1    3    3    0    0  0.10598480034E+02  0.16207730958E+02  0.85056189670E+02  0.87232870656E+02  0.00000000000E+00 0. -1.
</event>
<event>
 7    1  0.4096326E-006  0.8592323E+02  0.7561462E-02  0.1313036E+00
         -2   -1    0    0    0  501 -0.00000000000E+00  0.00000000000E+00  0.18868198142E+03  0.18868198142E+03  0.00000000000E+00 0. -1.
          2   -1    0    0  501    0  0.00000000000E+00 -0.00000000000E+00 -0.10613211504E+03  0.10613211504E+03  0.00000000000E+00 0.  1.
         23    2    1    2    0    0  0.47277357937E+02  0.47052657564E+02 -0.26396953005E+02  0.11602415481E+03  0.91190483129E+02 0.  0.
          5    1    1    2  502    0 -0.30750978228E+02 -0.30918570393E+02 -0.19690513911E+02  0.48028839204E+02  0.41800000000E+01 0.  1.
         -5    1    1    2    0  502 -0.16526379709E+02 -0.16134087171E+02  0.12863733330E+03  0.13076110245E+03  0.41800000000E+01 0.  1.
        -11    1    3    3    0    0  0.44915853602E+02 -0.11181029280E+02 -0.33744553136E+02  0.57281272567E+02  0.00000000000E+00 0.  1.
         11    1    3    3    0    0  0.23615043355E+01  0.58233686844E+02  0.73476001310E+01  0.58742882240E+02  0.00000000000E+00 0. -1.
</event>
<event>
 7    1  0.4096326E-006  0.1528736E+03  0.7561462E-02  0.1196986E+00
         -1   -1    0    0    0  501 -0.00000000000E+00  0.00000000000E+00  0.24347308973E+03  0.24347308973E+03  0.00000000000E+00 0.  1.
          1   -1    0    0  501    0  0.00000000000E+00 -0.00000000000E+00 -0.13736867711E+03  0.13736867711E+03  0.00000000000E+00 0. -1.
         23    2    1    2    0    0  0.89390565255E+02 -0.10642427524E+03  0.17226577409E+01  0.16669702105E+03  0.92022441609E+02 0.  0.
          5    1    1    2  502    0 -0.30148242935E+02  0.16361606904E+02 -0.27210702535E+02  0.43983104313E+02  0.41800000000E+01 0. -1.
         -5    1    1    2    0  502 -0.59242322319E+02  0.90062668339E+02  0.13159245741E+03  0.17016164148E+03  0.41800000000E+01 0. -1.
        -11    1    3    3    0    0  0.10375887704E+03 -0.72817711080E+02  0.15356414346E+02  0.12768767784E+03  0.00000000000E+00 0.  1.
         11    1    3    3    0    0 -0.14368311784E+02 -0.33606564162E+02 -0.13633756605E+02  0.39009343207E+02  0.00000000000E+00 0. -1.
</event>
<event>
 7    1  0.4096326E-006  0.1076832E+03  0.7561462E-02  0.1264921E+00
         -2   -1    0    0    0  501 -0.00000000000E+00  0.00000000000E+00  0.77634853302E+03  0.77634853302E+03  0.00000000000E+00 0.  1.
          2   -1    0    0  501    0  0.00000000000E+00 -0.00000000000E+00 -0.16833847019E+02  0.16833847019E+02  0.00000000000E+00 0. -1.
         23    2    1    2    0    0  0.17210849902E+02  0.61572357774E+01  0.22198459803E+03  0.24101617128E+03  0.92073384585E+02 0.  0.
          5    1    1    2  502    0 -0.15221592304E+02 -0.63986413898E+02  0.33837560487E+03  0.34473392698E+03  0.41800000000E+01 0. -1.
         -5    1    1    2    0  502 -0.19892575981E+01  0.57829178120E+02  0.19915448309E+03  0.20743228178E+03  0.41800000000E+01 0. -1.
        -11    1    3    3    0    0  0.13125130616E+02 -0.41545841689E+02  0.13320361434E+03  0.14014823898E+03  0.00000000000E+00 0.  1.
         11    1    3    3    0    0  0.40857192860E+01  0.47703077466E+02  0.88780983690E+02  0.10086793230E+03  0.00000000000E+00 0. -1.
</event>
<event>
 7    1  0.4096326E-006  0.9597825E+02  0.7561462E-02  0.1288988E+00
         -3   -1    0    0    0  501 -0.00000000000E+00  0.00000000000E+00  0.86035846008E+03  0.86035846008E+03  0.00000000000E+00 0.  1.
          3   -1    0    0  501    0  0.00000000000E+00 -0.00000000000E+00 -0.16212360447E+02  0.16212360447E+02  0.00000000000E+00 0. -1.
         23    2    1    2    0    0  0.38031114156E+02  0.25222006546E+01  0.24627730684E+03  0.26456850877E+03  0.88832746393E+02 0.  0.
          5    1    1    2  502    0 -0.13327707768E+02 -0.58718166329E+02  0.18559575818E+03  0.19516328729E+03  0.41800000000E+01 0. -1.
         -5    1    1    2    0  502 -0.24703406388E+02  0.56195965674E+02  0.41227303461E+03  0.41683902446E+03  0.41800000000E+01 0. -1.
        -11    1    3    3    0    0  0.53705237586E+02 -0.20499035718E+01  0.24171200291E+03  0.24761491676E+03  0.00000000000E+00 0.  1.
         11    1    3    3    0    0 -0.15674123430E+02  0.45721042264E+01  0.45653039250E+01  0.16953592017E+02  0.00000000000E+00 0. -1.
</event>
<event>
 7    1  0.4096326E-006  0.1083230E+03  0.7561462E-02  0.1263707E+00
         -1   -1    0    0    0  501 -0.00000000000E+00  0.00000000000E+00  0.30440291426E+03  0.30440291426E+03  0.00000000000E+00 0.  1.
          1   -1    0    0  501    0  0.00000000000E+00 -0.00000000000E+00 -0.82913608298E+02  0.82913608298E+02  0.00000000000E+00 0. -1.
         23    2    1    2    0    0 -0.50078325047E+02 -0.51914716313E+02  0.21940206770E+02  0.14100290962E+03  0.11915314279E+03 0.  0.
          5    1    1    2  502    0 -0.75567517790E+01  0.79492262902E+02  0.11994141484E+03  0.14415110042E+03  0.41800000000E+01 0.  1.
         -5    1    1    2    0  502  0.57635076826E+02 -0.27577546589E+02  0.79607684355E+02  0.10216251252E+03  0.41800000000E+01 0.  1.
        -11    1    3    3    0    0 -0.39831794393E+02 -0.35776509888E+02 -0.45899313367E+02  0.70521468163E+02  0.00000000000E+00 0. -1.
         11    1    3    3    0    0 -0.10246530654E+02 -0.16138206426E+02  0.67839520136E+02  0.70481441454E+02  0.00000000000E+00 0.  1.
</event>
<event>
 7    1  0.4096326E-006  0.1096936E+03  0.7561462E-02  0.1261138E+00
         -1   -1    0    0    0  501 -0.00000000000E+00  0.00000000000E+00  0.13400527196E+02  0.13400527196E+02  0.00000000000E+00 0.  1.
          1   -1    0    0  501    0  0.00000000000E+00 -0.00000000000E+00 -0.10555002893E+04  0.10555002893E+04  0.00000000000E+00 0. -1.
         23    2    1    2    0    0 -0.48867923155E+01 -0.48984174122E+02 -0.46636809110E+03  0.47768202068E+03  0.90871262947E+02 0.  0.
          5    1    1    2  502    0 -0.32521529205E+02 -0.20498957147E+02 -0.75943031752E+02  0.85221321145E+02  0.41800000000E+01 0.  1.
         -5    1    1    2    0  502  0.37408321521E+02  0.69483131268E+02 -0.49978863929E+03  0.50599747471E+03  0.41800000000E+01 0.  1.
        -11    1    3    3    0    0  0.36623025922E+02 -0.47734803765E+02 -0.31643026443E+03  0.32209931661E+03  0.00000000000E+00 0.  1.
         11    1    3    3    0    0 -0.41509818238E+02 -0.12493703569E+01 -0.14993782668E+03  0.15558270407E+03  0.00000000000E+00 0. -1.
</event>
<event>
 7    1  0.4096326E-006  0.1215000E+03  0.7561462E-02  0.1240643E+00
          3   -1    0    0  501    0  0.00000000000E+00  0.00000000000E+00  0.46923011482E+03  0.46923011482E+03  0.00000000000E+00 0. -1.
         -3   -1    0    0    0  501 -0.00000000000E+00 -0.00000000000E+00 -0.32778666434E+02  0.32778666434E+02  0.00000000000E+00 0.  1.
         23    2    1    2    0    0 -0.52169636787E+02  0.20689569501E+02  0.23834346103E+03  0.26108515885E+03  0.90598705659E+02 0.  0.
          5    1    1    2  502    0 -0.39955427538E+02 -0.19805499852E+02  0.60727018796E+02  0.75458181969E+02  0.41800000000E+01 0. -1.
         -5    1    1    2    0  502  0.92125064325E+02 -0.88406964894E+00  0.13738096855E+03  0.16546544043E+03  0.41800000000E+01 0. -1.
        -11    1    3    3    0    0 -0.21361666482E+02 -0.35772646679E+02  0.10735329978E+03  0.11515526049E+03  0.00000000000E+00 0. -1.
         11    1    3    3    0    0 -0.30807970305E+02  0.56462216180E+02  0.13099016125E+03  0.14592989836E+03  0.00000000000E+00 0.  1.
</event>
<event>
 7    1  0.4096326E-006  0.7644916E+02  0.7561462E-02  0.1339441E+00
          2   -1    0    0  501    0  0.00000000000E+00  0.00000000000E+00  0.10797505937E+03  0.10797505937E+03  0.00000000000E+00 0. -1.
         -2   -1    0    0    0  501 -0.00000000000E+00 -0.00000000000E+00 -0.12647862891E+03  0.12647862891E+03  0.00000000000E+00 0.  1.
         23    2    1    2    0    0 -0.92498391595E+01 -0.25117370409E+02  0.25841779985E+02  0.99063407506E+02  0.91811324428E+02 0.  0.
          5    1    1    2  502    0 -0.65238377303E+01  0.37219432394E+02  0.36095666027E+02  0.52423430948E+02  0.41800000000E+01 0.  1.
         -5    1    1    2    0  502  0.15773676890E+02 -0.12102061985E+02 -0.80441015550E+02  0.82966849824E+02  0.41800000000E+01 0.  1.
        -11    1    3    3    0    0  0.10779855076E+02 -0.56399145791E+02  0.84138346691E+01  0.58033279549E+02  0.00000000000E+00 0. -1.
         11    1    3    3    0    0 -0.20029694235E+02  0.31281775382E+02  0.17427945316E+02  0.41030127957E+02  0.00000000000E+00 0.  1.
</event>
<event>
 7    1  0.4096326E-006  0.1849344E+03  0.7561462E-02  0.1163111E+00
          1   -1    0    0  501    0  0.00000000000E+00  0.00000000000E+00  0.14244350182E+03  0.14244350182E+03  0.00000000000E+00 0. -1.
         -1   -1    0    0    0  501 -0.00000000000E+00 -0.00000000000E+00 -0.39073265144E+03  0.39073265144E+03  0.00000000000E+00 0.  1.
         23    2    1    2    0    0 -0.21344713513E+02 -0.16265646860E+03  0.26788936604E+02  0.18933313420E+03  0.90645821792E+02 0.  0.
          5    1    1    2  502    0  0.73025877715E+02  0.81520082115E+02 -0.15812349215E+03  0.19235075714E+03  0.41800000000E+01 0.  1.
         -5    1    1    2    0  502 -0.51681164203E+02  0.81136386486E+02 -0.11695459407E+03  0.15149226192E+03  0.41800000000E+01 0.  1.
        -11    1    3    3    0    0 -0.77523237464E+01 -0.63245731285E+02 -0.33793911174E+02  0.72125927943E+02  0.00000000000E+00 0.  1.
         11    1    3    3    0    0 -0.13592389766E+02 -0.99410737316E+02  0.60582847778E+02  0.11720720626E+03  0.00000000000E+00 0. -1.
</event>
<event>
 7    1  0.4429926E-006  0.1711803E+03  0.7561462E-02  0.1176623E+00
          2   -1    0    0  501    0  0.00000000000E+00  0.00000000000E+00  0.62642879623E+03  0.62642879623E+03  0.00000000000E+00 0.  1.
         -2   -1    0    0    0  501 -0.00000000000E+00 -0.00000000000E+00 -0.53543593964E+02  0.53543593964E+02  0.00000000000E+00 0. -1.
         23    2    1    2    0    0 -0.14084233798E+03  0.37434196542E+02  0.31573335972E+03  0.35901657318E+03  0.89260641613E+02 0.  0.
          5    1    1    2  502    0 -0.26456040203E+01  0.18441328104E+02 -0.22899628621E+01  0.19230136057E+02  0.41800000000E+01 0.  1.
         -5    1    1    2    0  502  0.14348794200E+03 -0.55875524646E+02  0.25944180541E+03  0.30172568096E+03  0.41800000000E+01 0.  1.
        -11    1    3    3    0    0 -0.72583579755E+02 -0.24953418045E+02  0.16840168137E+03  0.18506802915E+03  0.00000000000E+00 0.  1.
         11    1    3    3    0    0 -0.68258758226E+02  0.62387614587E+02  0.14733167835E+03  0.17394854404E+03  0.00000000000E+00 0. -1.
</event>
<event>
 7    1  0.4096326E-006  0.2019289E+03  0.7561462E-02  0.1148122E+00
          2   -1    0    0  501    0  0.00000000000E+00  0.00000000000E+00  0.46952320900E+03  0.46952320900E+03  0.00000000000E+00 0. -1.
         -2   -1    0    0    0  501 -0.00000000000E+00 -0.00000000000E+00 -0.11275057419E+03  0.11275057419E+03  0.00000000000E+00 0.  1.
         23    2    1    2    0    0 -0.68835737803E+02 -0.18866352714E+03  0.20423500902E+03  0.30077486866E+03  0.91767627395E+02 0.  0.
          5    1    1    2  502    0  0.55081872195E+02  0.13010303639E+03  0.29370909070E+02  0.14436389930E+03  0.41800000000E+01 0.  1.
         -5    1    1    2    0  502  0.13753865608E+02  0.58560490751E+02  0.12316671672E+03  0.13713501524E+03  0.41800000000E+01 0.  1.
        -11    1    3    3    0    0 -0.21059395772E+01 -0.30203387511E+02  0.88443945984E+02  0.93482678501E+02  0.00000000000E+00 0. -1.
         11    1    3    3    0    0 -0.66729798226E+02 -0.15846013963E+03  0.11579106303E+03  0.20729219016E+03  0.00000000000E+00 0.  1.
</event>
<event>
 7    1  0.4096326E-006  0.1794266E+03  0.7561462E-02  0.1168359E+00
         -3   -1    0    0    0  501 -0.00000000000E+00  0.00000000000E+00  0.15865572496E+03  0.15865572496E+03  0.00000000000E+00 0.  1.
          3   -1    0    0  501    0  0.00000000000E+00 -0.00000000000E+00 -0.22003127798E+03  0.22003127798E+03  0.00000000000E+00 0. -1.
         23    2    1    2    0    0 -0.11319458199E+03  0.98077173454E+02 -0.50612557157E+02  0.18325090280E+03  0.92666698937E+02 0.  0.
          5    1    1    2  502    0 -0.12440266764E+02 -0.48200173924E+02 -0.30852317376E+02  0.58714179641E+02  0.41800000000E+01 0. -1.
         -5    1    1    2    0  502  0.12563484875E+03 -0.49876999530E+02  0.20089321512E+02  0.13672192049E+03  0.41800000000E+01 0. -1.
        -11    1    3    3    0    0 -0.10245490895E+03  0.32905131159E+02 -0.16356798627E+02  0.10884530714E+03  0.00000000000E+00 0. -1.
         11    1    3    3    0    0 -0.10739673040E+02  0.65172042296E+02 -0.34255758530E+02  0.74405595666E+02  0.00000000000E+00 0.  1.
</event>
<event>
 7    1  0.4096326E-006  0.1110329E+03  0.7561462E-02  0.1258669E+00
         -3   -1    0    0    0  501 -0.00000000000E+00  0.00000000000E+00  0.26394219148E+03  0.26394219148E+03  0.00000000000E+00 0.  1.
          3   -1    0    0  501    0  0.00000000000E+00 -0.00000000000E+00 -0.63066348983E+02  0.63066348983E+02  0.00000000000E+00 0. -1.
         23    2    1    2    0    0  0.55438205853E+02  0.36545394214E+02  0.70116620289E+02  0.13425841607E+03  0.93273904916E+02 0.  0.
          5    1    1    2  502    0  0.13987945068E+02 -0.42614258494E+02  0.11160709109E+03  0.12035469587E+03  0.41800000000E+01 0. -1.
         -5    1    1    2    0  502 -0.69426150921E+02  0.60688642793E+01  0.19152131111E+02  0.72395428526E+02  0.41800000000E+01 0. -1.
        -11    1    3    3    0    0 -0.77601175434E+01  0.42983624494E+02  0.52582846237E+02  0.68357641251E+02  0.00000000000E+00 0.  1.
         11    1    3    3    0    0  0.63198323396E+02 -0.64382302796E+01  0.17533774052E+02  0.65900774819E+02  0.00000000000E+00 0. -1.
</event>
<event>
 7    1  0.4096326E-006  0.1047282E+03  0.7561462E-02  0.1270656E+00
          2   -1    0    0  501    0  0.00000000000E+00  0.00000000000E+00  0.61877407130E+03  0.61877407130E+03  0.00000000000E+00 0. -1.
         -2   -1    0    0    0  501 -0.00000000000E+00 -0.00000000000E+00 -0.22870719436E+02  0.22870719436E+02  0.00000000000E+00 0.  1.
         23    2    1    2    0    0  0.19890758097E+01 -0.18540396298E+02  0.37999978157E+03  0.39142520946E+03  0.92011726907E+02 0.  0.
          5    1    1    2  502    0  0.41447857060E+02 -0.34091739161E+02  0.12799670760E+03  0.13885532432E+03  0.41800000000E+01 0. -1.
         -5    1    1    2    0  502 -0.43436932870E+02  0.52632135459E+02  0.87906862685E+02  0.11136425695E+03  0.41800000000E+01 0. -1.
        -11    1    3    3    0    0  0.11423386074E+01  0.34345508834E+02  0.84352608222E+02  0.91083925192E+02  0.00000000000E+00 0.  1.
         11    1    3    3    0    0  0.84673720226E+00 -0.52885905132E+02  0.29564717335E+03  0.30034128427E+03  0.00000000000E+00 0. -1.
</event>
<event>
 7    1  0.4096326E-006  0.1270663E+03  0.7561462E-02  0.1231875E+00
         -2   -1    0    0    0  501 -0.00000000000E+00  0.00000000000E+00  0.74680257818E+03  0.74680257818E+03  0.00000000000E+00 0.  1.
          2   -1    0    0  501    0  0.00000000000E+00 -0.00000000000E+00 -0.24546007107E+02  0.24546007107E+02  0.00000000000E+00 0. -1.
         23    2    1    2    0    0  0.71738390105E+02 -0.36903732792E+02  0.31829856234E+03  0.34083988767E+03  0.91375993160E+02 0.  0.
          5    1    1    2  502    0  0.30888510183E+02 -0.45788054588E+01  0.15269880472E+03  0.15591492194E+03  0.41800000000E+01 0. -1.
         -5    1    1    2    0  502 -0.10262690029E+03  0.41482538251E+02  0.25125920401E+03  0.27459377568E+03  0.41800000000E+01 0. -1.
        -11    1    3    3    0    0 -0.68469569632E+01 -0.32427887153E+02  0.16736090361E+03  0.17061102175E+03  0.00000000000E+00 0. -1.
         11    1    3    3    0    0  0.78585347068E+02 -0.44758456387E+01  0.15093765874E+03  0.17022886592E+03  0.00000000000E+00 0.  1.
</event>
<event>
 7    1  0.4096326E-006  0.1492617E+03  0.7561462E-02  0.1201383E+00
         -2   -1    0    0    0  501 -0.00000000000E+00  0.00000000000E+00  0.30304399289E+03  0.30304399289E+03  0.00000000000E+00 0.  1.
          2   -1    0    0  501    0  0.00000000000E+00 -0.00000000000E+00 -0.84701833545E+02  0.84701833545E+02  0.00000000000E+00 0. -1.
         23    2    1    2    0    0 -0.10027332920E+03  0.49408906439E+02  0.56656825593E+02  0.15474880672E+03  0.90781147335E+02 0.  0.
          5    1    1    2  502    0 -0.95764034086E+01 -0.54511121759E+02  0.72749316449E+02  0.91504673878E+02  0.41800000000E+01 0. -1.
         -5    1    1    2    0  502  0.10984973261E+03  0.51022153203E+01  0.88936017304E+02  0.14149234583E+03  0.41800000000E+01 0. -1.
        -11    1    3    3    0    0 -0.91398320095E+02  0.66962122085E+02  0.22771770764E+02  0.11556873389E+03  0.00000000000E+00 0. -1.
         11    1    3    3    0    0 -0.88750091064E+01 -0.17553215646E+02  0.33885054829E+02  0.39180072829E+02  0.00000000000E+00 0.  1.
</event>
<event>
 7    1  0.4096326E-006  0.1375831E+03  0.7561462E-02  0.1216619E+00
         -2   -1    0    0    0  501 -0.00000000000E+00  0.00000000000E+00  0.16249486752E+03  0.16249486752E+03  0.00000000000E+00 0. -1.
          2   -1    0    0  501    0  0.00000000000E+00 -0.00000000000E+00 -0.14457102648E+03  0.14457102648E+03  0.00000000000E+00 0.  1.
         23    2    1    2    0    0 -0.69055536506E+02  0.82862122180E+02  0.82739672497E+01  0.14161514572E+03  0.91387048038E+02 0.  0.
          5    1    1    2  502    0  0.18478823181E+02 -0.10566925876E+03  0.19027781142E+02  0.10902746447E+03  0.41800000000E+01 0.  1.
         -5    1    1    2    0  502  0.50576713325E+02  0.22807136580E+02 -0.93779073490E+01  0.56423283810E+02  0.41800000000E+01 0.  1.
        -11    1    3    3    0    0 -0.59577716747E+02  0.49397293862E+02  0.46217553855E+02  0.90142438718E+02  0.00000000000E+00 0.  1.
         11    1    3    3    0    0 -0.94778197586E+01  0.33464828318E+02 -0.37943586605E+02  0.51472707003E+02  0.00000000000E+00 0. -1.
</event>
<event>
 7    1  0.4096326E-006  0.1477759E+03  0.7561462E-02  0.1203233E+00
          1   -1    0    0  501    0  0.00000000000E+00  0.00000000000E+00  0.77308971716E+02  0.77308971716E+02  0.00000000000E+00 0. -1.
         -1   -1    0    0    0  501 -0.00000000000E+00 -0.00000000000E+00 -0.38981070124E+03  0.38981070124E+03  0.00000000000E+00 0.  1.
         23    2    1    2    0    0 -0.13139010642E+03  0.31359935085E+02 -0.14536568667E+03  0.21846586740E+03  0.91374759997E+02 0.  0.
          5    1    1    2  502    0  0.12751106836E+03 -0.53631813080E+01 -0.65345010318E+02  0.14344085555E+03  0.41800000000E+01 0.  1.
         -5    1    1    2    0  502  0.38790380629E+01 -0.25996753777E+02 -0.10179103254E+03  0.10521295001E+03  0.41800000000E+01 0.  1.
        -11    1    3    3    0    0 -0.67954275625E+02  0.37322988227E+02 -0.23606909498E+02  0.81043662319E+02  0.00000000000E+00 0. -1.
         11    1    3    3    0    0 -0.63435830798E+02 -0.59630531421E+01 -0.12175877717E+03  0.13742220508E+03  0.00000000000E+00 0.  1.
</event>
<event>
 7    1  0.4096326E-006  0.2121354E+03  0.7561462E-02  0.1139886E+00
         -1   -1    0    0    0  501 -0.00000000000E+00  0.00000000000E+00  0.68547912072E+02  0.68547912072E+02  0.00000000000E+00 0.  1.
          1   -1    0    0  501    0  0.00000000000E+00 -0.00000000000E+00 -0.71011907536E+03  0.71011907536E+03  0.00000000000E+00 0. -1.
         23    2    1    2    0    0 -0.13958514695E+03  0.13114091252E+03 -0.31553680379E+03  0.38038564011E+03  0.91911960417E+02 0.  0.
          5    1    1    2  502    0 -0.13143709993E+02 -0.32848050981E+02 -0.16253920703E+02  0.39158829194E+02  0.41800000000E+01 0.  1.
         -5    1    1    2    0  502  0.15272885694E+03 -0.98292861535E+02 -0.30978043880E+03  0.35912251814E+03  0.41800000000E+01 0.  1.
        -11    1    3    3    0    0 -0.18171164202E+02  0.67473099866E+02 -0.14979677665E+03  0.16529332929E+03  0.00000000000E+00 0. -1.
         11    1    3    3    0    0 -0.12141398275E+03  0.63667812650E+02 -0.16574002714E+03  0.21509231081E+03  0.00000000000E+00 0.  1.
</event>
<event>
 7    1  0.4096326E-006  0.1376340E+03  0.7561462E-02  0.1216549E+00
         -1   -1    0    0    0  501 -0.00000000000E+00  0.00000000000E+00  0.92330750329E+02  0.92330750329E+02  0.00000000000E+00 0.  1.
          1   -1    0    0  501    0  0.00000000000E+00 -0.00000000000E+00 -0.35599843614E+03  0.35599843614E+03  0.00000000000E+00 0. -1.
         23    2    1    2    0    0 -0.96502284992E+02 -0.52033871716E+02 -0.24162667507E+03  0.28053998971E+03  0.91098962156E+02 0.  0.
          5    1    1    2  502    0  0.72573984186E+02 -0.16061349933E+02 -0.50642483423E+02  0.90039345120E+02  0.41800000000E+01 0.  1.
         -5    1    1    2    0  502  0.23928300806E+02  0.68095221649E+02  0.28601472680E+02  0.77749851642E+02  0.41800000000E+01 0.  1.
        -11    1    3    3    0    0 -0.66692065339E+02 -0.67542008811E+02 -0.11289985939E+03  0.14749960266E+03  0.00000000000E+00 0.  1.
         11    1    3    3    0    0 -0.29810219653E+02  0.15508137095E+02 -0.12872681568E+03  0.13304038705E+03  0.00000000000E+00 0. -1.
</event>
<event>
 7    1  0.4096326E-006  0.1079703E+03  0.7561462E-02  0.1264375E+00
          4   -1    0    0  501    0  0.00000000000E+00  0.00000000000E+00  0.11568933166E+03  0.11568933166E+03  0.00000000000E+00 0. -1.
         -4   -1    0    0    0  501 -0.00000000000E+00 -0.00000000000E+00 -0.10692856588E+03  0.10692856588E+03  0.00000000000E+00 0.  1.
         23    2    1    2    0    0  0.40525747131E+01 -0.21389888754E+02  0.18494420429E+02  0.95275499286E+02  0.90892389530E+02 0.  0.
          5    1    1    2  502    0 -0.33150022591E+02  0.63285126845E+02 -0.21701745845E+02  0.74782146601E+02  0.41800000000E+01 0. -1.
         -5    1    1    2    0  502  0.29097447878E+02 -0.41895238091E+02  0.11968091195E+02  0.52560251660E+02  0.41800000000E+01 0. -1.
        -11    1    3    3    0    0 -0.48335923307E+01  0.35393783601E+02  0.10595073208E+02  0.37260422819E+02  0.00000000000E+00 0. -1.
         11    1    3    3    0    0  0.88861670439E+01 -0.56783672355E+02  0.78993472207E+01  0.58015076466E+02  0.00000000000E+00 0.  1.
</event>
<event>
 7    1  0.4096326E-006  0.1178453E+03  0.7561462E-02  0.1246695E+00
         -3   -1    0    0    0  501 -0.00000000000E+00  0.00000000000E+00  0.38713562686E+02  0.38713562686E+02  0.00000000000E+00 0.  1.
          3   -1    0    0  501    0  0.00000000000E+00 -0.00000000000E+00 -0.41826636487E+03  0.41826636487E+03  0.00000000000E+00 0. -1.
         23    2    1    2    0    0  0.31990857635E+02 -0.53399518392E+02 -0.20887694834E+03  0.23640474882E+03  0.91557097935E+02 0.  0.
          5    1    1    2  502    0  0.29212843327E+02 -0.15152349253E+02 -0.86938655678E+01  0.34293433798E+02  0.41800000000E+01 0.  1.
         -5    1    1    2    0  502 -0.61203700962E+02  0.68551867645E+02 -0.16198198828E+03  0.18628174493E+03  0.41800000000E+01 0.  1.
        -11    1    3    3    0    0 -0.36204078742E+01  0.24555262959E+02 -0.41326439671E+02  0.48207291026E+02  0.00000000000E+00 0.  1.
         11    1    3    3    0    0  0.35611265509E+02 -0.77954781351E+02 -0.16755050867E+03  0.18819745780E+03  0.00000000000E+00 0. -1.
</event>
<event>
 7    1  0.4096326E-006  0.1309328E+03  0.7561462E-02  0.1226078E+00
         -2   -1    0    0    0  501 -0.00000000000E+00  0.00000000000E+00  0.72975215180E+02  0.72975215180E+02  0.00000000000E+00 0.  1.
          2   -1    0    0  501    0  0.00000000000E+00 -0.00000000000E+00 -0.32884165893E+03  0.32884165893E+03  0.00000000000E+00 0. -1.
         23    2    1    2    0    0  0.67330873596E+02  0.56873356339E+02 -0.20362231373E+03  0.24012218797E+03  0.91807370669E+02 0.  0.
          5    1    1    2  502    0 -0.32195052160E+02  0.29467851108E+02  0.15372021866E+02  0.46461242867E+02  0.41800000000E+01 0.  1.
         -5    1    1    2    0  502 -0.35135821436E+02 -0.86341207446E+02 -0.67616151887E+02  0.11523344327E+03  0.41800000000E+01 0.  1.
        -11    1    3    3    0    0  0.76561413947E+02  0.10323277873E+02 -0.10189787348E+03  0.12787258030E+03  0.00000000000E+00 0.  1.
         11    1    3    3    0    0 -0.92305403510E+01  0.46550078465E+02 -0.10172444025E+03  0.11224960768E+03  0.00000000000E+00 0. -1.
</event>
<event>
 7    1  0.4096326E-006  0.3218897E+03  0.7561462E-02  0.1074783E+00
          1   -1    0    0  501    0  0.00000000000E+00  0.00000000000E+00  0.35698173832E+03  0.35698173832E+03  0.00000000000E+00 0. -1.
         -1   -1    0    0    0  501 -0.00000000000E+00 -0.00000000000E+00 -0.36902146869E+03  0.36902146869E+03  0.00000000000E+00 0.  1.
         23    2    1    2    0    0 -0.22164234395E+03  0.22683477656E+03  0.13276316330E+03  0.35560430361E+03  0.90824108741E+02 0.  0.
          5    1    1    2  502    0  0.13523668331E+03 -0.17477737379E+03 -0.39527670759E+02  0.22453507534E+03  0.41800000000E+01 0. -1.
         -5    1    1    2    0  502  0.86405660642E+02 -0.52057402770E+02 -0.10527522292E+03  0.14586382805E+03  0.41800000000E+01 0. -1.
        -11    1    3    3    0    0 -0.64462119949E+02  0.10377269830E+03  0.13107764402E+02  0.12286558228E+03  0.00000000000E+00 0.  1.
         11    1    3    3    0    0 -0.15718022400E+03  0.12306207827E+03  0.11965539890E+03  0.23273872134E+03  0.00000000000E+00 0. -1.
</event>
<event>
 7    1  0.4096326E-006  0.1183467E+03  0.7561462E-02  0.1245850E+00
          1   -1    0    0  501    0  0.00000000000E+00  0.00000000000E+00  0.19674482716E+03  0.19674482716E+03  0.00000000000E+00 0. -1.
         -1   -1    0    0    0  501 -0.00000000000E+00 -0.00000000000E+00 -0.80154636033E+02  0.80154636033E+02  0.00000000000E+00 0.  1.
         23    2    1    2    0    0  0.60046925669E+02 -0.14967879638E+02  0.63091206134E+02  0.12743585016E+03  0.91813533378E+02 0.  0.
          5    1    1    2  502    0  0.15553481424E+02 -0.39700066683E+02  0.21676750290E+01  0.42897287724E+02  0.41800000000E+01 0. -1.
         -5    1    1    2    0  502 -0.75600407093E+02  0.54667946321E+02  0.51331309966E+02  0.10656632531E+03  0.41800000000E+01 0. -1.
        -11    1    3    3    0    0  0.10007417601E+02  0.30962138908E+02  0.47781497170E+02  0.57808943293E+02  0.00000000000E+00 0.  1.
         11    1    3    3    0    0  0.50039508068E+02 -0.45930018547E+02  0.15309708965E+02  0.69626906867E+02  0.00000000000E+00 0. -1.
</event>
<event>
 7    1  0.4096326E-006  0.1160974E+03  0.7561462E-02  0.1249678E+00
         -1   -1    0    0    0  501 -0.00000000000E+00  0.00000000000E+00  0.27930692456E+02  0.27930692456E+02  0.00000000000E+00 0.  1.
          1   -1    0    0  501    0  0.00000000000E+00 -0.00000000000E+00 -0.62027425487E+03  0.62027425487E+03  0.00000000000E+00 0. -1.
         23    2    1    2    0    0  0.46378870368E+02  0.59606885340E+02 -0.25464760792E+03  0.28025053998E+03  0.89392284585E+02 0.  0.
          5    1    1    2  502    0  0.42585827300E+02 -0.91786847797E+01 -0.10318976461E+03  0.11208657753E+03  0.41800000000E+01 0.  1.
         -5    1    1    2    0  502 -0.88964697667E+02 -0.50428200561E+02 -0.23450618988E+03  0.25586782981E+03  0.41800000000E+01 0.  1.
        -11    1    3    3    0    0  0.19062194653E+02 -0.15270215314E+01 -0.24074586340E+01  0.19274203403E+02  0.00000000000E+00 0.  1.
         11    1    3    3    0    0  0.27316675715E+02  0.61133906872E+02 -0.25224014929E+03  0.26097633658E+03  0.00000000000E+00 0. -1.
</event>
<event>
 7    1  0.4096326E-006  0.1024379E+03  0.7561462E-02  0.1275251E+00
         -1   -1    0    0    0  501 -0.00000000000E+00  0.00000000000E+00  0.14802466226E+04  0.14802466226E+04  0.00000000000E+00 0.  1.
          1   -1    0    0  501    0  0.00000000000E+00 -0.00000000000E+00 -0.19916996408E+02  0.19916996408E+02  0.00000000000E+00 0. -1.
         23    2    1    2    0    0 -0.51225713065E+02 -0.47182380048E+02  0.19012241802E+03  0.22132165410E+03  0.89367164416E+02 0.  0.
          5    1    1    2  502    0  0.22735730266E+02 -0.25137301028E+02  0.93136635239E+02  0.99200315309E+02  0.41800000000E+01 0. -1.
         -5    1    1    2    0  502  0.28489982799E+02  0.72319681077E+02  0.11770705730E+04  0.11796416496E+04  0.41800000000E+01 0.  1.
        -11    1    3    3    0    0 -0.25649229306E+02 -0.59279555205E+02  0.59999465448E+02  0.88158292198E+02  0.00000000000E+00 0. -1.
         11    1    3    3    0    0 -0.25576483759E+02  0.12097175156E+02  0.13012295257E+03  0.13316336191E+03  0.00000000000E+00 0.  1.
</event>
<event>
 7    1  0.4096326E-006  0.1291742E+03  0.7561462E-02  0.1228686E+00
          2   -1    0    0  501    0  0.00000000000E+00  0.00000000000E+00  0.75097125317E+03  0.75097125317E+03  0.00000000000E+00 0. -1.
         -2   -1    0    0    0  501 -0.00000000000E+00 -0.00000000000E+00 -0.33479499533E+02  0.33479499533E+02  0.00000000000E+00 0.  1.
         23    2    1    2    0    0  0.10251957266E+03  0.30661172859E+01  0.46684612149E+03  0.48613796247E+03  0.88685700932E+02 0.  0.
          5    1    1    2  502    0 -0.58061144018E+02 -0.38184141875E+02  0.22583502814E+03  0.23632193607E+03  0.41800000000E+01 0. -1.
         -5    1    1    2    0  502 -0.44458428640E+02  0.35118024589E+02  0.24810604007E+02  0.61990854159E+02  0.41800000000E+01 0. -1.
        -11    1    3    3    0    0  0.32538434571E+02 -0.38592977448E+02  0.12688353317E+03  0.13655621049E+03  0.00000000000E+00 0.  1.
         11    1    3    3    0    0  0.69981138088E+02  0.41659094734E+02  0.33996258832E+03  0.34958175198E+03  0.00000000000E+00 0. -1.
</event>
<event>
 7    1  0.4096326E-006  0.1091098E+03  0.7561462E-02  0.1262227E+00
          4   -1    0    0  501    0  0.00000000000E+00  0.00000000000E+00  0.33657781605E+02  0.33657781605E+02  0.00000000000E+00 0. -1.
         -4   -1    0    0    0  501 -0.00000000000E+00 -0.00000000000E+00 -0.41553294496E+03  0.41553294496E+03  0.00000000000E+00 0.  1.
         23    2    1    2    0    0 -0.19945485666E+02  0.26039173325E+02 -0.10336414966E+03  0.14209870308E+03  0.91826102148E+02 0.  0.
          5    1    1    2  502    0  0.31503674643E+01  0.49445788686E+02 -0.13750511645E+03  0.14621880961E+03  0.41800000000E+01 0. -1.
         -5    1    1    2    0  502  0.16795118202E+02 -0.75484962011E+02 -0.14100589725E+03  0.16087321388E+03  0.41800000000E+01 0. -1.
        -11    1    3    3    0    0  0.13623156094E+02  0.48688767316E+02 -0.81947344677E+02  0.96288907691E+02  0.00000000000E+00 0. -1.
         11    1    3    3    0    0 -0.33568641761E+02 -0.22649593992E+02 -0.21416804980E+02  0.45809795385E+02  0.00000000000E+00 0.  1.
</event>
<event>
 7    1  0.4096326E-006  0.6391695E+02  0.7561462E-02  0.1382092E+00
          2   -1    0    0  501    0  0.00000000000E+00  0.00000000000E+00  0.26660278071E+02  0.26660278071E+02  0.00000000000E+00 0. -1.
         -2   -1    0    0    0  501 -0.00000000000E+00 -0.00000000000E+00 -0.59641692643E+03  0.59641692643E+03  0.00000000000E+00 0.  1.
         23    2    1    2    0    0 -0.43448509272E+01 -0.33686540514E+02 -0.94879362454E+02  0.13082832184E+03  0.83428386261E+02 0.  0.
          5    1    1    2  502    0  0.55009636983E+01  0.33159174710E+02 -0.48237953481E+03  0.48356724400E+03  0.41800000000E+01 0.  1.
         -5    1    1    2    0  502 -0.11561127711E+01  0.52736580419E+00  0.75022488973E+01  0.86816386672E+01  0.41800000000E+01 0.  1.
        -11    1    3    3    0    0  0.37127516486E+02 -0.16069443140E+01 -0.46113700248E+02  0.59224218873E+02  0.00000000000E+00 0. -1.
         11    1    3    3    0    0 -0.41472367413E+02 -0.32079596200E+02 -0.48765662205E+02  0.71604102966E+02  0.00000000000E+00 0.  1.
</event>
<event>
 7    1  0.4096326E-006  0.2399226E+03  0.7561462E-02  0.1119844E+00
          1   -1    0    0  501    0  0.00000000000E+00  0.00000000000E+00  0.10555602353E+04  0.10555602353E+04  0.00000000000E+00 0. -1.
         -1   -1    0    0    0  501 -0.00000000000E+00 -0.00000000000E+00 -0.77562546285E+02  0.77562546285E+02  0.00000000000E+00 0.  1.
         23    2    1    2    0    0 -0.62358892829E+02 -0.11430581710E+03  0.42935936857E+03  0.45780856802E+03  0.91020691239E+02 0.  0.
          5    1    1    2  502    0  0.18278775436E+03  0.23522481950E+02  0.11766081891E+03  0.21869204606E+03  0.41800000000E+01 0. -1.
         -5    1    1    2    0  502 -0.12042886154E+03  0.90783335146E+02  0.43097750151E+03  0.45662216749E+03  0.41800000000E+01 0.  1.
        -11    1    3    3    0    0 -0.65066170034E+02 -0.54813147376E+02  0.15259497113E+03  0.17470922363E+03  0.00000000000E+00 0.  1.
         11    1    3    3    0    0  0.27072772058E+01 -0.59492669720E+02  0.27676439744E+03  0.28309934438E+03  0.00000000000E+00 0. -1.
</event>
<event>
 7    1  0.4096326E-006  0.1207329E+03  0.7561462E-02  0.1241893E+00
         -1   -1    0    0    0  501 -0.00000000000E+00  0.00000000000E+00  0.41669366186E+02  0.41669366186E+02  0.00000000000E+00 0.  1.
          1   -1    0    0  501    0  0.00000000000E+00 -0.00000000000E+00 -0.66292307056E+03  0.66292307056E+03  0.00000000000E+00 0. -1.
         23    2    1    2    0    0 -0.31570972662E+02 -0.96402474642E+02 -0.44673951363E+03  0.46711903532E+03  0.91289849899E+02 0.  0.
          5    1    1    2  502    0  0.19401560221E+02  0.20508174047E+02 -0.15561452844E+03  0.15820985938E+03  0.41800000000E+01 0.  1.
         -5    1    1    2    0  502  0.12169412441E+02  0.75894300595E+02 -0.18899662301E+02  0.79263542042E+02  0.41800000000E+01 0.  1.
        -11    1    3    3    0    0  0.10689766031E+02 -0.92933759662E+02 -0.28786900305E+03  0.30268716144E+03  0.00000000000E+00 0.  1.
         11    1    3    3    0    0 -0.42260738693E+02 -0.34687149798E+01 -0.15887051058E+03  0.16443187389E+03  0.00000000000E+00 0. -1.
</event>
<event>
 7    1  0.4096326E-006  0.9486266E+02  0.7561462E-02  0.1291486E+00
         -1   -1    0    0    0  501 -0.00000000000E+00  0.00000000000E+00  0.54704343121E+02  0.54704343121E+02  0.00000000000E+00 0.  1.
          1   -1    0    0  501    0  0.00000000000E+00 -0.00000000000E+00 -0.23022392983E+03  0.23022392983E+03  0.00000000000E+00 0. -1.
         23    2    1    2    0    0  0.11586293983E+02 -0.28206240312E+02 -0.96827139351E+02  0.13404118559E+03  0.87531196257E+02 0.  0.
          5    1    1    2  502    0  0.19663946683E+02  0.58088567085E+02 -0.87135051202E+02  0.10663461902E+03  0.41800000000E+01 0.  1.
         -5    1    1    2    0  502 -0.31250240666E+02 -0.29882326773E+02  0.84426038427E+01  0.44252468346E+02  0.41800000000E+01 0.  1.
        -11    1    3    3    0    0  0.37608301176E+02  0.96992017787E+01 -0.18050129365E+02  0.42828331774E+02  0.00000000000E+00 0.  1.
         11    1    3    3    0    0 -0.26022007193E+02 -0.37905442091E+02 -0.78777009986E+02  0.91212853814E+02  0.00000000000E+00 0. -1.
</event>
<event>
 7    1  0.4096326E-006  0.7849241E+02  0.7561462E-02  0.1333385E+00
          2   -1    0    0  501    0  0.00000000000E+00  0.00000000000E+00  0.66780456805E+03  0.66780456805E+03  0.00000000000E+00 0.  1.
         -2   -1    0    0    0  501 -0.00000000000E+00 -0.00000000000E+00 -0.18838908987E+02  0.18838908987E+02  0.00000000000E+00 0. -1.
         23    2    1    2    0    0  0.17042831721E+02 -0.11840200879E+02  0.33679364782E+03  0.34970185987E+03  0.91819285090E+02 0.  0.
          5    1    1    2  502    0 -0.23917265191E+02  0.40321035311E+02  0.30200184235E+03  0.30564752027E+03  0.41800000000E+01 0.  1.
         -5    1    1    2    0  502  0.68744334700E+01 -0.28480834431E+02  0.10170168893E+02  0.31294096900E+02  0.41800000000E+01 0.  1.
        -11    1    3    3    0    0 -0.30896708437E+02 -0.95067002771E+01  0.54570215524E+02  0.63426275035E+02  0.00000000000E+00 0. -1.
         11    1    3    3    0    0  0.47939540159E+02 -0.23335006019E+01  0.28222343230E+03  0.28627558484E+03  0.00000000000E+00 0.  1.
</event>
<event>
 7    1  0.4096326E-006  0.1052320E+03  0.7561462E-02  0.1269663E+00
         -1   -1    0    0    0  501 -0.00000000000E+00  0.00000000000E+00  0.29034904847E+03  0.29034904847E+03  0.00000000000E+00 0.  1.
          1   -1    0    0  501    0  0.00000000000E+00 -0.00000000000E+00 -0.54009934711E+02  0.54009934711E+02  0.00000000000E+00 0. -1.
         23    2    1    2    0    0  0.23417007498E+02  0.35293112482E+02  0.35254523412E+02  0.10378515813E+03  0.87946106216E+02 0.  0.
          5    1    1    2  502    0 -0.53703416017E+02 -0.54739422658E+02  0.18617401598E+03  0.20139190131E+03  0.41800000000E+01 0. -1.
         -5    1    1    2    0  502  0.30286408520E+02  0.19446310176E+02  0.14910574366E+02  0.39181923746E+02  0.41800000000E+01 0. -1.
        -11    1    3    3    0    0 -0.83050442165E+01 -0.26609145251E+02  0.72516122269E+01  0.28802886145E+02  0.00000000000E+00 0. -1.
         11    1    3    3    0    0  0.31722051714E+02  0.61902257733E+02  0.28002911186E+02  0.74982271987E+02  0.00000000000E+00 0.  1.
</event>
<event>
 7    1  0.4096326E-006  0.1698539E+03  0.7561462E-02  0.1178000E+00
          1   -1    0    0  501    0  0.00000000000E+00  0.00000000000E+00  0.62622316997E+02  0.62622316997E+02  0.00000000000E+00 0. -1.
         -1   -1    0    0    0  501 -0.00000000000E+00 -0.00000000000E+00 -0.66640766738E+03  0.66640766738E+03  0.00000000000E+00 0.  1.
         23    2    1    2    0    0  0.53738347841E+02  0.15431672843E+03 -0.18950592114E+03  0.26645774282E+03  0.91573860121E+02 0.  0.
          5    1    1    2  502    0  0.31240589481E+01  0.48969239391E+01 -0.14111088848E+03  0.14129223211E+03  0.41800000000E+01 0.  1.
         -5    1    1    2    0  502 -0.56862406789E+02 -0.15921365237E+03 -0.27316854076E+03  0.32128000945E+03  0.41800000000E+01 0.  1.
        -11    1    3    3    0    0  0.13923853255E+02  0.35874235989E+02 -0.11432829025E+03  0.12063081052E+03  0.00000000000E+00 0.  1.
         11    1    3    3    0    0  0.39814494586E+02  0.11844249244E+03 -0.75177630897E+02  0.14582693229E+03  0.00000000000E+00 0. -1.
</event>
<event>
 7    1  0.4096326E-006  0.1357731E+03  0.7561462E-02  0.1219132E+00
         -1   -1    0    0    0  501 -0.00000000000E+00  0.00000000000E+00  0.61117535091E+02  0.61117535091E+02  0.00000000000E+00 0.  1.
          1   -1    0    0  501    0  0.00000000000E+00 -0.00000000000E+00 -0.67270593671E+03  0.67270593671E+03  0.00000000000E+00 0. -1.
         23    2    1    2    0    0 -0.10508431466E+03  0.42528823134E+02 -0.52397949258E+03  0.54362889286E+03  0.90146827545E+02 0.  0.
          5    1    1    2  502    0  0.11091152395E+03 -0.15415801650E+02 -0.10791449734E+03  0.15556999782E+03  0.41800000000E+01 0. -1.
         -5    1    1    2    0  502 -0.58272092811E+01 -0.27113021483E+02  0.20305588304E+02  0.34624581128E+02  0.41800000000E+01 0. -1.
        -11    1    3    3    0    0 -0.94111326418E+02  0.59421937047E+02 -0.50034331608E+03  0.51257325555E+03  0.00000000000E+00 0. -1.
         11    1    3    3    0    0 -0.10972988246E+02 -0.16893113913E+02 -0.23636176505E+02  0.31055637306E+02  0.00000000000E+00 0.  1.
</event>
<event>
 7    1  0.4096326E-006  0.1741912E+03  0.7561462E-02  0.1173546E+00
         -3   -1    0    0    0  501 -0.00000000000E+00  0.00000000000E+00  0.16859349149E+03  0.16859349149E+03  0.00000000000E+00 0.  1.
          3   -1    0    0  501    0  0.00000000000E+00 -0.00000000000E+00 -0.24023301305E+03  0.24023301305E+03  0.00000000000E+00 0. -1.
         23    2    1    2    0    0  0.28231434518E+02 -0.16073791422E+03 -0.73982166223E+02  0.20319233912E+03  0.95812706871E+02 0.  0.
          5    1    1    2  502    0 -0.39596759012E+02  0.16480245015E+03  0.32727079357E+02  0.17267392688E+03  0.41800000000E+01 0.  1.
         -5    1    1    2    0  502  0.11365324494E+02 -0.40645359365E+01 -0.30384434691E+02  0.32960238542E+02  0.41800000000E+01 0.  1.
        -11    1    3    3    0    0  0.12186220037E+02 -0.14463814659E+02  0.20834591590E+02  0.28138694000E+02  0.00000000000E+00 0.  1.
         11    1    3    3    0    0  0.16045214481E+02 -0.14627409956E+03 -0.94816757813E+02  0.17505364512E+03  0.00000000000E+00 0. -1.
</event>
<event>
 7    1  0.4096326E-006  0.1071072E+03  0.7561462E-02  0.1266023E+00
         -2   -1    0    0    0  501 -0.00000000000E+00  0.00000000000E+00  0.44920480374E+03  0.44920480374E+03  0.00000000000E+00 0. -1.
          2   -1    0    0  501    0  0.00000000000E+00 -0.00000000000E+00 -0.12814107317E+03  0.12814107317E+03  0.00000000000E+00 0.  1.
         23    2    1    2    0    0  0.24995634508E+02  0.31889017454E+02 -0.95856134449E+02  0.14018256862E+03  0.93920513496E+02 0.  0.
          5    1    1    2  502    0  0.32377924562E+02 -0.52371040002E+02  0.28766696433E+03  0.29421218635E+03  0.41800000000E+01 0.  1.
         -5    1    1    2    0  502 -0.57373559070E+02  0.20482022549E+02  0.12925290068E+03  0.14295112194E+03  0.41800000000E+01 0.  1.
        -11    1    3    3    0    0 -0.21368058213E+01  0.55457434694E+02 -0.86956331308E+02  0.10315762966E+03  0.00000000000E+00 0.  1.
         11    1    3    3    0    0  0.27132440329E+02 -0.23568417240E+02 -0.88998031415E+01  0.37024938965E+02  0.00000000000E+00 0. -1.
</event>
<event>
 7    1  0.4096326E-006  0.2549651E+03  0.7561462E-02  0.1110207E+00
         -2   -1    0    0    0  501 -0.00000000000E+00  0.00000000000E+00  0.38729810019E+02  0.38729810019E+02  0.00000000000E+00 0.  1.
          2   -1    0    0  501    0  0.00000000000E+00 -0.00000000000E+00 -0.16916808048E+04  0.16916808048E+04  0.00000000000E+00 0. -1.
         23    2    1    2    0    0  0.23028522154E+03 -0.40605412531E+01 -0.87012164739E+03  0.90486983728E+03  0.92897631362E+02 0.  0.
          5    1    1    2  502    0 -0.19880223182E+03  0.50675139185E+02 -0.59240558686E+03  0.62693871219E+03  0.41800000000E+01 0.  1.
         -5    1    1    2    0  502 -0.31482989723E+02 -0.46614597932E+02 -0.19042376050E+03  0.19860206531E+03  0.41800000000E+01 0.  1.
        -11    1    3    3    0    0  0.24197205644E+02  0.30945859947E+02 -0.14258910895E+03  0.14790133535E+03  0.00000000000E+00 0.  1.
         11    1    3    3    0    0  0.20608801590E+03 -0.35006401200E+02 -0.72753253844E+03  0.75696850193E+03  0.00000000000E+00 0. -1.
</event>
<event>
 7    1  0.4096326E-006  0.1563973E+03  0.7561462E-02  0.1192825E+00
          1   -1    0    0  501    0  0.00000000000E+00  0.00000000000E+00  0.41051731659E+03  0.41051731659E+03  0.00000000000E+00 0. -1.
         -1   -1    0    0    0  501 -0.00000000000E+00 -0.00000000000E+00 -0.12491798373E+03  0.12491798373E+03  0.00000000000E+00 0.  1.
         23    2    1    2    0    0  0.45012198271E+02 -0.13081360834E+03  0.30784419306E+03  0.34787764235E+03  0.84335690714E+02 0.  0.
          5    1    1    2  502    0 -0.49499362551E+02  0.21763012045E+02  0.34696931224E+02  0.64382955995E+02  0.41800000000E+01 0. -1.
         -5    1    1    2    0  502  0.44871642806E+01  0.10905059630E+03 -0.56941791423E+02  0.12317470198E+03  0.41800000000E+01 0.  1.
        -11    1    3    3    0    0  0.48515708020E+02 -0.54586678576E+02  0.83603616828E+02  0.11100920750E+03  0.00000000000E+00 0.  1.
         11    1    3    3    0    0 -0.35035097496E+01 -0.76226929768E+02  0.22424057623E+03  0.23686843486E+03  0.00000000000E+00 0. -1.
</event>
<event>
 7    1  0.4096326E-006  0.9069269E+02  0.7561462E-02  0.1301183E+00
         -1   -1    0    0    0  501 -0.00000000000E+00  0.00000000000E+00  0.34636299726E+02  0.34636299726E+02  0.00000000000E+00 0.  1.
          1   -1    0    0  501    0  0.00000000000E+00 -0.00000000000E+00 -0.46158473790E+03  0.46158473790E+03  0.00000000000E+00 0. -1.
         23    2    1    2    0    0 -0.28209012815E+02 -0.11969165414E+02 -0.30137872519E+03  0.31634816425E+03  0.91148317066E+02 0.  0.
          5    1    1    2  502    0  0.15201487442E+02 -0.39758389273E+02 -0.11840606147E+03  0.12589393366E+03  0.41800000000E+01 0.  1.
         -5    1    1    2    0  502  0.13007525373E+02  0.51727554687E+02 -0.71636515147E+01  0.53978939720E+02  0.41800000000E+01 0.  1.
        -11    1    3    3    0    0  0.12549511297E+02 -0.35775013300E+02 -0.64538935727E+02  0.74850624815E+02  0.00000000000E+00 0.  1.
         11    1    3    3    0    0 -0.40758524112E+02  0.23805847886E+02 -0.23683978946E+03  0.24149753943E+03  0.00000000000E+00 0. -1.
</event>
<event>
 7    1  0.4096326E-006  0.9792563E+02  0.7561462E-02  0.1284720E+00
         -3   -1    0    0    0  501 -0.00000000000E+00  0.00000000000E+00  0.51045122791E+03  0.51045122791E+03  0.00000000000E+00 0.  1.
          3   -1    0    0  501    0  0.00000000000E+00 -0.00000000000E+00 -0.23551097344E+02  0.23551097344E+02  0.00000000000E+00 0. -1.
         23    2    1    2    0    0 -0.16761920016E+02  0.87159787726E+01  0.21061791246E+03  0.23013374407E+03  0.90800357167E+02 0.  0.
          5    1    1    2  502    0 -0.12613731465E+02  0.46493890940E+02  0.52068934772E+02  0.71059372954E+02  0.41800000000E+01 0. -1.
         -5    1    1    2    0  502  0.29375651481E+02 -0.55209869713E+02  0.22421328334E+03  0.23280920824E+03  0.41800000000E+01 0. -1.
        -11    1    3    3    0    0 -0.38990709296E+02  0.33585925507E+02  0.16976199480E+03  0.17739059920E+03  0.00000000000E+00 0.  1.
         11    1    3    3    0    0  0.22228789280E+02 -0.24869946735E+02  0.40855917652E+02  0.52743144869E+02  0.00000000000E+00 0. -1.
</event>
<event>
 7    1  0.4096326E-006  0.7863957E+02  0.7561462E-02  0.1332957E+00
          1   -1    0    0  501    0  0.00000000000E+00  0.00000000000E+00  0.12637146294E+03  0.12637146294E+03  0.00000000000E+00 0. -1.
         -1   -1    0    0    0  501 -0.00000000000E+00 -0.00000000000E+00 -0.12486920498E+03  0.12486920498E+03  0.00000000000E+00 0.  1.
         23    2    1    2    0    0  0.35189255476E+02  0.54506563197E+01  0.53031626568E+02  0.11135690369E+03  0.91214106512E+02 0.  0.
          5    1    1    2  502    0 -0.34028296656E+02 -0.26266420955E+02  0.31960442151E+02  0.53728875901E+02  0.41800000000E+01 0.  1.
         -5    1    1    2    0  502 -0.11609588200E+01  0.20815764635E+02 -0.83489810764E+02  0.86154888336E+02  0.41800000000E+01 0.  1.
        -11    1    3    3    0    0  0.48368129703E+02 -0.28685710323E+02  0.48918755405E+02  0.74534492539E+02  0.00000000000E+00 0. -1.
         11    1    3    3    0    0 -0.13178874227E+02  0.34136366643E+02  0.41128711634E+01  0.36822411147E+02  0.00000000000E+00 0.  1.
</event>
<event>
 7    1  0.4096326E-006  0.1204757E+03  0.7561462E-02  0.1242314E+00
         -2   -1    0    0    0  501 -0.00000000000E+00  0.00000000000E+00  0.21907063194E+03  0.21907063194E+03  0.00000000000E+00 0.  1.
          2   -1    0    0  501    0  0.00000000000E+00 -0.00000000000E+00 -0.78582307213E+02  0.78582307213E+02  0.00000000000E+00 0. -1.
         23    2    1    2    0    0  0.96504628462E+00 -0.51346687969E+02  0.50973753239E+01  0.10629939631E+03  0.92930967607E+02 0.  0.
          5    1    1    2  502    0  0.55898916858E+02 -0.34240399828E+01  0.56769629241E+02  0.79854092943E+02  0.41800000000E+01 0. -1.
         -5    1    1    2    0  502 -0.56863963142E+02  0.54770727952E+02  0.78621320160E+02  0.11149944990E+03  0.41800000000E+01 0. -1.
        -11    1    3    3    0    0 -0.14849860313E+02 -0.75452197223E+02 -0.64714963134E+00  0.76902348597E+02  0.00000000000E+00 0.  1.
         11    1    3    3    0    0  0.15814906598E+02  0.24105509254E+02  0.57445249553E+01  0.29397047710E+02  0.00000000000E+00 0. -1.
</event>
<event>
 7    1  0.4096326E-006  0.1192463E+03  0.7561462E-02  0.1244346E+00
         -2   -1    0    0    0  501 -0.00000000000E+00  0.00000000000E+00  0.45560109567E+02  0.45560109567E+02  0.00000000000E+00 0.  1.
          2   -1    0    0  501    0  0.00000000000E+00 -0.00000000000E+00 -0.48527983288E+03  0.48527983288E+03  0.00000000000E+00 0. -1.
         23    2    1    2    0    0 -0.99793367810E+02  0.18679365194E+02 -0.22194763596E+03  0.25995458718E+03  0.89487425621E+02 0.  0.
          5    1    1    2  502    0  0.73595195895E+02  0.17813172336E+02 -0.21229986467E+03  0.22543794469E+03  0.41800000000E+01 0.  1.
         -5    1    1    2    0  502  0.26198171915E+02 -0.36492537530E+02 -0.54722226819E+01  0.45447410577E+02  0.41800000000E+01 0.  1.
        -11    1    3    3    0    0 -0.52908169664E+02 -0.20198805981E+02 -0.43535949928E+02  0.71432801404E+02  0.00000000000E+00 0.  1.
         11    1    3    3    0    0 -0.46885198146E+02  0.38878171175E+02 -0.17841168603E+03  0.18852178578E+03  0.00000000000E+00 0. -1.
</event>
<event>
 7    1  0.4096326E-006  0.1095258E+03  0.7561462E-02  0.1261451E+00
         -3   -1    0    0    0  501 -0.00000000000E+00  0.00000000000E+00  0.77068726255E+03  0.77068726255E+03  0.00000000000E+00 0.  1.
          3   -1    0    0  501    0  0.00000000000E+00 -0.00000000000E+00 -0.16481658065E+02  0.16481658065E+02  0.00000000000E+00 0. -1.
         23    2    1    2    0    0  0.12459532572E+02 -0.21289442309E+02  0.37869767136E+03  0.39060599085E+03  0.92480449188E+02 0.  0.
          5    1    1    2  502    0 -0.27709775552E+02  0.69823109082E+02  0.24987727857E+03  0.26095828205E+03  0.41800000000E+01 0.  1.
         -5    1    1    2    0  502  0.15250242980E+02 -0.48533666773E+02  0.12563065455E+03  0.13560464772E+03  0.41800000000E+01 0.  1.
        -11    1    3    3    0    0 -0.38609453624E+02 -0.14542678891E+02  0.21747062936E+03  0.22134961950E+03  0.00000000000E+00 0.  1.
         11    1    3    3    0    0  0.51068986196E+02 -0.67467634189E+01  0.16122704200E+03  0.16925637134E+03  0.00000000000E+00 0. -1.
</event>
<event>
 7    1  0.4096326E-006  0.1323145E+03  0.7561462E-02  0.1224061E+00
         -2   -1    0    0    0  501 -0.00000000000E+00  0.00000000000E+00  0.49630061171E+02  0.49630061171E+02  0.00000000000E+00 0. -1.
          2   -1    0    0  501    0  0.00000000000E+00 -0.00000000000E+00 -0.45439216376E+03  0.45439216376E+03  0.00000000000E+00 0.  1.
         23    2    1    2    0    0 -0.71118053614E+02  0.53818005681E+02 -0.27388157871E+03  0.30220239213E+03  0.91438566075E+02 0.  0.
          5    1    1    2  502    0  0.22715238881E+02  0.40880188056E+02 -0.34934919505E+02  0.58524292851E+02  0.41800000000E+01 0. -1.
         -5    1    1    2    0  502  0.48402814732E+02 -0.94698193737E+02 -0.95945604367E+02  0.14329553995E+03  0.41800000000E+01 0. -1.
        -11    1    3    3    0    0 -0.46459181080E+02 -0.57100256235E+01 -0.46937339423E+02  0.66288564107E+02  0.00000000000E+00 0. -1.
         11    1    3    3    0    0 -0.24658872533E+02  0.59528031305E+02 -0.22694423929E+03  0.23591382802E+03  0.00000000000E+00 0.  1.
</event>
<event>
 7    1  0.4096326E-006  0.1306818E+03  0.7561462E-02  0.1226448E+00
          2   -1    0    0  501    0  0.00000000000E+00  0.00000000000E+00  0.64781360588E+03  0.64781360588E+03  0.00000000000E+00 0.  1.
         -2   -1    0    0    0  501 -0.00000000000E+00 -0.00000000000E+00 -0.34622694523E+02  0.34622694523E+02  0.00000000000E+00 0. -1.
         23    2    1    2    0    0 -0.17834480605E+02 -0.91497828585E+02  0.18774595797E+03  0.22930135026E+03  0.92955059914E+02 0.  0.
          5    1    1    2  502    0 -0.13849553355E+02 -0.28202712477E+02  0.10010592047E+03  0.10500414674E+03  0.41800000000E+01 0. -1.
         -5    1    1    2    0  502  0.31684033960E+02  0.11970054106E+03  0.32533903291E+03  0.34813080340E+03  0.41800000000E+01 0. -1.
        -11    1    3    3    0    0  0.13681973635E+02 -0.58755726247E+02  0.17021808088E+03  0.18059243292E+03  0.00000000000E+00 0.  1.
         11    1    3    3    0    0 -0.31516454240E+02 -0.32742102338E+02  0.17527877090E+02  0.48708917342E+02  0.00000000000E+00 0. -1.
</event>
<event>
 7    1  0.4096326E-006  0.1607740E+03  0.7561462E-02  0.1187826E+00
         -1   -1    0    0    0  501 -0.00000000000E+00  0.00000000000E+00  0.23417783912E+02  0.23417783912E+02  0.00000000000E+00 0.  1.
          1   -1    0    0  501    0  0.00000000000E+00 -0.00000000000E+00 -0.11499075426E+04  0.11499075426E+04  0.00000000000E+00 0. -1.
         23    2    1    2    0    0 -0.18046628186E+02  0.11652801240E+03 -0.63926549963E+03  0.65666375670E+03  0.92964788449E+02 0.  0.
          5    1    1    2  502    0  0.71812384274E+02 -0.74224661739E+02 -0.29448541322E+03  0.31209846194E+03  0.41800000000E+01 0.  1.
         -5    1    1    2    0  502 -0.53765756087E+02 -0.42303350664E+02 -0.19273884585E+03  0.20456310788E+03  0.41800000000E+01 0.  1.
        -11    1    3    3    0    0 -0.35899824449E+02  0.44738850219E+01 -0.17887904071E+03  0.18250075136E+03  0.00000000000E+00 0. -1.
         11    1    3    3    0    0  0.17853196262E+02  0.11205412738E+03 -0.46038645892E+03  0.47416300534E+03  0.00000000000E+00 0.  1.
</event>
<event>
 7    1  0.4096326E-006  0.2275687E+03  0.7561462E-02  0.1128363E+00
         -2   -1    0    0    0  501 -0.00000000000E+00  0.00000000000E+00  0.33463174961E+02  0.33463174961E+02  0.00000000000E+00 0.  1.
          2   -1    0    0  501    0  0.00000000000E+00 -0.00000000000E+00 -0.15804399869E+04  0.15804399869E+04  0.00000000000E+00 0. -1.
         23    2    1    2    0    0 -0.19387361263E+03 -0.51494081134E+02 -0.80903416355E+03  0.83901900528E+03  0.95801854710E+02 0.  0.
          5    1    1    2  502    0  0.10074940906E+03  0.89357598534E+02 -0.45818353970E+03  0.47758229898E+03  0.41800000000E+01 0.  1.
         -5    1    1    2    0  502  0.93124203563E+02 -0.37863517400E+02 -0.27975910864E+03  0.29730185755E+03  0.41800000000E+01 0.  1.
        -11    1    3    3    0    0 -0.14026985775E+03  0.70078608267E+01 -0.45403376617E+03  0.47525930178E+03  0.00000000000E+00 0. -1.
         11    1    3    3    0    0 -0.53603754876E+02 -0.58501941961E+02 -0.35500039739E+03  0.36375970351E+03  0.00000000000E+00 0.  1.
</event>
<event>
 7    1  0.4096326E-006  0.1140875E+03  0.7561462E-02  0.1253182E+00
          2   -1    0    0  501    0  0.00000000000E+00  0.00000000000E+00  0.41098749462E+02  0.41098749462E+02  0.00000000000E+00 0. -1.
         -2   -1    0    0    0  501 -0.00000000000E+00 -0.00000000000E+00 -0.41226936565E+03  0.41226936565E+03  0.00000000000E+00 0.  1.
         23    2    1    2    0    0 -0.44954544327E+02 -0.35450609185E+02 -0.96691457118E+02  0.14634189092E+03  0.93749956854E+02 0.  0.
          5    1    1    2  502    0  0.55363620594E+02  0.67428099127E+02 -0.25109594416E+03  0.26585395353E+03  0.41800000000E+01 0. -1.
         -5    1    1    2    0  502 -0.10409076267E+02 -0.31977489942E+02 -0.23383214912E+02  0.41172270661E+02  0.41800000000E+01 0. -1.
        -11    1    3    3    0    0  0.24731374596E+02  0.65418785111E+01 -0.38850632314E+02  0.46516757142E+02  0.00000000000E+00 0.  1.
         11    1    3    3    0    0 -0.69685918923E+02 -0.41992487696E+02 -0.57840824804E+02  0.99825133774E+02  0.00000000000E+00 0. -1.
</event>
<event>
 7    1  0.4096326E-006  0.8118663E+02  0.7561462E-02  0.1325717E+00
         -1   -1    0    0    0  501 -0.00000000000E+00  0.00000000000E+00  0.34920727598E+02  0.34920727598E+02  0.00000000000E+00 0.  1.
          1   -1    0    0  501    0  0.00000000000E+00 -0.00000000000E+00 -0.44058408702E+03  0.44058408702E+03  0.00000000000E+00 0. -1.
         23    2    1    2    0    0 -0.23408111480E+02  0.48989610630E+01 -0.28405799366E+03  0.29941615042E+03  0.91592291534E+02 0.  0.
          5    1    1    2  502    0  0.45342574538E+02 -0.21907170782E+01  0.64778512266E+01  0.46045447805E+02  0.41800000000E+01 0.  1.
         -5    1    1    2    0  502 -0.21934463058E+02 -0.27082439848E+01 -0.12808321699E+03  0.13004321639E+03  0.41800000000E+01 0.  1.
        -11    1    3    3    0    0 -0.14861071356E+02 -0.43073458683E+02 -0.12408432183E+03  0.13218582832E+03  0.00000000000E+00 0.  1.
         11    1    3    3    0    0 -0.85470401237E+01  0.47972419746E+02 -0.15997367183E+03  0.16723032210E+03  0.00000000000E+00 0. -1.
</event>
<event>
 7    1  0.4096326E-006  0.8273160E+02  0.7561462E-02  0.1321474E+00
         -2   -1    0    0    0  501 -0.00000000000E+00  0.00000000000E+00  0.38967380908E+02  0.38967380908E+02  0.00000000000E+00 0.  1.
          2   -1    0    0  501    0  0.00000000000E+00 -0.00000000000E+00 -0.39374911297E+03  0.39374911297E+03  0.00000000000E+00 0. -1.
         23    2    1    2    0    0 -0.44542515293E+01  0.47290979118E+02 -0.21524508507E+03  0.23939124288E+03  0.93388668799E+02 0.  0.
          5    1    1    2  502    0 -0.18705933183E+02 -0.35793377316E+01  0.18983381761E+02  0.27213319862E+02  0.41800000000E+01 0. -1.
         -5    1    1    2    0  502  0.23160184712E+02 -0.43711641386E+02 -0.15852002875E+03  0.16611193113E+03  0.41800000000E+01 0. -1.
        -11    1    3    3    0    0  0.16720048378E+02  0.65987478482E+02 -0.10166020778E+03  0.12234665986E+03  0.00000000000E+00 0.  1.
         11    1    3    3    0    0 -0.21174299908E+02 -0.18696499364E+02 -0.11358487729E+03  0.11704458302E+03  0.00000000000E+00 0. -1.
</event>
<event>
 7    1  0.4096326E-006  0.1187005E+03  0.7561462E-02  0.1245256E+00
          3   -1    0    0  501    0  0.00000000000E+00  0.00000000000E+00  0.31995112597E+03  0.31995112597E+03  0.00000000000E+00 0. -1.
         -3   -1    0    0    0  501 -0.00000000000E+00 -0.00000000000E+00 -0.64097426191E+02  0.64097426191E+02  0.00000000000E+00 0.  1.
         23    2    1    2    0    0 -0.40966673984E+02 -0.74589136052E+02  0.16690956880E+03  0.20854850307E+03  0.91607130640E+02 0.  0.
          5    1    1    2  502    0  0.59370636251E+02  0.66886630739E+01 -0.26266101040E+01  0.59949830218E+02  0.41800000000E+01 0. -1.
         -5    1    1    2    0  502 -0.18403962267E+02  0.67900472979E+02  0.91570741092E+02  0.11555021887E+03  0.41800000000E+01 0. -1.
        -11    1    3    3    0    0 -0.58832133868E+02 -0.55291479904E+02  0.66035016043E+02  0.10430240203E+03  0.00000000000E+00 0.  1.
         11    1    3    3    0    0  0.17865459883E+02 -0.19297656148E+02  0.10087455275E+03  0.10424610104E+03  0.00000000000E+00 0. -1.
</event>
<event>
 7    1  0.4096326E-006  0.1922468E+03  0.7561462E-02  0.1156450E+00
          2   -1    0    0  501    0  0.00000000000E+00  0.00000000000E+00  0.37379503578E+03  0.37379503578E+03  0.00000000000E+00 0. -1.
         -2   -1    0    0    0  501 -0.00000000000E+00 -0.00000000000E+00 -0.16382941462E+03  0.16382941462E+03  0.00000000000E+00 0.  1.
         23    2    1    2    0    0 -0.28607371425E+02  0.17122596316E+03  0.25214560657E+03  0.31953782988E+03  0.91598611622E+02 0.  0.
          5    1    1    2  502    0  0.32307665769E+02 -0.39099629654E+01 -0.38571029302E+02  0.50638619444E+02  0.41800000000E+01 0. -1.
         -5    1    1    2    0  502 -0.37002943440E+01 -0.16731600020E+03 -0.36089561032E+01  0.16744800108E+03  0.41800000000E+01 0. -1.
        -11    1    3    3    0    0  0.48639006571E+00  0.14531119876E+03  0.23645222952E+03  0.27753421033E+03  0.00000000000E+00 0.  1.
         11    1    3    3    0    0 -0.29093761491E+02  0.25914764406E+02  0.15693377048E+02  0.42003619547E+02  0.00000000000E+00 0. -1.
</event>
<event>
 7    1  0.4096326E-006  0.1819056E+03  0.7561462E-02  0.1165971E+00
         -1   -1    0    0    0  501 -0.00000000000E+00  0.00000000000E+00  0.20382781495E+03  0.20382781495E+03  0.00000000000E+00 0.  1.
          1   -1    0    0  501    0  0.00000000000E+00 -0.00000000000E+00 -0.19737447975E+03  0.19737447975E+03  0.00000000000E+00 0. -1.
         23    2    1    2    0    0 -0.15189798483E+03  0.55263856318E+02 -0.43738366670E+02  0.19074571542E+03  0.91344357359E+02 0.  0.
          5    1    1    2  502    0 -0.18499415743E+02 -0.21021045983E+02  0.18271665760E+02  0.33696274671E+02  0.41800000000E+01 0. -1.
         -5    1    1    2    0  502  0.17039740057E+03 -0.34242810335E+02  0.31920036107E+02  0.17676030461E+03  0.41800000000E+01 0. -1.
        -11    1    3    3    0    0 -0.52813719156E+02  0.18515612925E+02  0.28432904059E+02  0.62773775466E+02  0.00000000000E+00 0. -1.
         11    1    3    3    0    0 -0.99084265676E+02  0.36748243393E+02 -0.72171270729E+02  0.12797193995E+03  0.00000000000E+00 0.  1.
</event>
<event>
 7    1  0.4096326E-006  0.1876524E+03  0.7561462E-02  0.1160596E+00
         -2   -1    0    0    0  501 -0.00000000000E+00  0.00000000000E+00  0.88180837048E+02  0.88180837048E+02  0.00000000000E+00 0.  1.
          2   -1    0    0  501    0  0.00000000000E+00 -0.00000000000E+00 -0.91225695246E+03  0.91225695246E+03  0.00000000000E+00 0. -1.
         23    2    1    2    0    0 -0.13110013314E+03  0.83137735530E+02 -0.77441294801E+03  0.79497581198E+03  0.90399112926E+02 0.  0.
          5    1    1    2  502    0 -0.12921323291E+02 -0.45733707188E+02  0.23846475578E+01  0.47767054679E+02  0.41800000000E+01 0. -1.
         -5    1    1    2    0  502  0.14402145643E+03 -0.37404028342E+02 -0.52047814964E+02  0.15769492285E+03  0.41800000000E+01 0. -1.
        -11    1    3    3    0    0 -0.78056922506E+02 -0.23955612010E+01 -0.37831891304E+03  0.38629499327E+03  0.00000000000E+00 0.  1.
         11    1    3    3    0    0 -0.53043210637E+02  0.85533296731E+02 -0.39609403497E+03  0.40868081871E+03  0.00000000000E+00 0. -1.
</event>
<event>
 7    1  0.4096326E-006  0.1945130E+03  0.7561462E-02  0.1154453E+00
         -2   -1    0    0    0  501 -0.00000000000E+00  0.00000000000E+00  0.98702960182E+02  0.98702960182E+02  0.00000000000E+00 0.  1.
          2   -1    0    0  501    0  0.00000000000E+00 -0.00000000000E+00 -0.50056966720E+03  0.50056966720E+03  0.00000000000E+00 0. -1.
         23    2    1    2    0    0 -0.14355725998E+03 -0.12864222424E+03 -0.20593707047E+03  0.29729120409E+03  0.93885431697E+02 0.  0.
          5    1    1    2  502    0  0.13184960065E+03  0.12293836496E+03 -0.10222012354E+03  0.20727900238E+03  0.41800000000E+01 0. -1.
         -5    1    1    2    0  502  0.11707659328E+02  0.57038592778E+01 -0.93709513018E+02  0.94702420918E+02  0.41800000000E+01 0. -1.
        -11    1    3    3    0    0 -0.46268447898E+02 -0.60876880443E+02 -0.24019849135E+02  0.80148094149E+02  0.00000000000E+00 0.  1.
         11    1    3    3    0    0 -0.97288812085E+02 -0.67765343795E+02 -0.18191722133E+03  0.21714310994E+03  0.00000000000E+00 0. -1.
</event>
<event>
 7    1  0.4096326E-006  0.1716797E+03  0.7561462E-02  0.1176107E+00
          3   -1    0    0  501    0  0.00000000000E+00  0.00000000000E+00  0.19629855503E+03  0.19629855503E+03  0.00000000000E+00 0. -1.
         -3   -1    0    0    0  501 -0.00000000000E+00 -0.00000000000E+00 -0.18969855225E+03  0.18969855225E+03  0.00000000000E+00 0.  1.
         23    2    1    2    0    0 -0.51489976822E+02 -0.15070059420E+03  0.23749586955E+02  0.18276551312E+03  0.86471400477E+02 0.  0.
          5    1    1    2  502    0 -0.71918679458E+01  0.85902606559E+02  0.43601310607E+02  0.96692954577E+02  0.41800000000E+01 0.  1.
         -5    1    1    2    0  502  0.58681844768E+02  0.64797987642E+02 -0.60750894782E+02  0.10653863959E+03  0.41800000000E+01 0.  1.
        -11    1    3    3    0    0 -0.55633455454E+02 -0.73292083432E+02  0.44938428220E+02  0.10240250578E+03  0.00000000000E+00 0.  1.
         11    1    3    3    0    0  0.41434786313E+01 -0.77408510768E+02 -0.21188841265E+02  0.80363007340E+02  0.00000000000E+00 0. -1.
</event>
<event>
 7    1  0.4096326E-006  0.7064218E+02  0.7561462E-02  0.1357923E+00
          1   -1    0    0  501    0  0.00000000000E+00  0.00000000000E+00  0.38176271747E+02  0.38176271747E+02  0.00000000000E+00 0. -1.
         -1   -1    0    0    0  501 -0.00000000000E+00 -0.00000000000E+00 -0.60942282743E+03  0.60942282743E+03  0.00000000000E+00 0.  1.
         23    2    1    2    0    0  0.28936449827E+02  0.36410649493E+02 -0.60026435954E+02  0.11924892807E+03  0.91946072816E+02 0.  0.
          5    1    1    2  502    0  0.15351885779E+02 -0.23227013522E+02 -0.45313572927E+03  0.45400951102E+03  0.41800000000E+01 0.  1.
         -5    1    1    2    0  502 -0.44288335606E+02 -0.13183635971E+02 -0.58084390457E+02  0.74340660092E+02  0.41800000000E+01 0.  1.
        -11    1    3    3    0    0 -0.68566745999E+01  0.29490139034E+02 -0.74196274678E+02  0.80135943639E+02  0.00000000000E+00 0.  1.
         11    1    3    3    0    0  0.35793124427E+02  0.69205104587E+01  0.14169838724E+02  0.39112984426E+02  0.00000000000E+00 0. -1.
</event>
<event>
 7    1  0.4096326E-006  0.1370628E+03  0.7561462E-02  0.1217337E+00
          2   -1    0    0  501    0  0.00000000000E+00  0.00000000000E+00  0.27462972086E+03  0.27462972086E+03  0.00000000000E+00 0.  1.
         -2   -1    0    0    0  501 -0.00000000000E+00 -0.00000000000E+00 -0.87614626323E+02  0.87614626323E+02  0.00000000000E+00 0. -1.
         23    2    1    2    0    0  0.36389605150E+02 -0.66826724993E+02  0.16742177436E+03  0.20493697220E+03  0.90438363032E+02 0.  0.
          5    1    1    2  502    0 -0.54729550766E+02  0.10216133729E+03  0.12362510139E+02  0.11663004167E+03  0.41800000000E+01 0.  1.
         -5    1    1    2    0  502  0.18339945616E+02 -0.35334612297E+02  0.72308100369E+01  0.40677333309E+02  0.41800000000E+01 0. -1.
        -11    1    3    3    0    0  0.58085701745E+02 -0.75066165021E+02  0.13723101149E+03  0.16685690994E+03  0.00000000000E+00 0. -1.
         11    1    3    3    0    0 -0.21696096595E+02  0.82394400280E+01  0.30190762863E+02  0.38080062260E+02  0.00000000000E+00 0.  1.
</event>
<event>
 7    1  0.4096326E-006  0.1707153E+03  0.7561462E-02  0.1177104E+00
         -2   -1    0    0    0  501 -0.00000000000E+00  0.00000000000E+00  0.70376589222E+02  0.70376589222E+02  0.00000000000E+00 0.  1.
          2   -1    0    0  501    0  0.00000000000E+00 -0.00000000000E+00 -0.69491627851E+03  0.69491627851E+03  0.00000000000E+00 0. -1.
         23    2    1    2    0    0 -0.12767891016E+03 -0.31091965744E+02 -0.54345047744E+03  0.56657630558E+03  0.91660646832E+02 0.  0.
          5    1    1    2  502    0  0.34289075217E+02  0.71623412610E+02 -0.36528489875E+02  0.87506896218E+02  0.41800000000E+01 0. -1.
         -5    1    1    2    0  502  0.93389834941E+02 -0.40531446866E+02 -0.44560721971E+02  0.11120966594E+03  0.41800000000E+01 0. -1.
        -11    1    3    3    0    0 -0.65613591988E+02  0.30699659018E+02 -0.26012505513E+03  0.27002343754E+03  0.00000000000E+00 0.  1.
         11    1    3    3    0    0 -0.62065318169E+02 -0.61791624762E+02 -0.28332542232E+03  0.29655286804E+03  0.00000000000E+00 0. -1.
</event>
<event>
 7    1  0.4096326E-006  0.1176780E+03  0.7561462E-02  0.1246978E+00
         -1   -1    0    0    0  501 -0.00000000000E+00  0.00000000000E+00  0.42564174550E+02  0.42564174550E+02  0.00000000000E+00 0.  1.
          1   -1    0    0  501    0  0.00000000000E+00 -0.00000000000E+00 -0.43344476335E+03  0.43344476335E+03  0.00000000000E+00 0. -1.
         23    2    1    2    0    0  0.14187262157E+00 -0.22107731611E+02 -0.28642203034E+03  0.31154895460E+03  0.12056699267E+03 0.  0.
          5    1    1    2  502    0  0.21653724836E+02  0.70284603541E+02 -0.54934930145E+02  0.91891937863E+02  0.41800000000E+01 0. -1.
         -5    1    1    2    0  502 -0.21795597457E+02 -0.48176871930E+02 -0.49523628312E+02  0.72568045438E+02  0.41800000000E+01 0. -1.
        -11    1    3    3    0    0 -0.17327447916E+02 -0.62385350996E+02 -0.93729852246E+02  0.11391864497E+03  0.00000000000E+00 0.  1.
         11    1    3    3    0    0  0.17469320537E+02  0.40277619385E+02 -0.19269217809E+03  0.19763030962E+03  0.00000000000E+00 0. -1.
</event>
<event>
 7    1  0.4096326E-006  0.2231010E+03  0.7561462E-02  0.1131592E+00
         -1   -1    0    0    0  501 -0.00000000000E+00  0.00000000000E+00  0.34305861950E+03  0.34305861950E+03  0.00000000000E+00 0.  1.
          1   -1    0    0  501    0  0.00000000000E+00 -0.00000000000E+00 -0.19841832419E+03  0.19841832419E+03  0.00000000000E+00 0. -1.
         23    2    1    2    0    0 -0.28108509423E+02  0.21352504841E+03 -0.32780651362E+02  0.23568676021E+03  0.89948002945E+02 0.  0.
          5    1    1    2  502    0 -0.29262421345E+02 -0.84680749657E+02  0.12797388095E+03  0.15627509485E+03  0.41800000000E+01 0.  1.
         -5    1    1    2    0  502  0.57370930768E+02 -0.12884429875E+03  0.49447065724E+02  0.14951508863E+03  0.41800000000E+01 0.  1.
        -11    1    3    3    0    0 -0.22913602055E+02  0.16007978471E+03 -0.63605997099E+02  0.17377080738E+03  0.00000000000E+00 0. -1.
         11    1    3    3    0    0 -0.51949073682E+01  0.53445263703E+02  0.30825345736E+02  0.61915952828E+02  0.00000000000E+00 0.  1.
</event>
<event>
 7    1  0.4161692E-006  0.1549185E+03  0.7561462E-02  0.1194556E+00
          1   -1    0    0  501    0  0.00000000000E+00  0.00000000000E+00  0.37286240611E+03  0.37286240611E+03  0.00000000000E+00 0. -1.
         -1   -1    0    0    0  501 -0.00000000000E+00 -0.00000000000E+00 -0.83282333942E+02  0.83282333942E+02  0.00000000000E+00 0.  1.
         23    2    1    2    0    0 -0.12519908930E+03 -0.23027654598E+02  0.18805967970E+03  0.25081824057E+03  0.10648127458E+03 0.  0.
          5    1    1    2  502    0 -0.19241797665E+02 -0.81915053175E+01 -0.64280554949E+01  0.22274196601E+02  0.41800000000E+01 0.  1.
         -5    1    1    2    0  502  0.14444088696E+03  0.31219159916E+02  0.10794844796E+03  0.18305230288E+03  0.41800000000E+01 0.  1.
        -11    1    3    3    0    0 -0.12754197191E+02 -0.25162141509E+02  0.11089330880E+03  0.11442521071E+03  0.00000000000E+00 0. -1.
         11    1    3    3    0    0 -0.11244489211E+03  0.21344869111E+01  0.77166370909E+02  0.13639302986E+03  0.00000000000E+00 0.  1.
</event>
<event>
 7    1  0.4096326E-006  0.1079325E+03  0.7561462E-02  0.1264447E+00
         -2   -1    0    0    0  501 -0.00000000000E+00  0.00000000000E+00  0.50896590713E+02  0.50896590713E+02  0.00000000000E+00 0.  1.
          2   -1    0    0  501    0  0.00000000000E+00 -0.00000000000E+00 -0.54076237035E+03  0.54076237035E+03  0.00000000000E+00 0. -1.
         23    2    1    2    0    0  0.16319951221E+02  0.54092594748E+02 -0.42777299769E+03  0.44101488360E+03  0.91170392076E+02 0.  0.
          5    1    1    2  502    0 -0.11730820510E+02  0.26006380639E+02  0.20533847671E+02  0.35398520928E+02  0.41800000000E+01 0.  1.
         -5    1    1    2    0  502 -0.45891307111E+01 -0.80098975387E+02 -0.82626629621E+02  0.11524555654E+03  0.41800000000E+01 0.  1.
        -11    1    3    3    0    0 -0.23284261184E+02 -0.14540529767E+02 -0.13098664835E+03  0.13383230504E+03  0.00000000000E+00 0. -1.
         11    1    3    3    0    0  0.39604212405E+02  0.68633124515E+02 -0.29678634933E+03  0.30718257856E+03  0.00000000000E+00 0.  1.
</event>
<event>
 7    1  0.4096326E-006  0.2714453E+03  0.7561462E-02  0.1100455E+00
          4   -1    0    0  501    0  0.00000000000E+00  0.00000000000E+00  0.13258036627E+03  0.13258036627E+03  0.00000000000E+00 0. -1.
         -4   -1    0    0    0  501 -0.00000000000E+00 -0.00000000000E+00 -0.58606415034E+03  0.58606415034E+03  0.00000000000E+00 0.  1.
         23    2    1    2    0    0  0.25712942645E+03 -0.10571912113E+02 -0.22578609317E+03  0.35296384938E+03  0.85888368408E+02 0.  0.
          5    1    1    2  502    0 -0.15714515995E+02 -0.34009271273E+02 -0.49877097103E+02  0.62520186827E+02  0.41800000000E+01 0.  1.
         -5    1    1    2    0  502 -0.24141491045E+03  0.44581183385E+02 -0.17782059379E+03  0.30316048040E+03  0.41800000000E+01 0.  1.
        -11    1    3    3    0    0  0.14855491269E+03  0.11011310383E+02 -0.17875915506E+03  0.23269002247E+03  0.00000000000E+00 0.  1.
         11    1    3    3    0    0  0.10857451376E+03 -0.21583222495E+02 -0.47026938118E+02  0.12027382691E+03  0.00000000000E+00 0. -1.
</event>
<event>
 7    1  0.4096326E-006  0.1394718E+03  0.7561462E-02  0.1214041E+00
         -1   -1    0    0    0  501 -0.00000000000E+00  0.00000000000E+00  0.38833569245E+02  0.38833569245E+02  0.00000000000E+00 0.  1.
          1   -1    0    0  501    0  0.00000000000E+00 -0.00000000000E+00 -0.61245517049E+03  0.61245517049E+03  0.00000000000E+00 0. -1.
         23    2    1    2    0    0 -0.50383264140E+02  0.92954680825E+02 -0.20934488318E+03  0.25188911429E+03  0.91890150673E+02 0.  0.
          5    1    1    2  502    0  0.84159157820E+02 -0.69211634509E+02 -0.17954178717E+03  0.21006127662E+03  0.41800000000E+01 0. -1.
         -5    1    1    2    0  502 -0.33775893680E+02 -0.23743046316E+02 -0.18473493089E+03  0.18933834882E+03  0.41800000000E+01 0. -1.
        -11    1    3    3    0    0  0.52775542030E+01  0.66616281620E+02 -0.57956878134E+02  0.88456663279E+02  0.00000000000E+00 0.  1.
         11    1    3    3    0    0 -0.55660818343E+02  0.26338399205E+02 -0.15138800505E+03  0.16343245101E+03  0.00000000000E+00 0. -1.
</event>
<event>
 7    1  0.4096326E-006  0.1371712E+03  0.7561462E-02  0.1217187E+00
         -1   -1    0    0    0  501 -0.00000000000E+00  0.00000000000E+00  0.11639928281E+03  0.11639928281E+03  0.00000000000E+00 0.  1.
          1   -1    0    0  501    0  0.00000000000E+00 -0.00000000000E+00 -0.23988661062E+03  0.23988661062E+03  0.00000000000E+00 0. -1.
         23    2    1    2    0    0 -0.10160973696E+03 -0.32748387522E+02 -0.12968069510E+03  0.19517095355E+03  0.99386230934E+02 0.  0.
          5    1    1    2  502    0  0.69533859373E+02 -0.31116209459E+02  0.35011321446E+02  0.83943082620E+02  0.41800000000E+01 0. -1.
         -5    1    1    2    0  502  0.32075877588E+02  0.63864596981E+02 -0.28817954156E+02  0.77171857256E+02  0.41800000000E+01 0.  1.
        -11    1    3    3    0    0 -0.33585603622E+02 -0.46200927513E+02 -0.11673813327E+02  0.58299197176E+02  0.00000000000E+00 0.  1.
         11    1    3    3    0    0 -0.68024133339E+02  0.13452539991E+02 -0.11800688177E+03  0.13687175638E+03  0.00000000000E+00 0. -1.
</event>
<event>
 7    1  0.4096326E-006  0.1189194E+03  0.7561462E-02  0.1244890E+00
          2   -1    0    0  501    0  0.00000000000E+00  0.00000000000E+00  0.10070183118E+04  0.10070183118E+04  0.00000000000E+00 0. -1.
         -2   -1    0    0    0  501 -0.00000000000E+00 -0.00000000000E+00 -0.22743358226E+02  0.22743358226E+02  0.00000000000E+00 0.  1.
         23    2    1    2    0    0  0.62131583337E+02 -0.34825263989E+02  0.35492531104E+03  0.37342794745E+03  0.91669639764E+02 0.  0.
          5    1    1    2  502    0  0.23270790030E+02 -0.13903731069E+02  0.45732566055E+03  0.45814743872E+03  0.41800000000E+01 0. -1.
         -5    1    1    2    0  502 -0.85402373367E+02  0.48728995057E+02  0.17202398201E+03  0.19818628389E+03  0.41800000000E+01 0.  1.
        -11    1    3    3    0    0  0.52097671569E+02 -0.63196328757E+02  0.29784680621E+03  0.30890235241E+03  0.00000000000E+00 0.  1.
         11    1    3    3    0    0  0.10033911768E+02  0.28371064768E+02  0.57078504830E+02  0.64525595039E+02  0.00000000000E+00 0. -1.
</event>
<event>
 7    1  0.4096326E-006  0.1133991E+03  0.7561462E-02  0.1254402E+00
         -3   -1    0    0    0  501 -0.00000000000E+00  0.00000000000E+00  0.12404098522E+03  0.12404098522E+03  0.00000000000E+00 0.  1.
          3   -1    0    0  501    0  0.00000000000E+00 -0.00000000000E+00 -0.18171546302E+03  0.18171546302E+03  0.00000000000E+00 0. -1.
         23    2    1    2    0    0 -0.13484692359E+02  0.10267134637E+03 -0.43131096786E+02  0.14272172930E+03  0.88238076872E+02 0.  0.
          5    1    1    2  502    0  0.24978107517E+02 -0.82391670328E+02 -0.64561317864E+02  0.10769368300E+03  0.41800000000E+01 0.  1.
         -5    1    1    2    0  502 -0.11493415158E+02 -0.20279676044E+02  0.50017936845E+02  0.55341035938E+02  0.41800000000E+01 0.  1.
        -11    1    3    3    0    0 -0.29037664362E+02  0.95456242610E+02 -0.61808295031E+02  0.11736841798E+03  0.00000000000E+00 0. -1.
         11    1    3    3    0    0  0.15552972003E+02  0.72151037617E+01  0.18677198246E+02  0.25353311317E+02  0.00000000000E+00 0.  1.
</event>
<event>
 7    1  0.4096326E-006  0.2545507E+03  0.7561462E-02  0.1110462E+00
          2   -1    0    0  501    0  0.00000000000E+00  0.00000000000E+00  0.41089849405E+03  0.41089849405E+03  0.00000000000E+00 0.  1.
         -2   -1    0    0    0  501 -0.00000000000E+00 -0.00000000000E+00 -0.36847276544E+03  0.36847276544E+03  0.00000000000E+00 0. -1.
         23    2    1    2    0    0  0.10059822396E+03 -0.21305771962E+03  0.30558618199E+03  0.39650612091E+03  0.91217294068E+02 0.  0.
          5    1    1    2  502    0 -0.90146836310E+02  0.64619700485E+02 -0.47302598190E+02  0.12065308112E+03  0.41800000000E+01 0.  1.
         -5    1    1    2    0  502 -0.10451387648E+02  0.14843801913E+03 -0.21585785520E+03  0.26221205746E+03  0.41800000000E+01 0. -1.
        -11    1    3    3    0    0  0.30268763542E+02 -0.15534214845E+03  0.22422769488E+03  0.27445480553E+03  0.00000000000E+00 0.  1.
         11    1    3    3    0    0  0.70329460417E+02 -0.57715571173E+02  0.81358487119E+02  0.12205131537E+03  0.00000000000E+00 0. -1.
</event>
<event>
 7    1  0.4096326E-006  0.1060816E+03  0.7561462E-02  0.1268003E+00
         -1   -1    0    0    0  501 -0.00000000000E+00  0.00000000000E+00  0.69187062127E+02  0.69187062127E+02  0.00000000000E+00 0.  1.
          1   -1    0    0  501    0  0.00000000000E+00 -0.00000000000E+00 -0.26691148033E+03  0.26691148033E+03  0.00000000000E+00 0. -1.
         23    2    1    2    0    0  0.79760169540E+02  0.43084657201E+01 -0.11325349824E+03  0.16530382323E+03  0.90104115276E+02 0.  0.
          5    1    1    2  502    0 -0.45974083645E+02  0.20929486359E+02  0.22708675570E+02  0.55541120914E+02  0.41800000000E+01 0.  1.
         -5    1    1    2    0  502 -0.33786085895E+02 -0.25237952079E+02 -0.10717959554E+03  0.11525359832E+03  0.41800000000E+01 0.  1.
        -11    1    3    3    0    0  0.89259303399E+02 -0.21316411294E+02 -0.76316115195E+02  0.11935561182E+03  0.00000000000E+00 0.  1.
         11    1    3    3    0    0 -0.94991338587E+01  0.25624877014E+02 -0.36937383046E+02  0.45948211416E+02  0.00000000000E+00 0. -1.
</event>
<event>
 7    1  0.4096326E-006  0.7205945E+02  0.7561462E-02  0.1353227E+00
         -3   -1    0    0    0  501 -0.00000000000E+00  0.00000000000E+00  0.27631701118E+03  0.27631701118E+03  0.00000000000E+00 0.  1.
          3   -1    0    0  501    0  0.00000000000E+00 -0.00000000000E+00 -0.51423350508E+02  0.51423350508E+02  0.00000000000E+00 0. -1.
         23    2    1    2    0    0 -0.37501125751E+02  0.20675097958E+02  0.54151143054E+02  0.11179112999E+03  0.87926766930E+02 0.  0.
          5    1    1    2  502    0  0.27304928003E+02  0.23340650663E+02 -0.30870574985E+01  0.36295280556E+02  0.41800000000E+01 0.  1.
         -5    1    1    2    0  502  0.10196197748E+02 -0.44015748621E+02  0.17382957512E+03  0.17965395114E+03  0.41800000000E+01 0.  1.
        -11    1    3    3    0    0 -0.43063641365E+02  0.20165325032E+01 -0.10416825823E+02  0.44351481048E+02  0.00000000000E+00 0. -1.
         11    1    3    3    0    0  0.55625156136E+01  0.18658565455E+02  0.64567968878E+02  0.67439648945E+02  0.00000000000E+00 0.  1.
</event>
<event>
 7    1  0.4096326E-006  0.9702397E+02  0.7561462E-02  0.1286682E+00
          2   -1    0    0  501    0  0.00000000000E+00  0.00000000000E+00  0.52077571173E+02  0.52077571173E+02  0.00000000000E+00 0.  1.
         -2   -1    0    0    0  501 -0.00000000000E+00 -0.00000000000E+00 -0.25115300438E+03  0.25115300438E+03  0.00000000000E+00 0. -1.
         23    2    1    2    0    0  0.24615665966E+02  0.51739194846E+02 -0.45051216105E+02  0.96706375640E+02  0.63558128689E+02 0.  0.
          5    1    1    2  502    0  0.22524245660E+02 -0.77673354895E+02 -0.72121120421E+02  0.10844085998E+03  0.41800000000E+01 0. -1.
         -5    1    1    2    0  502 -0.47139911627E+02  0.25934160049E+02 -0.81903096676E+02  0.98083339925E+02  0.41800000000E+01 0. -1.
        -11    1    3    3    0    0  0.89021325034E+01  0.35117197108E+02  0.95856714544E+01  0.37474666017E+02  0.00000000000E+00 0.  1.
         11    1    3    3    0    0  0.15713533463E+02  0.16621997738E+02 -0.54636887559E+02  0.59231709623E+02  0.00000000000E+00 0. -1.
</event>
<event>
 7    1  0.4096326E-006  0.1231881E+03  0.7561462E-02  0.1237928E+00
          1   -1    0    0  501    0  0.00000000000E+00  0.00000000000E+00  0.22535309511E+03  0.22535309511E+03  0.00000000000E+00 0. -1.
         -1   -1    0    0    0  501 -0.00000000000E+00 -0.00000000000E+00 -0.14149828207E+03  0.14149828207E+03  0.00000000000E+00 0.  1.
         23    2    1    2    0    0  0.77827498807E+02 -0.45838465387E+02  0.15197670602E+03  0.19818401657E+03  0.89563947928E+02 0.  0.
          5    1    1    2  502    0 -0.80429263683E+02 -0.21678854876E+02 -0.20465443898E+02  0.85878670223E+02  0.41800000000E+01 0. -1.
         -5    1    1    2    0  502  0.26017648756E+01  0.67517320262E+02 -0.47656449086E+02  0.82788690383E+02  0.41800000000E+01 0. -1.
        -11    1    3    3    0    0  0.64177161768E+02 -0.22070489902E+02  0.15633554100E+03  0.17043067798E+03  0.00000000000E+00 0. -1.
         11    1    3    3    0    0  0.13650337039E+02 -0.23767975485E+02 -0.43588349813E+01  0.27753338580E+02  0.00000000000E+00 0.  1.
</event>
<event>
 7    1  0.4096326E-006  0.1549215E+03  0.7561462E-02  0.1194553E+00
          1   -1    0    0  501    0  0.00000000000E+00  0.00000000000E+00  0.53335784485E+03  0.53335784485E+03  0.00000000000E+00 0. -1.
         -1   -1    0    0    0  501 -0.00000000000E+00 -0.00000000000E+00 -0.50956722207E+02  0.50956722207E+02  0.00000000000E+00 0.  1.
         23    2    1    2    0    0  0.81123459864E+02 -0.92103745396E+02  0.23507401796E+03  0.28119206569E+03  0.93515069538E+02 0.  0.
          5    1    1    2  502    0 -0.65234993613E+02  0.11779538170E+03  0.15235153206E+03  0.20337113380E+03  0.41800000000E+01 0. -1.
         -5    1    1    2    0  502 -0.15888466251E+02 -0.25691636309E+02  0.94975572622E+02  0.99751367564E+02  0.41800000000E+01 0. -1.
        -11    1    3    3    0    0  0.43994293873E+01 -0.62087856527E+02  0.15173091683E+03  0.16400160983E+03  0.00000000000E+00 0.  1.
         11    1    3    3    0    0  0.76724030477E+02 -0.30015888869E+02  0.83343101134E+02  0.11719045586E+03  0.00000000000E+00 0. -1.
</event>
<event>
 7    1  0.4096326E-006  0.7181900E+02  0.7561462E-02  0.1354014E+00
         -1   -1    0    0    0  501 -0.00000000000E+00  0.00000000000E+00  0.27017327104E+02  0.27017327104E+02  0.00000000000E+00 0.  1.
          1   -1    0    0  501    0  0.00000000000E+00 -0.00000000000E+00 -0.54458604577E+03  0.54458604577E+03  0.00000000000E+00 0. -1.
         23    2    1    2    0    0 -0.17723087384E+02  0.49173700177E+02 -0.24731092763E+03  0.26924898383E+03  0.92737046280E+02 0.  0.
          5    1    1    2  502    0 -0.59119697817E+01 -0.15328877624E+02  0.95698144421E+01  0.19467399014E+02  0.41800000000E+01 0. -1.
         -5    1    1    2    0  502  0.23635057165E+02 -0.33844822553E+02 -0.27982760548E+03  0.28288699003E+03  0.41800000000E+01 0. -1.
        -11    1    3    3    0    0  0.25409043801E+02  0.25470940610E+02 -0.19144520723E+03  0.19479644682E+03  0.00000000000E+00 0. -1.
         11    1    3    3    0    0 -0.43132131184E+02  0.23702759567E+02 -0.55865720408E+02  0.74452537017E+02  0.00000000000E+00 0.  1.
</event>
<event>
 7    1  0.4096326E-006  0.1009239E+03  0.7561462E-02  0.1278365E+00
         -2   -1    0    0    0  501 -0.00000000000E+00  0.00000000000E+00  0.68515375897E+02  0.68515375897E+02  0.00000000000E+00 0.  1.
          2   -1    0    0  501    0  0.00000000000E+00 -0.00000000000E+00 -0.19268585452E+03  0.19268585452E+03  0.00000000000E+00 0. -1.
         23    2    1    2    0    0  0.15484255671E+02  0.22046056594E+02 -0.10885642929E+03  0.13233282195E+03  0.70259965723E+02 0.  0.
          5    1    1    2  502    0 -0.12853683477E+02  0.51367939767E+02  0.24556765623E+01  0.53173162049E+02  0.41800000000E+01 0. -1.
         -5    1    1    2    0  502 -0.26305721941E+01 -0.73413996362E+02 -0.17769725899E+02  0.75695246419E+02  0.41800000000E+01 0. -1.
        -11    1    3    3    0    0  0.38619778211E+02  0.31816188442E+02 -0.75593498740E+02  0.90653925276E+02  0.00000000000E+00 0. -1.
         11    1    3    3    0    0 -0.23135522540E+02 -0.97701318482E+01 -0.33262930547E+02  0.41678896676E+02  0.00000000000E+00 0.  1.
</event>
<event>
 7    1  0.4096326E-006  0.1108959E+03  0.7561462E-02  0.1258920E+00
          4   -1    0    0  501    0  0.00000000000E+00  0.00000000000E+00  0.22977889163E+02  0.22977889163E+02  0.00000000000E+00 0. -1.
         -4   -1    0    0    0  501 -0.00000000000E+00 -0.00000000000E+00 -0.64673093085E+03  0.64673093085E+03  0.00000000000E+00 0.  1.
         23    2    1    2    0    0 -0.13168080100E+02  0.51575395123E+02 -0.23564733101E+03  0.25848285600E+03  0.91925527020E+02 0.  0.
          5    1    1    2  502    0  0.35400622213E+02 -0.82801683722E+02 -0.20253906080E+03  0.22169543620E+03  0.41800000000E+01 0.  1.
         -5    1    1    2    0  502 -0.22232542113E+02  0.31226288599E+02 -0.18556664987E+03  0.18953052781E+03  0.41800000000E+01 0.  1.
        -11    1    3    3    0    0 -0.44289863487E+02  0.40600627177E+02 -0.20435697995E+03  0.21300652147E+03  0.00000000000E+00 0.  1.
         11    1    3    3    0    0  0.31121783387E+02  0.10974767946E+02 -0.31290351058E+02  0.45476334527E+02  0.00000000000E+00 0. -1.
</event>
<event>
 7    1  0.4096326E-006  0.1012998E+03  0.7561462E-02  0.1277586E+00
         -2   -1    0    0    0  501 -0.00000000000E+00  0.00000000000E+00  0.18955746746E+02  0.18955746746E+02  0.00000000000E+00 0.  1.
          2   -1    0    0  501    0  0.00000000000E+00 -0.00000000000E+00 -0.84126562441E+03  0.84126562441E+03  0.00000000000E+00 0. -1.
         23    2    1    2    0    0 -0.38642129953E+02 -0.66315139133E+00 -0.43827022208E+03  0.45453702547E+03  0.11414668625E+03 0.  0.
          5    1    1    2  502    0 -0.12807937238E+02  0.27374216983E+02 -0.31028373514E+03  0.31178014642E+03  0.41800000000E+01 0.  1.
         -5    1    1    2    0  502  0.51450067190E+02 -0.26711065591E+02 -0.73755920443E+02  0.93904199263E+02  0.41800000000E+01 0.  1.
        -11    1    3    3    0    0  0.11715735511E+02  0.44688755907E+02 -0.10936502432E+03  0.11872258381E+03  0.00000000000E+00 0.  1.
         11    1    3    3    0    0 -0.50357865464E+02 -0.45351907298E+02 -0.32890519776E+03  0.33581444166E+03  0.00000000000E+00 0. -1.
</event>
<event>
 7    1  0.4096326E-006  0.9303511E+02  0.7561462E-02  0.1295664E+00
          3   -1    0    0  501    0  0.00000000000E+00  0.00000000000E+00  0.54159093335E+02  0.54159093335E+02  0.00000000000E+00 0. -1.
         -3   -1    0    0    0  501 -0.00000000000E+00 -0.00000000000E+00 -0.23483024584E+03  0.23483024584E+03  0.00000000000E+00 0.  1.
         23    2    1    2    0    0  0.24055836825E+02 -0.10025795456E+02 -0.54246451180E+02  0.10924027853E+03  0.91167763645E+02 0.  0.
          5    1    1    2  502    0  0.25804538248E+02  0.52971630944E+02 -0.78461227439E+02  0.98211529314E+02  0.41800000000E+01 0. -1.
         -5    1    1    2    0  502 -0.49860375073E+02 -0.42945835487E+02 -0.47963473883E+02  0.81537531328E+02  0.41800000000E+01 0. -1.
        -11    1    3    3    0    0  0.34340788394E+02  0.12302528826E+02 -0.70771331264E+02  0.79619239458E+02  0.00000000000E+00 0.  1.
         11    1    3    3    0    0 -0.10284951569E+02 -0.22328324282E+02  0.16524880083E+02  0.29621039073E+02  0.00000000000E+00 0. -1.
</event>
<event>
 7    1  0.4096326E-006  0.1148205E+03  0.7561462E-02  0.1251895E+00
          2   -1    0    0  501    0  0.00000000000E+00  0.00000000000E+00  0.93406900992E+02  0.93406900992E+02  0.00000000000E+00 0. -1.
         -2   -1    0    0    0  501 -0.00000000000E+00 -0.00000000000E+00 -0.16495156606E+03  0.16495156606E+03  0.00000000000E+00 0.  1.
         23    2    1    2    0    0 -0.44680384053E+02  0.22106484911E+02  0.30582445598E+01  0.10442185631E+03  0.91703532222E+02 0.  0.
          5    1    1    2  502    0 -0.41575700653E+02 -0.22097843252E+02 -0.35626146855E+02  0.59190778850E+02  0.41800000000E+01 0.  1.
         -5    1    1    2    0  502  0.86256084706E+02 -0.86416596932E-02 -0.38976762769E+02  0.94745831884E+02  0.41800000000E+01 0.  1.
        -11    1    3    3    0    0  0.16809775526E+02 -0.16382443784E+02  0.18940241331E+02  0.30160997319E+02  0.00000000000E+00 0. -1.
         11    1    3    3    0    0 -0.61490159579E+02  0.38488928696E+02 -0.15881996771E+02  0.74260858995E+02  0.00000000000E+00 0.  1.
</event>
<event>
 7    1  0.4096326E-006  0.1082893E+03  0.7561462E-02  0.1263771E+00
         -2   -1    0    0    0  501 -0.00000000000E+00  0.00000000000E+00  0.25531521521E+02  0.25531521521E+02  0.00000000000E+00 0. -1.
          2   -1    0    0  501    0  0.00000000000E+00 -0.00000000000E+00 -0.54236779918E+03  0.54236779918E+03  0.00000000000E+00 0.  1.
         23    2    1    2    0    0  0.25933925709E+02 -0.22316390669E+02 -0.29863353577E+03  0.31406828054E+03  0.91029151146E+02 0.  0.
          5    1    1    2  502    0 -0.54887850772E+02 -0.34594291891E+02 -0.96986600061E+02  0.11676178392E+03  0.41800000000E+01 0. -1.
         -5    1    1    2    0  502  0.28953925063E+02  0.56910682560E+02 -0.12121614183E+03  0.13706925624E+03  0.41800000000E+01 0. -1.
        -11    1    3    3    0    0 -0.12221291680E+02  0.24380396009E+02 -0.39429772662E+02  0.47942368028E+02  0.00000000000E+00 0. -1.
         11    1    3    3    0    0  0.38155217389E+02 -0.46696786679E+02 -0.25920376311E+03  0.26612591251E+03  0.00000000000E+00 0.  1.
</event>
<event>
 7    1  0.4096326E-006  0.2611287E+03  0.7561462E-02  0.1106467E+00
          1   -1    0    0  501    0  0.00000000000E+00  0.00000000000E+00  0.47892490924E+02  0.47892490924E+02  0.00000000000E+00 0. -1.
         -1   -1    0    0    0  501 -0.00000000000E+00 -0.00000000000E+00 -0.15123841438E+04  0.15123841438E+04  0.00000000000E+00 0.  1.
         23    2    1    2    0    0  0.11263013571E+03  0.21843766887E+03 -0.65636420651E+03  0.70639512861E+03  0.88201720379E+02 0.  0.
          5    1    1    2  502    0 -0.13027116367E+03 -0.20298514865E+03 -0.63776324657E+03  0.68185993997E+03  0.41800000000E+01 0.  1.
         -5    1    1    2    0  502  0.17641027961E+02 -0.15452520219E+02 -0.17036419976E+03  0.17202156611E+03  0.41800000000E+01 0.  1.
        -11    1    3    3    0    0  0.97581139018E+02  0.10721948008E+03 -0.42909899676E+03  0.45292829965E+03  0.00000000000E+00 0.  1.
         11    1    3    3    0    0  0.15048996695E+02  0.11121818879E+03 -0.22726520975E+03  0.25346682896E+03  0.00000000000E+00 0. -1.
</event>
<event>
 7    1  0.4096326E-006  0.9663943E+02  0.7561462E-02  0.1287526E+00
         -2   -1    0    0    0  501 -0.00000000000E+00  0.00000000000E+00  0.49938690525E+02  0.49938690525E+02  0.00000000000E+00 0.  1.
          2   -1    0    0  501    0  0.00000000000E+00 -0.00000000000E+00 -0.32560124044E+03  0.32560124044E+03  0.00000000000E+00 0. -1.
         23    2    1    2    0    0 -0.66905259283E+02  0.12414653384E+01 -0.13149367688E+03  0.17327773953E+03  0.90866567009E+02 0.  0.
          5    1    1    2  502    0  0.72165011443E+02  0.17411332113E+02 -0.20657325316E+02  0.77169559101E+02  0.41800000000E+01 0.  1.
         -5    1    1    2    0  502 -0.52597521601E+01 -0.18652797451E+02 -0.12351154772E+03  0.12509263234E+03  0.41800000000E+01 0.  1.
        -11    1    3    3    0    0  0.16008844214E+02 -0.19312354882E+01  0.18447933791E+01  0.16230096308E+02  0.00000000000E+00 0.  1.
         11    1    3    3    0    0 -0.82914103497E+02  0.31727008267E+01 -0.13333847026E+03  0.15704764322E+03  0.00000000000E+00 0. -1.
</event>
<event>
 7    1  0.4096326E-006  0.1941477E+03  0.7561462E-02  0.1154773E+00
         -2   -1    0    0    0  501 -0.00000000000E+00  0.00000000000E+00  0.14068803257E+03  0.14068803257E+03  0.00000000000E+00 0.  1.
          2   -1    0    0  501    0  0.00000000000E+00 -0.00000000000E+00 -0.33625765595E+03  0.33625765595E+03  0.00000000000E+00 0. -1.
         23    2    1    2    0    0  0.98158383840E+02 -0.15521822240E+03 -0.13902911531E+03  0.24766057569E+03  0.90988466088E+02 0.  0.
          5    1    1    2  502    0 -0.78700163597E+02  0.46558076068E+02 -0.73667142646E+02  0.11749761914E+03  0.41800000000E+01 0.  1.
         -5    1    1    2    0  502 -0.19458220243E+02  0.10866014634E+03  0.17126634574E+02  0.11178749370E+03  0.41800000000E+01 0.  1.
        -11    1    3    3    0    0  0.22556704934E+02 -0.63754816743E+02 -0.10378324960E+03  0.12387269470E+03  0.00000000000E+00 0. -1.
         11    1    3    3    0    0  0.75601678907E+02 -0.91463405661E+02 -0.35245865709E+02  0.12378788098E+03  0.00000000000E+00 0.  1.
</event>
<event>
 7    1  0.4096326E-006  0.9893389E+02  0.7561462E-02  0.1282554E+00
         -2   -1    0    0    0  501 -0.00000000000E+00  0.00000000000E+00  0.97186511070E+02  0.97186511070E+02  0.00000000000E+00 0.  1.
          2   -1    0    0  501    0  0.00000000000E+00 -0.00000000000E+00 -0.13574078781E+03  0.13574078781E+03  0.00000000000E+00 0. -1.
         23    2    1    2    0    0  0.65368039604E+01  0.11754435111E+02 -0.54517631617E+02  0.10609714977E+03  0.90019644973E+02 0.  0.
          5    1    1    2  502    0  0.21911634705E+02 -0.59137293220E+02  0.29539542504E+02  0.69766726713E+02  0.41800000000E+01 0. -1.
         -5    1    1    2    0  502 -0.28448438666E+02  0.47382858109E+02 -0.13576187624E+02  0.57063422396E+02  0.41800000000E+01 0. -1.
        -11    1    3    3    0    0  0.17321435767E+02  0.42907235296E+02 -0.56549531059E+02  0.73067861887E+02  0.00000000000E+00 0. -1.
         11    1    3    3    0    0 -0.10784631807E+02 -0.31152800185E+02  0.20318994422E+01  0.33029287881E+02  0.00000000000E+00 0.  1.
</event>
<event>
 7    1  0.4096326E-006  0.7878633E+02  0.7561462E-02  0.1332531E+00
          1   -1    0    0  501    0  0.00000000000E+00  0.00000000000E+00  0.40727647420E+03  0.40727647420E+03  0.00000000000E+00 0. -1.
         -1   -1    0    0    0  501 -0.00000000000E+00 -0.00000000000E+00 -0.40251329572E+02  0.40251329572E+02  0.00000000000E+00 0.  1.
         23    2    1    2    0    0 -0.26886000799E+02  0.57952574134E+02  0.19989556512E+03  0.22921191488E+03  0.92187347739E+02 0.  0.
          5    1    1    2  502    0 -0.18509237113E+02 -0.37303666263E+02  0.16278818351E+03  0.16808218366E+03  0.41800000000E+01 0.  1.
         -5    1    1    2    0  502  0.45395237912E+02 -0.20648907871E+02  0.43413960016E+01  0.50233705225E+02  0.41800000000E+01 0.  1.
        -11    1    3    3    0    0 -0.84453978876E+01  0.36129564631E+02  0.19703509022E+03  0.20049812210E+03  0.00000000000E+00 0. -1.
         11    1    3    3    0    0 -0.18440602912E+02  0.21823009503E+02  0.28604748957E+01  0.28713792786E+02  0.00000000000E+00 0.  1.
</event>
<event>
 7    1  0.4096326E-006  0.9962532E+02  0.7561462E-02  0.1281086E+00
         -2   -1    0    0    0  501 -0.00000000000E+00  0.00000000000E+00  0.98506807563E+02  0.98506807563E+02  0.00000000000E+00 0.  1.
          2   -1    0    0  501    0  0.00000000000E+00 -0.00000000000E+00 -0.20637384949E+03  0.20637384949E+03  0.00000000000E+00 0. -1.
         23    2    1    2    0    0  0.39672477344E+02  0.68839313728E+02 -0.10670983696E+03  0.15668827191E+03  0.82773598913E+02 0.  0.
          5    1    1    2  502    0 -0.11434523002E+02  0.68637088866E+01  0.50368855832E+02  0.52271912666E+02  0.41800000000E+01 0.  1.
         -5    1    1    2    0  502 -0.28237954342E+02 -0.75703022614E+02 -0.51526060794E+02  0.95920472472E+02  0.41800000000E+01 0.  1.
        -11    1    3    3    0    0 -0.80807843309E+01  0.53653648015E+02 -0.22588037717E+02  0.58772718745E+02  0.00000000000E+00 0.  1.
         11    1    3    3    0    0  0.47753261675E+02  0.15185665713E+02 -0.84121799244E+02  0.97915553166E+02  0.00000000000E+00 0. -1.
</event>
<event>
 7    1  0.4096326E-006  0.4072112E+02  0.7561462E-02  0.1502971E+00
         -2   -1    0    0    0  501 -0.00000000000E+00  0.00000000000E+00  0.29966832592E+03  0.29966832592E+03  0.00000000000E+00 0.  1.
          2   -1    0    0  501    0  0.00000000000E+00 -0.00000000000E+00 -0.54031796703E+02  0.54031796703E+02  0.00000000000E+00 0. -1.
         23    2    1    2    0    0 -0.97229104221E+01 -0.23337061291E+02  0.32991380819E+02  0.10569889025E+03  0.97183696033E+02 0.  0.
          5    1    1    2  502    0 -0.11701958976E+02  0.16814303962E+02 -0.10707267774E+02  0.23489883882E+02  0.41800000000E+01 0.  1.
         -5    1    1    2    0  502  0.21424869398E+02  0.65227573284E+01  0.22335241617E+03  0.22451134849E+03  0.41800000000E+01 0.  1.
        -11    1    3    3    0    0  0.99711022046E+01 -0.83051052026E+01 -0.32866190099E+02  0.35335309581E+02  0.00000000000E+00 0. -1.
         11    1    3    3    0    0 -0.19694012627E+02 -0.15031956088E+02  0.65857570918E+02  0.70363580667E+02  0.00000000000E+00 0.  1.
</event>
<event>
 7    1  0.4096326E-006  0.1049662E+03  0.7561462E-02  0.1270186E+00
          1   -1    0    0  501    0  0.00000000000E+00  0.00000000000E+00  0.46993798299E+03  0.46993798299E+03  0.00000000000E+00 0. -1.
         -1   -1    0    0    0  501 -0.00000000000E+00 -0.00000000000E+00 -0.32985322289E+02  0.32985322289E+02  0.00000000000E+00 0.  1.
         23    2    1    2    0    0  0.81231235767E+01  0.20373774072E+02  0.31543262437E+03  0.32715143429E+03  0.83959779880E+02 0.  0.
          5    1    1    2  502    0 -0.79502838614E+01 -0.72615058209E+02  0.57644605875E+02  0.93147875331E+02  0.41800000000E+01 0.  1.
         -5    1    1    2    0  502 -0.17283971528E+00  0.52241284137E+02  0.63875430458E+02  0.82623995655E+02  0.41800000000E+01 0.  1.
        -11    1    3    3    0    0 -0.33659296272E+02 -0.70332708717E+01  0.92432467228E+02  0.98621377614E+02  0.00000000000E+00 0.  1.
         11    1    3    3    0    0  0.41782419849E+02  0.27407044944E+02  0.22300015714E+03  0.22853005668E+03  0.00000000000E+00 0. -1.
</event>
<event>
 7    1  0.4096326E-006  0.1709804E+03  0.7561462E-02  0.1176829E+00
          2   -1    0    0  501    0  0.00000000000E+00  0.00000000000E+00  0.90550817454E+03  0.90550817454E+03  0.00000000000E+00 0. -1.
         -2   -1    0    0    0  501 -0.00000000000E+00 -0.00000000000E+00 -0.37370644877E+02  0.37370644877E+02  0.00000000000E+00 0.  1.
         23    2    1    2    0    0 -0.13887914225E+03  0.25021402805E+02  0.51814206551E+03  0.54531694891E+03  0.94793923697E+02 0.  0.
          5    1    1    2  502    0  0.21256870896E+02 -0.58852257790E+02  0.84933284949E+02  0.10557735600E+03  0.41800000000E+01 0. -1.
         -5    1    1    2    0  502  0.11762227135E+03  0.33830854986E+02  0.26506217921E+03  0.29198451451E+03  0.41800000000E+01 0. -1.
        -11    1    3    3    0    0 -0.73419851331E+02  0.47648084809E+02  0.17996548608E+03  0.20012094027E+03  0.00000000000E+00 0.  1.
         11    1    3    3    0    0 -0.65459290918E+02 -0.22626682004E+02  0.33817657943E+03  0.34519600864E+03  0.00000000000E+00 0. -1.
</event>
<event>
 7    1  0.4096326E-006  0.9890073E+02  0.7561462E-02  0.1282625E+00
          1   -1    0    0  501    0  0.00000000000E+00  0.00000000000E+00  0.15681197185E+02  0.15681197185E+02  0.00000000000E+00 0. -1.
         -1   -1    0    0    0  501 -0.00000000000E+00 -0.00000000000E+00 -0.11591244188E+04  0.11591244188E+04  0.00000000000E+00 0.  1.
         23    2    1    2    0    0  0.33751045491E+02 -0.31287024624E+02 -0.22858870498E+03  0.25029489650E+03  0.90976525471E+02 0.  0.
          5    1    1    2  502    0  0.51835614469E+01 -0.31935661123E+02 -0.80650790186E+02  0.86998724808E+02  0.41800000000E+01 0.  1.
         -5    1    1    2    0  502 -0.38934606938E+02  0.63222685747E+02 -0.83420372646E+03  0.83751199469E+03  0.41800000000E+01 0.  1.
        -11    1    3    3    0    0 -0.13427807437E+01 -0.50692305528E+02 -0.18146733816E+03  0.18841949930E+03  0.00000000000E+00 0.  1.
         11    1    3    3    0    0  0.35093826234E+02  0.19405280905E+02 -0.47121366827E+02  0.61875397198E+02  0.00000000000E+00 0. -1.
</event>
<event>
 7    1  0.4096326E-006  0.2230966E+03  0.7561462E-02  0.1131595E+00
         -1   -1    0    0    0  501 -0.00000000000E+00  0.00000000000E+00  0.25134929181E+03  0.25134929181E+03  0.00000000000E+00 0.  1.
          1   -1    0    0  501    0  0.00000000000E+00 -0.00000000000E+00 -0.33123246488E+03  0.33123246488E+03  0.00000000000E+00 0. -1.
         23    2    1    2    0    0  0.11261974439E+03 -0.17749875831E+03 -0.20571770680E+03  0.30749127632E+03  0.89677723496E+02 0.  0.
          5    1    1    2  502    0 -0.52998873261E+02  0.25655700341E+02  0.90622031572E+02  0.10815230249E+03  0.41800000000E+01 0. -1.
         -5    1    1    2    0  502 -0.59620871126E+02  0.15184305797E+03  0.35212502165E+02  0.16693817788E+03  0.41800000000E+01 0. -1.
        -11    1    3    3    0    0  0.44994108442E+02 -0.13913895958E+03 -0.16222312856E+03  0.21840435734E+03  0.00000000000E+00 0. -1.
         11    1    3    3    0    0  0.67625635945E+02 -0.38359798731E+02 -0.43494578246E+02  0.89086918975E+02  0.00000000000E+00 0.  1.
</event>
<event>
 7    1  0.4096326E-006  0.3285587E+03  0.7561462E-02  0.1071776E+00
          1   -1    0    0  501    0  0.00000000000E+00  0.00000000000E+00  0.12844610749E+04  0.12844610749E+04  0.00000000000E+00 0. -1.
         -1   -1    0    0    0  501 -0.00000000000E+00 -0.00000000000E+00 -0.12378532037E+03  0.12378532037E+03  0.00000000000E+00 0.  1.
         23    2    1    2    0    0  0.31024079577E+03 -0.36548894362E+02  0.87020104546E+03  0.92928026703E+03  0.93417247496E+02 0.  0.
          5    1    1    2  502    0 -0.14655873996E+03  0.75439227057E+02  0.28111241456E+02  0.16726701867E+03  0.41800000000E+01 0. -1.
         -5    1    1    2    0  502 -0.16368205581E+03 -0.38890332696E+02  0.26236346760E+03  0.31169910957E+03  0.41800000000E+01 0.  1.
        -11    1    3    3    0    0  0.20665347847E+03  0.16958709168E+02  0.50466093365E+03  0.54559684377E+03  0.00000000000E+00 0.  1.
         11    1    3    3    0    0  0.10358731731E+03 -0.53507603530E+02  0.36554011182E+03  0.38368342327E+03  0.00000000000E+00 0. -1.
</event>
<event>
 7    1  0.4096326E-006  0.9666212E+02  0.7561462E-02  0.1287476E+00
          1   -1    0    0  501    0  0.00000000000E+00  0.00000000000E+00  0.11453314056E+03  0.11453314056E+03  0.00000000000E+00 0. -1.
         -1   -1    0    0    0  501 -0.00000000000E+00 -0.00000000000E+00 -0.12799399283E+03  0.12799399283E+03  0.00000000000E+00 0.  1.
         23    2    1    2    0    0  0.38465419401E+02 -0.43511053224E+02 -0.78078931619E+01  0.10449428220E+03  0.86517579571E+02 0.  0.
          5    1    1    2  502    0  0.14951534553E+02 -0.11928353201E+02 -0.46735542404E+02  0.50670675142E+02  0.41800000000E+01 0. -1.
         -5    1    1    2    0  502 -0.53416953954E+02  0.55439406424E+02  0.41082583291E+02  0.87362176050E+02  0.41800000000E+01 0. -1.
        -11    1    3    3    0    0 -0.11371247085E+02 -0.45371633497E+02 -0.23320449192E+02  0.52265990251E+02  0.00000000000E+00 0.  1.
         11    1    3    3    0    0  0.49836666486E+02  0.18605802731E+01  0.15512556030E+02  0.52228291950E+02  0.00000000000E+00 0. -1.
</event>
<event>
 7    1  0.4096326E-006  0.1022093E+03  0.7561462E-02  0.1275718E+00
          1   -1    0    0  501    0  0.00000000000E+00  0.00000000000E+00  0.12193564595E+03  0.12193564595E+03  0.00000000000E+00 0. -1.
         -1   -1    0    0    0  501 -0.00000000000E+00 -0.00000000000E+00 -0.11021042342E+03  0.11021042342E+03  0.00000000000E+00 0.  1.
         23    2    1    2    0    0  0.16676465993E+02  0.18449137106E+02  0.37021578274E+02  0.10212366953E+03  0.91870405691E+02 0.  0.
          5    1    1    2  502    0  0.25935987414E+02  0.34159853840E+02  0.20960534683E+02  0.47920637222E+02  0.41800000000E+01 0. -1.
         -5    1    1    2    0  502 -0.42612453407E+02 -0.52608990946E+02 -0.46256890422E+02  0.82101762620E+02  0.41800000000E+01 0. -1.
        -11    1    3    3    0    0  0.27386587421E+02  0.51730321034E+02  0.32274545641E+02  0.66840837676E+02  0.00000000000E+00 0. -1.
         11    1    3    3    0    0 -0.10710121428E+02 -0.33281183928E+02  0.47470326329E+01  0.35282831852E+02  0.00000000000E+00 0.  1.
</event>
<event>
 7    1  0.4096326E-006  0.1215125E+03  0.7561462E-02  0.1240623E+00
         -1   -1    0    0    0  501 -0.00000000000E+00  0.00000000000E+00  0.18379756894E+03  0.18379756894E+03  0.00000000000E+00 0.  1.
          1   -1    0    0  501    0  0.00000000000E+00 -0.00000000000E+00 -0.12750055812E+03  0.12750055812E+03  0.00000000000E+00 0. -1.
         23    2    1    2    0    0 -0.71503318545E+02 -0.65439474265E+02 -0.17293361227E+02  0.13677466208E+03  0.94937866465E+02 0.  0.
          5    1    1    2  502    0  0.85693245445E+02  0.20621120688E+02  0.88554246934E+02  0.12501155940E+03  0.41800000000E+01 0.  1.
         -5    1    1    2    0  502 -0.14189926900E+02  0.44818353577E+02 -0.14963874893E+02  0.49511905584E+02  0.41800000000E+01 0.  1.
        -11    1    3    3    0    0 -0.53821755030E+02 -0.17661941526E+02  0.32692659691E+02  0.65402870660E+02  0.00000000000E+00 0.  1.
         11    1    3    3    0    0 -0.17681563515E+02 -0.47777532739E+02 -0.49986020918E+02  0.71371791418E+02  0.00000000000E+00 0. -1.
</event>
<event>
 6    1  0.4096326E-006  0.3771218E+03  0.7561462E-02  0.1052003E+00
          1   -1    0    0  501    0  0.00000000000E+00  0.00000000000E+00  0.55159878609E+03  0.55159878609E+03  0.00000000000E+00 0. -1.
         -1   -1    0    0    0  501 -0.00000000000E+00 -0.00000000000E+00 -0.67100820676E+03  0.67100820676E+03  0.00000000000E+00 0.  1.
          5    1    1    2  502    0  0.11364588900E+03  0.77141109400E+02 -0.86104549303E+02  0.16216536207E+03  0.41800000000E+01 0. -1.
         -5    1    1    2    0  502  0.12005760099E+03  0.14344648648E+03 -0.31919591216E+03  0.36999219556E+03  0.41800000000E+01 0. -1.
        -11    1    1    2    0    0  0.67508526108E+02 -0.37333421792E+02 -0.12632473120E+03  0.14801730707E+03  0.00000000000E+00 0.  1.
         11    1    1    2    0    0 -0.30121201610E+03 -0.18325417409E+03  0.41221577199E+03  0.54243212814E+03  0.00000000000E+00 0. -1.
</event>
<event>
 7    1  0.4096326E-006  0.2125764E+03  0.7561462E-02  0.1139542E+00
          2   -1    0    0  501    0  0.00000000000E+00  0.00000000000E+00  0.96739474342E+03  0.96739474342E+03  0.00000000000E+00 0. -1.
         -2   -1    0    0    0  501 -0.00000000000E+00 -0.00000000000E+00 -0.57040740644E+02  0.57040740644E+02  0.00000000000E+00 0.  1.
         23    2    1    2    0    0  0.10716962055E+03 -0.16923837016E+03  0.56385528248E+03  0.60510639357E+03  0.89966740838E+02 0.  0.
          5    1    1    2  502    0 -0.24975896735E+02 -0.10169553178E+02  0.99370381008E+02  0.10304930981E+03  0.41800000000E+01 0. -1.
         -5    1    1    2    0  502 -0.82193723812E+02  0.17940792334E+03  0.24712833928E+03  0.31627978068E+03  0.41800000000E+01 0. -1.
        -11    1    3    3    0    0  0.26097338368E+02 -0.47928373786E+02  0.28714318247E+03  0.29228309448E+03  0.00000000000E+00 0. -1.
         11    1    3    3    0    0  0.81072282178E+02 -0.12130999638E+03  0.27671210001E+03  0.31282329909E+03  0.00000000000E+00 0.  1.
</event>
<event>
 7    1  0.4096326E-006  0.9291870E+02  0.7561462E-02  0.1295934E+00
         -2   -1    0    0    0  501 -0.00000000000E+00  0.00000000000E+00  0.55732605270E+02  0.55732605270E+02  0.00000000000E+00 0.  1.
          2   -1    0    0  501    0  0.00000000000E+00 -0.00000000000E+00 -0.28371844798E+03  0.28371844798E+03  0.00000000000E+00 0. -1.
         23    2    1    2    0    0  0.52923353005E+02  0.24962694295E+02 -0.75335015839E+02  0.13360266071E+03  0.93542979088E+02 0.  0.
          5    1    1    2  502    0 -0.42838747823E+02  0.34868170370E+02 -0.18241601642E+02  0.58319602626E+02  0.41800000000E+01 0.  1.
         -5    1    1    2    0  502 -0.10084605182E+02 -0.59830864665E+02 -0.13440922523E+03  0.14752878992E+03  0.41800000000E+01 0.  1.
        -11    1    3    3    0    0  0.29463907267E+02  0.33543216000E+02  0.90880435446E+01  0.45561625372E+02  0.00000000000E+00 0.  1.
         11    1    3    3    0    0  0.23459445738E+02 -0.85805217051E+01 -0.84423059384E+02  0.88041035335E+02  0.00000000000E+00 0. -1.
</event>
<event>
 7    1  0.4096326E-006  0.1076931E+03  0.7561462E-02  0.1264902E+00
         -2   -1    0    0    0  501 -0.00000000000E+00  0.00000000000E+00  0.24827045847E+02  0.24827045847E+02  0.00000000000E+00 0.  1.
          2   -1    0    0  501    0  0.00000000000E+00 -0.00000000000E+00 -0.59173143392E+03  0.59173143392E+03  0.00000000000E+00 0. -1.
         23    2    1    2    0    0  0.50955648599E+01 -0.24948871610E+02 -0.37006319538E+03  0.38194682364E+03  0.91039532839E+02 0.  0.
          5    1    1    2  502    0 -0.26586894193E+02 -0.42433462407E+02 -0.46725705215E+02  0.68616511151E+02  0.41800000000E+01 0. -1.
         -5    1    1    2    0  502  0.21491329333E+02  0.67382334017E+02 -0.15011548748E+03  0.16599514498E+03  0.41800000000E+01 0. -1.
        -11    1    3    3    0    0  0.32415732776E+02  0.22553051831E+02 -0.14155649397E+03  0.14696142644E+03  0.00000000000E+00 0. -1.
         11    1    3    3    0    0 -0.27320167916E+02 -0.47501923441E+02 -0.22850670141E+03  0.23498539720E+03  0.00000000000E+00 0.  1.
</event>
<event>
 7    1  0.4096326E-006  0.1357393E+03  0.7561462E-02  0.1219180E+00
         -1   -1    0    0    0  501 -0.00000000000E+00  0.00000000000E+00  0.14316035074E+03  0.14316035074E+03  0.00000000000E+00 0.  1.
          1   -1    0    0  501    0  0.00000000000E+00 -0.00000000000E+00 -0.19178702130E+03  0.19178702130E+03  0.00000000000E+00 0. -1.
         23    2    1    2    0    0  0.36733445070E+02  0.11439497075E+03 -0.62789553323E+02  0.16346375883E+03  0.91336285904E+02 0.  0.
          5    1    1    2  502    0 -0.51801415197E+02 -0.40221050067E+02  0.54716759869E+02  0.85513248655E+02  0.41800000000E+01 0. -1.
         -5    1    1    2    0  502  0.15067970127E+02 -0.74173920687E+02 -0.40553877114E+02  0.85970364561E+02  0.41800000000E+01 0.  1.
        -11    1    3    3    0    0  0.48861182450E+02  0.83168141500E+02 -0.80440634074E+02  0.12559876799E+03  0.00000000000E+00 0. -1.
         11    1    3    3    0    0 -0.12127737380E+02  0.31226829254E+02  0.17651080751E+02  0.37864990835E+02  0.00000000000E+00 0.  1.
</event>
<event>
 7    1  0.4096326E-006  0.1117452E+03  0.7561462E-02  0.1257372E+00
          4   -1    0    0  501    0  0.00000000000E+00  0.00000000000E+00  0.12502439346E+03  0.12502439346E+03  0.00000000000E+00 0. -1.
         -4   -1    0    0    0  501 -0.00000000000E+00 -0.00000000000E+00 -0.17860016112E+03  0.17860016112E+03  0.00000000000E+00 0.  1.
         23    2    1    2    0    0 -0.81878982952E+02 -0.61026028796E+02 -0.14712813622E+02  0.13753232671E+03  0.90941354536E+02 0.  0.
          5    1    1    2  502    0  0.84815819530E+02  0.67048070544E+02  0.17130243221E+02  0.10954489782E+03  0.41800000000E+01 0.  1.
         -5    1    1    2    0  502 -0.29368365783E+01 -0.60220417473E+01 -0.55993197263E+02  0.56547330049E+02  0.41800000000E+01 0.  1.
        -11    1    3    3    0    0 -0.13367164604E+02  0.29158547625E+01  0.30539483114E+02  0.33464060235E+02  0.00000000000E+00 0. -1.
         11    1    3    3    0    0 -0.68511818348E+02 -0.63941883559E+02 -0.45252296737E+02  0.10406826647E+03  0.00000000000E+00 0.  1.
</event>
<event>
 7    1  0.4096326E-006  0.1464308E+03  0.7561462E-02  0.1204929E+00
         -1   -1    0    0    0  501 -0.00000000000E+00  0.00000000000E+00  0.99061300707E+02  0.99061300707E+02  0.00000000000E+00 0.  1.
          1   -1    0    0  501    0  0.00000000000E+00 -0.00000000000E+00 -0.28188937926E+03  0.28188937926E+03  0.00000000000E+00 0. -1.
         23    2    1    2    0    0 -0.76765135695E+02 -0.88439969633E+02 -0.14002546664E+03  0.20432769260E+03  0.91805012757E+02 0.  0.
          5    1    1    2  502    0  0.60334839337E+02 -0.17206850009E+02 -0.47472587072E+01  0.63058523534E+02  0.41800000000E+01 0. -1.
         -5    1    1    2    0  502  0.16430296359E+02  0.10564681964E+03 -0.38055353209E+02  0.11356446384E+03  0.41800000000E+01 0. -1.
        -11    1    3    3    0    0 -0.38046746466E+02 -0.70929924697E+02 -0.14039624436E+03  0.16183236563E+03  0.00000000000E+00 0. -1.
         11    1    3    3    0    0 -0.38718389229E+02 -0.17510044937E+02  0.37077772012E+00  0.42495326970E+02  0.00000000000E+00 0.  1.
</event>
<event>
 7    1  0.4096326E-006  0.1138828E+03  0.7561462E-02  0.1253544E+00
          1   -1    0    0  501    0  0.00000000000E+00  0.00000000000E+00  0.38770765917E+03  0.38770765917E+03  0.00000000000E+00 0. -1.
         -1   -1    0    0    0  501 -0.00000000000E+00 -0.00000000000E+00 -0.42731369594E+02  0.42731369594E+02  0.00000000000E+00 0.  1.
         23    2    1    2    0    0 -0.41264386247E+02  0.37295337684E+02  0.22074435169E+03  0.24557505957E+03  0.92115955720E+02 0.  0.
          5    1    1    2  502    0 -0.25653293457E+02 -0.57751722563E+02  0.38475302661E+02  0.74102457712E+02  0.41800000000E+01 0. -1.
         -5    1    1    2    0  502  0.66917679704E+02  0.20456384879E+02  0.85756635234E+02  0.11076151148E+03  0.41800000000E+01 0. -1.
        -11    1    3    3    0    0 -0.37187543060E+02  0.60369231093E+02  0.20607218940E+03  0.21792912762E+03  0.00000000000E+00 0. -1.
         11    1    3    3    0    0 -0.40768431873E+01 -0.23073893409E+02  0.14672162287E+02  0.27645931954E+02  0.00000000000E+00 0.  1.
</event>
<event>
 7    1  0.4096326E-006  0.1019915E+03  0.7561462E-02  0.1276163E+00
          1   -1    0    0  501    0  0.00000000000E+00  0.00000000000E+00  0.36539110776E+03  0.36539110776E+03  0.00000000000E+00 0. -1.
         -1   -1    0    0    0  501 -0.00000000000E+00 -0.00000000000E+00 -0.40378275837E+02  0.40378275837E+02  0.00000000000E+00 0.  1.
         23    2    1    2    0    0 -0.29881338704E+02 -0.16237989672E+02  0.21549958938E+03  0.23606929976E+03  0.90178015899E+02 0.  0.
          5    1    1    2  502    0 -0.47541871907E+02 -0.19258546643E+01  0.56732168742E+02  0.74161646899E+02  0.41800000000E+01 0.  1.
         -5    1    1    2    0  502  0.77423210611E+02  0.18163844336E+02  0.52781073800E+02  0.95538436945E+02  0.41800000000E+01 0.  1.
        -11    1    3    3    0    0 -0.51385497667E+02 -0.33082891703E+01  0.20012152616E+03  0.20663987849E+03  0.00000000000E+00 0. -1.
         11    1    3    3    0    0  0.21504158962E+02 -0.12929700501E+02  0.15378063220E+02  0.29429421267E+02  0.00000000000E+00 0.  1.
</event>
<event>
 7    1  0.4096326E-006  0.9743866E+02  0.7561462E-02  0.1285776E+00
          1   -1    0    0  501    0  0.00000000000E+00  0.00000000000E+00  0.60826357283E+02  0.60826357283E+02  0.00000000000E+00 0. -1.
         -1   -1    0    0    0  501 -0.00000000000E+00 -0.00000000000E+00 -0.37914928493E+03  0.37914928493E+03  0.00000000000E+00 0.  1.
         23    2    1    2    0    0  0.16161591229E+02  0.52104069217E+02 -0.15469285510E+02  0.10779889306E+03  0.91680267729E+02 0.  0.
          5    1    1    2  502    0 -0.47555996607E+02 -0.72826804575E+02 -0.26376243781E+03  0.27776503070E+03  0.41800000000E+01 0. -1.
         -5    1    1    2    0  502  0.31394405378E+02  0.20722735358E+02 -0.39091204327E+02  0.54411718458E+02  0.41800000000E+01 0. -1.
        -11    1    3    3    0    0  0.28349250473E+02  0.50147271237E+02 -0.46738381916E+02  0.74181568863E+02  0.00000000000E+00 0.  1.
         11    1    3    3    0    0 -0.12187659244E+02  0.19567979799E+01  0.31269096405E+02  0.33617324197E+02  0.00000000000E+00 0. -1.
</event>
<event>
 7    1  0.4096326E-006  0.8756858E+02  0.7561462E-02  0.1308849E+00
         -1   -1    0    0    0  501 -0.00000000000E+00  0.00000000000E+00  0.17881410096E+03  0.17881410096E+03  0.00000000000E+00 0.  1.
          1   -1    0    0  501    0  0.00000000000E+00 -0.00000000000E+00 -0.81810434440E+02  0.81810434440E+02  0.00000000000E+00 0. -1.
         23    2    1    2    0    0  0.53261810217E+02 -0.12837122472E+02  0.28101132626E+02  0.10767573485E+03  0.88333335037E+02 0.  0.
          5    1    1    2  502    0 -0.13059623872E+02 -0.20682201234E+02  0.92216143708E+02  0.95496579959E+02  0.41800000000E+01 0. -1.
         -5    1    1    2    0  502 -0.40202186345E+02  0.33519323706E+02 -0.23313609815E+02  0.57452220594E+02  0.41800000000E+01 0. -1.
        -11    1    3    3    0    0  0.69561554242E+02  0.94508722985E+01  0.36085602548E+02  0.78932246433E+02  0.00000000000E+00 0.  1.
         11    1    3    3    0    0 -0.16299744025E+02 -0.22287994770E+02 -0.79844699223E+01  0.28743488412E+02  0.00000000000E+00 0. -1.
</event>
<event>
 7    1  0.4096326E-006  0.7515773E+02  0.7561462E-02  0.1343383E+00
          2   -1    0    0  501    0  0.00000000000E+00  0.00000000000E+00  0.12074440136E+03  0.12074440136E+03  0.00000000000E+00 0. -1.
         -2   -1    0    0    0  501 -0.00000000000E+00 -0.00000000000E+00 -0.10610897642E+03  0.10610897642E+03  0.00000000000E+00 0.  1.
         23    2    1    2    0    0  0.25415352394E+02  0.66644092821E+00  0.29585295786E+02  0.98334957639E+02  0.90266770665E+02 0.  0.
          5    1    1    2  502    0 -0.11253307067E+02 -0.26124038026E+02  0.49738585222E+02  0.57449991668E+02  0.41800000000E+01 0.  1.
         -5    1    1    2    0  502 -0.14162045327E+02  0.25457597098E+02 -0.64688456069E+02  0.71068428478E+02  0.41800000000E+01 0.  1.
        -11    1    3    3    0    0  0.58403997762E+02 -0.51772503291E+01  0.98575896831E+01  0.59455890792E+02  0.00000000000E+00 0. -1.
         11    1    3    3    0    0 -0.32988645368E+02  0.58436912573E+01  0.19727706103E+02  0.38879066846E+02  0.00000000000E+00 0.  1.
</event>
<event>
 7    1  0.4096326E-006  0.7306148E+02  0.7561462E-02  0.1349981E+00
          2   -1    0    0  501    0  0.00000000000E+00  0.00000000000E+00  0.31318378876E+02  0.31318378876E+02  0.00000000000E+00 0. -1.
         -2   -1    0    0    0  501 -0.00000000000E+00 -0.00000000000E+00 -0.41576271075E+03  0.41576271075E+03  0.00000000000E+00 0.  1.
         23    2    1    2    0    0  0.21230827164E+02  0.20842408880E+02 -0.12455975230E+03  0.15712789541E+03  0.91043339088E+02 0.  0.
          5    1    1    2  502    0 -0.10110106436E+02  0.29599613680E+02 -0.22564580612E+03  0.22784172928E+03  0.41800000000E+01 0.  1.
         -5    1    1    2    0  502 -0.11120720729E+02 -0.50442022560E+02 -0.34238773460E+02  0.62111464944E+02  0.41800000000E+01 0.  1.
        -11    1    3    3    0    0  0.17379303756E+02  0.39784272829E+02 -0.12999153769E+03  0.13704972978E+03  0.00000000000E+00 0.  1.
         11    1    3    3    0    0  0.38515234086E+01 -0.18941863949E+02  0.54317853847E+01  0.20078165626E+02  0.00000000000E+00 0. -1.
</event>
<event>
 7    1  0.4514080E-006  0.1736013E+03  0.7561462E-02  0.1174143E+00
         -1   -1    0    0    0  501 -0.00000000000E+00  0.00000000000E+00  0.84626095064E+02  0.84626095064E+02  0.00000000000E+00 0.  1.
          1   -1    0    0  501    0  0.00000000000E+00 -0.00000000000E+00 -0.47990939663E+03  0.47990939663E+03  0.00000000000E+00 0. -1.
         23    2    1    2    0    0  0.13286394595E+03 -0.85835641799E+02 -0.27532778078E+03  0.32989280094E+03  0.89461096035E+02 0.  0.
          5    1    1    2  502    0 -0.12179907537E+03  0.92044067532E+02 -0.46015371926E+02  0.15950552336E+03  0.41800000000E+01 0.  1.
         -5    1    1    2    0  502 -0.11064870577E+02 -0.62084257331E+01 -0.73940148856E+02  0.75137167393E+02  0.41800000000E+01 0.  1.
        -11    1    3    3    0    0  0.25146775711E+02 -0.67267757232E+02 -0.12251074529E+03  0.14200772585E+03  0.00000000000E+00 0. -1.
         11    1    3    3    0    0  0.10771717024E+03 -0.18567884568E+02 -0.15281703550E+03  0.18788507509E+03  0.00000000000E+00 0.  1.
</event>
<event>
 7    1  0.4096326E-006  0.9131807E+02  0.7561462E-02  0.1299691E+00
         -2   -1    0    0    0  501 -0.00000000000E+00  0.00000000000E+00  0.30600752216E+02  0.30600752216E+02  0.00000000000E+00 0.  1.
          2   -1    0    0  501    0  0.00000000000E+00 -0.00000000000E+00 -0.41332819045E+03  0.41332819045E+03  0.00000000000E+00 0. -1.
         23    2    1    2    0    0 -0.17215271898E+01 -0.26924678049E+02 -0.13292434962E+03  0.16325546960E+03  0.90860132569E+02 0.  0.
          5    1    1    2  502    0 -0.34282746304E+02 -0.10466081758E+02 -0.13229471301E+02  0.38436140187E+02  0.41800000000E+01 0. -1.
         -5    1    1    2    0  502  0.36004273494E+02  0.37390759807E+02 -0.23657361731E+03  0.24223733287E+03  0.41800000000E+01 0. -1.
        -11    1    3    3    0    0 -0.23588277990E+01 -0.60672954827E+02 -0.79004482138E+02  0.99641756879E+02  0.00000000000E+00 0.  1.
         11    1    3    3    0    0  0.63730060923E+00  0.33748276779E+02 -0.53919867481E+02  0.63613712726E+02  0.00000000000E+00 0. -1.
</event>
<event>
 7    1  0.4096326E-006  0.9784695E+02  0.7561462E-02  0.1284890E+00
         -2   -1    0    0    0  501 -0.00000000000E+00  0.00000000000E+00  0.49948792628E+02  0.49948792628E+02  0.00000000000E+00 0.  1.
          2   -1    0    0  501    0  0.00000000000E+00 -0.00000000000E+00 -0.35232728443E+03  0.35232728443E+03  0.00000000000E+00 0. -1.
         23    2    1    2    0    0 -0.22052042065E+01  0.14788292381E+02 -0.19007836827E+03  0.20173856239E+03  0.65917410104E+02 0.  0.
          5    1    1    2  502    0 -0.47247242029E+02 -0.52503142030E+02 -0.11837461086E+03  0.13790903777E+03  0.41800000000E+01 0. -1.
         -5    1    1    2    0  502  0.49452446235E+02  0.37714849649E+02  0.60744873218E+01  0.62628476901E+02  0.41800000000E+01 0.  1.
        -11    1    3    3    0    0  0.26784845851E+02 -0.53406472723E+01 -0.12240475916E+03  0.12541481390E+03  0.00000000000E+00 0. -1.
         11    1    3    3    0    0 -0.28990050058E+02  0.20128939654E+02 -0.67673609107E+02  0.76323748490E+02  0.00000000000E+00 0.  1.
</event>
<event>
 7    1  0.4096326E-006  0.1184204E+03  0.7561462E-02  0.1245726E+00
          2   -1    0    0  501    0  0.00000000000E+00  0.00000000000E+00  0.76619075461E+03  0.76619075461E+03  0.00000000000E+00 0. -1.
         -2   -1    0    0    0  501 -0.00000000000E+00 -0.00000000000E+00 -0.25510821500E+02  0.25510821500E+02  0.00000000000E+00 0.  1.
         23    2    1    2    0    0  0.80053887508E+02 -0.78839048340E+01  0.43784471161E+03  0.45431554001E+03  0.90685376735E+02 0.  0.
          5    1    1    2  502    0 -0.12736775663E+02  0.51650054775E+02  0.19917510422E+03  0.20619929232E+03  0.41800000000E+01 0.  1.
         -5    1    1    2    0  502 -0.67317111845E+02 -0.43766149941E+02  0.10366011729E+03  0.13118674378E+03  0.41800000000E+01 0.  1.
        -11    1    3    3    0    0  0.91125611207E+02 -0.35726063474E+01  0.43112648222E+03  0.44066618228E+03  0.00000000000E+00 0. -1.
         11    1    3    3    0    0 -0.11071723700E+02 -0.43112984866E+01  0.67182293821E+01  0.13649357727E+02  0.00000000000E+00 0.  1.
</event>
<event>
 7    1  0.4096326E-006  0.1076009E+03  0.7561462E-02  0.1265078E+00
         -2   -1    0    0    0  501 -0.00000000000E+00  0.00000000000E+00  0.16677869802E+03  0.16677869802E+03  0.00000000000E+00 0.  1.
          2   -1    0    0  501    0  0.00000000000E+00 -0.00000000000E+00 -0.12279996334E+03  0.12279996334E+03  0.00000000000E+00 0. -1.
         23    2    1    2    0    0 -0.29831442394E+02  0.77069852974E+02 -0.27835677050E+02  0.12334277819E+03  0.87229231472E+02 0.  0.
          5    1    1    2  502    0  0.54520390459E+02 -0.78170667595E+02  0.93141036113E+02  0.13332610868E+03  0.41800000000E+01 0.  1.
         -5    1    1    2    0  502 -0.24688948064E+02  0.11008146208E+01 -0.21326624382E+02  0.32909774489E+02  0.41800000000E+01 0.  1.
        -11    1    3    3    0    0  0.12615975481E+02  0.19126316313E+02  0.25198171824E+02  0.34057696286E+02  0.00000000000E+00 0.  1.
         11    1    3    3    0    0 -0.42447417875E+02  0.57943536661E+02 -0.53033848874E+02  0.89285081909E+02  0.00000000000E+00 0. -1.
</event>
<event>
 7    1  0.4096326E-006  0.2642574E+03  0.7561462E-02  0.1104612E+00
         -2   -1    0    0    0  501 -0.00000000000E+00  0.00000000000E+00  0.84952501179E+02  0.84952501179E+02  0.00000000000E+00 0.  1.
          2   -1    0    0  501    0  0.00000000000E+00 -0.00000000000E+00 -0.91177349019E+03  0.91177349019E+03  0.00000000000E+00 0. -1.
         23    2    1    2    0    0  0.19271577849E+03  0.16540491914E+03 -0.45735715121E+03  0.53127033646E+03  0.92598315746E+02 0.  0.
          5    1    1    2  502    0 -0.23650377412E+02  0.13293177651E+02 -0.85155303836E+02  0.89470369929E+02  0.41800000000E+01 0. -1.
         -5    1    1    2    0  502 -0.16906540108E+03 -0.17869809679E+03 -0.28430853397E+03  0.37598528499E+03  0.41800000000E+01 0. -1.
        -11    1    3    3    0    0  0.62029051842E+02  0.67959455931E+02 -0.25698948796E+03  0.27296462747E+03  0.00000000000E+00 0.  1.
         11    1    3    3    0    0  0.13068672665E+03  0.97445463211E+02 -0.20036766325E+03  0.25830570899E+03  0.00000000000E+00 0. -1.
</event>
<event>
 7    1  0.4096326E-006  0.8314038E+02  0.7561462E-02  0.1320369E+00
          1   -1    0    0  501    0  0.00000000000E+00  0.00000000000E+00  0.11545433317E+03  0.11545433317E+03  0.00000000000E+00 0. -1.
         -1   -1    0    0    0  501 -0.00000000000E+00 -0.00000000000E+00 -0.10841603395E+03  0.10841603395E+03  0.00000000000E+00 0.  1.
         23    2    1    2    0    0  0.26576054675E+02  0.38205406541E+01  0.13394443250E+02  0.95777527270E+02  0.90956255458E+02 0.  0.
          5    1    1    2  502    0 -0.53546126795E+02 -0.38539060040E+02 -0.35643492448E+02  0.75102448678E+02  0.41800000000E+01 0.  1.
         -5    1    1    2    0  502  0.26970072119E+02  0.34718519386E+02  0.29287348421E+02  0.52990391167E+02  0.41800000000E+01 0.  1.
        -11    1    3    3    0    0  0.24886396655E+02 -0.20127107286E+02 -0.31474580607E+02  0.44889669308E+02  0.00000000000E+00 0.  1.
         11    1    3    3    0    0  0.16896580209E+01  0.23947647940E+02  0.44869023858E+02  0.50887857963E+02  0.00000000000E+00 0. -1.
</event>
<event>
 7    1  0.4096326E-006  0.1362545E+03  0.7561462E-02  0.1218460E+00
          2   -1    0    0  501    0  0.00000000000E+00  0.00000000000E+00  0.62338089723E+02  0.62338089723E+02  0.00000000000E+00 0.  1.
         -2   -1    0    0    0  501 -0.00000000000E+00 -0.00000000000E+00 -0.31962635236E+03  0.31962635236E+03  0.00000000000E+00 0. -1.
         23    2    1    2    0    0  0.71483653210E+02  0.50202339076E+02 -0.14389699166E+03  0.19187142970E+03  0.92076673485E+02 0.  0.
          5    1    1    2  502    0 -0.97082455777E+02 -0.33793907967E+01 -0.86737061129E+02  0.13029663724E+03  0.41800000000E+01 0. -1.
         -5    1    1    2    0  502  0.25598802567E+02 -0.46822948280E+02 -0.26654209849E+02  0.59796375150E+02  0.41800000000E+01 0. -1.
        -11    1    3    3    0    0  0.91136874180E+02  0.39019097489E+02 -0.91946487979E+02  0.13521307798E+03  0.00000000000E+00 0.  1.
         11    1    3    3    0    0 -0.19653220970E+02  0.11183241587E+02 -0.51950503681E+02  0.56658351719E+02  0.00000000000E+00 0. -1.
</event>
<event>
 7    1  0.4096326E-006  0.1186902E+03  0.7561462E-02  0.1245274E+00
         -2   -1    0    0    0  501 -0.00000000000E+00  0.00000000000E+00  0.12485701835E+04  0.12485701835E+04  0.00000000000E+00 0.  1.
          2   -1    0    0  501    0  0.00000000000E+00 -0.00000000000E+00 -0.22762378620E+02  0.22762378620E+02  0.00000000000E+00 0. -1.
         23    2    1    2    0    0 -0.26372236371E+01  0.73665387100E+02  0.18240505938E+03  0.21643036973E+03  0.90205072189E+02 0.  0.
          5    1    1    2  502    0  0.25504546456E+01  0.30963026774E+02  0.53019777603E+03  0.53112368423E+03  0.41800000000E+01 0. -1.
         -5    1    1    2    0  502  0.86768991554E-01 -0.10462841387E+03  0.51320496949E+03  0.52377850817E+03  0.41800000000E+01 0.  1.
        -11    1    3    3    0    0 -0.19920229708E+02 -0.51967849058E+01  0.95978729908E+02  0.98161798679E+02  0.00000000000E+00 0.  1.
         11    1    3    3    0    0  0.17283006071E+02  0.78862172006E+02  0.86426329470E+02  0.11826857105E+03  0.00000000000E+00 0. -1.
</event>
<event>
 7    1  0.4096326E-006  0.5967738E+02  0.7561462E-02  0.1399191E+00
          1   -1    0    0  501    0  0.00000000000E+00  0.00000000000E+00  0.19283291189E+03  0.19283291189E+03  0.00000000000E+00 0. -1.
         -1   -1    0    0    0  501 -0.00000000000E+00 -0.00000000000E+00 -0.90130362740E+02  0.90130362740E+02  0.00000000000E+00 0.  1.
         23    2    1    2    0    0  0.25758252362E+02  0.47004198016E+02  0.99263256509E+02  0.14683487312E+03  0.93991508535E+02 0.  0.
          5    1    1    2  502    0 -0.59983025448E+00 -0.36023247143E+02 -0.58169935959E+02  0.68551061119E+02  0.41800000000E+01 0. -1.
         -5    1    1    2    0  502 -0.25158422107E+02 -0.10980950873E+02  0.61609228600E+02  0.67577340387E+02  0.41800000000E+01 0. -1.
        -11    1    3    3    0    0  0.37744859440E+01  0.20679283863E+02 -0.16102084196E+02  0.26479362543E+02  0.00000000000E+00 0.  1.
         11    1    3    3    0    0  0.21983766418E+02  0.26324914153E+02  0.11536534070E+03  0.12035551058E+03  0.00000000000E+00 0. -1.
</event>
<event>
 7    1  0.4096326E-006  0.9465994E+02  0.7561462E-02  0.1291944E+00
         -4   -1    0    0    0  501 -0.00000000000E+00  0.00000000000E+00  0.14768902700E+04  0.14768902700E+04  0.00000000000E+00 0.  1.
          4   -1    0    0  501    0  0.00000000000E+00 -0.00000000000E+00 -0.14990787773E+02  0.14990787773E+02  0.00000000000E+00 0. -1.
         23    2    1    2    0    0 -0.13954676332E+02 -0.46613769750E+02  0.23585274107E+03  0.25850935856E+03  0.93984022433E+02 0.  0.
          5    1    1    2  502    0 -0.30027295996E+02  0.18651913331E+02  0.10256161783E+04  0.10262336722E+04  0.41800000000E+01 0.  1.
         -5    1    1    2    0  502  0.43981972328E+02  0.27961856419E+02  0.20043056282E+03  0.20713802697E+03  0.41800000000E+01 0.  1.
        -11    1    3    3    0    0 -0.20034386549E+02 -0.72309912469E+02  0.20259570606E+03  0.21604425519E+03  0.00000000000E+00 0.  1.
         11    1    3    3    0    0  0.60797102168E+01  0.25696142719E+02  0.33257035006E+02  0.42465103372E+02  0.00000000000E+00 0. -1.
</event>
<event>
 7    1  0.4096326E-006  0.8657254E+02  0.7561462E-02  0.1311371E+00
         -2   -1    0    0    0  501 -0.00000000000E+00  0.00000000000E+00  0.25365307375E+02  0.25365307375E+02  0.00000000000E+00 0.  1.
          2   -1    0    0  501    0  0.00000000000E+00 -0.00000000000E+00 -0.52505824134E+03  0.52505824134E+03  0.00000000000E+00 0. -1.
         23    2    1    2    0    0  0.41783141399E+02  0.74896510878E+01 -0.21843547163E+03  0.23968792315E+03  0.89074796992E+02 0.  0.
          5    1    1    2  502    0 -0.13711545619E+02 -0.34843129414E+02 -0.13392464791E+02  0.39986005849E+02  0.41800000000E+01 0. -1.
         -5    1    1    2    0  502 -0.28071595780E+02  0.27353478326E+02 -0.26786499755E+03  0.27074961972E+03  0.41800000000E+01 0. -1.
        -11    1    3    3    0    0  0.31600934099E+02  0.46228277609E+02 -0.99317845491E+02  0.11401625814E+03  0.00000000000E+00 0.  1.
         11    1    3    3    0    0  0.10182207301E+02 -0.38738626521E+02 -0.11911762613E+03  0.12567166501E+03  0.00000000000E+00 0. -1.
</event>
<event>
 7    1  0.4096326E-006  0.1221492E+03  0.7561462E-02  0.1239593E+00
         -3   -1    0    0    0  501 -0.00000000000E+00  0.00000000000E+00  0.49267306908E+02  0.49267306908E+02  0.00000000000E+00 0.  1.
          3   -1    0    0  501    0  0.00000000000E+00 -0.00000000000E+00 -0.32006666677E+03  0.32006666677E+03  0.00000000000E+00 0. -1.
         23    2    1    2    0    0  0.72175903874E+01 -0.60385479814E+02 -0.12528004671E+03  0.16803084341E+03  0.94025392584E+02 0.  0.
          5    1    1    2  502    0 -0.12670399589E+01  0.95947137721E+02 -0.13046783573E+03  0.16200860220E+03  0.41800000000E+01 0. -1.
         -5    1    1    2    0  502 -0.59505504286E+01 -0.35561657907E+02 -0.15051477428E+02  0.39294528070E+02  0.41800000000E+01 0. -1.
        -11    1    3    3    0    0 -0.39856892337E+02 -0.49654848867E+02 -0.72987066913E+02  0.96857048372E+02  0.00000000000E+00 0.  1.
         11    1    3    3    0    0  0.47074482724E+02 -0.10730630947E+02 -0.52292979794E+02  0.71173795038E+02  0.00000000000E+00 0. -1.
</event>
<event>
 7    1  0.4096326E-006  0.1162891E+03  0.7561462E-02  0.1249348E+00
          2   -1    0    0  501    0  0.00000000000E+00  0.00000000000E+00  0.79811429846E+03  0.79811429846E+03  0.00000000000E+00 0. -1.
         -2   -1    0    0    0  501 -0.00000000000E+00 -0.00000000000E+00 -0.26576805798E+02  0.26576805798E+02  0.00000000000E+00 0.  1.
         23    2    1    2    0    0  0.93706775761E+02 -0.16444753859E+02  0.37437187056E+03  0.39756189042E+03  0.94073213464E+02 0.  0.
          5    1    1    2  502    0 -0.65453036892E+01  0.19651502922E+02  0.28105532140E+03  0.28184852076E+03  0.41800000000E+01 0.  1.
         -5    1    1    2    0  502 -0.87161472071E+02 -0.32067490623E+01  0.11611030070E+03  0.14528069308E+03  0.41800000000E+01 0.  1.
        -11    1    3    3    0    0  0.34824493693E+02 -0.46438764878E+02  0.10269946433E+03  0.11796814917E+03  0.00000000000E+00 0.  1.
         11    1    3    3    0    0  0.58882282067E+02  0.29994011019E+02  0.27167240623E+03  0.27959374125E+03  0.00000000000E+00 0. -1.
</event>
<event>
 7    1  0.4096326E-006  0.9168156E+02  0.7561462E-02  0.1298830E+00
         -1   -1    0    0    0  501 -0.00000000000E+00  0.00000000000E+00  0.52548480911E+02  0.52548480911E+02  0.00000000000E+00 0.  1.
          1   -1    0    0  501    0  0.00000000000E+00 -0.00000000000E+00 -0.34284490669E+03  0.34284490669E+03  0.00000000000E+00 0. -1.
         23    2    1    2    0    0  0.32684662542E+02 -0.25304822569E+02 -0.22909636103E+03  0.25013189268E+03  0.91499726167E+02 0.  0.
          5    1    1    2  502    0 -0.50623230571E+02  0.40819105563E+02  0.13696759863E+02  0.66588170744E+02  0.41800000000E+01 0. -1.
         -5    1    1    2    0  502  0.17938568029E+02 -0.15514282994E+02 -0.74896824613E+02  0.78673324175E+02  0.41800000000E+01 0. -1.
        -11    1    3    3    0    0  0.43561999190E+02 -0.50488696908E+02 -0.11643222706E+03  0.13417607755E+03  0.00000000000E+00 0.  1.
         11    1    3    3    0    0 -0.10877336648E+02  0.25183874340E+02 -0.11266413397E+03  0.11595581513E+03  0.00000000000E+00 0. -1.
</event>
<event>
 7    1  0.4096326E-006  0.1431179E+03  0.7561462E-02  0.1209194E+00
         -2   -1    0    0    0  501 -0.00000000000E+00  0.00000000000E+00  0.51684653312E+02  0.51684653312E+02  0.00000000000E+00 0.  1.
          2   -1    0    0  501    0  0.00000000000E+00 -0.00000000000E+00 -0.56965667310E+03  0.56965667310E+03  0.00000000000E+00 0. -1.
         23    2    1    2    0    0  0.10770531201E+03 -0.36144680480E+02 -0.36780765291E+03  0.39526117106E+03  0.89677486827E+02 0.  0.
          5    1    1    2  502    0  0.28308185156E+02  0.10795697830E+02 -0.27706541081E+02  0.41267726581E+02  0.41800000000E+01 0.  1.
         -5    1    1    2    0  502 -0.13601349716E+03  0.25348982650E+02 -0.12245782580E+03  0.18481242878E+03  0.41800000000E+01 0.  1.
        -11    1    3    3    0    0  0.35326354728E+02  0.20670696611E+01 -0.26319039618E+02  0.44101201364E+02  0.00000000000E+00 0.  1.
         11    1    3    3    0    0  0.72378957279E+02 -0.38211750142E+02 -0.34148861329E+03  0.35115996969E+03  0.00000000000E+00 0. -1.
</event>
<event>
 7    1  0.4096326E-006  0.1738370E+03  0.7561462E-02  0.1173904E+00
          4   -1    0    0  501    0  0.00000000000E+00  0.00000000000E+00  0.78516101467E+02  0.78516101467E+02  0.00000000000E+00 0. -1.
         -4   -1    0    0    0  501 -0.00000000000E+00 -0.00000000000E+00 -0.57300177901E+03  0.57300177901E+03  0.00000000000E+00 0.  1.
         23    2    1    2    0    0 -0.76197742908E+02  0.13075202545E+03 -0.84342035582E+02  0.19680093771E+03  0.93353317754E+02 0.  0.
          5    1    1    2  502    0 -0.32893602527E+02 -0.52126032142E+02 -0.12575999589E+03  0.14011481464E+03  0.41800000000E+01 0. -1.
         -5    1    1    2    0  502  0.10909134543E+03 -0.78625993304E+02 -0.28438364607E+03  0.31460212813E+03  0.41800000000E+01 0. -1.
        -11    1    3    3    0    0 -0.64976997204E+02  0.10958455996E+03 -0.21051362173E+02  0.12912763374E+03  0.00000000000E+00 0. -1.
         11    1    3    3    0    0 -0.11220745704E+02  0.21167465487E+02 -0.63290673409E+02  0.67673303967E+02  0.00000000000E+00 0.  1.
</event>
<event>
 7    1  0.4096326E-006  0.1129368E+03  0.7561462E-02  0.1255226E+00
          1   -1    0    0  501    0  0.00000000000E+00  0.00000000000E+00  0.14402171418E+02  0.14402171418E+02  0.00000000000E+00 0. -1.
         -1   -1    0    0    0  501 -0.00000000000E+00 -0.00000000000E+00 -0.14319462858E+04  0.14319462858E+04  0.00000000000E+00 0.  1.
         23    2    1    2    0    0 -0.11299546311E+01 -0.35158488609E+02 -0.20228419328E+03  0.22416115286E+03  0.89955163735E+02 0.  0.
          5    1    1    2  502    0  0.46970320302E+02 -0.25246549142E+02 -0.44980158550E+03  0.45297079150E+03  0.41800000000E+01 0.  1.
         -5    1    1    2    0  502 -0.45840365670E+02  0.60405037751E+02 -0.76545833564E+03  0.76921651289E+03  0.41800000000E+01 0.  1.
        -11    1    3    3    0    0  0.44217054107E+02 -0.13845211108E+02 -0.10340643494E+03  0.11331252592E+03  0.00000000000E+00 0.  1.
         11    1    3    3    0    0 -0.45347008738E+02 -0.21313277501E+02 -0.98877758345E+02  0.11084862694E+03  0.00000000000E+00 0. -1.
</event>
<event>
 7    1  0.4096326E-006  0.1065529E+03  0.7561462E-02  0.1267090E+00
          1   -1    0    0  501    0  0.00000000000E+00  0.00000000000E+00  0.73140082485E+03  0.73140082485E+03  0.00000000000E+00 0. -1.
         -1   -1    0    0    0  501 -0.00000000000E+00 -0.00000000000E+00 -0.35153092637E+02  0.35153092637E+02  0.00000000000E+00 0.  1.
         23    2    1    2    0    0  0.38323956769E+02  0.50043694686E+02  0.56062421073E+03  0.57158130801E+03  0.91829129217E+02 0.  0.
          5    1    1    2  502    0  0.14529573438E+02 -0.46170831659E+02  0.13317095943E+03  0.14175623808E+03  0.41800000000E+01 0. -1.
         -5    1    1    2    0  502 -0.52853530207E+02 -0.38728630270E+01  0.24525620537E+01  0.53216371391E+02  0.41800000000E+01 0. -1.
        -11    1    3    3    0    0  0.14428251743E+02 -0.27046293445E+02  0.14975598700E+03  0.15286115295E+03  0.00000000000E+00 0. -1.
         11    1    3    3    0    0  0.23895705026E+02  0.77089988131E+02  0.41086822373E+03  0.41872015507E+03  0.00000000000E+00 0.  1.
</event>
<event>
 7    1  0.4096326E-006  0.6821370E+02  0.7561462E-02  0.1366275E+00
          2   -1    0    0  501    0  0.00000000000E+00  0.00000000000E+00  0.16506571948E+03  0.16506571948E+03  0.00000000000E+00 0. -1.
         -2   -1    0    0    0  501 -0.00000000000E+00 -0.00000000000E+00 -0.76178451413E+02  0.76178451413E+02  0.00000000000E+00 0.  1.
         23    2    1    2    0    0 -0.17422467954E+02  0.28237493629E+02  0.56027365657E+02  0.11227722400E+03  0.91466993450E+02 0.  0.
          5    1    1    2  502    0  0.17272983918E+02 -0.66189449195E+01  0.77181371419E+02  0.79477058950E+02  0.41800000000E+01 0. -1.
         -5    1    1    2    0  502  0.14948403598E+00 -0.21618548709E+02 -0.44321469007E+02  0.49489887944E+02  0.41800000000E+01 0.  1.
        -11    1    3    3    0    0 -0.52060380491E+02  0.21926544990E+01  0.41356454762E+02  0.66524035514E+02  0.00000000000E+00 0.  1.
         11    1    3    3    0    0  0.34637912536E+02  0.26044839130E+02  0.14670910895E+02  0.45753188486E+02  0.00000000000E+00 0. -1.
</event>
<event>
 7    1  0.4096326E-006  0.8809737E+02  0.7561462E-02  0.1307526E+00
         -1   -1    0    0    0  501 -0.00000000000E+00  0.00000000000E+00  0.26212111175E+03  0.26212111175E+03  0.00000000000E+00 0.  1.
          1   -1    0    0  501    0  0.00000000000E+00 -0.00000000000E+00 -0.49182188798E+02  0.49182188798E+02  0.00000000000E+00 0. -1.
         23    2    1    2    0    0 -0.34227321793E+02  0.25354692489E+01  0.85969339787E+02  0.12979152985E+03  0.90978984809E+02 0.  0.
          5    1    1    2  502    0 -0.43444293614E+02 -0.30849968435E+01  0.17283880978E+02  0.47043902844E+02  0.41800000000E+01 0. -1.
         -5    1    1    2    0  502  0.77671615406E+02  0.54952759460E+00  0.10968570219E+03  0.13446786785E+03  0.41800000000E+01 0. -1.
        -11    1    3    3    0    0 -0.29628818769E+02  0.20553195646E+02  0.10012554007E+03  0.10642097785E+03  0.00000000000E+00 0.  1.
         11    1    3    3    0    0 -0.45985030237E+01 -0.18017726397E+02 -0.14156200280E+02  0.23370552003E+02  0.00000000000E+00 0. -1.
</event>
<event>
 7    1  0.4096326E-006  0.8090895E+02  0.7561462E-02  0.1326492E+00
         -4   -1    0    0    0  501 -0.00000000000E+00  0.00000000000E+00  0.51686054980E+03  0.51686054980E+03  0.00000000000E+00 0.  1.
          4   -1    0    0  501    0  0.00000000000E+00 -0.00000000000E+00 -0.33676876133E+02  0.33676876133E+02  0.00000000000E+00 0. -1.
         23    2    1    2    0    0 -0.61730177444E+02 -0.20971040486E+02  0.28489871119E+03  0.30719498723E+03  0.94610174898E+02 0.  0.
          5    1    1    2  502    0  0.46833408296E+02 -0.36340866849E+01  0.20754657847E+03  0.21283709581E+03  0.41800000000E+01 0.  1.
         -5    1    1    2    0  502  0.14896769148E+02  0.24605127171E+02 -0.92616159948E+01  0.30505342892E+02  0.41800000000E+01 0.  1.
        -11    1    3    3    0    0 -0.50481553574E+02 -0.39376107202E+02  0.27687509234E+03  0.28418072037E+03  0.00000000000E+00 0.  1.
         11    1    3    3    0    0 -0.11248623870E+02  0.18405066717E+02  0.80236188519E+01  0.23014266864E+02  0.00000000000E+00 0. -1.
</event>
<event>
 7    1  0.4096326E-006  0.1883035E+03  0.7561462E-02  0.1160000E+00
         -4   -1    0    0    0  501 -0.00000000000E+00  0.00000000000E+00  0.57006279561E+03  0.57006279561E+03  0.00000000000E+00 0.  1.
          4   -1    0    0  501    0  0.00000000000E+00 -0.00000000000E+00 -0.90084044666E+02  0.90084044666E+02  0.00000000000E+00 0. -1.
         23    2    1    2    0    0  0.12755906693E+03  0.52721200545E+02  0.43061043864E+02  0.17058939328E+03  0.90529813081E+02 0.  0.
          5    1    1    2  502    0  0.43209883656E+02 -0.11334797388E+02  0.97668101496E+02  0.10748070584E+03  0.41800000000E+01 0. -1.
         -5    1    1    2    0  502 -0.17076895059E+03 -0.41386403157E+02  0.33924960559E+03  0.38207674117E+03  0.41800000000E+01 0.  1.
        -11    1    3    3    0    0  0.10987303983E+03  0.10707645650E+02  0.55187555826E+02  0.12341962921E+03  0.00000000000E+00 0. -1.
         11    1    3    3    0    0  0.17686027101E+02  0.42013554895E+02 -0.12126511961E+02  0.47169764064E+02  0.00000000000E+00 0.  1.
</event>
<event>
 7    1  0.4096326E-006  0.1331865E+03  0.7561462E-02  0.1222803E+00
         -1   -1    0    0    0  501 -0.00000000000E+00  0.00000000000E+00  0.42274183683E+02  0.42274183683E+02  0.00000000000E+00 0.  1.
          1   -1    0    0  501    0  0.00000000000E+00 -0.00000000000E+00 -0.56299039845E+03  0.56299039845E+03  0.00000000000E+00 0. -1.
         23    2    1    2    0    0 -0.63629403279E+02  0.51260268463E+02 -0.38190031095E+03  0.40132032761E+03  0.92378795010E+02 0.  0.
          5    1    1    2  502    0  0.35555435424E+02 -0.92589336706E+02 -0.92908465405E+02  0.13596481017E+03  0.41800000000E+01 0.  1.
         -5    1    1    2    0  502  0.28073967856E+02  0.41329068243E+02 -0.45907438416E+02  0.67979444356E+02  0.41800000000E+01 0.  1.
        -11    1    3    3    0    0 -0.30429731945E+00  0.53597421153E+02 -0.11318328153E+03  0.12523270887E+03  0.00000000000E+00 0.  1.
         11    1    3    3    0    0 -0.63325105960E+02 -0.23371526903E+01 -0.26871702942E+03  0.27608761875E+03  0.00000000000E+00 0. -1.
</event>
<event>
 7    1  0.4096326E-006  0.9503053E+02  0.7561462E-02  0.1291107E+00
         -1   -1    0    0    0  501 -0.00000000000E+00  0.00000000000E+00  0.89741861661E+02  0.89741861661E+02  0.00000000000E+00 0.  1.
          1   -1    0    0  501    0  0.00000000000E+00 -0.00000000000E+00 -0.14036971693E+03  0.14036971693E+03  0.00000000000E+00 0. -1.
         23    2    1    2    0    0 -0.31430381662E+02  0.50803021645E+01 -0.35839004881E+02  0.10019256194E+03  0.87979752418E+02 0.  0.
          5    1    1    2  502    0  0.18034095593E+02  0.53656913080E+02  0.20052735582E+02  0.60198650561E+02  0.41800000000E+01 0.  1.
         -5    1    1    2    0  502  0.13396286069E+02 -0.58737215244E+02 -0.34841585971E+02  0.69720366092E+02  0.41800000000E+01 0.  1.
        -11    1    3    3    0    0 -0.54698100835E+01  0.33774791267E+02 -0.48610251228E+02  0.59444191238E+02  0.00000000000E+00 0. -1.
         11    1    3    3    0    0 -0.25960571579E+02 -0.28694489102E+02  0.12771246347E+02  0.40748370701E+02  0.00000000000E+00 0.  1.
</event>
<event>
 7    1  0.4096326E-006  0.1120898E+03  0.7561462E-02  0.1256748E+00
         -2   -1    0    0    0  501 -0.00000000000E+00  0.00000000000E+00  0.74430790564E+02  0.74430790564E+02  0.00000000000E+00 0.  1.
          2   -1    0    0  501    0  0.00000000000E+00 -0.00000000000E+00 -0.27566290134E+03  0.27566290134E+03  0.00000000000E+00 0. -1.
         23    2    1    2    0    0 -0.80480614429E+02  0.87465184746E+01 -0.14733603549E+03  0.19164828327E+03  0.92019162364E+02 0.  0.
          5    1    1    2  502    0 -0.26671826294E+01 -0.18115767300E+02  0.32854947915E+02  0.37844615080E+02  0.41800000000E+01 0.  1.
         -5    1    1    2    0  502  0.83147797058E+02  0.93692488258E+01 -0.86751023194E+02  0.12060079355E+03  0.41800000000E+01 0.  1.
        -11    1    3    3    0    0 -0.81929730331E+02  0.39414199459E+02 -0.11990961934E+03  0.15048015365E+03  0.00000000000E+00 0. -1.
         11    1    3    3    0    0  0.14491159021E+01 -0.30667680985E+02 -0.27426416151E+02  0.41168129624E+02  0.00000000000E+00 0.  1.
</event>
<event>
 7    1  0.4096326E-006  0.2000095E+03  0.7561462E-02  0.1149731E+00
          2   -1    0    0  501    0  0.00000000000E+00  0.00000000000E+00  0.32178175273E+03  0.32178175273E+03  0.00000000000E+00 0. -1.
         -2   -1    0    0    0  501 -0.00000000000E+00 -0.00000000000E+00 -0.18202920591E+03  0.18202920591E+03  0.00000000000E+00 0.  1.
         23    2    1    2    0    0 -0.17046623576E+03  0.57148818194E+02  0.19234109725E+03  0.27856059403E+03  0.90973523062E+02 0.  0.
          5    1    1    2  502    0 -0.13062836944E+02  0.86002004800E+01  0.11651212826E+02  0.19945533777E+02  0.41800000000E+01 0.  1.
         -5    1    1    2    0  502  0.18352907270E+03 -0.65749018674E+02 -0.64239763259E+02  0.20530483084E+03  0.41800000000E+01 0.  1.
        -11    1    3    3    0    0 -0.12474221878E+03  0.67671092647E+02  0.18151677029E+03  0.23040906194E+03  0.00000000000E+00 0. -1.
         11    1    3    3    0    0 -0.45724016976E+02 -0.10522274452E+02  0.10824326957E+02  0.48151532085E+02  0.00000000000E+00 0.  1.
</event>
<event>
 7    1  0.4096326E-006  0.7103657E+02  0.7561462E-02  0.1356603E+00
         -2   -1    0    0    0  501 -0.00000000000E+00  0.00000000000E+00  0.17890217472E+03  0.17890217472E+03  0.00000000000E+00 0.  1.
          2   -1    0    0  501    0  0.00000000000E+00 -0.00000000000E+00 -0.89470152300E+02  0.89470152300E+02  0.00000000000E+00 0. -1.
         23    2    1    2    0    0  0.21978388331E+02 -0.13987376524E+02 -0.20668904007E+02  0.99705526109E+02  0.93996234436E+02 0.  0.
          5    1    1    2  502    0 -0.44753151053E+02 -0.18914373060E+02 -0.27656253370E+01  0.48843823774E+02  0.41800000000E+01 0.  1.
         -5    1    1    2    0  502  0.22774762722E+02  0.32901749584E+02  0.11286655176E+03  0.11982297714E+03  0.41800000000E+01 0.  1.
        -11    1    3    3    0    0  0.10444460203E+02  0.17032600100E+02  0.31868185743E+02  0.37613527854E+02  0.00000000000E+00 0.  1.
         11    1    3    3    0    0  0.11533928128E+02 -0.31019976624E+02 -0.52537089750E+02  0.62091998254E+02  0.00000000000E+00 0. -1.
</event>
<event>
 7    1  0.4096326E-006  0.1138322E+03  0.7561462E-02  0.1253633E+00
          1   -1    0    0  501    0  0.00000000000E+00  0.00000000000E+00  0.12005675171E+03  0.12005675171E+03  0.00000000000E+00 0. -1.
         -1   -1    0    0    0  501 -0.00000000000E+00 -0.00000000000E+00 -0.11212426798E+03  0.11212426798E+03  0.00000000000E+00 0.  1.
         23    2    1    2    0    0 -0.39793123679E+02 -0.11649372421E+02  0.12511297795E+02  0.10030926558E+03  0.90477707857E+02 0.  0.
          5    1    1    2  502    0 -0.15543231265E+02 -0.47157818809E+02  0.65304185480E+01  0.50255056257E+02  0.41800000000E+01 0. -1.
         -5    1    1    2    0  502  0.55336354944E+02  0.58807191230E+02 -0.11109232621E+02  0.81616697852E+02  0.41800000000E+01 0. -1.
        -11    1    3    3    0    0 -0.67468603836E+02 -0.14954838349E+02  0.19043152720E+02  0.71681945838E+02  0.00000000000E+00 0.  1.
         11    1    3    3    0    0  0.27675480157E+02  0.33054659279E+01 -0.65318549248E+01  0.28627319743E+02  0.00000000000E+00 0. -1.
</event>
<event>
 7    1  0.4096326E-006  0.1216626E+03  0.7561462E-02  0.1240379E+00
         -2   -1    0    0    0  501 -0.00000000000E+00  0.00000000000E+00  0.97767340875E+02  0.97767340875E+02  0.00000000000E+00 0. -1.
          2   -1    0    0  501    0  0.00000000000E+00 -0.00000000000E+00 -0.22325988443E+03  0.22325988443E+03  0.00000000000E+00 0.  1.
         23    2    1    2    0    0 -0.70413047124E+02 -0.67023531858E+02 -0.86543525123E+02  0.15788921335E+03  0.89381602830E+02 0.  0.
          5    1    1    2  502    0 -0.29071922852E+02  0.22036788430E+02  0.16908150294E+02  0.40424679207E+02  0.41800000000E+01 0.  1.
         -5    1    1    2    0  502  0.99484969976E+02  0.44986743428E+02 -0.55857168725E+02  0.12271333275E+03  0.41800000000E+01 0.  1.
        -11    1    3    3    0    0 -0.32459578836E+02 -0.34378112885E+02 -0.95935733795E+02  0.10695393365E+03  0.00000000000E+00 0.  1.
         11    1    3    3    0    0 -0.37953468288E+02 -0.32645418973E+02  0.93922086719E+01  0.50935279706E+02  0.00000000000E+00 0. -1.
</event>
<event>
 7    1  0.4096326E-006  0.1420547E+03  0.7561462E-02  0.1210591E+00
          1   -1    0    0  501    0  0.00000000000E+00  0.00000000000E+00  0.20767322520E+03  0.20767322520E+03  0.00000000000E+00 0. -1.
         -1   -1    0    0    0  501 -0.00000000000E+00 -0.00000000000E+00 -0.10277157445E+03  0.10277157445E+03  0.00000000000E+00 0.  1.
         23    2    1    2    0    0  0.23370724216E+02 -0.90281705880E+02  0.78590634825E+02  0.15221207644E+03  0.91077171473E+02 0.  0.
          5    1    1    2  502    0  0.47614787890E+02  0.61678532731E+02  0.28755665071E+01  0.78084253908E+02  0.41800000000E+01 0.  1.
         -5    1    1    2    0  502 -0.70985512105E+02  0.28603173149E+02  0.23435449423E+02  0.80148469310E+02  0.41800000000E+01 0.  1.
        -11    1    3    3    0    0 -0.23221756737E+02 -0.77807809708E+02  0.57899838052E+02  0.99728112807E+02  0.00000000000E+00 0. -1.
         11    1    3    3    0    0  0.46592480953E+02 -0.12473896172E+02  0.20690796773E+02  0.52483963629E+02  0.00000000000E+00 0.  1.
</event>
<event>
 7    1  0.4096326E-006  0.2022506E+03  0.7561462E-02  0.1147854E+00
          2   -1    0    0  501    0  0.00000000000E+00  0.00000000000E+00  0.13781765304E+03  0.13781765304E+03  0.00000000000E+00 0. -1.
         -2   -1    0    0    0  501 -0.00000000000E+00 -0.00000000000E+00 -0.35109344740E+03  0.35109344740E+03  0.00000000000E+00 0.  1.
         23    2    1    2    0    0  0.14540169056E+03  0.11013624357E+03 -0.47676648664E+02  0.21260810542E+03  0.98272579586E+02 0.  0.
          5    1    1    2  502    0  0.22476992051E+02 -0.14626966280E+02 -0.28856478240E+02  0.39614795855E+02  0.41800000000E+01 0.  1.
         -5    1    1    2    0  502 -0.16787868261E+03 -0.95509277291E+02 -0.13674266746E+03  0.23668819917E+03  0.41800000000E+01 0.  1.
        -11    1    3    3    0    0  0.11361907001E+03  0.71939855392E+02 -0.76947888310E+02  0.15493744990E+03  0.00000000000E+00 0.  1.
         11    1    3    3    0    0  0.31782620544E+02  0.38196388178E+02  0.29271239646E+02  0.57670655527E+02  0.00000000000E+00 0. -1.
</event>
<event>
 7    1  0.4096326E-006  0.1060900E+03  0.7561462E-02  0.1267987E+00
         -1   -1    0    0    0  501 -0.00000000000E+00  0.00000000000E+00  0.69414766828E+02  0.69414766828E+02  0.00000000000E+00 0.  1.
          1   -1    0    0  501    0  0.00000000000E+00 -0.00000000000E+00 -0.21388253401E+03  0.21388253401E+03  0.00000000000E+00 0. -1.
         23    2    1    2    0    0  0.55841423198E+02 -0.38380616069E+02 -0.91165980798E+02  0.13137660750E+03  0.66009398634E+02 0.  0.
          5    1    1    2  502    0 -0.54967716016E+02 -0.37177667972E+02 -0.22190863281E+02  0.70096616273E+02  0.41800000000E+01 0. -1.
         -5    1    1    2    0  502 -0.87370718270E+00  0.75558284041E+02 -0.31110923102E+02  0.81824077066E+02  0.41800000000E+01 0. -1.
        -11    1    3    3    0    0  0.37484795976E+02 -0.35118500910E+02 -0.15802841743E+02  0.53741500191E+02  0.00000000000E+00 0.  1.
         11    1    3    3    0    0  0.18356627222E+02 -0.32621151581E+01 -0.75363139055E+02  0.77635107306E+02  0.00000000000E+00 0. -1.
</event>
<event>
 7    1  0.4096326E-006  0.1029850E+03  0.7561462E-02  0.1274141E+00
          1   -1    0    0  501    0  0.00000000000E+00  0.00000000000E+00  0.53282637671E+02  0.53282637671E+02  0.00000000000E+00 0. -1.
         -1   -1    0    0    0  501 -0.00000000000E+00 -0.00000000000E+00 -0.25842209551E+03  0.25842209551E+03  0.00000000000E+00 0.  1.
         23    2    1    2    0    0 -0.57067036425E+00 -0.30665448098E+02 -0.46067058038E+02  0.10702594506E+03  0.91606133567E+02 0.  0.
          5    1    1    2  502    0 -0.18542299772E+02  0.66167941270E+02 -0.41664404191E+02  0.80469921768E+02  0.41800000000E+01 0.  1.
         -5    1    1    2    0  502  0.19112970136E+02 -0.35502493172E+02 -0.11740799561E+03  0.12420886635E+03  0.41800000000E+01 0.  1.
        -11    1    3    3    0    0 -0.44432283153E+02 -0.25810059702E+01 -0.22156693274E+02  0.49717285071E+02  0.00000000000E+00 0. -1.
         11    1    3    3    0    0  0.43861612789E+02 -0.28084442128E+02 -0.23910364764E+02  0.57308659985E+02  0.00000000000E+00 0.  1.
</event>
<event>
 7    1  0.4096326E-006  0.1003591E+03  0.7561462E-02  0.1279543E+00
          1   -1    0    0  501    0  0.00000000000E+00  0.00000000000E+00  0.21913917376E+02  0.21913917376E+02  0.00000000000E+00 0. -1.
         -1   -1    0    0    0  501 -0.00000000000E+00 -0.00000000000E+00 -0.80989682518E+03  0.80989682518E+03  0.00000000000E+00 0.  1.
         23    2    1    2    0    0 -0.40802615667E+02  0.15046086593E+02 -0.15206851005E+03  0.18225261513E+03  0.90553552140E+02 0.  0.
          5    1    1    2  502    0 -0.12903781359E+02 -0.40100744877E+02 -0.49262639068E+03  0.49444191823E+03  0.41800000000E+01 0. -1.
         -5    1    1    2    0  502  0.53706397026E+02  0.25054658284E+02 -0.14328800707E+03  0.15511620919E+03  0.41800000000E+01 0. -1.
        -11    1    3    3    0    0 -0.58239258229E+02  0.38452218987E+02 -0.12056617491E+03  0.13930752627E+03  0.00000000000E+00 0. -1.
         11    1    3    3    0    0  0.17436642562E+02 -0.23406132394E+02 -0.31502335142E+02  0.42945088857E+02  0.00000000000E+00 0.  1.
</event>
<event>
 7    1  0.4096326E-006  0.1095688E+03  0.7561462E-02  0.1261370E+00
          2   -1    0    0  501    0  0.00000000000E+00  0.00000000000E+00  0.80765402358E+03  0.80765402358E+03  0.00000000000E+00 0. -1.
         -2   -1    0    0    0  501 -0.00000000000E+00 -0.00000000000E+00 -0.16247590430E+02  0.16247590430E+02  0.00000000000E+00 0.  1.
         23    2    1    2    0    0  0.33783017818E+02 -0.86742988103E+01  0.37996174971E+03  0.39244983219E+03  0.91811784615E+02 0.  0.
          5    1    1    2  502    0 -0.70594975230E+02 -0.22580591529E+02  0.17508154555E+03  0.19016980211E+03  0.41800000000E+01 0.  1.
         -5    1    1    2    0  502  0.36811957412E+02  0.31254890339E+02  0.23636313789E+03  0.24128197971E+03  0.41800000000E+01 0.  1.
        -11    1    3    3    0    0  0.61977409766E+02 -0.21303455392E+02  0.22094266074E+03  0.23045757933E+03  0.00000000000E+00 0. -1.
         11    1    3    3    0    0 -0.28194391948E+02  0.12629156582E+02  0.15901908897E+03  0.16199225287E+03  0.00000000000E+00 0.  1.
</event>
<event>
 7    1  0.4096326E-006  0.1076886E+03  0.7561462E-02  0.1264911E+00
          2   -1    0    0  501    0  0.00000000000E+00  0.00000000000E+00  0.39287727361E+03  0.39287727361E+03  0.00000000000E+00 0. -1.
         -2   -1    0    0    0  501 -0.00000000000E+00 -0.00000000000E+00 -0.56383235570E+02  0.56383235570E+02  0.00000000000E+00 0.  1.
         23    2    1    2    0    0 -0.17092689784E+02 -0.16721238365E+02  0.30334921728E+03  0.31766732066E+03  0.91214138918E+02 0.  0.
          5    1    1    2  502    0  0.65648250790E+02 -0.84031006667E+01  0.38198857280E+02  0.76530582319E+02  0.41800000000E+01 0.  1.
         -5    1    1    2    0  502 -0.48555561006E+02  0.25124339032E+02 -0.50540365133E+01  0.55062606200E+02  0.41800000000E+01 0.  1.
        -11    1    3    3    0    0  0.68070488404E+01 -0.51546449363E+02  0.16149575176E+03  0.16965921782E+03  0.00000000000E+00 0. -1.
         11    1    3    3    0    0 -0.23899738624E+02  0.34825210997E+02  0.14185346552E+03  0.14800810284E+03  0.00000000000E+00 0.  1.
</event>
<event>
 7    1  0.4096326E-006  0.1338931E+03  0.7561462E-02  0.1221791E+00
         -2   -1    0    0    0  501 -0.00000000000E+00  0.00000000000E+00  0.21014640816E+03  0.21014640816E+03  0.00000000000E+00 0.  1.
          2   -1    0    0  501    0  0.00000000000E+00 -0.00000000000E+00 -0.11834700341E+03  0.11834700341E+03  0.00000000000E+00 0. -1.
         23    2    1    2    0    0  0.39958424401E+02  0.96794389222E+02 -0.45029504533E+01  0.13905353932E+03  0.91377134820E+02 0.  0.
          5    1    1    2  502    0 -0.30637771263E+02 -0.10995486582E+03  0.25935230052E+02  0.11712751216E+03  0.41800000000E+01 0. -1.
         -5    1    1    2    0  502 -0.93206531377E+01  0.13160476603E+02  0.70367125151E+02  0.72312360087E+02  0.41800000000E+01 0. -1.
        -11    1    3    3    0    0 -0.27927364601E+02  0.37602000328E+02 -0.12935135867E+02  0.48591829171E+02  0.00000000000E+00 0.  1.
         11    1    3    3    0    0  0.67885789002E+02  0.59192388894E+02  0.84321854137E+01  0.90461710145E+02  0.00000000000E+00 0. -1.
</event>
<event>
 7    1  0.4096326E-006  0.1739822E+03  0.7561462E-02  0.1173758E+00
          3   -1    0    0  501    0  0.00000000000E+00  0.00000000000E+00  0.71289047495E+03  0.71289047495E+03  0.00000000000E+00 0.  1.
         -3   -1    0    0    0  501 -0.00000000000E+00 -0.00000000000E+00 -0.58896457187E+02  0.58896457187E+02  0.00000000000E+00 0. -1.
         23    2    1    2    0    0 -0.16449412146E+03  0.50733809087E+02  0.34958364635E+03  0.40037698564E+03  0.91982441018E+02 0.  0.
          5    1    1    2  502    0  0.14943743483E+03 -0.40096960800E+02  0.31410236458E+03  0.35016721867E+03  0.41800000000E+01 0.  1.
         -5    1    1    2    0  502  0.15056686630E+02 -0.10636848287E+02 -0.96919931732E+01  0.21242727824E+02  0.41800000000E+01 0.  1.
        -11    1    3    3    0    0 -0.72206783973E+02  0.82213039268E+01  0.24077096141E+03  0.25149963290E+03  0.00000000000E+00 0.  1.
         11    1    3    3    0    0 -0.92287337486E+02  0.42512505160E+02  0.10881268494E+03  0.14887735274E+03  0.00000000000E+00 0. -1.
</event>
<event>
 7    1  0.4096326E-006  0.7400418E+02  0.7561462E-02  0.1346983E+00
          2   -1    0    0  501    0  0.00000000000E+00  0.00000000000E+00  0.13060735938E+03  0.13060735938E+03  0.00000000000E+00 0. -1.
         -2   -1    0    0    0  501 -0.00000000000E+00 -0.00000000000E+00 -0.12180777337E+03  0.12180777337E+03  0.00000000000E+00 0.  1.
         23    2    1    2    0    0  0.47246351113E+02 -0.34093977274E+02  0.42829571703E+02  0.11027408419E+03  0.83254936506E+02 0.  0.
          5    1    1    2  502    0 -0.39754235270E+02  0.20511429681E+02 -0.80930533434E+02  0.92565336986E+02  0.41800000000E+01 0.  1.
         -5    1    1    2    0  502 -0.74921158435E+01  0.13582547594E+02  0.46900547742E+02  0.49575711568E+02  0.41800000000E+01 0.  1.
        -11    1    3    3    0    0 -0.12232622643E+02 -0.23648916806E+02 -0.11537424986E+02  0.29017589461E+02  0.00000000000E+00 0.  1.
         11    1    3    3    0    0  0.59478973757E+02 -0.10445060469E+02  0.54366996689E+02  0.81256494733E+02  0.00000000000E+00 0. -1.
</event>
<event>
 7    1  0.4096326E-006  0.2817280E+03  0.7561462E-02  0.1094749E+00
         -1   -1    0    0    0  501 -0.00000000000E+00  0.00000000000E+00  0.16716200719E+03  0.16716200719E+03  0.00000000000E+00 0.  1.
          1   -1    0    0  501    0  0.00000000000E+00 -0.00000000000E+00 -0.13835834252E+04  0.13835834252E+04  0.00000000000E+00 0. -1.
         23    2    1    2    0    0 -0.20531084504E+03 -0.17890293285E+03 -0.12175894066E+04  0.12510662650E+04  0.92108815554E+02 0.  0.
          5    1    1    2  502    0  0.13020287722E+02  0.31144700114E+02 -0.41241993421E+02  0.53459280382E+02  0.41800000000E+01 0.  1.
         -5    1    1    2    0  502  0.19229055731E+03  0.14775823274E+03  0.42409982022E+02  0.24621988699E+03  0.41800000000E+01 0.  1.
        -11    1    3    3    0    0 -0.16752574295E+03 -0.89706453335E+02 -0.76827697648E+03  0.79143012004E+03  0.00000000000E+00 0. -1.
         11    1    3    3    0    0 -0.37785102084E+02 -0.89196479515E+02 -0.44931243015E+03  0.45963614499E+03  0.00000000000E+00 0.  1.
</event>
<event>
 7    1  0.4096326E-006  0.9858768E+02  0.7561462E-02  0.1283294E+00
         -1   -1    0    0    0  501 -0.00000000000E+00  0.00000000000E+00  0.19996886113E+02  0.19996886113E+02  0.00000000000E+00 0.  1.
          1   -1    0    0  501    0  0.00000000000E+00 -0.00000000000E+00 -0.97141990486E+03  0.97141990486E+03  0.00000000000E+00 0. -1.
         23    2    1    2    0    0 -0.79065844305E+02 -0.36692460459E+02 -0.47694857543E+03  0.49304761877E+03  0.89544773064E+02 0.  0.
          5    1    1    2  502    0  0.37136403465E+02 -0.28562533321E+00 -0.41484215971E+03  0.41652212897E+03  0.41800000000E+01 0.  1.
         -5    1    1    2    0  502  0.41929440840E+02  0.36978085793E+02 -0.59632283603E+02  0.81847043231E+02  0.41800000000E+01 0.  1.
        -11    1    3    3    0    0 -0.79378721124E+02 -0.47780119982E+02 -0.47181416831E+03  0.48082484404E+03  0.00000000000E+00 0. -1.
         11    1    3    3    0    0  0.31287681867E+00  0.11087659523E+02 -0.51344071210E+01  0.12222774729E+02  0.00000000000E+00 0.  1.
</event>
<event>
 7    1  0.4096326E-006  0.1025282E+03  0.7561462E-02  0.1275068E+00
         -1   -1    0    0    0  501 -0.00000000000E+00  0.00000000000E+00  0.14322159696E+03  0.14322159696E+03  0.00000000000E+00 0.  1.
          1   -1    0    0  501    0  0.00000000000E+00 -0.00000000000E+00 -0.91073966910E+02  0.91073966910E+02  0.00000000000E+00 0. -1.
         23    2    1    2    0    0  0.10296674039E+02  0.32695865569E+02  0.13384496937E+02  0.98930999834E+02  0.91832221188E+02 0.  0.
          5    1    1    2  502    0 -0.53896176807E+02 -0.44309149427E+02  0.53164507033E+02  0.87818197462E+02  0.41800000000E+01 0.  1.
         -5    1    1    2    0  502  0.43599502768E+02  0.11613283859E+02 -0.14401373920E+02  0.47546366574E+02  0.41800000000E+01 0.  1.
        -11    1    3    3    0    0 -0.36323002374E+02  0.84242619546E+01  0.25271315225E+02  0.45044068024E+02  0.00000000000E+00 0.  1.
         11    1    3    3    0    0  0.46619676413E+02  0.24271603614E+02 -0.11886818288E+02  0.53886931810E+02  0.00000000000E+00 0. -1.
</event>
<event>
 7    1  0.4096326E-006  0.1400881E+03  0.7561462E-02  0.1213210E+00
         -2   -1    0    0    0  501 -0.00000000000E+00  0.00000000000E+00  0.46476035424E+02  0.46476035424E+02  0.00000000000E+00 0.  1.
          2   -1    0    0  501    0  0.00000000000E+00 -0.00000000000E+00 -0.48192079988E+03  0.48192079988E+03  0.00000000000E+00 0. -1.
         23    2    1    2    0    0  0.46554522436E+02 -0.91503182813E+02 -0.26394448381E+03  0.29259956590E+03  0.73536789484E+02 0.  0.
          5    1    1    2  502    0 -0.86141793601E+02  0.72856984435E+02 -0.94924654005E+02  0.14750156312E+03  0.41800000000E+01 0. -1.
         -5    1    1    2    0  502  0.39587271165E+02  0.18646198378E+02 -0.76575626644E+02  0.88295706284E+02  0.41800000000E+01 0. -1.
        -11    1    3    3    0    0  0.64406067020E+02 -0.66277967092E+02 -0.22227065088E+03  0.24071799400E+03  0.00000000000E+00 0. -1.
         11    1    3    3    0    0 -0.17851544584E+02 -0.25225215721E+02 -0.41673832926E+02  0.51881571901E+02  0.00000000000E+00 0.  1.
</event>
<event>
 7    1  0.4096326E-006  0.1263136E+03  0.7561462E-02  0.1233031E+00
         -2   -1    0    0    0  501 -0.00000000000E+00  0.00000000000E+00  0.32021877627E+02  0.32021877627E+02  0.00000000000E+00 0. -1.
          2   -1    0    0  501    0  0.00000000000E+00 -0.00000000000E+00 -0.58129576937E+03  0.58129576937E+03  0.00000000000E+00 0.  1.
         23    2    1    2    0    0 -0.38972602780E+01 -0.64440361225E+02 -0.36246661411E+03  0.37941224966E+03  0.91672569789E+02 0.  0.
          5    1    1    2  502    0  0.23638569846E+01  0.10231110928E+03 -0.14167689000E+03  0.17482266575E+03  0.41800000000E+01 0. -1.
         -5    1    1    2    0  502  0.15334032934E+01 -0.37870748053E+02 -0.45130387636E+02  0.59082731589E+02  0.41800000000E+01 0. -1.
        -11    1    3    3    0    0  0.17434015363E+02  0.19094610802E+02 -0.88553025841E+02  0.92250677174E+02  0.00000000000E+00 0.  1.
         11    1    3    3    0    0 -0.21331275641E+02 -0.83534972027E+02 -0.27391358827E+03  0.28716157248E+03  0.00000000000E+00 0. -1.
</event>
<event>
 7    1  0.4096326E-006  0.2851299E+03  0.7561462E-02  0.1092920E+00
          2   -1    0    0  501    0  0.00000000000E+00  0.00000000000E+00  0.13362382426E+04  0.13362382426E+04  0.00000000000E+00 0. -1.
         -2   -1    0    0    0  501 -0.00000000000E+00 -0.00000000000E+00 -0.93897115795E+02  0.93897115795E+02  0.00000000000E+00 0.  1.
         23    2    1    2    0    0 -0.42871305075E+02 -0.70672430339E+02  0.40715794795E+03  0.42477497178E+03  0.88451347436E+02 0.  0.
          5    1    1    2  502    0 -0.10141772223E+03  0.22652987408E+03  0.72444978532E+03  0.76579782063E+03  0.41800000000E+01 0. -1.
         -5    1    1    2    0  502  0.14428902731E+03 -0.15585744374E+03  0.11073339350E+03  0.23956256595E+03  0.41800000000E+01 0.  1.
        -11    1    3    3    0    0  0.72836344434E+01 -0.57199050390E+02  0.12216796866E+03  0.13509180309E+03  0.00000000000E+00 0.  1.
         11    1    3    3    0    0 -0.50154939518E+02 -0.13473379948E+02  0.28498997929E+03  0.28968316869E+03  0.00000000000E+00 0. -1.
</event>
<event>
 7    1  0.4096326E-006  0.1128948E+03  0.7561462E-02  0.1255301E+00
          1   -1    0    0  501    0  0.00000000000E+00  0.00000000000E+00  0.14730976819E+03  0.14730976819E+03  0.00000000000E+00 0. -1.
         -1   -1    0    0    0  501 -0.00000000000E+00 -0.00000000000E+00 -0.10754526269E+03  0.10754526269E+03  0.00000000000E+00 0.  1.
         23    2    1    2    0    0  0.37061318203E+02  0.32042253522E+02  0.59812046699E+02  0.11905255782E+03  0.90530565425E+02 0.  0.
          5    1    1    2  502    0 -0.77500430342E+02 -0.42009132277E+02 -0.29194371131E+02  0.92956267156E+02  0.41800000000E+01 0.  1.
         -5    1    1    2    0  502  0.40439112140E+02  0.99668787546E+01  0.91468299337E+01  0.42846205906E+02  0.41800000000E+01 0.  1.
        -11    1    3    3    0    0  0.59295423616E+02  0.33642265314E+01  0.14747999592E+02  0.61194515881E+02  0.00000000000E+00 0.  1.
         11    1    3    3    0    0 -0.22234105414E+02  0.28678026991E+02  0.45064047108E+02  0.57858041942E+02  0.00000000000E+00 0. -1.
</event>
<event>
 7    1  0.4096326E-006  0.1347255E+03  0.7561462E-02  0.1220608E+00
         -2   -1    0    0    0  501 -0.00000000000E+00  0.00000000000E+00  0.10948040024E+04  0.10948040024E+04  0.00000000000E+00 0. -1.
          2   -1    0    0  501    0  0.00000000000E+00 -0.00000000000E+00 -0.24878959254E+02  0.24878959254E+02  0.00000000000E+00 0.  1.
         23    2    1    2    0    0  0.67819132619E+02  0.45107239934E+02  0.18782644765E+03  0.22504327015E+03  0.93443036978E+02 0.  0.
          5    1    1    2  502    0 -0.10853535516E+02  0.42567847679E+02  0.22927086224E+03  0.23347895314E+03  0.41800000000E+01 0.  1.
         -5    1    1    2    0  502 -0.56965597104E+02 -0.87675087613E+02  0.65282773330E+03  0.66116073840E+03  0.41800000000E+01 0.  1.
        -11    1    3    3    0    0  0.40819870532E+02 -0.23397326255E+02  0.99403173526E+02  0.10997585014E+03  0.00000000000E+00 0. -1.
         11    1    3    3    0    0  0.26999262087E+02  0.68504566190E+02  0.88423274128E+02  0.11506742002E+03  0.00000000000E+00 0.  1.
</event>
<event>
 7    1  0.4096326E-006  0.7281312E+02  0.7561462E-02  0.1350780E+00
          3   -1    0    0  501    0  0.00000000000E+00  0.00000000000E+00  0.14971854687E+03  0.14971854687E+03  0.00000000000E+00 0. -1.
         -3   -1    0    0    0  501 -0.00000000000E+00 -0.00000000000E+00 -0.10339151874E+03  0.10339151874E+03  0.00000000000E+00 0.  1.
         23    2    1    2    0    0 -0.92805155391E+01  0.56926791432E+02  0.37338455106E+02  0.11506904755E+03  0.92303509805E+02 0.  0.
          5    1    1    2  502    0  0.20306132319E+02 -0.68403362445E+02 -0.43066049823E+02  0.83447684515E+02  0.41800000000E+01 0. -1.
         -5    1    1    2    0  502 -0.11025616780E+02  0.11476571013E+02  0.52054622846E+02  0.54593333542E+02  0.41800000000E+01 0. -1.
        -11    1    3    3    0    0 -0.57659265013E+01  0.39438836400E+02  0.68448645902E+02  0.79207858517E+02  0.00000000000E+00 0. -1.
         11    1    3    3    0    0 -0.35145890378E+01  0.17487955032E+02 -0.31110190796E+02  0.35861189030E+02  0.00000000000E+00 0.  1.
</event>
<event>
 7    1  0.4096326E-006  0.1022275E+03  0.7561462E-02  0.1275680E+00
         -1   -1    0    0    0  501 -0.00000000000E+00  0.00000000000E+00  0.45691720157E+02  0.45691720157E+02  0.00000000000E+00 0.  1.
          1   -1    0    0  501    0  0.00000000000E+00 -0.00000000000E+00 -0.33042800630E+03  0.33042800630E+03  0.00000000000E+00 0. -1.
         23    2    1    2    0    0 -0.42631092609E+02  0.36861580700E+02 -0.13741533678E+03  0.17480597220E+03  0.92184418131E+02 0.  0.
          5    1    1    2  502    0  0.42069464563E+02 -0.79593007226E+02 -0.12126357562E+03  0.15108677580E+03  0.41800000000E+01 0. -1.
         -5    1    1    2    0  502  0.56162804569E+00  0.42731426525E+02 -0.26057373741E+02  0.50226978460E+02  0.41800000000E+01 0. -1.
        -11    1    3    3    0    0 -0.44793485736E+02  0.11914142789E+02 -0.14197822720E+03  0.14935267042E+03  0.00000000000E+00 0. -1.
         11    1    3    3    0    0  0.21623931273E+01  0.24947437912E+02  0.45628904235E+01  0.25453301778E+02  0.00000000000E+00 0.  1.
</event>
<event>
 7    1  0.4096326E-006  0.2132927E+03  0.7561462E-02  0.1138985E+00
         -1   -1    0    0    0  501 -0.00000000000E+00  0.00000000000E+00  0.92847289604E+03  0.92847289604E+03  0.00000000000E+00 0.  1.
          1   -1    0    0  501    0  0.00000000000E+00 -0.00000000000E+00 -0.62025045859E+02  0.62025045859E+02  0.00000000000E+00 0. -1.
         23    2    1    2    0    0 -0.20847483850E+03 -0.32078556646E+02  0.34141886556E+03  0.41101968791E+03  0.88766829415E+02 0.  0.
          5    1    1    2  502    0  0.40313132749E+02  0.23348327410E+02  0.27611841364E+02  0.54315552546E+02  0.41800000000E+01 0.  1.
         -5    1    1    2    0  502  0.16816170575E+03  0.87302292365E+01  0.49741714326E+03  0.52516270145E+03  0.41800000000E+01 0.  1.
        -11    1    3    3    0    0 -0.15710955919E+03 -0.30110108260E+02  0.31484613435E+03  0.35315452783E+03  0.00000000000E+00 0.  1.
         11    1    3    3    0    0 -0.51365279308E+02 -0.19684483861E+01  0.26572731210E+02  0.57865160083E+02  0.00000000000E+00 0. -1.
</event>
<event>
 7    1  0.4096326E-006  0.1097145E+03  0.7561462E-02  0.1261100E+00
          1   -1    0    0  501    0  0.00000000000E+00  0.00000000000E+00  0.10550179965E+04  0.10550179965E+04  0.00000000000E+00 0. -1.
         -1   -1    0    0    0  501 -0.00000000000E+00 -0.00000000000E+00 -0.20360659440E+02  0.20360659440E+02  0.00000000000E+00 0.  1.
         23    2    1    2    0    0  0.95730105531E+02  0.37904007791E+01  0.38963017618E+03  0.41138585401E+03  0.90818645938E+02 0.  0.
          5    1    1    2  502    0 -0.27202762238E+02 -0.16856514933E+02  0.27147587686E+02  0.42173407335E+02  0.41800000000E+01 0. -1.
         -5    1    1    2    0  502 -0.68527343293E+02  0.13066114154E+02  0.61787957322E+03  0.62181939462E+03  0.41800000000E+01 0. -1.
        -11    1    3    3    0    0  0.39913929491E+02  0.35202687983E+02  0.27475771738E+03  0.27986452842E+03  0.00000000000E+00 0. -1.
         11    1    3    3    0    0  0.55816176040E+02 -0.31412287204E+02  0.11487245880E+03  0.13152132560E+03  0.00000000000E+00 0.  1.
</event>
<event>
 7    1  0.4096326E-006  0.1984239E+03  0.7561462E-02  0.1151076E+00
          1   -1    0    0  501    0  0.00000000000E+00  0.00000000000E+00  0.81930372747E+03  0.81930372747E+03  0.00000000000E+00 0. -1.
         -1   -1    0    0    0  501 -0.00000000000E+00 -0.00000000000E+00 -0.62659040184E+02  0.62659040184E+02  0.00000000000E+00 0.  1.
         23    2    1    2    0    0 -0.18817450521E+03  0.10617164826E+02  0.48328442941E+03  0.52714597728E+03  0.93790580846E+02 0.  0.
          5    1    1    2  502    0  0.22359445152E+02  0.27801098838E+02  0.12141210522E+03  0.12661444459E+03  0.41800000000E+01 0.  1.
         -5    1    1    2    0  502  0.16581506006E+03 -0.38418263664E+02  0.15194815265E+03  0.22820234578E+03  0.41800000000E+01 0.  1.
        -11    1    3    3    0    0 -0.92268063791E+02 -0.92331108006E+01  0.12452433141E+03  0.15525770527E+03  0.00000000000E+00 0.  1.
         11    1    3    3    0    0 -0.95906441420E+02  0.19850275627E+02  0.35876009800E+03  0.37188827202E+03  0.00000000000E+00 0. -1.
</event>
<event>
 7    1  0.4096326E-006  0.1451447E+03  0.7561462E-02  0.1206569E+00
          2   -1    0    0  501    0  0.00000000000E+00  0.00000000000E+00  0.75722267019E+03  0.75722267019E+03  0.00000000000E+00 0. -1.
         -2   -1    0    0    0  501 -0.00000000000E+00 -0.00000000000E+00 -0.54801851013E+02  0.54801851013E+02  0.00000000000E+00 0.  1.
         23    2    1    2    0    0  0.12647442128E+03 -0.41769739307E+02  0.55404830106E+03  0.57662821039E+03  0.88261445433E+02 0.  0.
          5    1    1    2  502    0 -0.92635275305E+02  0.60591288264E+02  0.16013429602E+03  0.19471277207E+03  0.41800000000E+01 0. -1.
         -5    1    1    2    0  502 -0.33839145972E+02 -0.18821548956E+02 -0.11761777905E+02  0.40683538744E+02  0.41800000000E+01 0. -1.
        -11    1    3    3    0    0  0.31931499044E+02 -0.32524011878E+02  0.71307689742E+02  0.84629891859E+02  0.00000000000E+00 0.  1.
         11    1    3    3    0    0  0.94542922233E+02 -0.92457274293E+01  0.48274061132E+03  0.49199831853E+03  0.00000000000E+00 0. -1.
</event>
<event>
 7    1  0.4096326E-006  0.1893549E+03  0.7561462E-02  0.1159044E+00
          2   -1    0    0  501    0  0.00000000000E+00  0.00000000000E+00  0.37209566193E+03  0.37209566193E+03  0.00000000000E+00 0. -1.
         -2   -1    0    0    0  501 -0.00000000000E+00 -0.00000000000E+00 -0.11429792026E+03  0.11429792026E+03  0.00000000000E+00 0.  1.
         23    2    1    2    0    0  0.17255809924E+03  0.33144380131E+02  0.14835668431E+03  0.24452354602E+03  0.83109633808E+02 0.  0.
          5    1    1    2  502    0 -0.73624650362E+02  0.30194834288E+02 -0.22562494704E+01  0.79717502597E+02  0.41800000000E+01 0. -1.
         -5    1    1    2    0  502 -0.98933448880E+02 -0.63339214419E+02  0.11169730684E+03  0.16215253358E+03  0.41800000000E+01 0. -1.
        -11    1    3    3    0    0  0.13383315782E+03  0.55892306531E+01  0.14419850656E+03  0.19681403132E+03  0.00000000000E+00 0.  1.
         11    1    3    3    0    0  0.38724941421E+02  0.27555149478E+02  0.41581777530E+01  0.47709514701E+02  0.00000000000E+00 0. -1.
</event>
<event>
 7    1  0.4096326E-006  0.1087084E+03  0.7561462E-02  0.1262981E+00
         -2   -1    0    0    0  501 -0.00000000000E+00  0.00000000000E+00  0.17928894096E+02  0.17928894096E+02  0.00000000000E+00 0.  1.
          2   -1    0    0  501    0  0.00000000000E+00 -0.00000000000E+00 -0.67931391665E+03  0.67931391665E+03  0.00000000000E+00 0. -1.
         23    2    1    2    0    0 -0.11782323665E+01 -0.14558198272E+02 -0.32306915649E+03  0.33624613233E+03  0.92056788248E+02 0.  0.
          5    1    1    2  502    0  0.57963067843E+02 -0.16251073881E+02 -0.14227493695E+03  0.15454269546E+03  0.41800000000E+01 0. -1.
         -5    1    1    2    0  502 -0.56784835477E+02  0.30809272154E+02 -0.19604092911E+03  0.20645398295E+03  0.41800000000E+01 0. -1.
        -11    1    3    3    0    0 -0.43158656923E+02 -0.23889340942E+02 -0.19530997470E+03  0.20144318428E+03  0.00000000000E+00 0. -1.
         11    1    3    3    0    0  0.41980424556E+02  0.93311426692E+01 -0.12775918179E+03  0.13480294804E+03  0.00000000000E+00 0.  1.
</event>
<event>
 7    1  0.4096326E-006  0.1134323E+03  0.7561462E-02  0.1254343E+00
         -1   -1    0    0    0  501 -0.00000000000E+00  0.00000000000E+00  0.19766898851E+03  0.19766898851E+03  0.00000000000E+00 0.  1.
          1   -1    0    0  501    0  0.00000000000E+00 -0.00000000000E+00 -0.97829630747E+02  0.97829630747E+02  0.00000000000E+00 0. -1.
         23    2    1    2    0    0 -0.38667287576E+02  0.50638570768E+02 -0.17593280448E+02  0.10843449246E+03  0.85959825851E+02 0.  0.
          5    1    1    2  502    0  0.49910321141E+02  0.33697070620E+02  0.51380520060E+02  0.79271451144E+02  0.41800000000E+01 0. -1.
         -5    1    1    2    0  502 -0.11243033566E+02 -0.84335641388E+02  0.66052118154E+02  0.10779267565E+03  0.41800000000E+01 0.  1.
        -11    1    3    3    0    0 -0.90893752429E+01 -0.10202949104E+02  0.25001275468E+02  0.28491765262E+02  0.00000000000E+00 0.  1.
         11    1    3    3    0    0 -0.29577912333E+02  0.60841519872E+02 -0.42594555916E+02  0.79942727199E+02  0.00000000000E+00 0. -1.
</event>
<event>
 7    1  0.4096326E-006  0.1258887E+03  0.7561462E-02  0.1233687E+00
          2   -1    0    0  501    0  0.00000000000E+00  0.00000000000E+00  0.24193393894E+03  0.24193393894E+03  0.00000000000E+00 0. -1.
         -2   -1    0    0    0  501 -0.00000000000E+00 -0.00000000000E+00 -0.70860774940E+02  0.70860774940E+02  0.00000000000E+00 0.  1.
         23    2    1    2    0    0  0.40681675993E+02 -0.46507736643E+02  0.77813602997E+02  0.13542109545E+03  0.92010586088E+02 0.  0.
          5    1    1    2  502    0  0.42593510147E+01 -0.43588767950E+02  0.52945159481E+02  0.68838834061E+02  0.41800000000E+01 0. -1.
         -5    1    1    2    0  502 -0.44941027008E+02  0.90096504592E+02  0.40314401525E+02  0.10853478437E+03  0.41800000000E+01 0.  1.
        -11    1    3    3    0    0  0.60724917439E+01  0.25983195686E+02  0.53014488175E+01  0.27204907160E+02  0.00000000000E+00 0.  1.
         11    1    3    3    0    0  0.34609184250E+02 -0.72490932329E+02  0.72512154180E+02  0.10821618829E+03  0.00000000000E+00 0. -1.
</event>
<event>
 7    1  0.4096326E-006  0.1141049E+03  0.7561462E-02  0.1253152E+00
          1   -1    0    0  501    0  0.00000000000E+00  0.00000000000E+00  0.34670750746E+03  0.34670750746E+03  0.00000000000E+00 0. -1.
         -1   -1    0    0    0  501 -0.00000000000E+00 -0.00000000000E+00 -0.57167317843E+02  0.57167317843E+02  0.00000000000E+00 0.  1.
         23    2    1    2    0    0  0.39137160628E+02  0.24625117454E+02  0.24073227696E+03  0.26186080526E+03  0.92092010547E+02 0.  0.
          5    1    1    2  502    0 -0.63201313383E+01  0.48736215682E+02  0.29964340523E+01  0.49412688615E+02  0.41800000000E+01 0.  1.
         -5    1    1    2    0  502 -0.32817029290E+02 -0.73361333136E+02  0.45811478598E+02  0.92601331428E+02  0.41800000000E+01 0.  1.
        -11    1    3    3    0    0  0.48805154407E+02  0.50838287171E+02  0.13244360687E+03  0.15002594289E+03  0.00000000000E+00 0.  1.
         11    1    3    3    0    0 -0.96679937792E+01 -0.26213169717E+02  0.10828867009E+03  0.11183486237E+03  0.00000000000E+00 0. -1.
</event>
<event>
 7    1  0.4096326E-006  0.1092692E+03  0.7561462E-02  0.1261929E+00
          1   -1    0    0  501    0  0.00000000000E+00  0.00000000000E+00  0.50835700360E+03  0.50835700360E+03  0.00000000000E+00 0. -1.
         -1   -1    0    0    0  501 -0.00000000000E+00 -0.00000000000E+00 -0.48966968353E+02  0.48966968353E+02  0.00000000000E+00 0.  1.
         23    2    1    2    0    0 -0.37232434211E+02 -0.14149214257E+02  0.40192242025E+03  0.41405873352E+03  0.91195112140E+02 0.  0.
          5    1    1    2  502    0  0.49563147374E+02 -0.43168278382E+02  0.78133987384E+01  0.66321395009E+02  0.41800000000E+01 0.  1.
         -5    1    1    2    0  502 -0.12330713162E+02  0.57317492639E+02  0.49654216256E+02  0.76943843428E+02  0.41800000000E+01 0.  1.
        -11    1    3    3    0    0  0.27636256405E+02 -0.65589701305E+00  0.64207951606E+02  0.69906036352E+02  0.00000000000E+00 0.  1.
         11    1    3    3    0    0 -0.64868690616E+02 -0.13493317244E+02  0.33771446865E+03  0.34415269717E+03  0.00000000000E+00 0. -1.
</event>
<event>
 7    1  0.4096326E-006  0.1180566E+03  0.7561462E-02  0.1246338E+00
          2   -1    0    0  501    0  0.00000000000E+00  0.00000000000E+00  0.23857355811E+03  0.23857355811E+03  0.00000000000E+00 0. -1.
         -2   -1    0    0    0  501 -0.00000000000E+00 -0.00000000000E+00 -0.11370448756E+03  0.11370448756E+03  0.00000000000E+00 0.  1.
         23    2    1    2    0    0  0.97101614568E+02 -0.18123843674E+02  0.13663250924E+03  0.19245995804E+03  0.92818078007E+02 0.  0.
          5    1    1    2  502    0  0.95421946659E+01  0.27721933589E+02  0.32420043643E+02  0.43910029729E+02  0.41800000000E+01 0. -1.
         -5    1    1    2    0  502 -0.10664380923E+03 -0.95980899149E+01 -0.44183482333E+02  0.11590805791E+03  0.41800000000E+01 0. -1.
        -11    1    3    3    0    0  0.61908894460E+02 -0.63574747199E+01  0.13264953176E+02  0.63632442047E+02  0.00000000000E+00 0.  1.
         11    1    3    3    0    0  0.35192720108E+02 -0.11766368955E+02  0.12336755606E+03  0.12882751599E+03  0.00000000000E+00 0. -1.
</event>
<event>
 7    1  0.4096326E-006  0.1498948E+03  0.7561462E-02  0.1200602E+00
          1   -1    0    0  501    0  0.00000000000E+00  0.00000000000E+00  0.50520534747E+02  0.50520534747E+02  0.00000000000E+00 0. -1.
         -1   -1    0    0    0  501 -0.00000000000E+00 -0.00000000000E+00 -0.48585515536E+03  0.48585515536E+03  0.00000000000E+00 0.  1.
         23    2    1    2    0    0 -0.34175987833E+00  0.10587646712E+03 -0.13560737236E+03  0.19477044348E+03  0.91302919584E+02 0.  0.
          5    1    1    2  502    0 -0.16293570113E+02  0.23874994357E+02 -0.87710897704E+02  0.92445496151E+02  0.41800000000E+01 0.  1.
         -5    1    1    2    0  502  0.16635329991E+02 -0.12975146148E+03 -0.21201635055E+03  0.24915975048E+03  0.41800000000E+01 0.  1.
        -11    1    3    3    0    0  0.39861942908E+02  0.86141485901E+02 -0.88594468177E+02  0.12983955436E+03  0.00000000000E+00 0.  1.
         11    1    3    3    0    0 -0.40203702787E+02  0.19734981217E+02 -0.47012904185E+02  0.64930889115E+02  0.00000000000E+00 0. -1.
</event>
<event>
 7    1  0.4096326E-006  0.1008228E+03  0.7561462E-02  0.1278575E+00
          2   -1    0    0  501    0  0.00000000000E+00  0.00000000000E+00  0.12674031840E+03  0.12674031840E+03  0.00000000000E+00 0. -1.
         -2   -1    0    0    0  501 -0.00000000000E+00 -0.00000000000E+00 -0.15565809658E+03  0.15565809658E+03  0.00000000000E+00 0.  1.
         23    2    1    2    0    0  0.52162810774E+02  0.14529756152E+02  0.57406785551E+02  0.12103697403E+03  0.91773293568E+02 0.  0.
          5    1    1    2  502    0  0.24159497878E+02 -0.47203043748E+02 -0.34680138025E+02  0.63497976741E+02  0.41800000000E+01 0.  1.
         -5    1    1    2    0  502 -0.76322308652E+02  0.32673287595E+02 -0.51644425716E+02  0.97863464213E+02  0.41800000000E+01 0.  1.
        -11    1    3    3    0    0  0.26727197145E+02 -0.11353058402E+02 -0.20194269985E+02  0.35370093901E+02  0.00000000000E+00 0.  1.
         11    1    3    3    0    0  0.25435613628E+02  0.25882814554E+02  0.77601055537E+02  0.85666880125E+02  0.00000000000E+00 0. -1.
</event>
<event>
 7    1  0.4096326E-006  0.1373388E+03  0.7561462E-02  0.1216955E+00
          1   -1    0    0  501    0  0.00000000000E+00  0.00000000000E+00  0.20426271716E+03  0.20426271716E+03  0.00000000000E+00 0. -1.
         -1   -1    0    0    0  501 -0.00000000000E+00 -0.00000000000E+00 -0.11202391498E+03  0.11202391498E+03  0.00000000000E+00 0.  1.
         23    2    1    2    0    0  0.75471753383E+02 -0.72431195834E+02  0.43565181264E+02  0.14610604194E+03  0.92232243738E+02 0.  0.
          5    1    1    2  502    0 -0.79615264677E+02  0.88569504333E+02  0.64039624598E+00  0.11916807448E+03  0.41800000000E+01 0.  1.
         -5    1    1    2    0  502  0.41435112942E+01 -0.16138308500E+02  0.48033224676E+02  0.51012515718E+02  0.41800000000E+01 0.  1.
        -11    1    3    3    0    0  0.32425402017E+02  0.18782307978E+02  0.37071481554E+01  0.37655341406E+02  0.00000000000E+00 0.  1.
         11    1    3    3    0    0  0.43046351366E+02 -0.91213503812E+02  0.39858033108E+02  0.10845070054E+03  0.00000000000E+00 0. -1.
</event>
<event>
 7    1  0.4945332E-006  0.1633513E+03  0.7561462E-02  0.1184964E+00
          2   -1    0    0  501    0  0.00000000000E+00  0.00000000000E+00  0.79466011625E+02  0.79466011625E+02  0.00000000000E+00 0. -1.
         -2   -1    0    0    0  501 -0.00000000000E+00 -0.00000000000E+00 -0.46844903893E+03  0.46844903893E+03  0.00000000000E+00 0.  1.
         23    2    1    2    0    0  0.12028672647E+03 -0.10207771970E+03 -0.15804535790E+03  0.24153518502E+03  0.92044299240E+02 0.  0.
          5    1    1    2  502    0 -0.12658269769E+03  0.97379278964E+02 -0.13254342411E+03  0.20758404322E+03  0.41800000000E+01 0. -1.
         -5    1    1    2    0  502  0.62959712189E+01  0.46984407383E+01 -0.98394245297E+02  0.98795822313E+02  0.41800000000E+01 0. -1.
        -11    1    3    3    0    0  0.86822169552E+02 -0.67998386842E+02 -0.45544890127E+02  0.11931557633E+03  0.00000000000E+00 0.  1.
         11    1    3    3    0    0  0.33464556921E+02 -0.34079332861E+02 -0.11250046777E+03  0.12221960868E+03  0.00000000000E+00 0. -1.
</event>
<event>
 7    1  0.4096326E-006  0.1153968E+03  0.7561462E-02  0.1250890E+00
          2   -1    0    0  501    0  0.00000000000E+00  0.00000000000E+00  0.88406615149E+02  0.88406615149E+02  0.00000000000E+00 0. -1.
         -2   -1    0    0    0  501 -0.00000000000E+00 -0.00000000000E+00 -0.21084603782E+03  0.21084603782E+03  0.00000000000E+00 0.  1.
         23    2    1    2    0    0  0.65586366931E+02 -0.52639398248E+02 -0.54271052696E+02  0.13383684422E+03  0.88850863450E+02 0.  0.
          5    1    1    2  502    0  0.22567689706E+02 -0.13521096996E+02  0.11843499893E+02  0.29152385363E+02  0.41800000000E+01 0.  1.
         -5    1    1    2    0  502 -0.88154056637E+02  0.66160495244E+02 -0.80011869870E+02  0.13626342338E+03  0.41800000000E+01 0.  1.
        -11    1    3    3    0    0  0.38890690060E+02 -0.49509666823E+01 -0.67086847676E+02  0.77702271367E+02  0.00000000000E+00 0.  1.
         11    1    3    3    0    0  0.26695676870E+02 -0.47688431566E+02  0.12815794980E+02  0.56134572856E+02  0.00000000000E+00 0. -1.
</event>
<event>
 7    1  0.4096326E-006  0.9790933E+02  0.7561462E-02  0.1284755E+00
          2   -1    0    0  501    0  0.00000000000E+00  0.00000000000E+00  0.40273292885E+03  0.40273292885E+03  0.00000000000E+00 0. -1.
         -2   -1    0    0    0  501 -0.00000000000E+00 -0.00000000000E+00 -0.36838978104E+02  0.36838978104E+02  0.00000000000E+00 0.  1.
         23    2    1    2    0    0 -0.19652337245E+02  0.51607795496E+02  0.16421871366E+03  0.19591263984E+03  0.91457080741E+02 0.  0.
          5    1    1    2  502    0  0.35713926366E+02  0.30099099795E+02  0.11089207977E+03  0.12039919477E+03  0.41800000000E+01 0.  1.
         -5    1    1    2    0  502 -0.16061589121E+02 -0.81706895290E+02  0.90783157318E+02  0.12326007235E+03  0.41800000000E+01 0.  1.
        -11    1    3    3    0    0 -0.29390261371E+02  0.30776236316E+02  0.16737645732E+03  0.17270160002E+03  0.00000000000E+00 0. -1.
         11    1    3    3    0    0  0.97379241268E+01  0.20831559180E+02 -0.31577436645E+01  0.23211039813E+02  0.00000000000E+00 0.  1.
</event>
<event>
 7    1  0.4096326E-006  0.4011422E+03  0.7561462E-02  0.1043385E+00
          1   -1    0    0  501    0  0.00000000000E+00  0.00000000000E+00  0.63996756983E+03  0.63996756983E+03  0.00000000000E+00 0. -1.
         -1   -1    0    0    0  501 -0.00000000000E+00 -0.00000000000E+00 -0.25250242572E+03  0.25250242572E+03  0.00000000000E+00 0.  1.
         23    2    1    2    0    0 -0.38677374880E+03  0.18448588692E+01  0.20232376187E+03  0.44579338179E+03  0.90551081562E+02 0.  0.
          5    1    1    2  502    0  0.12814831485E+03  0.57281773766E+02  0.51367726860E+02  0.14953029113E+03  0.41800000000E+01 0. -1.
         -5    1    1    2    0  502  0.25862543395E+03 -0.59126632635E+02  0.13377365538E+03  0.29714632262E+03  0.41800000000E+01 0. -1.
        -11    1    3    3    0    0 -0.13295879357E+03  0.42254338202E+02  0.84047358951E+02  0.16287242993E+03  0.00000000000E+00 0. -1.
         11    1    3    3    0    0 -0.25381495523E+03 -0.40409479332E+02  0.11827640292E+03  0.28292095187E+03  0.00000000000E+00 0.  1.
</event>
<event>
 7    1  0.4096326E-006  0.1043992E+03  0.7561462E-02  0.1271308E+00
          4   -1    0    0  501    0  0.00000000000E+00  0.00000000000E+00  0.58715158240E+03  0.58715158240E+03  0.00000000000E+00 0.  1.
         -4   -1    0    0    0  501 -0.00000000000E+00 -0.00000000000E+00 -0.28310778838E+02  0.28310778838E+02  0.00000000000E+00 0. -1.
         23    2    1    2    0    0 -0.59033318884E+02  0.31168925180E+02  0.29426387274E+03  0.31528825566E+03  0.91427691232E+02 0.  0.
          5    1    1    2  502    0  0.16582843424E+01 -0.37528315302E+02  0.99949686431E+01  0.39095986425E+02  0.41800000000E+01 0. -1.
         -5    1    1    2    0  502  0.57375034541E+02  0.63593901218E+01  0.25458196218E+03  0.26107811915E+03  0.41800000000E+01 0. -1.
        -11    1    3    3    0    0 -0.56380373065E+02  0.61063913185E+02  0.22136875242E+03  0.23645649179E+03  0.00000000000E+00 0.  1.
         11    1    3    3    0    0 -0.26529458191E+01 -0.29894988005E+02  0.72895120319E+02  0.78831763875E+02  0.00000000000E+00 0. -1.
</event>
<event>
 7    1  0.4096326E-006  0.1205495E+03  0.7561462E-02  0.1242193E+00
          2   -1    0    0  501    0  0.00000000000E+00  0.00000000000E+00  0.13979778168E+04  0.13979778168E+04  0.00000000000E+00 0. -1.
         -2   -1    0    0    0  501 -0.00000000000E+00 -0.00000000000E+00 -0.16998397317E+02  0.16998397317E+02  0.00000000000E+00 0.  1.
         23    2    1    2    0    0  0.23427307595E+02  0.79712927139E+02  0.54563487621E+03  0.55934814610E+03  0.90829185414E+02 0.  0.
          5    1    1    2  502    0 -0.56677835301E+02 -0.20624788498E+02  0.71406703067E+03  0.71662190561E+03  0.41800000000E+01 0. -1.
         -5    1    1    2    0  502  0.33250527706E+02 -0.59088138641E+02  0.12127751260E+03  0.13900616239E+03  0.41800000000E+01 0.  1.
        -11    1    3    3    0    0 -0.12399371254E+02 -0.10114924420E+02  0.24140024490E+02  0.28961990365E+02  0.00000000000E+00 0.  1.
         11    1    3    3    0    0  0.35826678849E+02  0.89827851559E+02  0.52149485172E+03  0.53038615574E+03  0.00000000000E+00 0. -1.
</event>
<event>
 7    1  0.4096326E-006  0.2705915E+03  0.7561462E-02  0.1100942E+00
          1   -1    0    0  501    0  0.00000000000E+00  0.00000000000E+00  0.77534184760E+03  0.77534184760E+03  0.00000000000E+00 0. -1.
         -1   -1    0    0    0  501 -0.00000000000E+00 -0.00000000000E+00 -0.10870433674E+03  0.10870433674E+03  0.00000000000E+00 0.  1.
         23    2    1    2    0    0 -0.25411135260E+03 -0.49177966853E+00  0.46108484780E+03  0.53408629805E+03  0.89867210511E+02 0.  0.
          5    1    1    2  502    0  0.12355585902E+03  0.62087206589E+02  0.90467078209E+02  0.16529560236E+03  0.41800000000E+01 0.  1.
         -5    1    1    2    0  502  0.13055549358E+03 -0.61595426920E+02  0.11508558485E+03  0.18466428393E+03  0.41800000000E+01 0.  1.
        -11    1    3    3    0    0 -0.21913692428E+03 -0.16909972055E+02  0.43528749141E+03  0.48762909974E+03  0.00000000000E+00 0. -1.
         11    1    3    3    0    0 -0.34974428327E+02  0.16418192386E+02  0.25797356390E+02  0.46457198309E+02  0.00000000000E+00 0.  1.
</event>
<event>
 7    1  0.4096326E-006  0.1274322E+03  0.7561462E-02  0.1231316E+00
         -1   -1    0    0    0  501 -0.00000000000E+00  0.00000000000E+00  0.13236922330E+04  0.13236922330E+04  0.00000000000E+00 0.  1.
          1   -1    0    0  501    0  0.00000000000E+00 -0.00000000000E+00 -0.15454591255E+02  0.15454591255E+02  0.00000000000E+00 0. -1.
         23    2    1    2    0    0 -0.76227881989E+02 -0.32501753494E+02  0.40602729460E+03  0.42454454476E+03  0.92265121019E+02 0.  0.
          5    1    1    2  502    0 -0.21268848166E+02  0.24948239885E+02  0.79583366615E+02  0.86172868221E+02  0.41800000000E+01 0. -1.
         -5    1    1    2    0  502  0.97496730155E+02  0.75535136091E+01  0.82262698057E+03  0.82842941130E+03  0.41800000000E+01 0. -1.
        -11    1    3    3    0    0  0.79533487278E+01  0.22174550150E+02  0.71395340900E+02  0.75181521217E+02  0.00000000000E+00 0. -1.
         11    1    3    3    0    0 -0.84181230717E+02 -0.54676303644E+02  0.33463195370E+03  0.34936302355E+03  0.00000000000E+00 0.  1.
</event>
<event>
 7    1  0.4096326E-006  0.1439905E+03  0.7561462E-02  0.1208058E+00
         -1   -1    0    0    0  501 -0.00000000000E+00  0.00000000000E+00  0.16092550952E+02  0.16092550952E+02  0.00000000000E+00 0.  1.
          1   -1    0    0  501    0  0.00000000000E+00 -0.00000000000E+00 -0.18272516785E+04  0.18272516785E+04  0.00000000000E+00 0. -1.
         23    2    1    2    0    0 -0.12699439633E+03 -0.32346740982E+02 -0.79355908952E+03  0.80974448807E+03  0.93681476521E+02 0.  0.
          5    1    1    2  502    0  0.75004031236E+02  0.42587686094E+01 -0.19724473211E+03  0.21110826265E+03  0.41800000000E+01 0.  1.
         -5    1    1    2    0  502  0.51990365094E+02  0.28087972372E+02 -0.82035530588E+03  0.82249147870E+03  0.41800000000E+01 0.  1.
        -11    1    3    3    0    0 -0.19525253369E+02  0.24973111987E+02 -0.83503075265E+02  0.89317721758E+02  0.00000000000E+00 0.  1.
         11    1    3    3    0    0 -0.10746914296E+03 -0.57319852969E+02 -0.71005601425E+03  0.72042676631E+03  0.00000000000E+00 0. -1.
</event>
<event>
 6    1  0.4096326E-006  0.7129438E+02  0.7561462E-02  0.1355746E+00
         -2   -1    0    0    0  501 -0.00000000000E+00  0.00000000000E+00  0.33850063548E+02  0.33850063548E+02  0.00000000000E+00 0.  1.
          2   -1    0    0  501    0  0.00000000000E+00 -0.00000000000E+00 -0.29257051639E+03  0.29257051639E+03  0.00000000000E+00 0. -1.
          5    1    1    2  502    0  0.70235382489E+02 -0.22590450622E+01 -0.26056363035E+02  0.75063431127E+02  0.41800000000E+01 0.  1.
         -5    1    1    2    0  502 -0.12625874813E+02  0.33818991734E+01 -0.14001674001E+03  0.14068763215E+03  0.41800000000E+01 0.  1.
        -11    1    1    2    0    0 -0.47327214685E+02  0.29294452642E+01 -0.84654836550E+02  0.97030347061E+02  0.00000000000E+00 0. -1.
         11    1    1    2    0    0 -0.10282292991E+02 -0.40522993753E+01 -0.79925132436E+01  0.13639169598E+02  0.00000000000E+00 0.  1.
</event>
<event>
 7    1  0.4096326E-006  0.1126737E+03  0.7561462E-02  0.1255697E+00
          1   -1    0    0  501    0  0.00000000000E+00  0.00000000000E+00  0.65769026411E+02  0.65769026411E+02  0.00000000000E+00 0. -1.
         -1   -1    0    0    0  501 -0.00000000000E+00 -0.00000000000E+00 -0.22000446371E+03  0.22000446371E+03  0.00000000000E+00 0.  1.
         23    2    1    2    0    0 -0.32798697407E+02  0.29276979629E+02 -0.32414883628E+02  0.10571315610E+03  0.90507737813E+02 0.  0.
          5    1    1    2  502    0  0.71220262003E+02  0.70479129791E+01 -0.38726440145E+02  0.81481337516E+02  0.41800000000E+01 0. -1.
         -5    1    1    2    0  502 -0.38421564596E+02 -0.36324892608E+02 -0.83094113523E+02  0.98578996501E+02  0.41800000000E+01 0. -1.
        -11    1    3    3    0    0  0.16289897753E+02  0.45968177508E+02 -0.15308387298E+02  0.51115367883E+02  0.00000000000E+00 0.  1.
         11    1    3    3    0    0 -0.49088595160E+02 -0.16691197879E+02 -0.17106496330E+02  0.54597788216E+02  0.00000000000E+00 0. -1.
</event>
<event>
 7    1  0.4096326E-006  0.1261706E+03  0.7561462E-02  0.1233251E+00
         -2   -1    0    0    0  501 -0.00000000000E+00  0.00000000000E+00  0.14374642002E+03  0.14374642002E+03  0.00000000000E+00 0.  1.
          2   -1    0    0  501    0  0.00000000000E+00 -0.00000000000E+00 -0.13454834912E+03  0.13454834912E+03  0.00000000000E+00 0. -1.
         23    2    1    2    0    0  0.40558880504E+02  0.49350462831E+02 -0.46411996478E+02  0.12528328671E+03  0.97269407021E+02 0.  0.
          5    1    1    2  502    0 -0.10313973075E+02  0.42756220493E+02  0.79006854901E+01  0.44881685158E+02  0.41800000000E+01 0. -1.
         -5    1    1    2    0  502 -0.30244907429E+02 -0.92106683324E+02  0.47709381885E+02  0.10812979727E+03  0.41800000000E+01 0.  1.
        -11    1    3    3    0    0 -0.17069438985E+02 -0.16415889244E+02 -0.26618052161E+02  0.35628189229E+02  0.00000000000E+00 0.  1.
         11    1    3    3    0    0  0.57628319489E+02  0.65766352075E+02 -0.19793944318E+02  0.89655097480E+02  0.00000000000E+00 0. -1.
</event>
<event>
 7    1  0.4096326E-006  0.1567928E+03  0.7561462E-02  0.1192366E+00
          2   -1    0    0  501    0  0.00000000000E+00  0.00000000000E+00  0.38356765592E+02  0.38356765592E+02  0.00000000000E+00 0. -1.
         -2   -1    0    0    0  501 -0.00000000000E+00 -0.00000000000E+00 -0.69736689368E+03  0.69736689368E+03  0.00000000000E+00 0.  1.
         23    2    1    2    0    0  0.14192752451E+02 -0.14621535205E+02 -0.11459292593E+03  0.14420630556E+03  0.85139276350E+02 0.  0.
          5    1    1    2  502    0  0.80607364298E+02 -0.63870145325E+02 -0.31124504413E+03  0.32782295913E+03  0.41800000000E+01 0. -1.
         -5    1    1    2    0  502 -0.94800116749E+02  0.78491680531E+02 -0.23317215803E+03  0.26369439457E+03  0.41800000000E+01 0.  1.
        -11    1    3    3    0    0 -0.32462768158E+02 -0.23421657037E+02 -0.50376287979E+02  0.64344197294E+02  0.00000000000E+00 0. -1.
         11    1    3    3    0    0  0.46655520609E+02  0.88001218320E+01 -0.64216637951E+02  0.79862108270E+02  0.00000000000E+00 0.  1.
</event>
<event>
 7    1  0.4096326E-006  0.2022594E+03  0.7561462E-02  0.1147847E+00
         -1   -1    0    0    0  501 -0.00000000000E+00  0.00000000000E+00  0.84682581504E+02  0.84682581504E+02  0.00000000000E+00 0.  1.
          1   -1    0    0  501    0  0.00000000000E+00 -0.00000000000E+00 -0.62085633838E+03  0.62085633838E+03  0.00000000000E+00 0. -1.
         23    2    1    2    0    0  0.12956240658E+03 -0.12023797568E+03 -0.40767005894E+03  0.45374301657E+03  0.91892655498E+02 0.  0.
          5    1    1    2  502    0 -0.84724257957E+02  0.24001125070E+01 -0.24571927103E+02  0.88347113297E+02  0.41800000000E+01 0. -1.
         -5    1    1    2    0  502 -0.44838148622E+02  0.11783786317E+03 -0.10393177083E+03  0.16344879001E+03  0.41800000000E+01 0. -1.
        -11    1    3    3    0    0  0.10163148934E+03 -0.41173291031E+02 -0.17600438301E+03  0.20736861469E+03  0.00000000000E+00 0. -1.
         11    1    3    3    0    0  0.27930917236E+02 -0.79064684650E+02 -0.23166567593E+03  0.24637440188E+03  0.00000000000E+00 0.  1.
</event>
<event>
 7    1  0.4096326E-006  0.1297695E+03  0.7561462E-02  0.1227798E+00
         -1   -1    0    0    0  501 -0.00000000000E+00  0.00000000000E+00  0.94411685044E+02  0.94411685044E+02  0.00000000000E+00 0.  1.
          1   -1    0    0  501    0  0.00000000000E+00 -0.00000000000E+00 -0.21658747242E+03  0.21658747242E+03  0.00000000000E+00 0. -1.
         23    2    1    2    0    0  0.59908688685E+02  0.59701163505E+02 -0.69150674553E+02  0.15095588780E+03  0.10417573790E+03 0.  0.
          5    1    1    2  502    0 -0.15512599907E+02  0.35708557152E+02 -0.36325693176E+02  0.53411330207E+02  0.41800000000E+01 0.  1.
         -5    1    1    2    0  502 -0.44396088778E+02 -0.95409720658E+02 -0.16699419647E+02  0.10663193945E+03  0.41800000000E+01 0.  1.
        -11    1    3    3    0    0  0.53630097369E+02 -0.13954487404E+01  0.59064894935E+01  0.53972411833E+02  0.00000000000E+00 0. -1.
         11    1    3    3    0    0  0.62785913160E+01  0.61096612246E+02 -0.75057164047E+02  0.96983475972E+02  0.00000000000E+00 0.  1.
</event>
<event>
 7    1  0.4096326E-006  0.7602089E+02  0.7561462E-02  0.1340738E+00
         -1   -1    0    0    0  501 -0.00000000000E+00  0.00000000000E+00  0.41674457703E+02  0.41674457703E+02  0.00000000000E+00 0.  1.
          1   -1    0    0  501    0  0.00000000000E+00 -0.00000000000E+00 -0.36116928330E+03  0.36116928330E+03  0.00000000000E+00 0. -1.
         23    2    1    2    0    0 -0.16840152857E+02  0.47724568472E+02 -0.18162869930E+03  0.20993260864E+03  0.92311919997E+02 0.  0.
          5    1    1    2  502    0 -0.70313697984E+01 -0.37499024244E+02  0.12420083091E+02  0.40340399657E+02  0.41800000000E+01 0.  1.
         -5    1    1    2    0  502  0.23871522656E+02 -0.10225544229E+02 -0.15028620938E+03  0.15257073271E+03  0.41800000000E+01 0.  1.
        -11    1    3    3    0    0  0.24253155175E+02  0.38079629931E+02 -0.34362842523E+02  0.56736925348E+02  0.00000000000E+00 0.  1.
         11    1    3    3    0    0 -0.41093308033E+02  0.96449385414E+01 -0.14726585678E+03  0.15319568329E+03  0.00000000000E+00 0. -1.
</event>
<event>
 7    1  0.4096326E-006  0.1009623E+03  0.7561462E-02  0.1278285E+00
          3   -1    0    0  501    0  0.00000000000E+00  0.00000000000E+00  0.86889496214E+02  0.86889496214E+02  0.00000000000E+00 0. -1.
         -3   -1    0    0    0  501 -0.00000000000E+00 -0.00000000000E+00 -0.23248513331E+03  0.23248513331E+03  0.00000000000E+00 0.  1.
         23    2    1    2    0    0  0.76770436573E+02 -0.29332362940E+02 -0.19327881045E+02  0.12355488913E+03  0.90211729815E+02 0.  0.
          5    1    1    2  502    0  0.12581615889E+02  0.73312890709E+01 -0.98430691315E+02  0.99589749727E+02  0.41800000000E+01 0. -1.
         -5    1    1    2    0  502 -0.89352052461E+02  0.22001073870E+02 -0.27837064739E+02  0.96229990667E+02  0.41800000000E+01 0. -1.
        -11    1    3    3    0    0  0.45705814443E+02 -0.41073494183E+02  0.26532488836E+02  0.66932999052E+02  0.00000000000E+00 0. -1.
         11    1    3    3    0    0  0.31064622130E+02  0.11741131243E+02 -0.45860369881E+02  0.56621890082E+02  0.00000000000E+00 0.  1.
</event>
<event>
 7    1  0.4096326E-006  0.1427112E+03  0.7561462E-02  0.1209727E+00
          2   -1    0    0  501    0  0.00000000000E+00  0.00000000000E+00  0.68048287902E+03  0.68048287902E+03  0.00000000000E+00 0. -1.
         -2   -1    0    0    0  501 -0.00000000000E+00 -0.00000000000E+00 -0.38363724867E+02  0.38363724867E+02  0.00000000000E+00 0.  1.
         23    2    1    2    0    0  0.25581457405E+02 -0.98660134771E+02  0.43563774850E+03  0.45679682383E+03  0.92167549529E+02 0.  0.
          5    1    1    2  502    0 -0.56577213917E+02  0.10297086478E+03  0.11177444798E+03  0.16221892537E+03  0.41800000000E+01 0.  1.
         -5    1    1    2    0  502  0.30995756512E+02 -0.43107300104E+01  0.94706957671E+02  0.99830854680E+02  0.41800000000E+01 0.  1.
        -11    1    3    3    0    0  0.74549164565E+01 -0.11295507773E+03  0.33742089238E+03  0.35590347565E+03  0.00000000000E+00 0.  1.
         11    1    3    3    0    0  0.18126540948E+02  0.14294942959E+02  0.98216856125E+02  0.10089334819E+03  0.00000000000E+00 0. -1.
</event>
<event>
 7    1  0.4096326E-006  0.8667570E+02  0.7561462E-02  0.1311108E+00
          2   -1    0    0  501    0  0.00000000000E+00  0.00000000000E+00  0.14224932391E+03  0.14224932391E+03  0.00000000000E+00 0.  1.
         -2   -1    0    0    0  501 -0.00000000000E+00 -0.00000000000E+00 -0.99851087895E+02  0.99851087895E+02  0.00000000000E+00 0. -1.
         23    2    1    2    0    0  0.30772308966E+02  0.36726124736E+02  0.28542185595E+02  0.10743821640E+03  0.91829029985E+02 0.  0.
          5    1    1    2  502    0  0.16116897428E+02 -0.47109368716E+02  0.52797581029E+02  0.72691842500E+02  0.41800000000E+01 0.  1.
         -5    1    1    2    0  502 -0.46889206394E+02  0.10383243980E+02 -0.38941530614E+02  0.61970352899E+02  0.41800000000E+01 0.  1.
        -11    1    3    3    0    0  0.25458288417E+02  0.52601521123E+02 -0.15384468454E+02  0.60429515497E+02  0.00000000000E+00 0. -1.
         11    1    3    3    0    0  0.53140205497E+01 -0.15875396387E+02  0.43926654050E+02  0.47008700906E+02  0.00000000000E+00 0.  1.
</event>
<event>
 7    1  0.4096326E-006  0.1428987E+03  0.7561462E-02  0.1209481E+00
         -1   -1    0    0    0  501 -0.00000000000E+00  0.00000000000E+00  0.14668304536E+02  0.14668304536E+02  0.00000000000E+00 0.  1.
          1   -1    0    0  501    0  0.00000000000E+00 -0.00000000000E+00 -0.14889376216E+04  0.14889376216E+04  0.00000000000E+00 0. -1.
         23    2    1    2    0    0 -0.95226024628E+02 -0.15357707786E+02 -0.70088462567E+03  0.71347612832E+03  0.92222948490E+02 0.  0.
          5    1    1    2  502    0  0.11201622166E+03 -0.20079824161E+02 -0.66740232809E+03  0.67704813211E+03  0.41800000000E+01 0. -1.
         -5    1    1    2    0  502 -0.16790197030E+02  0.35437531947E+02 -0.10598236325E+03  0.11308166566E+03  0.41800000000E+01 0.  1.
        -11    1    3    3    0    0 -0.11312529611E+03 -0.89796868970E+01 -0.62702813141E+03  0.63721444191E+03  0.00000000000E+00 0.  1.
         11    1    3    3    0    0  0.17899271483E+02 -0.63780208887E+01 -0.73856494264E+02  0.76261686417E+02  0.00000000000E+00 0. -1.
</event>
<event>
 7    1  0.4096326E-006  0.9702361E+02  0.7561462E-02  0.1286682E+00
          2   -1    0    0  501    0  0.00000000000E+00  0.00000000000E+00  0.42955673653E+03  0.42955673653E+03  0.00000000000E+00 0. -1.
         -2   -1    0    0    0  501 -0.00000000000E+00 -0.00000000000E+00 -0.32571094013E+02  0.32571094013E+02  0.00000000000E+00 0.  1.
         23    2    1    2    0    0 -0.37338866878E+02 -0.11257699150E+01  0.22712704519E+03  0.24789714834E+03  0.92037183598E+02 0.  0.
          5    1    1    2  502    0  0.71255257902E+02  0.98389981184E+01  0.16312213239E+03  0.17832672301E+03  0.41800000000E+01 0.  1.
         -5    1    1    2    0  502 -0.33916391024E+02 -0.87132282034E+01  0.67364649420E+01  0.35903959193E+02  0.41800000000E+01 0.  1.
        -11    1    3    3    0    0 -0.46466116146E+02  0.29320322393E+02  0.19543826599E+03  0.20301452428E+03  0.00000000000E+00 0. -1.
         11    1    3    3    0    0  0.91272492681E+01 -0.30446092308E+02  0.31688779193E+02  0.44882624063E+02  0.00000000000E+00 0.  1.
</event>
<event>
 7    1  0.4096326E-006  0.6848566E+02  0.7561462E-02  0.1365320E+00
         -2   -1    0    0    0  501 -0.00000000000E+00  0.00000000000E+00  0.16519891980E+03  0.16519891980E+03  0.00000000000E+00 0.  1.
          2   -1    0    0  501    0  0.00000000000E+00 -0.00000000000E+00 -0.19120810494E+03  0.19120810494E+03  0.00000000000E+00 0. -1.
         23    2    1    2    0    0 -0.34178792425E+01  0.40011562482E+02 -0.14399781657E+03  0.17632917656E+03  0.93509359414E+02 0.  0.
          5    1    1    2  502    0 -0.34107721917E+01 -0.36135271035E+01 -0.28341809813E+02  0.29076133315E+02  0.41800000000E+01 0. -1.
         -5    1    1    2    0  502  0.68286514343E+01 -0.36398035379E+02  0.14633044124E+03  0.15100171487E+03  0.41800000000E+01 0.  1.
        -11    1    3    3    0    0 -0.43753662130E+02  0.23036582830E+02 -0.40350430890E+02  0.63821817361E+02  0.00000000000E+00 0.  1.
         11    1    3    3    0    0  0.40335782887E+02  0.16974979652E+02 -0.10364738568E+03  0.11250735919E+03  0.00000000000E+00 0. -1.
</event>
<event>
 7    1  0.4096326E-006  0.1768052E+03  0.7561462E-02  0.1170931E+00
         -1   -1    0    0    0  501 -0.00000000000E+00  0.00000000000E+00  0.16974383226E+03  0.16974383226E+03  0.00000000000E+00 0.  1.
          1   -1    0    0  501    0  0.00000000000E+00 -0.00000000000E+00 -0.20731122255E+03  0.20731122255E+03  0.00000000000E+00 0. -1.
         23    2    1    2    0    0  0.71733253786E+02 -0.12601038284E+03  0.30333616408E+02  0.17387420214E+03  0.91037539523E+02 0.  0.
          5    1    1    2  502    0  0.19712853089E+02  0.78584131109E+02 -0.57755445429E+02  0.99585270576E+02  0.41800000000E+01 0. -1.
         -5    1    1    2    0  502 -0.91446106875E+02  0.47426251734E+02 -0.10145561268E+02  0.10359558210E+03  0.41800000000E+01 0. -1.
        -11    1    3    3    0    0  0.73702737855E+01 -0.99507773728E+02  0.53614646826E+01  0.99924287696E+02  0.00000000000E+00 0. -1.
         11    1    3    3    0    0  0.64362980000E+02 -0.26502609114E+02  0.24972151726E+02  0.73949914444E+02  0.00000000000E+00 0.  1.
</event>
<event>
 7    1  0.4096326E-006  0.8493396E+02  0.7561462E-02  0.1315605E+00
         -1   -1    0    0    0  501 -0.00000000000E+00  0.00000000000E+00  0.25413929835E+03  0.25413929835E+03  0.00000000000E+00 0.  1.
          1   -1    0    0  501    0  0.00000000000E+00 -0.00000000000E+00 -0.66959746197E+02  0.66959746197E+02  0.00000000000E+00 0. -1.
         23    2    1    2    0    0 -0.15574543097E+02  0.11452730715E+02 -0.20354921240E+01  0.93450726462E+02  0.91406584088E+02 0.  0.
          5    1    1    2  502    0  0.60026308400E+02  0.28296917866E+02  0.91740242599E+02  0.11330321166E+03  0.41800000000E+01 0. -1.
         -5    1    1    2    0  502 -0.44451765303E+02 -0.39749648581E+02  0.97474801682E+02  0.11434510643E+03  0.41800000000E+01 0. -1.
        -11    1    3    3    0    0 -0.28747285448E+02  0.95191523989E+01 -0.41743147580E+02  0.51570447476E+02  0.00000000000E+00 0. -1.
         11    1    3    3    0    0  0.13172742351E+02  0.19335783165E+01  0.39707655456E+02  0.41880278986E+02  0.00000000000E+00 0.  1.
</event>
<event>
 7    1  0.4096326E-006  0.1120619E+03  0.7561462E-02  0.1256799E+00
         -1   -1    0    0    0  501 -0.00000000000E+00  0.00000000000E+00  0.21005177183E+02  0.21005177183E+02  0.00000000000E+00 0.  1.
          1   -1    0    0  501    0  0.00000000000E+00 -0.00000000000E+00 -0.69610061383E+03  0.69610061383E+03  0.00000000000E+00 0. -1.
         23    2    1    2    0    0  0.25634366787E+02  0.37917369198E+02 -0.35816893856E+03  0.37332648153E+03  0.94830509938E+02 0.  0.
          5    1    1    2  502    0  0.38691799654E+02 -0.38030079988E+02 -0.70473917710E+02  0.89035879407E+02  0.41800000000E+01 0.  1.
         -5    1    1    2    0  502 -0.64326166441E+02  0.11271079051E+00 -0.24645258038E+03  0.25474343008E+03  0.41800000000E+01 0.  1.
        -11    1    3    3    0    0  0.59681188910E+02  0.85589568087E+01 -0.19948810180E+03  0.20840010271E+03  0.00000000000E+00 0.  1.
         11    1    3    3    0    0 -0.34046822122E+02  0.29358412389E+02 -0.15868083676E+03  0.16492637882E+03  0.00000000000E+00 0. -1.
</event>
<event>
 7    1  0.4096326E-006  0.1448806E+03  0.7561462E-02  0.1206909E+00
          1   -1    0    0  501    0  0.00000000000E+00  0.00000000000E+00  0.50953988711E+02  0.50953988711E+02  0.00000000000E+00 0. -1.
         -1   -1    0    0    0  501 -0.00000000000E+00 -0.00000000000E+00 -0.48504563067E+03  0.48504563067E+03  0.00000000000E+00 0.  1.
         23    2    1    2    0    0 -0.63633245174E+00 -0.10236443753E+03 -0.10838335682E+03  0.17238881668E+03  0.86556739139E+02 0.  0.
          5    1    1    2  502    0  0.59322500752E+02  0.41841378734E+02 -0.19396987942E+03  0.20715126500E+03  0.41800000000E+01 0.  1.
         -5    1    1    2    0  502 -0.58686168300E+02  0.60523058798E+02 -0.13173840572E+03  0.15645953770E+03  0.41800000000E+01 0.  1.
        -11    1    3    3    0    0 -0.61991549462E+01 -0.11690624505E+03 -0.10295135994E+03  0.15589894858E+03  0.00000000000E+00 0.  1.
         11    1    3    3    0    0  0.55628224945E+01  0.14541807516E+02 -0.54319968755E+01  0.16489868101E+02  0.00000000000E+00 0. -1.
</event>
<event>
 7    1  0.4096326E-006  0.1138686E+03  0.7561462E-02  0.1253569E+00
         -1   -1    0    0    0  501 -0.00000000000E+00  0.00000000000E+00  0.48539641801E+03  0.48539641801E+03  0.00000000000E+00 0.  1.
          1   -1    0    0  501    0  0.00000000000E+00 -0.00000000000E+00 -0.59536945527E+02  0.59536945527E+02  0.00000000000E+00 0. -1.
         23    2    1    2    0    0  0.52356143629E+02  0.15134685281E+02  0.76794175205E+01  0.10505676667E+03  0.89485899985E+02 0.  0.
          5    1    1    2  502    0 -0.18823032578E+01 -0.64787977527E+02  0.17995166563E+03  0.19131413816E+03  0.41800000000E+01 0. -1.
         -5    1    1    2    0  502 -0.50473840371E+02  0.49653292246E+02  0.23822838933E+03  0.24856245870E+03  0.41800000000E+01 0. -1.
        -11    1    3    3    0    0  0.12381220280E+02  0.41940873248E+02 -0.21543798865E+02  0.48749017774E+02  0.00000000000E+00 0. -1.
         11    1    3    3    0    0  0.39974923349E+02 -0.26806187967E+02  0.29223216386E+02  0.56307748899E+02  0.00000000000E+00 0.  1.
</event>
<event>
 7    1  0.4096326E-006  0.8957871E+02  0.7561462E-02  0.1303875E+00
         -1   -1    0    0    0  501 -0.00000000000E+00  0.00000000000E+00  0.35848397516E+03  0.35848397516E+03  0.00000000000E+00 0.  1.
          1   -1    0    0  501    0  0.00000000000E+00 -0.00000000000E+00 -0.32743580506E+02  0.32743580506E+02  0.00000000000E+00 0. -1.
         23    2    1    2    0    0 -0.17460473259E+02  0.25425736304E+02  0.97826969429E+02  0.12941987595E+03  0.78918009030E+02 0.  0.
          5    1    1    2  502    0  0.41797808489E+02 -0.47669002775E+02  0.50093766912E+02  0.80908890139E+02  0.41800000000E+01 0.  1.
         -5    1    1    2    0  502 -0.24337335230E+02  0.22243266472E+02  0.17781965831E+03  0.18089878958E+03  0.41800000000E+01 0.  1.
        -11    1    3    3    0    0  0.11438565637E+02 -0.23174216361E+02  0.45772505040E+02  0.52564315894E+02  0.00000000000E+00 0.  1.
         11    1    3    3    0    0 -0.28899038896E+02  0.48599952665E+02  0.52054464389E+02  0.76855560052E+02  0.00000000000E+00 0. -1.
</event>
<event>
 7    1  0.4096326E-006  0.1369593E+03  0.7561462E-02  0.1217480E+00
          2   -1    0    0  501    0  0.00000000000E+00  0.00000000000E+00  0.13568620486E+03  0.13568620486E+03  0.00000000000E+00 0. -1.
         -2   -1    0    0    0  501 -0.00000000000E+00 -0.00000000000E+00 -0.21881201838E+03  0.21881201838E+03  0.00000000000E+00 0.  1.
         23    2    1    2    0    0  0.10403280572E+03  0.57777146665E+02  0.22897868079E+02  0.15187440530E+03  0.91545066935E+02 0.  0.
          5    1    1    2  502    0 -0.10142607738E+03 -0.75623934004E+02 -0.38058797352E+02  0.13218234762E+03  0.41800000000E+01 0. -1.
         -5    1    1    2    0  502 -0.26067283318E+01  0.17846787339E+02 -0.67964884241E+02  0.70441470320E+02  0.41800000000E+01 0. -1.
        -11    1    3    3    0    0  0.92773626780E+02  0.27879293123E+02  0.50865679605E+02  0.10941443311E+03  0.00000000000E+00 0. -1.
         11    1    3    3    0    0  0.11259178936E+02  0.29897853542E+02 -0.27967811526E+02  0.42459972189E+02  0.00000000000E+00 0.  1.
</event>
<event>
 7    1  0.5290961E-006  0.1235345E+03  0.7561462E-02  0.1237377E+00
         -2   -1    0    0    0  501 -0.00000000000E+00  0.00000000000E+00  0.12373332386E+03  0.12373332386E+03  0.00000000000E+00 0.  1.
          2   -1    0    0  501    0  0.00000000000E+00 -0.00000000000E+00 -0.19957641779E+03  0.19957641779E+03  0.00000000000E+00 0. -1.
         23    2    1    2    0    0 -0.31662876055E+02  0.10004584108E+03 -0.79436212599E+02  0.15999359883E+03  0.90973247468E+02 0.  0.
          5    1    1    2  502    0  0.24889609575E+02  0.11089979006E+02  0.37780462800E+02  0.46768750983E+02  0.41800000000E+01 0. -1.
         -5    1    1    2    0  502  0.67732664801E+01 -0.11113582009E+03 -0.34187344130E+02  0.11654739184E+03  0.41800000000E+01 0. -1.
        -11    1    3    3    0    0 -0.13878879652E+02  0.80369897160E+02 -0.58445074581E+01  0.81768587717E+02  0.00000000000E+00 0.  1.
         11    1    3    3    0    0 -0.17783996403E+02  0.19675943925E+02 -0.73591705141E+02  0.78225011109E+02  0.00000000000E+00 0. -1.
</event>
<event>
 7    1  0.4096326E-006  0.1085194E+03  0.7561462E-02  0.1263337E+00
          1   -1    0    0  501    0  0.00000000000E+00  0.00000000000E+00  0.44330596722E+02  0.44330596722E+02  0.00000000000E+00 0. -1.
         -1   -1    0    0    0  501 -0.00000000000E+00 -0.00000000000E+00 -0.56496218068E+03  0.56496218068E+03  0.00000000000E+00 0.  1.
         23    2    1    2    0    0 -0.33753533980E+02 -0.18686307250E+02 -0.29000544044E+02  0.10310261430E+03  0.91107839324E+02 0.  0.
          5    1    1    2  502    0 -0.15997988062E+02 -0.39704887827E+02 -0.20326865337E+03  0.20776917861E+03  0.41800000000E+01 0. -1.
         -5    1    1    2    0  502  0.49751522043E+02  0.58391195077E+02 -0.28836238655E+03  0.29842098449E+03  0.41800000000E+01 0.  1.
        -11    1    3    3    0    0  0.29394227032E+02  0.48880170725E+01 -0.17982155056E+02  0.34803321597E+02  0.00000000000E+00 0.  1.
         11    1    3    3    0    0 -0.63147761012E+02 -0.23574324323E+02 -0.11018388988E+02  0.68299292705E+02  0.00000000000E+00 0. -1.
</event>
<event>
 7    1  0.4096326E-006  0.2091098E+03  0.7561462E-02  0.1142273E+00
          1   -1    0    0  501    0  0.00000000000E+00  0.00000000000E+00  0.17623375580E+04  0.17623375580E+04  0.00000000000E+00 0. -1.
         -1   -1    0    0    0  501 -0.00000000000E+00 -0.00000000000E+00 -0.26593398636E+02  0.26593398636E+02  0.00000000000E+00 0.  1.
         23    2    1    2    0    0  0.17818486459E+03  0.54299585161E+02  0.76042051005E+03  0.78812819325E+03  0.90600253703E+02 0.  0.
          5    1    1    2  502    0  0.17145676949E+02  0.70218349566E+01  0.10590641871E+03  0.10759610741E+03  0.41800000000E+01 0. -1.
         -5    1    1    2    0  502 -0.19533054154E+03 -0.61321420118E+02  0.86941723064E+03  0.89320665602E+03  0.41800000000E+01 0. -1.
        -11    1    3    3    0    0  0.26228895785E+02  0.31186517472E+02  0.71756606031E+02  0.82520084556E+02  0.00000000000E+00 0.  1.
         11    1    3    3    0    0  0.15195596881E+03  0.23113067690E+02  0.68866390402E+03  0.70560810870E+03  0.00000000000E+00 0. -1.
</event>
<event>
 7    1  0.4096326E-006  0.1013086E+03  0.7561462E-02  0.1277568E+00
         -2   -1    0    0    0  501 -0.00000000000E+00  0.00000000000E+00  0.15288429209E+03  0.15288429209E+03  0.00000000000E+00 0.  1.
          2   -1    0    0  501    0  0.00000000000E+00 -0.00000000000E+00 -0.16040157981E+03  0.16040157981E+03  0.00000000000E+00 0. -1.
         23    2    1    2    0    0  0.58799789829E+02 -0.79656677773E+01 -0.10038277152E+03  0.14656562759E+03  0.88791414152E+02 0.  0.
          5    1    1    2  502    0  0.36503273236E+02  0.16187979117E+02  0.13510657569E+02  0.42362128048E+02  0.41800000000E+01 0. -1.
         -5    1    1    2    0  502 -0.95303063066E+02 -0.82223113397E+01  0.79354826225E+02  0.12435811626E+03  0.41800000000E+01 0. -1.
        -11    1    3    3    0    0  0.22336908668E+02 -0.18238000960E+02  0.94799788575E+01  0.30355101169E+02  0.00000000000E+00 0.  1.
         11    1    3    3    0    0  0.36462881161E+02  0.10272333183E+02 -0.10986275038E+03  0.11621052643E+03  0.00000000000E+00 0. -1.
</event>
<event>
 7    1  0.4096326E-006  0.8086005E+02  0.7561462E-02  0.1326628E+00
          1   -1    0    0  501    0  0.00000000000E+00  0.00000000000E+00  0.13271249774E+03  0.13271249774E+03  0.00000000000E+00 0.  1.
         -1   -1    0    0    0  501 -0.00000000000E+00 -0.00000000000E+00 -0.10202074921E+03  0.10202074921E+03  0.00000000000E+00 0. -1.
         23    2    1    2    0    0  0.24004489371E+02  0.25469381630E+02  0.34983343334E+02  0.10476924088E+03  0.92346383864E+02 0.  0.
          5    1    1    2  502    0 -0.31309570213E+02  0.35395567401E+02  0.33274037599E+02  0.57946262664E+02  0.41800000000E+01 0.  1.
         -5    1    1    2    0  502  0.73050808419E+01 -0.60864949031E+02 -0.37565632405E+02  0.72017743401E+02  0.41800000000E+01 0.  1.
        -11    1    3    3    0    0  0.25100307110E+02 -0.21519203514E+01 -0.26983869963E+02  0.36915923616E+02  0.00000000000E+00 0. -1.
         11    1    3    3    0    0 -0.10958177390E+01  0.27621301981E+02  0.61967213297E+02  0.67853317262E+02  0.00000000000E+00 0.  1.
</event>
<event>
 7    1  0.4096326E-006  0.1313406E+03  0.7561462E-02  0.1225480E+00
          2   -1    0    0  501    0  0.00000000000E+00  0.00000000000E+00  0.43847145792E+02  0.43847145792E+02  0.00000000000E+00 0. -1.
         -2   -1    0    0    0  501 -0.00000000000E+00 -0.00000000000E+00 -0.48033200975E+03  0.48033200975E+03  0.00000000000E+00 0.  1.
         23    2    1    2    0    0 -0.84211461761E+02  0.35067468868E+02 -0.14377587245E+03  0.19304811013E+03  0.90965782910E+02 0.  0.
          5    1    1    2  502    0  0.43100505290E+01 -0.52639128024E+02 -0.42706276423E+02  0.68049634684E+02  0.41800000000E+01 0.  1.
         -5    1    1    2    0  502  0.79901411232E+02  0.17571659156E+02 -0.25000271508E+03  0.26308141073E+03  0.41800000000E+01 0.  1.
        -11    1    3    3    0    0 -0.16931989260E+02 -0.29832853275E+02 -0.50017694802E+02  0.60650318945E+02  0.00000000000E+00 0. -1.
         11    1    3    3    0    0 -0.67279472501E+02  0.64900322143E+02 -0.93758177652E+02  0.13239779119E+03  0.00000000000E+00 0.  1.
</event>
<event>
 7    1  0.4096326E-006  0.9914270E+02  0.7561462E-02  0.1282109E+00
          1   -1    0    0  501    0  0.00000000000E+00  0.00000000000E+00  0.14872413138E+03  0.14872413138E+03  0.00000000000E+00 0. -1.
         -1   -1    0    0    0  501 -0.00000000000E+00 -0.00000000000E+00 -0.83648470707E+02  0.83648470707E+02  0.00000000000E+00 0.  1.
         23    2    1    2    0    0 -0.32020352807E+01 -0.27355860903E+02  0.28571682844E+02  0.99187102030E+02  0.90901837126E+02 0.  0.
          5    1    1    2  502    0 -0.27789086502E+02 -0.34637916574E+02 -0.14643778313E+02  0.46946046015E+02  0.41800000000E+01 0.  1.
         -5    1    1    2    0  502  0.30991121783E+02  0.61993777477E+02  0.51147756148E+02  0.86239454046E+02  0.41800000000E+01 0.  1.
        -11    1    3    3    0    0  0.27600880474E+01 -0.55454414204E+02 -0.41119175414E+01  0.55675111196E+02  0.00000000000E+00 0.  1.
         11    1    3    3    0    0 -0.59621233280E+01  0.28098553301E+02  0.32683600385E+02  0.43511990834E+02  0.00000000000E+00 0. -1.
</event>
<event>
 7    1  0.4096326E-006  0.1138286E+03  0.7561462E-02  0.1253640E+00
          2   -1    0    0  501    0  0.00000000000E+00  0.00000000000E+00  0.25169202790E+03  0.25169202790E+03  0.00000000000E+00 0. -1.
         -2   -1    0    0    0  501 -0.00000000000E+00 -0.00000000000E+00 -0.60644818683E+02  0.60644818683E+02  0.00000000000E+00 0.  1.
         23    2    1    2    0    0  0.32257025337E+02  0.17912963369E+02  0.82122086254E+02  0.12741146342E+03  0.90156830137E+02 0.  0.
          5    1    1    2  502    0 -0.57377315882E+02 -0.69325688712E+02  0.51587688461E+02  0.10381218374E+03  0.41800000000E+01 0. -1.
         -5    1    1    2    0  502  0.25120290545E+02  0.51412725342E+02  0.57337434505E+02  0.81113199418E+02  0.41800000000E+01 0.  1.
        -11    1    3    3    0    0 -0.21786635831E+02 -0.34981402816E+01  0.62141670845E+02  0.65943018900E+02  0.00000000000E+00 0. -1.
         11    1    3    3    0    0  0.54043661167E+02  0.21411103651E+02  0.19980415408E+02  0.61468444521E+02  0.00000000000E+00 0.  1.
</event>
<event>
 7    1  0.4096326E-006  0.1281833E+03  0.7561462E-02  0.1230177E+00
          1   -1    0    0  501    0  0.00000000000E+00  0.00000000000E+00  0.37672498766E+03  0.37672498766E+03  0.00000000000E+00 0. -1.
         -1   -1    0    0    0  501 -0.00000000000E+00 -0.00000000000E+00 -0.72172076996E+02  0.72172076996E+02  0.00000000000E+00 0.  1.
         23    2    1    2    0    0  0.35090562740E+02 -0.73765275689E+02  0.26101623986E+03  0.29329076984E+03  0.10591191960E+03 0.  0.
          5    1    1    2  502    0 -0.65295936762E+02 -0.71841346311E+00  0.30294714974E+01  0.65503630228E+02  0.41800000000E+01 0. -1.
         -5    1    1    2    0  502  0.30205374022E+02  0.74483689152E+02  0.40507199304E+02  0.90102664583E+02  0.41800000000E+01 0. -1.
        -11    1    3    3    0    0 -0.10167372180E+02 -0.63149547592E+02  0.22659028660E+03  0.23544510783E+03  0.00000000000E+00 0.  1.
         11    1    3    3    0    0  0.45257934920E+02 -0.10615728097E+02  0.34425953262E+02  0.57845662018E+02  0.00000000000E+00 0. -1.
</event>
<event>
 7    1  0.4096326E-006  0.8882893E+02  0.7561462E-02  0.1305713E+00
          1   -1    0    0  501    0  0.00000000000E+00  0.00000000000E+00  0.46362996133E+03  0.46362996133E+03  0.00000000000E+00 0. -1.
         -1   -1    0    0    0  501 -0.00000000000E+00 -0.00000000000E+00 -0.34061731034E+02  0.34061731034E+02  0.00000000000E+00 0.  1.
         23    2    1    2    0    0 -0.51781333349E+02 -0.22349492982E+02  0.24699600272E+03  0.26930394623E+03  0.91305989808E+02 0.  0.
          5    1    1    2  502    0 -0.15867305936E+02  0.87824209278E+01 -0.11836603894E+02  0.22056289506E+02  0.41800000000E+01 0. -1.
         -5    1    1    2    0  502  0.67648639285E+02  0.13567072054E+02  0.19440883147E+03  0.20633145663E+03  0.41800000000E+01 0. -1.
        -11    1    3    3    0    0 -0.34303503529E+01  0.23226913426E+02  0.14721574463E+02  0.27712480321E+02  0.00000000000E+00 0.  1.
         11    1    3    3    0    0 -0.48350982996E+02 -0.45576406408E+02  0.23227442826E+03  0.24159146591E+03  0.00000000000E+00 0. -1.
</event>
<event>
 7    1  0.4096326E-006  0.1189781E+03  0.7561462E-02  0.1244792E+00
          1   -1    0    0  501    0  0.00000000000E+00  0.00000000000E+00  0.88660515636E+03  0.88660515636E+03  0.00000000000E+00 0. -1.
         -1   -1    0    0    0  501 -0.00000000000E+00 -0.00000000000E+00 -0.19318510956E+02  0.19318510956E+02  0.00000000000E+00 0.  1.
         23    2    1    2    0    0  0.79123534275E+01  0.71263958691E+02  0.44702794792E+03  0.46161923163E+03  0.90095347518E+02 0.  0.
          5    1    1    2  502    0 -0.55929819824E+02 -0.60718953579E+02  0.34155074847E+03  0.35141047544E+03  0.41800000000E+01 0. -1.
         -5    1    1    2    0  502  0.48017466396E+02 -0.10545005111E+02  0.78707949011E+02  0.92893960242E+02  0.41800000000E+01 0. -1.
        -11    1    3    3    0    0  0.33906885024E+01  0.88283594659E+02  0.42115434812E+03  0.43032136223E+03  0.00000000000E+00 0. -1.
         11    1    3    3    0    0  0.45216649250E+01 -0.17019635968E+02  0.25873599803E+02  0.31297869400E+02  0.00000000000E+00 0.  1.
</event>
<event>
 7    1  0.4096326E-006  0.1116389E+03  0.7561462E-02  0.1257565E+00
         -1   -1    0    0    0  501 -0.00000000000E+00  0.00000000000E+00  0.25766423643E+02  0.25766423643E+02  0.00000000000E+00 0.  1.
          1   -1    0    0  501    0  0.00000000000E+00 -0.00000000000E+00 -0.69035754648E+03  0.69035754648E+03  0.00000000000E+00 0. -1.
         23    2    1    2    0    0 -0.75623935280E+02 -0.16072537697E+02 -0.31203416126E+03  0.33412713195E+03  0.91095095659E+02 0.  0.
          5    1    1    2  502    0  0.27288283656E+02  0.49952036551E+02 -0.29125341081E+03  0.29679265168E+03  0.41800000000E+01 0. -1.
         -5    1    1    2    0  502  0.48335651625E+02 -0.33879498854E+02 -0.61303550760E+02  0.85204186496E+02  0.41800000000E+01 0. -1.
        -11    1    3    3    0    0 -0.85994776485E+02  0.21964345100E+01 -0.29436557773E+03  0.30667738629E+03  0.00000000000E+00 0. -1.
         11    1    3    3    0    0  0.10370841205E+02 -0.18268972207E+02 -0.17668583533E+02  0.27449745661E+02  0.00000000000E+00 0.  1.
</event>
<event>
 7    1  0.4096326E-006  0.8699600E+02  0.7561462E-02  0.1310294E+00
          1   -1    0    0  501    0  0.00000000000E+00  0.00000000000E+00  0.54136951020E+03  0.54136951020E+03  0.00000000000E+00 0. -1.
         -1   -1    0    0    0  501 -0.00000000000E+00 -0.00000000000E+00 -0.28867204387E+02  0.28867204387E+02  0.00000000000E+00 0.  1.
         23    2    1    2    0    0  0.28605463685E+02 -0.46468577569E+02  0.29129541582E+03  0.31031332713E+03  0.91998589470E+02 0.  0.
          5    1    1    2  502    0 -0.92324744635E+01 -0.20845159334E+02  0.17356979455E+03  0.17511055146E+03  0.41800000000E+01 0. -1.
         -5    1    1    2    0  502 -0.19372989222E+02  0.67313736902E+02  0.47637095442E+02  0.84812835994E+02  0.41800000000E+01 0. -1.
        -11    1    3    3    0    0  0.41729425973E+02 -0.51765310744E+02  0.28827295743E+03  0.29584166436E+03  0.00000000000E+00 0. -1.
         11    1    3    3    0    0 -0.13123962287E+02  0.52967331750E+01  0.30224583849E+01  0.14471662763E+02  0.00000000000E+00 0.  1.
</event>
<event>
 7    1  0.4096326E-006  0.1495595E+03  0.7561462E-02  0.1201015E+00
          4   -1    0    0  501    0  0.00000000000E+00  0.00000000000E+00  0.40065031406E+02  0.40065031406E+02  0.00000000000E+00 0. -1.
         -4   -1    0    0    0  501 -0.00000000000E+00 -0.00000000000E+00 -0.85606470346E+03  0.85606470346E+03  0.00000000000E+00 0.  1.
         23    2    1    2    0    0 -0.98247014326E+02  0.86849478803E+02 -0.21049977839E+03  0.26409095129E+03  0.90766547016E+02 0.  0.
          5    1    1    2  502    0  0.24606409125E+01 -0.36036161837E+02 -0.38056919326E+03  0.38230229266E+03  0.41800000000E+01 0.  1.
         -5    1    1    2    0  502  0.95786373413E+02 -0.50813316966E+02 -0.22493070041E+03  0.24973649092E+03  0.41800000000E+01 0.  1.
        -11    1    3    3    0    0 -0.60931686418E+02  0.97915393033E+02 -0.18346504910E+03  0.21670145095E+03  0.00000000000E+00 0.  1.
         11    1    3    3    0    0 -0.37315327908E+02 -0.11065914230E+02 -0.27034729296E+02  0.47389500342E+02  0.00000000000E+00 0. -1.
</event>
<event>
 7    1  0.4096326E-006  0.1189901E+03  0.7561462E-02  0.1244772E+00
          1   -1    0    0  501    0  0.00000000000E+00  0.00000000000E+00  0.52074613803E+03  0.52074613803E+03  0.00000000000E+00 0. -1.
         -1   -1    0    0    0  501 -0.00000000000E+00 -0.00000000000E+00 -0.33240073329E+02  0.33240073329E+02  0.00000000000E+00 0.  1.
         23    2    1    2    0    0  0.44721959006E+02 -0.58814245756E+02  0.25216547649E+03  0.27741501225E+03  0.88952191470E+02 0.  0.
          5    1    1    2  502    0  0.33706838244E+02 -0.14381743551E+02  0.46579741907E+02  0.59414899209E+02  0.41800000000E+01 0. -1.
         -5    1    1    2    0  502 -0.78428797250E+02  0.73195989306E+02  0.18876084631E+03  0.21715629990E+03  0.41800000000E+01 0. -1.
        -11    1    3    3    0    0 -0.15758748406E+01 -0.45547073857E+02  0.20500123982E+03  0.21000601812E+03  0.00000000000E+00 0. -1.
         11    1    3    3    0    0  0.46297833847E+02 -0.13267171899E+02  0.47164236668E+02  0.67408994129E+02  0.00000000000E+00 0.  1.
</event>
<event>
 7    1  0.4096326E-006  0.1055352E+03  0.7561462E-02  0.1269069E+00
         -2   -1    0    0    0  501 -0.00000000000E+00  0.00000000000E+00  0.20649078222E+02  0.20649078222E+02  0.00000000000E+00 0.  1.
          2   -1    0    0  501    0  0.00000000000E+00 -0.00000000000E+00 -0.62425324214E+03  0.62425324214E+03  0.00000000000E+00 0. -1.
         23    2    1    2    0    0 -0.12601482054E+02  0.28776941975E+02 -0.33150253527E+03  0.34378192103E+03  0.85470279055E+02 0.  0.
          5    1    1    2  502    0  0.61389370171E+02  0.32196737921E+01 -0.84280639595E+02  0.10440172259E+03  0.41800000000E+01 0.  1.
         -5    1    1    2    0  502 -0.48787888117E+02 -0.31996615768E+02 -0.18782098905E+03  0.19671867674E+03  0.41800000000E+01 0.  1.
        -11    1    3    3    0    0  0.63120933824E+01 -0.29253208315E+02 -0.10162809865E+03  0.10594273526E+03  0.00000000000E+00 0.  1.
         11    1    3    3    0    0 -0.18913575437E+02  0.58030150290E+02 -0.22987443661E+03  0.23783918577E+03  0.00000000000E+00 0. -1.
</event>
<event>
 7    1  0.4096326E-006  0.2587643E+03  0.7561462E-02  0.1107888E+00
          3   -1    0    0  501    0  0.00000000000E+00  0.00000000000E+00  0.39105553254E+03  0.39105553254E+03  0.00000000000E+00 0. -1.
         -3   -1    0    0    0  501 -0.00000000000E+00 -0.00000000000E+00 -0.27302829138E+03  0.27302829138E+03  0.00000000000E+00 0.  1.
         23    2    1    2    0    0  0.59884677644E+02 -0.23676905830E+03  0.25147831339E+03  0.36210480627E+03  0.90734706919E+02 0.  0.
          5    1    1    2  502    0  0.40025382750E+01 -0.11323349687E+02  0.75385055541E+00  0.12738887371E+02  0.41800000000E+01 0. -1.
         -5    1    1    2    0  502 -0.63887215919E+02  0.24809240798E+03 -0.13420492279E+03  0.28924013027E+03  0.41800000000E+01 0.  1.
        -11    1    3    3    0    0  0.25354634747E+02 -0.18260659328E+03  0.13297010937E+03  0.22730832672E+03  0.00000000000E+00 0. -1.
         11    1    3    3    0    0  0.34530042897E+02 -0.54162465015E+02  0.11850820402E+03  0.13479647955E+03  0.00000000000E+00 0.  1.
</event>
<event>
 7    1  0.4508335E-006  0.1731789E+03  0.7561462E-02  0.1174573E+00
          2   -1    0    0  501    0  0.00000000000E+00  0.00000000000E+00  0.89080008535E+03  0.89080008535E+03  0.00000000000E+00 0.  1.
         -2   -1    0    0    0  501 -0.00000000000E+00 -0.00000000000E+00 -0.49638858075E+02  0.49638858075E+02  0.00000000000E+00 0. -1.
         23    2    1    2    0    0  0.12287883682E+03 -0.89707482336E+02  0.61872906871E+03  0.64333548831E+03  0.88928337018E+02 0.  0.
          5    1    1    2  502    0 -0.99050836086E+02  0.10264767193E+03  0.22812495138E+03  0.26908377603E+03  0.41800000000E+01 0.  1.
         -5    1    1    2    0  502 -0.23828000731E+02 -0.12940189597E+02 -0.56927928190E+01  0.28019679079E+02  0.41800000000E+01 0.  1.
        -11    1    3    3    0    0  0.10152789655E+02 -0.58326844400E+02  0.21072073865E+03  0.21887971494E+03  0.00000000000E+00 0.  1.
         11    1    3    3    0    0  0.11272604716E+03 -0.31380637936E+02  0.40800833006E+03  0.42445577337E+03  0.00000000000E+00 0. -1.
</event>
<event>
 7    1  0.4096326E-006  0.1478122E+03  0.7561462E-02  0.1203187E+00
          1   -1    0    0  501    0  0.00000000000E+00  0.00000000000E+00  0.21564198266E+03  0.21564198266E+03  0.00000000000E+00 0. -1.
         -1   -1    0    0    0  501 -0.00000000000E+00 -0.00000000000E+00 -0.10922547899E+03  0.10922547899E+03  0.00000000000E+00 0.  1.
         23    2    1    2    0    0  0.10618453927E+03  0.10810622243E+02  0.67814274850E+02  0.15595916084E+03  0.91282298640E+02 0.  0.
          5    1    1    2  502    0 -0.74326891435E+02 -0.66649271508E+02  0.20668786107E+02  0.10203569622E+03  0.41800000000E+01 0. -1.
         -5    1    1    2    0  502 -0.31857647834E+02  0.55838649265E+02  0.17933442720E+02  0.66872604593E+02  0.41800000000E+01 0. -1.
        -11    1    3    3    0    0  0.11835935302E+03  0.71832322246E+01  0.76004016338E+02  0.14084440270E+03  0.00000000000E+00 0. -1.
         11    1    3    3    0    0 -0.12174813749E+02  0.36273900186E+01 -0.81897414882E+01  0.15114758146E+02  0.00000000000E+00 0.  1.
</event>
<event>
 7    1  0.4096326E-006  0.1334543E+03  0.7561462E-02  0.1222418E+00
         -2   -1    0    0    0  501 -0.00000000000E+00  0.00000000000E+00  0.33027484171E+03  0.33027484171E+03  0.00000000000E+00 0.  1.
          2   -1    0    0  501    0  0.00000000000E+00 -0.00000000000E+00 -0.10277747795E+03  0.10277747795E+03  0.00000000000E+00 0. -1.
         23    2    1    2    0    0 -0.18742239134E+01  0.52217990938E+02  0.77584639349E+02  0.13112002341E+03  0.91884998677E+02 0.  0.
          5    1    1    2  502    0 -0.69633976544E+02  0.19756558751E+02 -0.42735400433E+02  0.84160555804E+02  0.41800000000E+01 0. -1.
         -5    1    1    2    0  502  0.71508200457E+02 -0.71974549690E+02  0.19264812484E+03  0.21777174045E+03  0.41800000000E+01 0.  1.
        -11    1    3    3    0    0  0.25107569821E+02 -0.84276703694E+01 -0.30725850654E+01  0.26661891702E+02  0.00000000000E+00 0.  1.
         11    1    3    3    0    0 -0.26981793734E+02  0.60645661308E+02  0.80657224415E+02  0.10445813170E+03  0.00000000000E+00 0. -1.
</event>
<event>
 7    1  0.4096326E-006  0.9908852E+02  0.7561462E-02  0.1282224E+00
          1   -1    0    0  501    0  0.00000000000E+00  0.00000000000E+00  0.20040412154E+03  0.20040412154E+03  0.00000000000E+00 0.  1.
         -1   -1    0    0    0  501 -0.00000000000E+00 -0.00000000000E+00 -0.77163123184E+02  0.77163123184E+02  0.00000000000E+00 0. -1.
         23    2    1    2    0    0 -0.56168948850E+02  0.19667631804E+02  0.57930265851E+02  0.12440491690E+03  0.92622357405E+02 0.  0.
          5    1    1    2  502    0  0.23732753418E+02 -0.43390058373E+02  0.92144140645E+02  0.10466114755E+03  0.41800000000E+01 0. -1.
         -5    1    1    2    0  502  0.32436195432E+02  0.23722426569E+02 -0.26833408138E+02  0.48501180282E+02  0.41800000000E+01 0. -1.
        -11    1    3    3    0    0 -0.55346852951E+02 -0.26920573829E+02  0.44381621389E+02  0.75879639851E+02  0.00000000000E+00 0.  1.
         11    1    3    3    0    0 -0.82209589877E+00  0.46588205632E+02  0.13548644462E+02  0.48525277047E+02  0.00000000000E+00 0. -1.
</event>
<event>
 7    1  0.4096326E-006  0.1151276E+03  0.7561462E-02  0.1251359E+00
          2   -1    0    0  501    0  0.00000000000E+00  0.00000000000E+00  0.36973295846E+03  0.36973295846E+03  0.00000000000E+00 0. -1.
         -2   -1    0    0    0  501 -0.00000000000E+00 -0.00000000000E+00 -0.97923317802E+02  0.97923317802E+02  0.00000000000E+00 0.  1.
         23    2    1    2    0    0 -0.10504543993E+03 -0.33720280678E+02  0.26370578245E+03  0.30067058058E+03  0.93222618240E+02 0.  0.
          5    1    1    2  502    0  0.82119631132E+02  0.41180052855E+02 -0.49473530851E+02  0.10442477304E+03  0.41800000000E+01 0.  1.
         -5    1    1    2    0  502  0.22925808800E+02 -0.74597721766E+01  0.57577389058E+02  0.62560922634E+02  0.41800000000E+01 0.  1.
        -11    1    3    3    0    0 -0.77284413373E+02 -0.11227611039E+02  0.73855880967E+02  0.10748781770E+03  0.00000000000E+00 0.  1.
         11    1    3    3    0    0 -0.27761026559E+02 -0.22492669639E+02  0.18984990148E+03  0.19318276289E+03  0.00000000000E+00 0. -1.
</event>
<event>
 7    1  0.4096326E-006  0.8631563E+02  0.7561462E-02  0.1312027E+00
          2   -1    0    0  501    0  0.00000000000E+00  0.00000000000E+00  0.14039581621E+03  0.14039581621E+03  0.00000000000E+00 0.  1.
         -2   -1    0    0    0  501 -0.00000000000E+00 -0.00000000000E+00 -0.10584980567E+03  0.10584980567E+03  0.00000000000E+00 0. -1.
         23    2    1    2    0    0  0.35275405847E+02  0.21711415365E+02  0.61288124716E+02  0.11180536621E+03  0.83835946154E+02 0.  0.
          5    1    1    2  502    0  0.39008090309E+02 -0.13473808960E+02 -0.40904618835E+02  0.58256629490E+02  0.41800000000E+01 0.  1.
         -5    1    1    2    0  502 -0.74283496156E+02 -0.82376064045E+01  0.14162504655E+02  0.76183626184E+02  0.41800000000E+01 0.  1.
        -11    1    3    3    0    0  0.23859653089E+02  0.32680345760E+02 -0.75573023286E+01  0.41163100746E+02  0.00000000000E+00 0. -1.
         11    1    3    3    0    0  0.11415752758E+02 -0.10968930395E+02  0.68845427045E+02  0.70642265465E+02  0.00000000000E+00 0.  1.
</event>
<event>
 7    1  0.4096326E-006  0.1501207E+03  0.7561462E-02  0.1200325E+00
         -1   -1    0    0    0  501 -0.00000000000E+00  0.00000000000E+00  0.43821316842E+03  0.43821316842E+03  0.00000000000E+00 0.  1.
          1   -1    0    0  501    0  0.00000000000E+00 -0.00000000000E+00 -0.52892760638E+02  0.52892760638E+02  0.00000000000E+00 0. -1.
         23    2    1    2    0    0  0.28659268627E+02  0.10097736392E+03  0.15173450052E+03  0.20610427524E+03  0.91857672080E+02 0.  0.
          5    1    1    2  502    0 -0.62366304741E+02 -0.76470534705E+01  0.10629894636E+03  0.12355149449E+03  0.41800000000E+01 0.  1.
         -5    1    1    2    0  502  0.33707036114E+02 -0.93330310450E+02  0.12728696090E+03  0.16145015933E+03  0.41800000000E+01 0.  1.
        -11    1    3    3    0    0  0.26889856760E+02  0.11790408217E+03  0.12160214701E+03  0.17149786922E+03  0.00000000000E+00 0.  1.
         11    1    3    3    0    0  0.17694118664E+01 -0.16926718254E+02  0.30132353515E+02  0.34606406019E+02  0.00000000000E+00 0. -1.
</event>
<event>
 7    1  0.4096326E-006  0.1114529E+03  0.7561462E-02  0.1257903E+00
          3   -1    0    0  501    0  0.00000000000E+00  0.00000000000E+00  0.61606166181E+02  0.61606166181E+02  0.00000000000E+00 0.  1.
         -3   -1    0    0    0  501 -0.00000000000E+00 -0.00000000000E+00 -0.21575182696E+03  0.21575182696E+03  0.00000000000E+00 0. -1.
         23    2    1    2    0    0 -0.16529124765E+02 -0.30797304934E+02 -0.88780838339E+02  0.13195120667E+03  0.91144927060E+02 0.  0.
          5    1    1    2  502    0  0.50758196600E+02  0.62214447083E+02 -0.26400583711E+02  0.84625617683E+02  0.41800000000E+01 0.  1.
         -5    1    1    2    0  502 -0.34229071835E+02 -0.31417142149E+02 -0.38964238728E+02  0.60781168787E+02  0.41800000000E+01 0.  1.
        -11    1    3    3    0    0  0.23850016899E+02 -0.46715063003E+02 -0.36003570728E+02  0.63619002842E+02  0.00000000000E+00 0.  1.
         11    1    3    3    0    0 -0.40379141664E+02  0.15917758069E+02 -0.52777267612E+02  0.68332203828E+02  0.00000000000E+00 0. -1.
</event>
<event>
 7    1  0.4096326E-006  0.1254498E+03  0.7561462E-02  0.1234368E+00
         -2   -1    0    0    0  501 -0.00000000000E+00  0.00000000000E+00  0.29104526607E+03  0.29104526607E+03  0.00000000000E+00 0.  1.
          2   -1    0    0  501    0  0.00000000000E+00 -0.00000000000E+00 -0.73904505898E+02  0.73904505898E+02  0.00000000000E+00 0. -1.
         23    2    1    2    0    0 -0.44194669111E+02  0.48831736814E+02  0.86822316840E+01  0.11307609432E+03  0.91504724802E+02 0.  0.
          5    1    1    2  502    0 -0.41070865563E+02  0.14131365236E+01  0.48267051704E+02  0.63529470587E+02  0.41800000000E+01 0. -1.
         -5    1    1    2    0  502  0.85265534673E+02 -0.50244873338E+02  0.16019147678E+03  0.18834420706E+03  0.41800000000E+01 0. -1.
        -11    1    3    3    0    0  0.26292424443E+02  0.24581911258E+02 -0.75742297224E+01  0.36782209015E+02  0.00000000000E+00 0. -1.
         11    1    3    3    0    0 -0.70487093553E+02  0.24249825557E+02  0.16256461406E+02  0.76293885303E+02  0.00000000000E+00 0.  1.
</event>
<event>
 7    1  0.4096326E-006  0.1201000E+03  0.7561462E-02  0.1242932E+00
          1   -1    0    0  501    0  0.00000000000E+00  0.00000000000E+00  0.68946507121E+03  0.68946507121E+03  0.00000000000E+00 0. -1.
         -1   -1    0    0    0  501 -0.00000000000E+00 -0.00000000000E+00 -0.36394144050E+02  0.36394144050E+02  0.00000000000E+00 0.  1.
         23    2    1    2    0    0  0.47892133371E+02  0.77582581873E+02  0.46284867660E+03  0.48063886991E+03  0.92044078511E+02 0.  0.
          5    1    1    2  502    0 -0.12333731720E+02 -0.75765708149E+02  0.32481303645E+02  0.83457000641E+02  0.41800000000E+01 0.  1.
         -5    1    1    2    0  502 -0.35558401652E+02 -0.18168737237E+01  0.15774094691E+03  0.16176334471E+03  0.41800000000E+01 0.  1.
        -11    1    3    3    0    0 -0.22046076014E+02  0.45434691930E+02  0.22690671939E+03  0.23245859847E+03  0.00000000000E+00 0. -1.
         11    1    3    3    0    0  0.69938209385E+02  0.32147889943E+02  0.23594195722E+03  0.24818027145E+03  0.00000000000E+00 0.  1.
</event>
<event>
 7    1  0.4096326E-006  0.1148302E+03  0.7561462E-02  0.1251878E+00
          2   -1    0    0  501    0  0.00000000000E+00  0.00000000000E+00  0.77947842288E+03  0.77947842288E+03  0.00000000000E+00 0. -1.
         -2   -1    0    0    0  501 -0.00000000000E+00 -0.00000000000E+00 -0.30918854716E+02  0.30918854716E+02  0.00000000000E+00 0.  1.
         23    2    1    2    0    0  0.48236845710E+02  0.51824411882E+02  0.26350940238E+03  0.28737113121E+03  0.90179814606E+02 0.  0.
          5    1    1    2  502    0 -0.98821165428E+02 -0.29060273027E+02  0.14188929856E+03  0.17538576809E+03  0.41800000000E+01 0. -1.
         -5    1    1    2    0  502  0.50584319718E+02 -0.22764138855E+02  0.34316086723E+03  0.34764037829E+03  0.41800000000E+01 0.  1.
        -11    1    3    3    0    0  0.16656950908E+02  0.21099360564E+02  0.79378396436E+01  0.28029383296E+02  0.00000000000E+00 0.  1.
         11    1    3    3    0    0  0.31579894802E+02  0.30725051318E+02  0.25557156274E+03  0.25934174792E+03  0.00000000000E+00 0. -1.
</event>
<event>
 7    1  0.4096326E-006  0.1073966E+03  0.7561462E-02  0.1265468E+00
          1   -1    0    0  501    0  0.00000000000E+00  0.00000000000E+00  0.77509975523E+02  0.77509975523E+02  0.00000000000E+00 0. -1.
         -1   -1    0    0    0  501 -0.00000000000E+00 -0.00000000000E+00 -0.29620274856E+03  0.29620274856E+03  0.00000000000E+00 0.  1.
         23    2    1    2    0    0  0.83627988270E+02  0.53237926378E+02 -0.56914255869E+02  0.14644347326E+03  0.91534371199E+02 0.  0.
          5    1    1    2  502    0 -0.45047959833E+02  0.39346466794E+01  0.60113743678E+01  0.45808396080E+02  0.41800000000E+01 0.  1.
         -5    1    1    2    0  502 -0.38580028437E+02 -0.57172573057E+02 -0.16778989153E+03  0.18146085474E+03  0.41800000000E+01 0.  1.
        -11    1    3    3    0    0  0.73434962921E+02  0.52071321288E+02 -0.80472961266E+02  0.12074772783E+03  0.00000000000E+00 0.  1.
         11    1    3    3    0    0  0.10193025349E+02  0.11666050896E+01  0.23558705397E+02  0.25695745430E+02  0.00000000000E+00 0. -1.
</event>
<event>
 7    1  0.4096326E-006  0.1012447E+03  0.7561462E-02  0.1277700E+00
         -1   -1    0    0    0  501 -0.00000000000E+00  0.00000000000E+00  0.37145098520E+03  0.37145098520E+03  0.00000000000E+00 0.  1.
          1   -1    0    0  501    0  0.00000000000E+00 -0.00000000000E+00 -0.40006073554E+02  0.40006073554E+02  0.00000000000E+00 0. -1.
         23    2    1    2    0    0 -0.40236368982E+02 -0.39005652853E+02  0.12514972664E+03  0.16377295900E+03  0.89547315303E+02 0.  0.
          5    1    1    2  502    0 -0.33106747707E+02  0.52455813992E+02  0.10076326292E+03  0.11839922601E+03  0.41800000000E+01 0. -1.
         -5    1    1    2    0  502  0.73343116689E+02 -0.13450161139E+02  0.10553192208E+03  0.12928487374E+03  0.41800000000E+01 0. -1.
        -11    1    3    3    0    0 -0.27766337874E+02 -0.34779810778E+01  0.12290840301E+03  0.12605372426E+03  0.00000000000E+00 0.  1.
         11    1    3    3    0    0 -0.12470031108E+02 -0.35527671775E+02  0.22413236379E+01  0.37719234738E+02  0.00000000000E+00 0. -1.
</event>
<event>
 7    1  0.4096326E-006  0.1057858E+03  0.7561462E-02  0.1268579E+00
          3   -1    0    0  501    0  0.00000000000E+00  0.00000000000E+00  0.25252435603E+02  0.25252435603E+02  0.00000000000E+00 0. -1.
         -3   -1    0    0    0  501 -0.00000000000E+00 -0.00000000000E+00 -0.62344315471E+03  0.62344315471E+03  0.00000000000E+00 0.  1.
         23    2    1    2    0    0  0.46926511305E+02  0.28088901055E+01 -0.15735554360E+03  0.18805069733E+03  0.91609553741E+02 0.  0.
          5    1    1    2  502    0 -0.38318566736E+02 -0.50403190089E+02 -0.36588182906E+03  0.37134320966E+03  0.41800000000E+01 0. -1.
         -5    1    1    2    0  502 -0.86079445686E+01  0.47594299984E+02 -0.74953346447E+02  0.89301683323E+02  0.41800000000E+01 0. -1.
        -11    1    3    3    0    0 -0.23987793016E+02 -0.12462349259E+02 -0.23570172030E+02  0.35864709288E+02  0.00000000000E+00 0.  1.
         11    1    3    3    0    0  0.70914304321E+02  0.15271239364E+02 -0.13378537157E+03  0.15218598804E+03  0.00000000000E+00 0. -1.
</event>
<event>
 7    1  0.4096326E-006  0.1509219E+03  0.7561462E-02  0.1199345E+00
          3   -1    0    0  501    0  0.00000000000E+00  0.00000000000E+00  0.39514346096E+02  0.39514346096E+02  0.00000000000E+00 0. -1.
         -3   -1    0    0    0  501 -0.00000000000E+00 -0.00000000000E+00 -0.93164834383E+03  0.93164834383E+03  0.00000000000E+00 0.  1.
         23    2    1    2    0    0  0.74996441590E+02  0.11882364595E+03 -0.23930378192E+03  0.29176724344E+03  0.90101604968E+02 0.  0.
          5    1    1    2  502    0 -0.29621127957E+02 -0.10408256320E+03 -0.23410615162E+03  0.25794137669E+03  0.41800000000E+01 0.  1.
         -5    1    1    2    0  502 -0.45375313633E+02 -0.14741082757E+02 -0.41872406419E+03  0.42145406979E+03  0.41800000000E+01 0.  1.
        -11    1    3    3    0    0  0.11509416508E+02  0.52877471088E+02 -0.16568039321E+03  0.17429425209E+03  0.00000000000E+00 0.  1.
         11    1    3    3    0    0  0.63487025081E+02  0.65946174865E+02 -0.73623388709E+02  0.11747299136E+03  0.00000000000E+00 0. -1.
</event>
<event>
 7    1  0.4096326E-006  0.9587642E+02  0.7561462E-02  0.1289214E+00
          1   -1    0    0  501    0  0.00000000000E+00  0.00000000000E+00  0.22752295623E+03  0.22752295623E+03  0.00000000000E+00 0. -1.
         -1   -1    0    0    0  501 -0.00000000000E+00 -0.00000000000E+00 -0.85957922209E+02  0.85957922209E+02  0.00000000000E+00 0.  1.
         23    2    1    2    0    0  0.41931792998E+02  0.77902470411E+02  0.76972713806E+02  0.14720835028E+03  0.88985558164E+02 0.  0.
          5    1    1    2  502    0 -0.36412509988E+02 -0.39754685773E+02 -0.31552567879E+02  0.62604655292E+02  0.41800000000E+01 0.  1.
         -5    1    1    2    0  502 -0.55192830104E+01 -0.38147784638E+02  0.96144888090E+02  0.10366787286E+03  0.41800000000E+01 0.  1.
        -11    1    3    3    0    0  0.29351241581E+02  0.11822157588E+02 -0.13555791811E+02  0.34424094527E+02  0.00000000000E+00 0.  1.
         11    1    3    3    0    0  0.12580551417E+02  0.66080312823E+02  0.90528505617E+02  0.11278425575E+03  0.00000000000E+00 0. -1.
</event>
<event>
 7    1  0.4096326E-006  0.1285716E+03  0.7561462E-02  0.1229591E+00
          1   -1    0    0  501    0  0.00000000000E+00  0.00000000000E+00  0.37315196929E+03  0.37315196929E+03  0.00000000000E+00 0. -1.
         -1   -1    0    0    0  501 -0.00000000000E+00 -0.00000000000E+00 -0.74235611510E+02  0.74235611510E+02  0.00000000000E+00 0.  1.
         23    2    1    2    0    0 -0.10732690852E+03  0.32334444703E+02  0.21658829352E+03  0.26033010414E+03  0.91086182403E+02 0.  0.
          5    1    1    2  502    0  0.91493939930E+01 -0.44304526446E+02 -0.15381177988E+02  0.47965148914E+02  0.41800000000E+01 0.  1.
         -5    1    1    2    0  502  0.98177514531E+02  0.11970081743E+02  0.97709242248E+02  0.13909232774E+03  0.41800000000E+01 0.  1.
        -11    1    3    3    0    0 -0.67405213072E+02  0.14267737415E+02  0.42817418674E+02  0.81119433073E+02  0.00000000000E+00 0.  1.
         11    1    3    3    0    0 -0.39921695453E+02  0.18066707289E+02  0.17377087485E+03  0.17921067107E+03  0.00000000000E+00 0. -1.
</event>
<event>
 7    1  0.4096326E-006  0.9185240E+02  0.7561462E-02  0.1298427E+00
         -1   -1    0    0    0  501 -0.00000000000E+00  0.00000000000E+00  0.30267512637E+02  0.30267512637E+02  0.00000000000E+00 0.  1.
          1   -1    0    0  501    0  0.00000000000E+00 -0.00000000000E+00 -0.48275737203E+03  0.48275737203E+03  0.00000000000E+00 0. -1.
         23    2    1    2    0    0 -0.28444150759E+02  0.40572080689E+02 -0.17259408241E+03  0.20247287502E+03  0.93548834268E+02 0.  0.
          5    1    1    2  502    0 -0.11719081752E+02 -0.74289787339E+02 -0.11504129523E+03  0.13750738667E+03  0.41800000000E+01 0. -1.
         -5    1    1    2    0  502  0.40163232510E+02  0.33717706650E+02 -0.16485448175E+03  0.17304462297E+03  0.41800000000E+01 0. -1.
        -11    1    3    3    0    0 -0.69815741031E+01  0.31850765950E+02 -0.17605485314E+03  0.17904894577E+03  0.00000000000E+00 0. -1.
         11    1    3    3    0    0 -0.21462576656E+02  0.87213147388E+01  0.34607707278E+01  0.23423929250E+02  0.00000000000E+00 0.  1.
</event>
<event>
 7    1  0.4096326E-006  0.2139166E+03  0.7561462E-02  0.1138502E+00
         -1   -1    0    0    0  501 -0.00000000000E+00  0.00000000000E+00  0.37364009856E+02  0.37364009856E+02  0.00000000000E+00 0.  1.
          1   -1    0    0  501    0  0.00000000000E+00 -0.00000000000E+00 -0.14865772405E+04  0.14865772405E+04  0.00000000000E+00 0. -1.
         23    2    1    2    0    0 -0.58062082038E+02  0.19106685335E+03 -0.88138969608E+03  0.90916446968E+03  0.99269777721E+02 0.  0.
          5    1    1    2  502    0  0.55346003983E+02 -0.99114824589E+02 -0.45589818238E+03  0.46983779510E+03  0.41800000000E+01 0.  1.
         -5    1    1    2    0  502  0.27160780544E+01 -0.91952028758E+02 -0.11192535215E+03  0.14493898553E+03  0.41800000000E+01 0.  1.
        -11    1    3    3    0    0  0.23547295669E+02  0.85684146937E+02 -0.39229494339E+03  0.40223322933E+03  0.00000000000E+00 0.  1.
         11    1    3    3    0    0 -0.81609377706E+02  0.10538270641E+03 -0.48909475268E+03  0.50693124035E+03  0.00000000000E+00 0. -1.
</event>
<event>
 7    1  0.4096326E-006  0.1575527E+03  0.7561462E-02  0.1191488E+00
         -2   -1    0    0    0  501 -0.00000000000E+00  0.00000000000E+00  0.35373381257E+02  0.35373381257E+02  0.00000000000E+00 0.  1.
          2   -1    0    0  501    0  0.00000000000E+00 -0.00000000000E+00 -0.74949106390E+03  0.74949106390E+03  0.00000000000E+00 0. -1.
         23    2    1    2    0    0  0.16970229400E+01  0.11841732130E+03 -0.39132885724E+03  0.41898740961E+03  0.91578562090E+02 0.  0.
          5    1    1    2  502    0  0.30501825677E+02 -0.13267758709E+03 -0.24313818680E+03  0.27868863228E+03  0.41800000000E+01 0. -1.
         -5    1    1    2    0  502 -0.32198848617E+02  0.14260265786E+02 -0.79650638605E+02  0.87188403259E+02  0.41800000000E+01 0. -1.
        -11    1    3    3    0    0  0.33779856290E+02  0.10190407229E+03 -0.23217368595E+03  0.25579315684E+03  0.00000000000E+00 0.  1.
         11    1    3    3    0    0 -0.32082833350E+02  0.16513249012E+02 -0.15915517129E+03  0.16319425277E+03  0.00000000000E+00 0. -1.
</event>
<event>
 7    1  0.4096326E-006  0.1306178E+03  0.7561462E-02  0.1226542E+00
          1   -1    0    0  501    0  0.00000000000E+00  0.00000000000E+00  0.82354134221E+03  0.82354134221E+03  0.00000000000E+00 0. -1.
         -1   -1    0    0    0  501 -0.00000000000E+00 -0.00000000000E+00 -0.26485032643E+02  0.26485032643E+02  0.00000000000E+00 0.  1.
         23    2    1    2    0    0  0.87652945813E+02  0.28690040289E+02  0.28947512394E+03  0.31918536252E+03  0.97863634425E+02 0.  0.
          5    1    1    2  502    0 -0.90491174686E+02 -0.54591166267E+02  0.24393025955E+03  0.26587269896E+03  0.41800000000E+01 0. -1.
         -5    1    1    2    0  502  0.28382288732E+01  0.25901125979E+02  0.26365092608E+03  0.26496831337E+03  0.41800000000E+01 0. -1.
        -11    1    3    3    0    0  0.11551258428E+02  0.48977595390E+02  0.71622172540E+02  0.87532691155E+02  0.00000000000E+00 0.  1.
         11    1    3    3    0    0  0.76101687385E+02 -0.20287555102E+02  0.21785295140E+03  0.23165267137E+03  0.00000000000E+00 0. -1.
</event>
<event>
 7    1  0.4096326E-006  0.1061676E+03  0.7561462E-02  0.1267836E+00
          3   -1    0    0  501    0  0.00000000000E+00  0.00000000000E+00  0.48621177000E+02  0.48621177000E+02  0.00000000000E+00 0. -1.
         -3   -1    0    0    0  501 -0.00000000000E+00 -0.00000000000E+00 -0.33554484128E+03  0.33554484128E+03  0.00000000000E+00 0.  1.
         23    2    1    2    0    0  0.57794247148E+02  0.30441689452E+02 -0.10878922633E+03  0.15690680194E+03  0.92291805006E+02 0.  0.
          5    1    1    2  502    0  0.25054896745E+02 -0.22782224876E+02 -0.41680595396E+01  0.34374739876E+02  0.41800000000E+01 0.  1.
         -5    1    1    2    0  502 -0.82849143893E+02 -0.76594645756E+01 -0.17396637842E+03  0.19288447646E+03  0.41800000000E+01 0.  1.
        -11    1    3    3    0    0  0.18031777952E+02 -0.22412597065E+02 -0.79549788402E+02  0.84591006367E+02  0.00000000000E+00 0.  1.
         11    1    3    3    0    0  0.39762469196E+02  0.52854286517E+02 -0.29239437924E+02  0.72315795577E+02  0.00000000000E+00 0. -1.
</event>
<event>
 7    1  0.4096326E-006  0.1220642E+03  0.7561462E-02  0.1239730E+00
         -2   -1    0    0    0  501 -0.00000000000E+00  0.00000000000E+00  0.38105809671E+03  0.38105809671E+03  0.00000000000E+00 0.  1.
          2   -1    0    0  501    0  0.00000000000E+00 -0.00000000000E+00 -0.41654462448E+02  0.41654462448E+02  0.00000000000E+00 0. -1.
         23    2    1    2    0    0 -0.29894087927E+02 -0.53297582519E+02  0.15046175948E+03  0.18801995616E+03  0.94754810197E+02 0.  0.
          5    1    1    2  502    0  0.65122153618E+02  0.73338411662E+02  0.14042958606E+03  0.17133989191E+03  0.41800000000E+01 0. -1.
         -5    1    1    2    0  502 -0.35228065691E+02 -0.20040829143E+02  0.48512288719E+02  0.63352711085E+02  0.41800000000E+01 0. -1.
        -11    1    3    3    0    0  0.29563558368E+02 -0.27593783455E+02  0.93072001517E+02  0.10147816679E+03  0.00000000000E+00 0.  1.
         11    1    3    3    0    0 -0.59457646295E+02 -0.25703799064E+02  0.57389757959E+02  0.86541789372E+02  0.00000000000E+00 0. -1.
</event>
<event>
 7    1  0.4096326E-006  0.5998693E+02  0.7561462E-02  0.1397887E+00
         -2   -1    0    0    0  501 -0.00000000000E+00  0.00000000000E+00  0.45818091462E+03  0.45818091462E+03  0.00000000000E+00 0.  1.
          2   -1    0    0  501    0  0.00000000000E+00 -0.00000000000E+00 -0.28227584881E+02  0.28227584881E+02  0.00000000000E+00 0. -1.
         23    2    1    2    0    0  0.31532774865E+02 -0.14810267019E+02  0.17668909588E+03  0.20179676769E+03  0.91045257683E+02 0.  0.
          5    1    1    2  502    0 -0.35367504111E+02  0.38108934360E+01  0.51456762308E+01  0.36184715554E+02  0.41800000000E+01 0. -1.
         -5    1    1    2    0  502  0.38347292460E+01  0.10999373583E+02  0.24811855762E+03  0.24842701625E+03  0.41800000000E+01 0. -1.
        -11    1    3    3    0    0 -0.32006319768E+01 -0.32600042226E+02  0.16034933735E+02  0.36470891106E+02  0.00000000000E+00 0. -1.
         11    1    3    3    0    0  0.34733406842E+02  0.17789775207E+02  0.16065416215E+03  0.16532587658E+03  0.00000000000E+00 0.  1.
</event>
<event>
 7    1  0.4096326E-006  0.1519912E+03  0.7561462E-02  0.1198047E+00
         -3   -1    0    0    0  501 -0.00000000000E+00  0.00000000000E+00  0.13112547941E+03  0.13112547941E+03  0.00000000000E+00 0.  1.
          3   -1    0    0  501    0  0.00000000000E+00 -0.00000000000E+00 -0.25926303567E+03  0.25926303567E+03  0.00000000000E+00 0. -1.
         23    2    1    2    0    0 -0.13266631478E+03 -0.91050211508E+01 -0.13071333543E+03  0.20780323282E+03  0.91722162115E+02 0.  0.
          5    1    1    2  502    0  0.97923777745E+02 -0.32482254650E+02 -0.42808468612E+02  0.11177745971E+03  0.41800000000E+01 0.  1.
         -5    1    1    2    0  502  0.34742537033E+02  0.41587275801E+02  0.45384247785E+02  0.70807822556E+02  0.41800000000E+01 0.  1.
        -11    1    3    3    0    0 -0.98997308524E+02 -0.33814747209E+02 -0.47905875498E+02  0.11506031953E+03  0.00000000000E+00 0.  1.
         11    1    3    3    0    0 -0.33669006254E+02  0.24709726058E+02 -0.82807459934E+02  0.92742913285E+02  0.00000000000E+00 0. -1.
</event>
<event>
 7    1  0.4096326E-006  0.1030984E+03  0.7561462E-02  0.1273912E+00
          1   -1    0    0  501    0  0.00000000000E+00  0.00000000000E+00  0.20133782163E+03  0.20133782163E+03  0.00000000000E+00 0. -1.
         -1   -1    0    0    0  501 -0.00000000000E+00 -0.00000000000E+00 -0.71845977257E+02  0.71845977257E+02  0.00000000000E+00 0.  1.
         23    2    1    2    0    0 -0.45046189592E+02  0.77036656993E+01  0.86314875412E+02  0.13316001265E+03  0.90514228661E+02 0.  0.
          5    1    1    2  502    0  0.47423939175E+02  0.53608174951E+02  0.22677664712E+02  0.75197176179E+02  0.41800000000E+01 0.  1.
         -5    1    1    2    0  502 -0.23777495825E+01 -0.61311840650E+02  0.20499304251E+02  0.64826610059E+02  0.41800000000E+01 0.  1.
        -11    1    3    3    0    0 -0.47126956173E+01  0.27618941483E+02 -0.75980313514E+01  0.29030079384E+02  0.00000000000E+00 0.  1.
         11    1    3    3    0    0 -0.40333493975E+02 -0.19915275783E+02  0.93912906763E+02  0.10412993327E+03  0.00000000000E+00 0. -1.
</event>
<event>
 7    1  0.4096326E-006  0.1665575E+03  0.7561462E-02  0.1181486E+00
         -1   -1    0    0    0  501 -0.00000000000E+00  0.00000000000E+00  0.51486240218E+02  0.51486240218E+02  0.00000000000E+00 0.  1.
          1   -1    0    0  501    0  0.00000000000E+00 -0.00000000000E+00 -0.74999297515E+03  0.74999297515E+03  0.00000000000E+00 0. -1.
         23    2    1    2    0    0  0.15155204120E+03 -0.43243353728E+02 -0.42339277462E+03  0.46063922996E+03  0.89939144672E+02 0.  0.
          5    1    1    2  502    0 -0.58885293114E+01  0.13552709207E+02 -0.13707359659E+03  0.13793112044E+03  0.41800000000E+01 0.  1.
         -5    1    1    2    0  502 -0.14566351188E+03  0.29690644521E+02 -0.13804036373E+03  0.20290886497E+03  0.41800000000E+01 0.  1.
        -11    1    3    3    0    0  0.34084816941E+02  0.15801297117E+02 -0.37991225356E+02  0.53430224971E+02  0.00000000000E+00 0.  1.
         11    1    3    3    0    0  0.11746722425E+03 -0.59044650845E+02 -0.38540154927E+03  0.40720900499E+03  0.00000000000E+00 0. -1.
</event>
<event>
 7    1  0.4096326E-006  0.8142728E+02  0.7561462E-02  0.1325049E+00
         -1   -1    0    0    0  501 -0.00000000000E+00  0.00000000000E+00  0.10451301069E+03  0.10451301069E+03  0.00000000000E+00 0.  1.
          1   -1    0    0  501    0  0.00000000000E+00 -0.00000000000E+00 -0.12487515471E+03  0.12487515471E+03  0.00000000000E+00 0. -1.
         23    2    1    2    0    0 -0.75843883894E+01 -0.32147226013E+02 -0.22372536463E+02  0.99996454776E+02  0.91694021028E+02 0.  0.
          5    1    1    2  502    0  0.12829975533E+02 -0.23005726156E+02  0.49548346525E+02  0.56270620678E+02  0.41800000000E+01 0.  1.
         -5    1    1    2    0  502 -0.52455871440E+01  0.55152952169E+02 -0.47537954073E+02  0.73121089946E+02  0.41800000000E+01 0.  1.
        -11    1    3    3    0    0  0.32895163913E+02 -0.19377503050E+02  0.17283358110E+02  0.41908160314E+02  0.00000000000E+00 0.  1.
         11    1    3    3    0    0 -0.40479552302E+02 -0.12769722962E+02 -0.39655894573E+02  0.58088294462E+02  0.00000000000E+00 0. -1.
</event>
<event>
 7    1  0.4096326E-006  0.1090576E+03  0.7561462E-02  0.1262325E+00
         -1   -1    0    0    0  501 -0.00000000000E+00  0.00000000000E+00  0.20384546682E+02  0.20384546682E+02  0.00000000000E+00 0.  1.
          1   -1    0    0  501    0  0.00000000000E+00 -0.00000000000E+00 -0.75766119968E+03  0.75766119968E+03  0.00000000000E+00 0. -1.
         23    2    1    2    0    0  0.40486546382E+02  0.25486288345E+02 -0.43537226968E+03  0.44777107021E+03  0.93065604702E+02 0.  0.
          5    1    1    2  502    0 -0.62558576018E+02  0.30093082355E+02 -0.11940636844E+03  0.13818293044E+03  0.41800000000E+01 0.  1.
         -5    1    1    2    0  502  0.22072029636E+02 -0.55579370700E+02 -0.18249801487E+03  0.19209174572E+03  0.41800000000E+01 0.  1.
        -11    1    3    3    0    0  0.50934299081E+02  0.44036668349E+02 -0.40570951240E+03  0.41125872567E+03  0.00000000000E+00 0. -1.
         11    1    3    3    0    0 -0.10447752699E+02 -0.18550380004E+02 -0.29662757276E+02  0.36512344543E+02  0.00000000000E+00 0.  1.
</event>
<event>
 7    1  0.4096326E-006  0.1141000E+03  0.7561462E-02  0.1253160E+00
          1   -1    0    0  501    0  0.00000000000E+00  0.00000000000E+00  0.70710887594E+02  0.70710887594E+02  0.00000000000E+00 0. -1.
         -1   -1    0    0    0  501 -0.00000000000E+00 -0.00000000000E+00 -0.34682289374E+03  0.34682289374E+03  0.00000000000E+00 0.  1.
         23    2    1    2    0    0 -0.24334428540E+02  0.57040129708E+02  0.13585220538E+01  0.10691718286E+03  0.87084427994E+02 0.  0.
          5    1    1    2  502    0 -0.37227281604E+02 -0.55349392484E+02 -0.20393772476E+03  0.21461009698E+03  0.41800000000E+01 0.  1.
         -5    1    1    2    0  502  0.61561710144E+02 -0.16907372247E+01 -0.73532803440E+02  0.96006501498E+02  0.41800000000E+01 0.  1.
        -11    1    3    3    0    0  0.23395438142E+02  0.44521669168E+02  0.20060838569E+02  0.54147601936E+02  0.00000000000E+00 0.  1.
         11    1    3    3    0    0 -0.47729866682E+02  0.12518460540E+02 -0.18702316515E+02  0.52769580923E+02  0.00000000000E+00 0. -1.
</event>
<event>
 7    1  0.4096326E-006  0.1150197E+03  0.7561462E-02  0.1251547E+00
          2   -1    0    0  501    0  0.00000000000E+00  0.00000000000E+00  0.35650237958E+03  0.35650237958E+03  0.00000000000E+00 0. -1.
         -2   -1    0    0    0  501 -0.00000000000E+00 -0.00000000000E+00 -0.53166639534E+02  0.53166639534E+02  0.00000000000E+00 0.  1.
         23    2    1    2    0    0 -0.12050919545E+02 -0.77005175593E+02  0.18507595901E+03  0.22070352333E+03  0.91552787369E+02 0.  0.
          5    1    1    2  502    0  0.53022145931E+02  0.54694054867E+02  0.18120103486E+02  0.78412997311E+02  0.41800000000E+01 0.  1.
         -5    1    1    2    0  502 -0.40971226385E+02  0.22311120726E+02  0.10013967755E+03  0.11055249848E+03  0.41800000000E+01 0.  1.
        -11    1    3    3    0    0 -0.38006364692E+02 -0.17204369389E+02  0.26950229787E+02  0.49666779327E+02  0.00000000000E+00 0.  1.
         11    1    3    3    0    0  0.25955445146E+02 -0.59800806204E+02  0.15812572922E+03  0.17103674400E+03  0.00000000000E+00 0. -1.
</event>
<event>
 7    1  0.4096326E-006  0.1384907E+03  0.7561462E-02  0.1215374E+00
          1   -1    0    0  501    0  0.00000000000E+00  0.00000000000E+00  0.13044963650E+04  0.13044963650E+04  0.00000000000E+00 0. -1.
         -1   -1    0    0    0  501 -0.00000000000E+00 -0.00000000000E+00 -0.18645974705E+02  0.18645974705E+02  0.00000000000E+00 0.  1.
         23    2    1    2    0    0  0.95310678272E+02  0.58194154353E+02  0.57357486759E+03  0.59139507747E+03  0.91045724386E+02 0.  0.
          5    1    1    2  502    0 -0.54165569257E+02 -0.92516017003E+02  0.36865804031E+03  0.38395226967E+03  0.41800000000E+01 0. -1.
         -5    1    1    2    0  502 -0.41145109016E+02  0.34321862650E+02  0.34361748236E+03  0.34779499254E+03  0.41800000000E+01 0. -1.
        -11    1    3    3    0    0  0.12357093141E+02 -0.31812051455E+01  0.52827853166E+01  0.13810345317E+02  0.00000000000E+00 0.  1.
         11    1    3    3    0    0  0.82953585132E+02  0.61375359499E+02  0.56829208227E+03  0.57758473215E+03  0.00000000000E+00 0. -1.
</event>
<event>
 7    1  0.4096326E-006  0.1284216E+03  0.7561462E-02  0.1229817E+00
         -1   -1    0    0    0  501 -0.00000000000E+00  0.00000000000E+00  0.55385749457E+02  0.55385749457E+02  0.00000000000E+00 0.  1.
          1   -1    0    0  501    0  0.00000000000E+00 -0.00000000000E+00 -0.52941934095E+03  0.52941934095E+03  0.00000000000E+00 0. -1.
         23    2    1    2    0    0 -0.76684625540E+02  0.69049873402E+02 -0.36287757621E+03  0.38819967256E+03  0.91490074050E+02 0.  0.
          5    1    1    2  502    0  0.33159188219E+02  0.49633308487E+01  0.20388227342E+02  0.39462876614E+02  0.41800000000E+01 0.  1.
         -5    1    1    2    0  502  0.43525437321E+02 -0.74013204251E+02 -0.13154424263E+03  0.15714254123E+03  0.41800000000E+01 0.  1.
        -11    1    3    3    0    0  0.18004203158E+02 -0.28092950708E+01 -0.35375434563E+02  0.39792773724E+02  0.00000000000E+00 0. -1.
         11    1    3    3    0    0 -0.94688828698E+02  0.71859168473E+02 -0.32750214165E+03  0.34840689884E+03  0.00000000000E+00 0.  1.
</event>
<event>
 7    1  0.4096326E-006  0.6221739E+02  0.7561462E-02  0.1388755E+00
         -1   -1    0    0    0  501 -0.00000000000E+00  0.00000000000E+00  0.39645377545E+02  0.39645377545E+02  0.00000000000E+00 0.  1.
          1   -1    0    0  501    0  0.00000000000E+00 -0.00000000000E+00 -0.33690865053E+03  0.33690865053E+03  0.00000000000E+00 0. -1.
         23    2    1    2    0    0 -0.18800267066E+02  0.27492842301E+02 -0.10152708341E+03  0.14188826654E+03  0.93355369943E+02 0.  0.
          5    1    1    2  502    0  0.26401402273E+02 -0.10007799517E+01 -0.20387776610E+03  0.20562502648E+03  0.41800000000E+01 0.  1.
         -5    1    1    2    0  502 -0.76011352066E+01 -0.26492062350E+02  0.81415765308E+01  0.29040735052E+02  0.41800000000E+01 0.  1.
        -11    1    3    3    0    0  0.22651941796E+02  0.82345957924E+01  0.61818154887E+01  0.24882400964E+02  0.00000000000E+00 0.  1.
         11    1    3    3    0    0 -0.41452208862E+02  0.19258246509E+02 -0.10770889890E+03  0.11700586558E+03  0.00000000000E+00 0. -1.
</event>
<event>
 7    1  0.4096326E-006  0.9416314E+02  0.7561462E-02  0.1293072E+00
          1   -1    0    0  501    0  0.00000000000E+00  0.00000000000E+00  0.15971911918E+03  0.15971911918E+03  0.00000000000E+00 0. -1.
         -1   -1    0    0    0  501 -0.00000000000E+00 -0.00000000000E+00 -0.11453101497E+03  0.11453101497E+03  0.00000000000E+00 0.  1.
         23    2    1    2    0    0 -0.13269049119E+01 -0.56705809330E+02  0.81531261619E+02  0.13797158021E+03  0.95767953077E+02 0.  0.
          5    1    1    2  502    0  0.14247935861E+02 -0.16604410495E+02  0.29393088295E+02  0.36880023911E+02  0.41800000000E+01 0. -1.
         -5    1    1    2    0  502 -0.12921030949E+02  0.73310219825E+02 -0.65736245711E+02  0.99398530028E+02  0.41800000000E+01 0.  1.
        -11    1    3    3    0    0 -0.34845673700E+02 -0.14868690456E+02  0.74923819422E+02  0.83957594346E+02  0.00000000000E+00 0.  1.
         11    1    3    3    0    0  0.33518768788E+02 -0.41837118874E+02  0.66074421961E+01  0.54013985866E+02  0.00000000000E+00 0. -1.
</event>
<event>
 7    1  0.4096326E-006  0.2195685E+03  0.7561462E-02  0.1134205E+00
          2   -1    0    0  501    0  0.00000000000E+00  0.00000000000E+00  0.49335186588E+03  0.49335186588E+03  0.00000000000E+00 0.  1.
         -2   -1    0    0    0  501 -0.00000000000E+00 -0.00000000000E+00 -0.10321371840E+03  0.10321371840E+03  0.00000000000E+00 0. -1.
         23    2    1    2    0    0 -0.31133615466E+02 -0.19303373310E+03  0.22140506828E+03  0.30959945852E+03  0.92737782635E+02 0.  0.
          5    1    1    2  502    0  0.59146421354E+02  0.46119788423E+02  0.92143380075E+02  0.11888317347E+03  0.41800000000E+01 0.  1.
         -5    1    1    2    0  502 -0.28012805888E+02  0.14691394468E+03  0.76589699127E+02  0.16808295228E+03  0.41800000000E+01 0.  1.
        -11    1    3    3    0    0 -0.51546577272E+02 -0.57033682654E+02  0.10015608547E+03  0.12625819594E+03  0.00000000000E+00 0.  1.
         11    1    3    3    0    0  0.20412961806E+02 -0.13600005045E+03  0.12124898282E+03  0.18334126259E+03  0.00000000000E+00 0. -1.
</event>
<event>
 7    1  0.4096326E-006  0.9798658E+02  0.7561462E-02  0.1284588E+00
         -2   -1    0    0    0  501 -0.00000000000E+00  0.00000000000E+00  0.78857049943E+03  0.78857049943E+03  0.00000000000E+00 0.  1.
          2   -1    0    0  501    0  0.00000000000E+00 -0.00000000000E+00 -0.17482048468E+02  0.17482048468E+02  0.00000000000E+00 0. -1.
         23    2    1    2    0    0  0.18701636222E+02 -0.60004123302E+01  0.24171246535E+03  0.26174457153E+03  0.98486286724E+02 0.  0.
          5    1    1    2  502    0  0.37565655716E+02 -0.96378112124E+01  0.61800895445E+02  0.73081385949E+02  0.41800000000E+01 0.  1.
         -5    1    1    2    0  502 -0.56267291937E+02  0.15638223543E+02  0.46757509017E+03  0.47122659042E+03  0.41800000000E+01 0.  1.
        -11    1    3    3    0    0  0.57968629119E+02 -0.10434563969E+02  0.11816150761E+03  0.13202796661E+03  0.00000000000E+00 0.  1.
         11    1    3    3    0    0 -0.39266992898E+02  0.44341516388E+01  0.12355095774E+03  0.12971660491E+03  0.00000000000E+00 0. -1.
</event>
<event>
 7    1  0.4096326E-006  0.8507724E+02  0.7561462E-02  0.1315231E+00
         -2   -1    0    0    0  501 -0.00000000000E+00  0.00000000000E+00  0.14717280183E+04  0.14717280183E+04  0.00000000000E+00 0.  1.
          2   -1    0    0  501    0  0.00000000000E+00 -0.00000000000E+00 -0.90528774563E+01  0.90528774563E+01  0.00000000000E+00 0. -1.
         23    2    1    2    0    0  0.32255424562E+02 -0.82530374719E+01  0.49281775520E+03  0.50232415901E+03  0.91387613180E+02 0.  0.
          5    1    1    2  502    0 -0.49699832834E+02 -0.58010624664E+01  0.14804080887E+03  0.15632427579E+03  0.41800000000E+01 0.  1.
         -5    1    1    2    0  502  0.17444408271E+02  0.14054099938E+02  0.82181657677E+03  0.82213246096E+03  0.41800000000E+01 0.  1.
        -11    1    3    3    0    0  0.22125456481E+01 -0.47599059247E+02  0.22984150230E+03  0.23472895429E+03  0.00000000000E+00 0. -1.
         11    1    3    3    0    0  0.30042878914E+02  0.39346021775E+02  0.26297625290E+03  0.26759520472E+03  0.00000000000E+00 0.  1.
</event>
<event>
 7    1  0.4096326E-006  0.1142891E+03  0.7561462E-02  0.1252827E+00
          1   -1    0    0  501    0  0.00000000000E+00  0.00000000000E+00  0.29692620152E+03  0.29692620152E+03  0.00000000000E+00 0. -1.
         -1   -1    0    0    0  501 -0.00000000000E+00 -0.00000000000E+00 -0.45813447499E+02  0.45813447499E+02  0.00000000000E+00 0.  1.
         23    2    1    2    0    0 -0.13390696654E+02 -0.38959425446E+02  0.12464173049E+03  0.16015176683E+03  0.91738104689E+02 0.  0.
          5    1    1    2  502    0 -0.51424664189E+02 -0.33395221367E+01  0.68378822465E+02  0.85725050346E+02  0.41800000000E+01 0. -1.
         -5    1    1    2    0  502  0.64815360843E+02  0.42298947583E+02  0.58092201069E+02  0.96862831844E+02  0.41800000000E+01 0. -1.
        -11    1    3    3    0    0  0.15235891918E+02 -0.61230168442E+02  0.66877387922E+02  0.91944825549E+02  0.00000000000E+00 0.  1.
         11    1    3    3    0    0 -0.28626588571E+02  0.22270742996E+02  0.57764342566E+02  0.68206941281E+02  0.00000000000E+00 0. -1.
</event>
<event>
 7    1  0.4096326E-006  0.1807638E+03  0.7561462E-02  0.1167066E+00
          1   -1    0    0  501    0  0.00000000000E+00  0.00000000000E+00  0.52195035139E+03  0.52195035139E+03  0.00000000000E+00 0. -1.
         -1   -1    0    0    0  501 -0.00000000000E+00 -0.00000000000E+00 -0.74665955563E+02  0.74665955563E+02  0.00000000000E+00 0.  1.
         23    2    1    2    0    0 -0.14732893465E+03 -0.62492106347E+02  0.27132395360E+03  0.32787708895E+03  0.90970431028E+02 0.  0.
          5    1    1    2  502    0  0.23621235919E+02 -0.36021112604E+02  0.52697536348E+02  0.68190806394E+02  0.41800000000E+01 0.  1.
         -5    1    1    2    0  502  0.12370769873E+03  0.98513218951E+02  0.12326290588E+03  0.20054841161E+03  0.41800000000E+01 0.  1.
        -11    1    3    3    0    0 -0.10369834324E+03 -0.45221478696E+02  0.10251789881E+03  0.15267039039E+03  0.00000000000E+00 0.  1.
         11    1    3    3    0    0 -0.43630591409E+02 -0.17270627651E+02  0.16880605479E+03  0.17520669856E+03  0.00000000000E+00 0. -1.
</event>
<event>
 7    1  0.4096326E-006  0.1089825E+03  0.7561462E-02  0.1262466E+00
         -1   -1    0    0    0  501 -0.00000000000E+00  0.00000000000E+00  0.61112098861E+02  0.61112098861E+02  0.00000000000E+00 0.  1.
          1   -1    0    0  501    0  0.00000000000E+00 -0.00000000000E+00 -0.22588727233E+03  0.22588727233E+03  0.00000000000E+00 0. -1.
         23    2    1    2    0    0 -0.43800403528E+02 -0.68584931599E+01 -0.81106640309E+02  0.13011813846E+03  0.91580175666E+02 0.  0.
          5    1    1    2  502    0  0.87792106886E+02 -0.53250504690E+00 -0.56359397626E+02  0.10441068764E+03  0.41800000000E+01 0.  1.
         -5    1    1    2    0  502 -0.43991703358E+02  0.73909982068E+01 -0.27309135530E+02  0.52470545092E+02  0.41800000000E+01 0.  1.
        -11    1    3    3    0    0 -0.59981337439E+02  0.11202975358E+02 -0.19737024294E+02  0.64131253113E+02  0.00000000000E+00 0.  1.
         11    1    3    3    0    0  0.16180933911E+02 -0.18061468518E+02 -0.61369616016E+02  0.65986885342E+02  0.00000000000E+00 0. -1.
</event>
<event>
 7    1  0.4096326E-006  0.1164791E+03  0.7561462E-02  0.1249021E+00
         -1   -1    0    0    0  501 -0.00000000000E+00  0.00000000000E+00  0.21746625439E+03  0.21746625439E+03  0.00000000000E+00 0.  1.
          1   -1    0    0  501    0  0.00000000000E+00 -0.00000000000E+00 -0.67585986161E+02  0.67585986161E+02  0.00000000000E+00 0. -1.
         23    2    1    2    0    0  0.41663347892E+01  0.47121048140E+02  0.96756130368E+02  0.14115379452E+03  0.91240853898E+02 0.  0.
          5    1    1    2  502    0 -0.49108522994E+02  0.19440326591E+02  0.26067480856E+02  0.59047093804E+02  0.41800000000E+01 0. -1.
         -5    1    1    2    0  502  0.44942188204E+02 -0.66561374731E+02  0.27056657006E+02  0.84851352229E+02  0.41800000000E+01 0. -1.
        -11    1    3    3    0    0  0.39701547805E+02  0.50066840366E+02  0.78108365280E+02  0.10091490539E+03  0.00000000000E+00 0.  1.
         11    1    3    3    0    0 -0.35535213016E+02 -0.29457922260E+01  0.18647765088E+02  0.40238889133E+02  0.00000000000E+00 0. -1.
</event>
<event>
 7    1  0.4096326E-006  0.1041539E+03  0.7561462E-02  0.1271796E+00
         -3   -1    0    0    0  501 -0.00000000000E+00  0.00000000000E+00  0.10678082883E+04  0.10678082883E+04  0.00000000000E+00 0.  1.
          3   -1    0    0  501    0  0.00000000000E+00 -0.00000000000E+00 -0.17696022019E+02  0.17696022019E+02  0.00000000000E+00 0. -1.
         23    2    1    2    0    0  0.49521387439E+02 -0.26576504786E+02  0.24476264402E+03  0.26856228517E+03  0.95174947813E+02 0.  0.
          5    1    1    2  502    0  0.40020110114E+02  0.52950572838E+01  0.16086693323E+03  0.16590747256E+03  0.41800000000E+01 0. -1.
         -5    1    1    2    0  502 -0.89541497554E+02  0.21281447502E+02  0.64448268908E+03  0.65103455263E+03  0.41800000000E+01 0. -1.
        -11    1    3    3    0    0 -0.52762457564E+01 -0.19665238667E+02  0.30116703332E+01  0.20582287028E+02  0.00000000000E+00 0. -1.
         11    1    3    3    0    0  0.54797633196E+02 -0.69112661184E+01  0.24175097368E+03  0.24797999814E+03  0.00000000000E+00 0.  1.
</event>
<event>
 7    1  0.4096326E-006  0.8895243E+02  0.7561462E-02  0.1305409E+00
          2   -1    0    0  501    0  0.00000000000E+00  0.00000000000E+00  0.12235220276E+03  0.12235220276E+03  0.00000000000E+00 0. -1.
         -2   -1    0    0    0  501 -0.00000000000E+00 -0.00000000000E+00 -0.10061409385E+03  0.10061409385E+03  0.00000000000E+00 0.  1.
         23    2    1    2    0    0  0.10853040986E+01  0.16289962817E+02  0.39291123397E+02  0.95632360741E+02  0.85645871293E+02 0.  0.
          5    1    1    2  502    0  0.30377491643E+02  0.37282194355E+02  0.22538931766E+02  0.53275039743E+02  0.41800000000E+01 0.  1.
         -5    1    1    2    0  502 -0.31462795741E+02 -0.53572157172E+02 -0.40091946254E+02  0.74058896119E+02  0.41800000000E+01 0.  1.
        -11    1    3    3    0    0 -0.26370621291E+02  0.27140320089E+02 -0.91239931808E+01  0.38926262258E+02  0.00000000000E+00 0.  1.
         11    1    3    3    0    0  0.27455925390E+02 -0.10850357272E+02  0.48415116578E+02  0.56706098483E+02  0.00000000000E+00 0. -1.
</event>
<event>
 7    1  0.4096326E-006  0.9861938E+02  0.7561462E-02  0.1283226E+00
          1   -1    0    0  501    0  0.00000000000E+00  0.00000000000E+00  0.14961086767E+03  0.14961086767E+03  0.00000000000E+00 0. -1.
         -1   -1    0    0    0  501 -0.00000000000E+00 -0.00000000000E+00 -0.16822358743E+03  0.16822358743E+03  0.00000000000E+00 0.  1.
         23    2    1    2    0    0 -0.49922387753E+02  0.67069660527E+01  0.92468534735E+02  0.13831433790E+03  0.89683877928E+02 0.  0.
          5    1    1    2  502    0 -0.32320903995E+02 -0.91094081617E+01  0.79489631759E+01  0.34760330373E+02  0.41800000000E+01 0. -1.
         -5    1    1    2    0  502  0.82243291747E+02  0.24024421090E+01 -0.11903021766E+03  0.14475978683E+03  0.41800000000E+01 0.  1.
        -11    1    3    3    0    0  0.70628045469E+01  0.21091270546E+02 -0.65327400366E+01  0.23181923856E+02  0.00000000000E+00 0.  1.
         11    1    3    3    0    0 -0.56985192300E+02 -0.14384304493E+02  0.99001274771E+02  0.11513241404E+03  0.00000000000E+00 0. -1.
</event>
<event>
 7    1  0.4096326E-006  0.1135004E+03  0.7561462E-02  0.1254222E+00
          2   -1    0    0  501    0  0.00000000000E+00  0.00000000000E+00  0.41959249468E+03  0.41959249468E+03  0.00000000000E+00 0.  1.
         -2   -1    0    0    0  501 -0.00000000000E+00 -0.00000000000E+00 -0.36067871475E+02  0.36067871475E+02  0.00000000000E+00 0. -1.
         23    2    1    2    0    0 -0.24741660994E+02 -0.51327900085E+02  0.15256374570E+03  0.18688966725E+03  0.91680685579E+02 0.  0.
          5    1    1    2  502    0  0.21162654252E+02  0.84699390226E+02  0.96837427829E+02  0.13044847438E+03  0.41800000000E+01 0.  1.
         -5    1    1    2    0  502  0.35790067428E+01 -0.33371490141E+02  0.13412344968E+03  0.13832222453E+03  0.41800000000E+01 0.  1.
        -11    1    3    3    0    0 -0.56367236956E+02 -0.47888591269E+02  0.12263011475E+03  0.14320868555E+03  0.00000000000E+00 0.  1.
         11    1    3    3    0    0  0.31625575962E+02 -0.34393088168E+01  0.29933630951E+02  0.43680981697E+02  0.00000000000E+00 0. -1.
</event>
<event>
 7    1  0.4096326E-006  0.1551844E+03  0.7561462E-02  0.1194243E+00
         -3   -1    0    0    0  501 -0.00000000000E+00  0.00000000000E+00  0.46225599992E+03  0.46225599992E+03  0.00000000000E+00 0.  1.
          3   -1    0    0  501    0  0.00000000000E+00 -0.00000000000E+00 -0.96631306140E+02  0.96631306140E+02  0.00000000000E+00 0. -1.
         23    2    1    2    0    0 -0.33214763177E+02  0.14772551630E+03  0.46101847676E+02  0.18382967185E+03  0.93498231180E+02 0.  0.
          5    1    1    2  502    0  0.30373303977E+02 -0.14554951389E+03  0.17184865830E+03  0.22728095465E+03  0.41800000000E+01 0.  1.
         -5    1    1    2    0  502  0.28414591997E+01 -0.21760024065E+01  0.14767418780E+03  0.14777667956E+03  0.41800000000E+01 0.  1.
        -11    1    3    3    0    0 -0.20295212186E+02  0.13913485480E+03  0.68640655863E+02  0.15646706712E+03  0.00000000000E+00 0.  1.
         11    1    3    3    0    0 -0.12919550990E+02  0.85906615040E+01 -0.22538808187E+02  0.27362604725E+02  0.00000000000E+00 0. -1.
</event>
<event>
 7    1  0.4096326E-006  0.1402107E+03  0.7561462E-02  0.1213046E+00
         -3   -1    0    0    0  501 -0.00000000000E+00  0.00000000000E+00  0.38222220331E+03  0.38222220331E+03  0.00000000000E+00 0. -1.
          3   -1    0    0  501    0  0.00000000000E+00 -0.00000000000E+00 -0.77425506818E+02  0.77425506818E+02  0.00000000000E+00 0.  1.
         23    2    1    2    0    0 -0.92990887834E+02  0.86787320806E+02  0.73543496150E+02  0.16757793145E+03  0.80587672826E+02 0.  0.
          5    1    1    2  502    0  0.15232876876E+02 -0.40375221018E+02 -0.35073638452E+00  0.43356596109E+02  0.41800000000E+01 0. -1.
         -5    1    1    2    0  502  0.77758010958E+02 -0.46412099788E+02  0.23160393673E+03  0.24871318257E+03  0.41800000000E+01 0. -1.
        -11    1    3    3    0    0  0.12302568254E+02  0.12598005801E+02 -0.28269909425E+01  0.17834091331E+02  0.00000000000E+00 0.  1.
         11    1    3    3    0    0 -0.10529345609E+03  0.74189315005E+02  0.76370487093E+02  0.14974384012E+03  0.00000000000E+00 0. -1.
</event>
<event>
 7    1  0.4096326E-006  0.1318577E+03  0.7561462E-02  0.1224725E+00
         -1   -1    0    0    0  501 -0.00000000000E+00  0.00000000000E+00  0.54325078475E+03  0.54325078475E+03  0.00000000000E+00 0.  1.
          1   -1    0    0  501    0  0.00000000000E+00 -0.00000000000E+00 -0.54551634548E+02  0.54551634548E+02  0.00000000000E+00 0. -1.
         23    2    1    2    0    0 -0.11695010278E+03 -0.17722344155E+02  0.16164233832E+03  0.22820201886E+03  0.10934581771E+03 0.  0.
          5    1    1    2  502    0  0.12161169497E+03  0.24861524426E+02  0.16131405128E+03  0.20358584256E+03  0.41800000000E+01 0.  1.
         -5    1    1    2    0  502 -0.46615921891E+01 -0.71391802709E+01  0.16574276060E+03  0.16601455788E+03  0.41800000000E+01 0.  1.
        -11    1    3    3    0    0 -0.45648155321E+02  0.19442105859E+02  0.22378837342E+01  0.49666464421E+02  0.00000000000E+00 0. -1.
         11    1    3    3    0    0 -0.71301947458E+02 -0.37164450015E+02  0.15940445459E+03  0.17853555444E+03  0.00000000000E+00 0.  1.
</event>
<event>
 7    1  0.5887855E-006  0.1298024E+03  0.7561462E-02  0.1227749E+00
          2   -1    0    0  501    0  0.00000000000E+00  0.00000000000E+00  0.13170327034E+04  0.13170327034E+04  0.00000000000E+00 0. -1.
         -2   -1    0    0    0  501 -0.00000000000E+00 -0.00000000000E+00 -0.19715123015E+02  0.19715123015E+02  0.00000000000E+00 0.  1.
         23    2    1    2    0    0 -0.43501955173E+02 -0.10995334044E+03  0.58430973038E+03  0.60325630872E+03  0.92293855790E+02 0.  0.
          5    1    1    2  502    0  0.22759063978E+02  0.55621377176E+02  0.93378228471E+02  0.11112460819E+03  0.41800000000E+01 0. -1.
         -5    1    1    2    0  502  0.20742891194E+02  0.54331963266E+02  0.61962962151E+03  0.62236690948E+03  0.41800000000E+01 0. -1.
        -11    1    3    3    0    0 -0.65378960479E+02 -0.72050739150E+02  0.48604633875E+03  0.49568816902E+03  0.00000000000E+00 0. -1.
         11    1    3    3    0    0  0.21877005306E+02 -0.37902601293E+02  0.98263391623E+02  0.10756813970E+03  0.00000000000E+00 0.  1.
</event>
<event>
 7    1  0.4096326E-006  0.1639746E+03  0.7561462E-02  0.1184281E+00
          1   -1    0    0  501    0  0.00000000000E+00  0.00000000000E+00  0.39470958826E+03  0.39470958826E+03  0.00000000000E+00 0. -1.
         -1   -1    0    0    0  501 -0.00000000000E+00 -0.00000000000E+00 -0.10839732315E+03  0.10839732315E+03  0.00000000000E+00 0.  1.
         23    2    1    2    0    0 -0.15255524617E+03  0.51827331370E+02  0.22445102526E+03  0.28995172031E+03  0.87946358428E+02 0.  0.
          5    1    1    2  502    0  0.74643647792E+02 -0.24300010026E+02 -0.34757721615E+02  0.85951941542E+02  0.41800000000E+01 0.  1.
         -5    1    1    2    0  502  0.77911598374E+02 -0.27527321344E+02  0.96618961475E+02  0.12720324956E+03  0.41800000000E+01 0.  1.
        -11    1    3    3    0    0 -0.13931811508E+03  0.59285374625E+02  0.22860732519E+03  0.27419993064E+03  0.00000000000E+00 0. -1.
         11    1    3    3    0    0 -0.13237131091E+02 -0.74580432552E+01 -0.41562999297E+01  0.15751789670E+02  0.00000000000E+00 0.  1.
</event>
<event>
 7    1  0.4096326E-006  0.3070811E+03  0.7561462E-02  0.1081753E+00
          1   -1    0    0  501    0  0.00000000000E+00  0.00000000000E+00  0.66511658307E+02  0.66511658307E+02  0.00000000000E+00 0. -1.
         -1   -1    0    0    0  501 -0.00000000000E+00 -0.00000000000E+00 -0.18261527242E+04  0.18261527242E+04  0.00000000000E+00 0.  1.
         23    2    1    2    0    0 -0.31700156191E+02  0.28639225406E+03 -0.42590028889E+03  0.52243564678E+03  0.92317527390E+02 0.  0.
          5    1    1    2  502    0  0.56061118781E+02 -0.28207401136E+03 -0.12571543156E+04  0.12896367871E+04  0.41800000000E+01 0. -1.
         -5    1    1    2    0  502 -0.24360962590E+02 -0.43182427034E+01 -0.76586461393E+02  0.80591948649E+02  0.41800000000E+01 0. -1.
        -11    1    3    3    0    0  0.30690075182E+02  0.11610393238E+03 -0.14800557374E+03  0.19059814712E+03  0.00000000000E+00 0. -1.
         11    1    3    3    0    0 -0.62390231372E+02  0.17028832169E+03 -0.27789471515E+03  0.33183749966E+03  0.00000000000E+00 0.  1.
</event>
<event>
 7    1  0.4096326E-006  0.1039399E+03  0.7561462E-02  0.1272222E+00
          2   -1    0    0  501    0  0.00000000000E+00  0.00000000000E+00  0.16412850845E+03  0.16412850845E+03  0.00000000000E+00 0. -1.
         -2   -1    0    0    0  501 -0.00000000000E+00 -0.00000000000E+00 -0.11089003535E+03  0.11089003535E+03  0.00000000000E+00 0.  1.
         23    2    1    2    0    0 -0.52353910304E+02  0.60345129918E+02  0.37123048346E+02  0.12571992721E+03  0.89693437609E+02 0.  0.
          5    1    1    2  502    0  0.79572564006E+01 -0.46105708636E+02  0.65922493841E+02  0.80946290171E+02  0.41800000000E+01 0. -1.
         -5    1    1    2    0  502  0.44396653903E+02 -0.14239421282E+02 -0.49807069082E+02  0.68352326418E+02  0.41800000000E+01 0. -1.
        -11    1    3    3    0    0  0.32567965732E+01  0.58357816539E+02  0.38617033654E+02  0.70053670591E+02  0.00000000000E+00 0. -1.
         11    1    3    3    0    0 -0.55610706877E+02  0.19873133795E+01 -0.14939853074E+01  0.55666256619E+02  0.00000000000E+00 0.  1.
</event>
<event>
 7    1  0.4096326E-006  0.1773146E+03  0.7561462E-02  0.1170428E+00
         -1   -1    0    0    0  501 -0.00000000000E+00  0.00000000000E+00  0.65084845142E+02  0.65084845142E+02  0.00000000000E+00 0.  1.
          1   -1    0    0  501    0  0.00000000000E+00 -0.00000000000E+00 -0.70774606527E+03  0.70774606527E+03  0.00000000000E+00 0. -1.
         23    2    1    2    0    0 -0.18915234750E+02  0.14795793305E+03 -0.50494227915E+03  0.53436999968E+03  0.91297618968E+02 0.  0.
          5    1    1    2  502    0 -0.13648343070E+02  0.14696523076E+02 -0.42417367464E+02  0.47105949960E+02  0.41800000000E+01 0. -1.
         -5    1    1    2    0  502  0.32563577820E+02 -0.16265445612E+03 -0.95301573513E+02  0.19135496077E+03  0.41800000000E+01 0. -1.
        -11    1    3    3    0    0  0.24691670312E+02  0.10162108004E+03 -0.23823576464E+03  0.26017840426E+03  0.00000000000E+00 0.  1.
         11    1    3    3    0    0 -0.43606905063E+02  0.46336853004E+02 -0.26670651451E+03  0.27419159542E+03  0.00000000000E+00 0. -1.
</event>
<event>
 7    1  0.4096326E-006  0.1163690E+03  0.7561462E-02  0.1249210E+00
         -3   -1    0    0    0  501 -0.00000000000E+00  0.00000000000E+00  0.48358177721E+02  0.48358177721E+02  0.00000000000E+00 0.  1.
          3   -1    0    0  501    0  0.00000000000E+00 -0.00000000000E+00 -0.40880734495E+03  0.40880734495E+03  0.00000000000E+00 0. -1.
         23    2    1    2    0    0  0.71101543775E+02  0.44354867130E+02 -0.21270920999E+03  0.24622067838E+03  0.91414608682E+02 0.  0.
          5    1    1    2  502    0 -0.10510396540E+03 -0.36812435056E+02 -0.89396471174E+02  0.14286777235E+03  0.41800000000E+01 0. -1.
         -5    1    1    2    0  502  0.34002421628E+02 -0.75424320739E+01 -0.58343486067E+02  0.68077071945E+02  0.41800000000E+01 0. -1.
        -11    1    3    3    0    0  0.36662435173E+02  0.11010458327E+02 -0.18882028590E+03  0.19266152889E+03  0.00000000000E+00 0. -1.
         11    1    3    3    0    0  0.34439108603E+02  0.33344408803E+02 -0.23888924086E+02  0.53559149487E+02  0.00000000000E+00 0.  1.
</event>
<event>
 7    1  0.4096326E-006  0.1172918E+03  0.7561462E-02  0.1247633E+00
         -1   -1    0    0    0  501 -0.00000000000E+00  0.00000000000E+00  0.49337619385E+02  0.49337619385E+02  0.00000000000E+00 0.  1.
          1   -1    0    0  501    0  0.00000000000E+00 -0.00000000000E+00 -0.33885240785E+03  0.33885240785E+03  0.00000000000E+00 0. -1.
         23    2    1    2    0    0 -0.62154521538E+02  0.33230740591E+01 -0.16538840931E+03  0.20129650763E+03  0.96398810593E+02 0.  0.
          5    1    1    2  502    0  0.22914479954E+02 -0.56922511334E+02 -0.97348070970E+02  0.11514931615E+03  0.41800000000E+01 0. -1.
         -5    1    1    2    0  502  0.39240041584E+02  0.53599437275E+02 -0.26778308191E+02  0.71744203454E+02  0.41800000000E+01 0. -1.
        -11    1    3    3    0    0  0.19044788077E+02  0.15317140648E+02 -0.76492261906E+02  0.80301836107E+02  0.00000000000E+00 0. -1.
         11    1    3    3    0    0 -0.81199309616E+02 -0.11994066589E+02 -0.88896147401E+02  0.12099467153E+03  0.00000000000E+00 0.  1.
</event>
<event>
 7    1  0.4096326E-006  0.1138681E+03  0.7561462E-02  0.1253570E+00
         -2   -1    0    0    0  501 -0.00000000000E+00  0.00000000000E+00  0.83473769526E+03  0.83473769526E+03  0.00000000000E+00 0.  1.
          2   -1    0    0  501    0  0.00000000000E+00 -0.00000000000E+00 -0.22083868926E+02  0.22083868926E+02  0.00000000000E+00 0. -1.
         23    2    1    2    0    0  0.43521598321E+01  0.47623543047E+02  0.17052652189E+03  0.20087844625E+03  0.94794052309E+02 0.  0.
          5    1    1    2  502    0  0.53753469342E+02 -0.49258270972E+02  0.29170193264E+03  0.30070467677E+03  0.41800000000E+01 0.  1.
         -5    1    1    2    0  502 -0.58105629174E+02  0.16347279246E+01  0.35042537181E+03  0.35523844117E+03  0.41800000000E+01 0.  1.
        -11    1    3    3    0    0 -0.37970619416E+02  0.36497934417E+02  0.13364617849E+03  0.14364946286E+03  0.00000000000E+00 0.  1.
         11    1    3    3    0    0  0.42322779248E+02  0.11125608630E+02  0.36880343405E+02  0.57228983394E+02  0.00000000000E+00 0. -1.
</event>
<event>
 7    1  0.4096326E-006  0.9329793E+02  0.7561462E-02  0.1295056E+00
          1   -1    0    0  501    0  0.00000000000E+00  0.00000000000E+00  0.16086815336E+03  0.16086815336E+03  0.00000000000E+00 0. -1.
         -1   -1    0    0    0  501 -0.00000000000E+00 -0.00000000000E+00 -0.96531312777E+02  0.96531312777E+02  0.00000000000E+00 0.  1.
         23    2    1    2    0    0  0.36801064942E+02 -0.40256393779E+02  0.39667835396E+02  0.11872718676E+03  0.97712394756E+02 0.  0.
          5    1    1    2  502    0  0.21818005922E+02  0.60993882114E+02  0.37612327357E+02  0.75022920544E+02  0.41800000000E+01 0. -1.
         -5    1    1    2    0  502 -0.58619070864E+02 -0.20737488335E+02 -0.12943322172E+02  0.63649358836E+02  0.41800000000E+01 0. -1.
        -11    1    3    3    0    0  0.29815429937E+02 -0.15427928719E+02 -0.29635458170E+02  0.44779919918E+02  0.00000000000E+00 0.  1.
         11    1    3    3    0    0  0.69856350050E+01 -0.24828465060E+02  0.69303293567E+02  0.73947266838E+02  0.00000000000E+00 0. -1.
</event>
<event>
 7    1  0.4096326E-006  0.1069076E+03  0.7561462E-02  0.1266406E+00
          1   -1    0    0  501    0  0.00000000000E+00  0.00000000000E+00  0.31848736191E+02  0.31848736191E+02  0.00000000000E+00 0. -1.
         -1   -1    0    0    0  501 -0.00000000000E+00 -0.00000000000E+00 -0.64130650777E+03  0.64130650777E+03  0.00000000000E+00 0.  1.
         23    2    1    2    0    0 -0.29085916075E+02 -0.21720600119E+02 -0.81497402998E+02  0.12936644259E+03  0.93680706599E+02 0.  0.
          5    1    1    2  502    0 -0.14384937470E+02 -0.44564611207E+02 -0.26391352205E+03  0.26806855563E+03  0.41800000000E+01 0.  1.
         -5    1    1    2    0  502  0.43470853545E+02  0.66285211326E+02 -0.26404684652E+03  0.27572024573E+03  0.41800000000E+01 0.  1.
        -11    1    3    3    0    0  0.21407830899E+02  0.13992438460E+02 -0.57673261080E+02  0.63089528461E+02  0.00000000000E+00 0.  1.
         11    1    3    3    0    0 -0.50493746974E+02 -0.35713038578E+02 -0.23824141918E+02  0.66276914126E+02  0.00000000000E+00 0. -1.
</event>
<event>
 7    1  0.4096326E-006  0.8127534E+02  0.7561462E-02  0.1325471E+00
         -1   -1    0    0    0  501 -0.00000000000E+00  0.00000000000E+00  0.31928753450E+03  0.31928753450E+03  0.00000000000E+00 0.  1.
          1   -1    0    0  501    0  0.00000000000E+00 -0.00000000000E+00 -0.46471916823E+02  0.46471916823E+02  0.00000000000E+00 0. -1.
         23    2    1    2    0    0  0.33450151294E+02 -0.27463363162E+02  0.67199328544E+02  0.12122221981E+03  0.91136863464E+02 0.  0.
          5    1    1    2  502    0  0.30903830899E+02 -0.18941725556E+02  0.17778869841E+02  0.40588130582E+02  0.41800000000E+01 0.  1.
         -5    1    1    2    0  502 -0.64353982194E+02  0.46405088718E+02  0.18783741929E+03  0.20394910093E+03  0.41800000000E+01 0.  1.
        -11    1    3    3    0    0  0.42250697691E+01 -0.13648649903E+02  0.83712455084E+02  0.84922976837E+02  0.00000000000E+00 0.  1.
         11    1    3    3    0    0  0.29225081525E+02 -0.13814713260E+02 -0.16513126540E+02  0.36299242977E+02  0.00000000000E+00 0. -1.
</event>
<event>
 7    1  0.4096326E-006  0.6338511E+02  0.7561462E-02  0.1384151E+00
          1   -1    0    0  501    0  0.00000000000E+00  0.00000000000E+00  0.12774199832E+03  0.12774199832E+03  0.00000000000E+00 0. -1.
         -1   -1    0    0    0  501 -0.00000000000E+00 -0.00000000000E+00 -0.10813024227E+03  0.10813024227E+03  0.00000000000E+00 0.  1.
         23    2    1    2    0    0 -0.60309877130E+01  0.43847781953E+02  0.38711578722E+01  0.10225423537E+03  0.92097459210E+02 0.  0.
          5    1    1    2  502    0  0.27185827360E+02 -0.10636818967E+02  0.64430692221E+02  0.70858998208E+02  0.41800000000E+01 0.  1.
         -5    1    1    2    0  502 -0.21154839647E+02 -0.33210962986E+02 -0.48690094039E+02  0.62759007007E+02  0.41800000000E+01 0.  1.
        -11    1    3    3    0    0  0.12174197580E+02  0.23944206304E+01 -0.38374734836E+02  0.40330690679E+02  0.00000000000E+00 0.  1.
         11    1    3    3    0    0 -0.18205185293E+02  0.41453361323E+02  0.42245892708E+02  0.61923544692E+02  0.00000000000E+00 0. -1.
</event>
<event>
 7    1  0.4096326E-006  0.1471920E+03  0.7561462E-02  0.1203966E+00
         -1   -1    0    0    0  501 -0.00000000000E+00  0.00000000000E+00  0.62004901026E+02  0.62004901026E+02  0.00000000000E+00 0.  1.
          1   -1    0    0  501    0  0.00000000000E+00 -0.00000000000E+00 -0.68395720319E+03  0.68395720319E+03  0.00000000000E+00 0. -1.
         23    2    1    2    0    0 -0.94815870340E+02 -0.76485774273E+02 -0.52438127607E+03  0.54594470129E+03  0.90773185734E+02 0.  0.
          5    1    1    2  502    0  0.41287448291E+02 -0.97818405962E+01 -0.88212761137E+02  0.97976024716E+02  0.41800000000E+01 0. -1.
         -5    1    1    2    0  502  0.53528422049E+02  0.86267614870E+02 -0.93582649573E+01  0.10204137820E+03  0.41800000000E+01 0. -1.
        -11    1    3    3    0    0 -0.11103693885E+03 -0.57095155984E+02 -0.40052479832E+03  0.41953447140E+03  0.00000000000E+00 0.  1.
         11    1    3    3    0    0  0.16221068513E+02 -0.19390618289E+02 -0.12385647775E+03  0.12641022990E+03  0.00000000000E+00 0. -1.
</event>
<event>
 7    1  0.4096326E-006  0.1217682E+03  0.7561462E-02  0.1240208E+00
          1   -1    0    0  501    0  0.00000000000E+00  0.00000000000E+00  0.53029657815E+02  0.53029657815E+02  0.00000000000E+00 0. -1.
         -1   -1    0    0    0  501 -0.00000000000E+00 -0.00000000000E+00 -0.37067947201E+03  0.37067947201E+03  0.00000000000E+00 0.  1.
         23    2    1    2    0    0  0.87432700065E+02 -0.17597435315E+02 -0.14289390039E+03  0.19102546169E+03  0.90099464353E+02 0.  0.
          5    1    1    2  502    0  0.12756486032E+02 -0.15969869306E+02 -0.10251876984E+03  0.10461995618E+03  0.41800000000E+01 0. -1.
         -5    1    1    2    0  502 -0.10018918610E+03  0.33567304621E+02 -0.72237143968E+02  0.12806371195E+03  0.41800000000E+01 0. -1.
        -11    1    3    3    0    0 -0.98398275737E+01  0.11749509013E+02  0.44147353626E+00  0.15331929677E+02  0.00000000000E+00 0. -1.
         11    1    3    3    0    0  0.97272527639E+02 -0.29346944328E+02 -0.14333537392E+03  0.17569353202E+03  0.00000000000E+00 0.  1.
</event>
<event>
 7    1  0.4096326E-006  0.1407131E+03  0.7561462E-02  0.1212373E+00
          1   -1    0    0  501    0  0.00000000000E+00  0.00000000000E+00  0.34098965149E+03  0.34098965149E+03  0.00000000000E+00 0. -1.
         -1   -1    0    0    0  501 -0.00000000000E+00 -0.00000000000E+00 -0.91403775197E+02  0.91403775197E+02  0.00000000000E+00 0.  1.
         23    2    1    2    0    0  0.72741375354E+02 -0.93832538328E+02  0.20643024676E+03  0.25461331737E+03  0.90103505300E+02 0.  0.
          5    1    1    2  502    0 -0.10122197036E+03  0.82940897854E+02  0.81709731850E+01  0.13118428650E+03  0.41800000000E+01 0.  1.
         -5    1    1    2    0  502  0.28480595011E+02  0.10891640474E+02  0.34984656343E+02  0.46595822815E+02  0.41800000000E+01 0.  1.
        -11    1    3    3    0    0  0.20808675518E+02 -0.38954183498E+02  0.11623570111E+02  0.45667677529E+02  0.00000000000E+00 0.  1.
         11    1    3    3    0    0  0.51932699836E+02 -0.54878354830E+02  0.19480667665E+03  0.20894563984E+03  0.00000000000E+00 0. -1.
</event>
<event>
 7    1  0.4096326E-006  0.1076631E+03  0.7561462E-02  0.1264960E+00
          2   -1    0    0  501    0  0.00000000000E+00  0.00000000000E+00  0.90156564753E+03  0.90156564753E+03  0.00000000000E+00 0. -1.
         -2   -1    0    0    0  501 -0.00000000000E+00 -0.00000000000E+00 -0.15660170566E+02  0.15660170566E+02  0.00000000000E+00 0.  1.
         23    2    1    2    0    0 -0.29770706683E+02 -0.31078002872E+02  0.47221888087E+03  0.48290434835E+03  0.91399129973E+02 0.  0.
          5    1    1    2  502    0  0.30152882976E+02 -0.36082893071E+02  0.72173329804E+02  0.86241715307E+02  0.41800000000E+01 0. -1.
         -5    1    1    2    0  502 -0.38217629303E+00  0.67160895943E+02  0.34151326629E+03  0.34807975444E+03  0.41800000000E+01 0. -1.
        -11    1    3    3    0    0 -0.23333830903E+02  0.30785029996E+02  0.16641995314E+03  0.17084433423E+03  0.00000000000E+00 0. -1.
         11    1    3    3    0    0 -0.64368757799E+01 -0.61863032869E+02  0.30579892773E+03  0.31206001411E+03  0.00000000000E+00 0.  1.
</event>
<event>
 7    1  0.4096326E-006  0.1385197E+03  0.7561462E-02  0.1215335E+00
         -2   -1    0    0    0  501 -0.00000000000E+00  0.00000000000E+00  0.61638128939E+02  0.61638128939E+02  0.00000000000E+00 0.  1.
          2   -1    0    0  501    0  0.00000000000E+00 -0.00000000000E+00 -0.41014804783E+03  0.41014804783E+03  0.00000000000E+00 0. -1.
         23    2    1    2    0    0  0.67002520215E+02 -0.86124717856E+02 -0.10202643111E+03  0.17462303380E+03  0.90426802156E+02 0.  0.
          5    1    1    2  502    0 -0.65589686334E+02  0.11727793828E+03 -0.19592447389E+03  0.23761311755E+03  0.41800000000E+01 0.  1.
         -5    1    1    2    0  502 -0.14128338811E+01 -0.31153220424E+02 -0.50559013888E+02  0.59550025421E+02  0.41800000000E+01 0.  1.
        -11    1    3    3    0    0  0.45182966098E+02 -0.40992448528E+02 -0.67963199406E-01  0.61007260885E+02  0.00000000000E+00 0.  1.
         11    1    3    3    0    0  0.21819554118E+02 -0.45132269328E+02 -0.10195846791E+03  0.11361577292E+03  0.00000000000E+00 0. -1.
</event>
<event>
 7    1  0.4096326E-006  0.1631390E+03  0.7561462E-02  0.1185198E+00
         -2   -1    0    0    0  501 -0.00000000000E+00  0.00000000000E+00  0.68484603016E+03  0.68484603016E+03  0.00000000000E+00 0.  1.
          2   -1    0    0  501    0  0.00000000000E+00 -0.00000000000E+00 -0.51480946135E+02  0.51480946135E+02  0.00000000000E+00 0. -1.
         23    2    1    2    0    0  0.10188910633E+03  0.11385130505E+03  0.28471429199E+03  0.33564187699E+03  0.90828034643E+02 0.  0.
          5    1    1    2  502    0 -0.45488598343E+02 -0.38794970671E+02  0.27266626857E+02  0.65842263545E+02  0.41800000000E+01 0. -1.
         -5    1    1    2    0  502 -0.56400507986E+02 -0.75056334380E+02  0.32138416518E+03  0.33484283576E+03  0.41800000000E+01 0. -1.
        -11    1    3    3    0    0  0.48085032334E+02  0.18576484233E+01  0.46214488030E+02  0.66718813659E+02  0.00000000000E+00 0. -1.
         11    1    3    3    0    0  0.53804073995E+02  0.11199365663E+03  0.23849980396E+03  0.26892306333E+03  0.00000000000E+00 0.  1.
</event>
<event>
 7    1  0.4096326E-006  0.1357168E+03  0.7561462E-02  0.1219211E+00
          1   -1    0    0  501    0  0.00000000000E+00  0.00000000000E+00  0.13234384081E+03  0.13234384081E+03  0.00000000000E+00 0. -1.
         -1   -1    0    0    0  501 -0.00000000000E+00 -0.00000000000E+00 -0.18657592526E+03  0.18657592526E+03  0.00000000000E+00 0.  1.
         23    2    1    2    0    0 -0.78408999346E+02  0.47415894918E+02  0.42048966911E+02  0.13639848497E+03  0.91870522013E+02 0.  0.
          5    1    1    2  502    0  0.10571642546E+03 -0.39681904071E+02 -0.40935112994E+02  0.12018224494E+03  0.41800000000E+01 0. -1.
         -5    1    1    2    0  502 -0.27307426111E+02 -0.77339908469E+01 -0.55345938369E+02  0.62339036158E+02  0.41800000000E+01 0. -1.
        -11    1    3    3    0    0  0.10661522720E+02  0.38829357502E+02  0.12475458510E+02  0.42154764093E+02  0.00000000000E+00 0.  1.
         11    1    3    3    0    0 -0.89070522065E+02  0.85865374154E+01  0.29573508401E+02  0.94243720878E+02  0.00000000000E+00 0. -1.
</event>
<event>
 7    1  0.4096326E-006  0.8083071E+02  0.7561462E-02  0.1326710E+00
         -1   -1    0    0    0  501 -0.00000000000E+00  0.00000000000E+00  0.65893102595E+02  0.65893102595E+02  0.00000000000E+00 0.  1.
          1   -1    0    0  501    0  0.00000000000E+00 -0.00000000000E+00 -0.23127284622E+03  0.23127284622E+03  0.00000000000E+00 0. -1.
         23    2    1    2    0    0 -0.66080996340E+01  0.50671510520E+02 -0.10589931031E+03  0.14952860455E+03  0.92373538936E+02 0.  0.
          5    1    1    2  502    0 -0.80362760095E+01 -0.15490729237E+02 -0.94213496069E+02  0.95907245117E+02  0.41800000000E+01 0. -1.
         -5    1    1    2    0  502  0.14644375643E+02 -0.35180781282E+02  0.34733062754E+02  0.51730099148E+02  0.41800000000E+01 0. -1.
        -11    1    3    3    0    0  0.20625012576E+02  0.69353826076E+02 -0.76746131814E+02  0.10547659970E+03  0.00000000000E+00 0. -1.
         11    1    3    3    0    0 -0.27233112210E+02 -0.18682315557E+02 -0.29153178495E+02  0.44052004853E+02  0.00000000000E+00 0.  1.
</event>
<event>
 7    1  0.4096326E-006  0.1248010E+03  0.7561462E-02  0.1235381E+00
          3   -1    0    0  501    0  0.00000000000E+00  0.00000000000E+00  0.67775253424E+03  0.67775253424E+03  0.00000000000E+00 0. -1.
         -3   -1    0    0    0  501 -0.00000000000E+00 -0.00000000000E+00 -0.26713376117E+02  0.26713376117E+02  0.00000000000E+00 0.  1.
         23    2    1    2    0    0 -0.71814490445E+02 -0.56862526347E+01  0.37321210122E+03  0.39138011003E+03  0.93281635512E+02 0.  0.
          5    1    1    2  502    0 -0.33887083668E+02 -0.74254099750E+01  0.97968238002E+02  0.10401307230E+03  0.41800000000E+01 0. -1.
         -5    1    1    2    0  502  0.10570157411E+03  0.13111662610E+02  0.17985881890E+03  0.20907272802E+03  0.41800000000E+01 0. -1.
        -11    1    3    3    0    0 -0.76632218215E+02 -0.30729435562E+02  0.33778233985E+03  0.34772647899E+03  0.00000000000E+00 0. -1.
         11    1    3    3    0    0  0.48177277705E+01  0.25043182928E+02  0.35429761371E+02  0.43653631038E+02  0.00000000000E+00 0.  1.
</event>
<event>
 7    1  0.4096326E-006  0.1350611E+03  0.7561462E-02  0.1220134E+00
         -1   -1    0    0    0  501 -0.00000000000E+00  0.00000000000E+00  0.62829409360E+03  0.62829409360E+03  0.00000000000E+00 0.  1.
          1   -1    0    0  501    0  0.00000000000E+00 -0.00000000000E+00 -0.41609199213E+02  0.41609199213E+02  0.00000000000E+00 0. -1.
         23    2    1    2    0    0 -0.53724027668E+02  0.77927734195E+02  0.10493210593E+03  0.16326218844E+03  0.81760579831E+02 0.  0.
          5    1    1    2  502    0  0.80137778493E+02 -0.20571151264E+02  0.36017032755E+03  0.36957458389E+03  0.41800000000E+01 0.  1.
         -5    1    1    2    0  502 -0.26413750826E+02 -0.57356582931E+02  0.12158246091E+03  0.13706652049E+03  0.41800000000E+01 0.  1.
        -11    1    3    3    0    0 -0.70918320761E+02  0.37852397571E+02  0.57534578426E+02  0.98855652019E+02  0.00000000000E+00 0. -1.
         11    1    3    3    0    0  0.17194293093E+02  0.40075336623E+02  0.47397527503E+02  0.64406536422E+02  0.00000000000E+00 0.  1.
</event>
<event>
 7    1  0.4096326E-006  0.1270567E+03  0.7561462E-02  0.1231890E+00
          2   -1    0    0  501    0  0.00000000000E+00  0.00000000000E+00  0.12413050900E+04  0.12413050900E+04  0.00000000000E+00 0.  1.
         -2   -1    0    0    0  501 -0.00000000000E+00 -0.00000000000E+00 -0.14714055296E+02  0.14714055296E+02  0.00000000000E+00 0. -1.
         23    2    1    2    0    0 -0.53703368899E+02  0.52396515064E+02  0.42209921891E+03  0.43841029872E+03  0.91686382846E+02 0.  0.
          5    1    1    2  502    0 -0.32590929296E+02  0.14937819154E+02  0.17992231727E+03  0.18350700196E+03  0.41800000000E+01 0. -1.
         -5    1    1    2    0  502  0.86294298196E+02 -0.67334334217E+02  0.62456949848E+03  0.63410184458E+03  0.41800000000E+01 0. -1.
        -11    1    3    3    0    0 -0.49250473046E+02 -0.62702968376E+01  0.28389667364E+03  0.28820521686E+03  0.00000000000E+00 0. -1.
         11    1    3    3    0    0 -0.44528958538E+01  0.58666811901E+02  0.13820254527E+03  0.15020508187E+03  0.00000000000E+00 0.  1.
</event>
<event>
 7    1  0.4096326E-006  0.1783384E+03  0.7561462E-02  0.1169421E+00
         -1   -1    0    0    0  501 -0.00000000000E+00  0.00000000000E+00  0.52517293572E+03  0.52517293572E+03  0.00000000000E+00 0.  1.
          1   -1    0    0  501    0  0.00000000000E+00 -0.00000000000E+00 -0.86809825229E+02  0.86809825229E+02  0.00000000000E+00 0. -1.
         23    2    1    2    0    0 -0.58918737342E+02 -0.16583862463E+03  0.13648906440E+03  0.24083708595E+03  0.91648078206E+02 0.  0.
          5    1    1    2  502    0  0.59323413207E+02  0.12892802342E+03  0.12115697341E+03  0.18664990540E+03  0.41800000000E+01 0. -1.
         -5    1    1    2    0  502 -0.40467586506E+00  0.36910601210E+02  0.18071707268E+03  0.18449576960E+03  0.41800000000E+01 0. -1.
        -11    1    3    3    0    0 -0.24766475006E+02 -0.39084624214E+02  0.90673952135E+02  0.10179760179E+03  0.00000000000E+00 0.  1.
         11    1    3    3    0    0 -0.34152262335E+02 -0.12675400042E+03  0.45815112270E+02  0.13903948416E+03  0.00000000000E+00 0. -1.
</event>
<event>
 7    1  0.4096326E-006  0.8894207E+02  0.7561462E-02  0.1305434E+00
          1   -1    0    0  501    0  0.00000000000E+00  0.00000000000E+00  0.35988940782E+03  0.35988940782E+03  0.00000000000E+00 0. -1.
         -1   -1    0    0    0  501 -0.00000000000E+00 -0.00000000000E+00 -0.35074484141E+02  0.35074484141E+02  0.00000000000E+00 0.  1.
         23    2    1    2    0    0 -0.84716114102E+01  0.20897630079E+02  0.15587731053E+03  0.18355532833E+03  0.94267404095E+02 0.  0.
          5    1    1    2  502    0 -0.26093572663E+02 -0.34667582891E+02  0.16841382233E+03  0.17396380022E+03  0.41800000000E+01 0.  1.
         -5    1    1    2    0  502  0.34565184073E+02  0.13769952812E+02  0.52379082333E+00  0.37444763416E+02  0.41800000000E+01 0.  1.
        -11    1    3    3    0    0 -0.41578031909E+02  0.40776145461E+02  0.90167833076E+02  0.10733901852E+03  0.00000000000E+00 0.  1.
         11    1    3    3    0    0  0.33106420499E+02 -0.19878515382E+02  0.65709477457E+02  0.76216309801E+02  0.00000000000E+00 0. -1.
</event>
<event>
 7    1  0.4096326E-006  0.1231654E+03  0.7561462E-02  0.1237965E+00
         -1   -1    0    0    0  501 -0.00000000000E+00  0.00000000000E+00  0.65334953440E+03  0.65334953440E+03  0.00000000000E+00 0.  1.
          1   -1    0    0  501    0  0.00000000000E+00 -0.00000000000E+00 -0.48712255139E+02  0.48712255139E+02  0.00000000000E+00 0. -1.
         23    2    1    2    0    0 -0.71128839085E+02  0.62832544545E+02  0.79359325846E+02  0.15381835400E+03  0.91405377447E+02 0.  0.
          5    1    1    2  502    0 -0.15126776948E+02  0.63752181196E+01  0.26337306568E+03  0.26391723497E+03  0.41800000000E+01 0. -1.
         -5    1    1    2    0  502  0.86255616033E+02 -0.69207762664E+02  0.26190488773E+03  0.28432620057E+03  0.41800000000E+01 0. -1.
        -11    1    3    3    0    0 -0.32698539488E+02  0.72121295033E+02  0.18624281756E+02  0.81348260908E+02  0.00000000000E+00 0. -1.
         11    1    3    3    0    0 -0.38430299597E+02 -0.92887504879E+01  0.60735044090E+02  0.72470093096E+02  0.00000000000E+00 0.  1.
</event>
<event>
 7    1  0.4096326E-006  0.1000356E+03  0.7561462E-02  0.1280221E+00
         -1   -1    0    0    0  501 -0.00000000000E+00  0.00000000000E+00  0.14901121063E+03  0.14901121063E+03  0.00000000000E+00 0.  1.
          1   -1    0    0  501    0  0.00000000000E+00 -0.00000000000E+00 -0.86894360184E+02  0.86894360184E+02  0.00000000000E+00 0. -1.
         23    2    1    2    0    0 -0.45728919173E+01 -0.15337821167E+02  0.57491011206E+02  0.10971244184E+03  0.92062171525E+02 0.  0.
          5    1    1    2  502    0 -0.22663226308E+02  0.54329424779E+02 -0.30961824477E+02  0.66643943449E+02  0.41800000000E+01 0. -1.
         -5    1    1    2    0  502  0.27236118225E+02 -0.38991603612E+02  0.35587663721E+02  0.59549185530E+02  0.41800000000E+01 0. -1.
        -11    1    3    3    0    0  0.11794275981E+02 -0.51915332051E+02  0.29899568705E+02  0.61059731875E+02  0.00000000000E+00 0. -1.
         11    1    3    3    0    0 -0.16367167898E+02  0.36577510884E+02  0.27591442501E+02  0.48652709963E+02  0.00000000000E+00 0.  1.
</event>
<event>
 7    1  0.4096326E-006  0.1135140E+03  0.7561462E-02  0.1254198E+00
          2   -1    0    0  501    0  0.00000000000E+00  0.00000000000E+00  0.18038789107E+03  0.18038789107E+03  0.00000000000E+00 0. -1.
         -2   -1    0    0    0  501 -0.00000000000E+00 -0.00000000000E+00 -0.96602293771E+02  0.96602293771E+02  0.00000000000E+00 0.  1.
         23    2    1    2    0    0 -0.50938580448E+02 -0.48362826802E+02  0.63665220851E+02  0.13212407269E+03  0.92031561129E+02 0.  0.
          5    1    1    2  502    0  0.85305936026E+02  0.62738165596E+02  0.14653266686E+02  0.10698303963E+03  0.41800000000E+01 0.  1.
         -5    1    1    2    0  502 -0.34367355578E+02 -0.14375338794E+02  0.54671097657E+01  0.37883072526E+02  0.41800000000E+01 0.  1.
        -11    1    3    3    0    0 -0.45428562167E+02 -0.12271002099E+02  0.79456506712E+02  0.92345374610E+02  0.00000000000E+00 0. -1.
         11    1    3    3    0    0 -0.55100182813E+01 -0.36091824703E+02 -0.15791285860E+02  0.39778698080E+02  0.00000000000E+00 0.  1.
</event>
<event>
 7    1  0.4096326E-006  0.1058085E+03  0.7561462E-02  0.1268535E+00
          4   -1    0    0  501    0  0.00000000000E+00  0.00000000000E+00  0.69299695701E+02  0.69299695701E+02  0.00000000000E+00 0.  1.
         -4   -1    0    0    0  501 -0.00000000000E+00 -0.00000000000E+00 -0.20253491030E+03  0.20253491030E+03  0.00000000000E+00 0. -1.
         23    2    1    2    0    0 -0.40350434782E+02 -0.16723682431E+02 -0.58103532607E+02  0.11951555366E+03  0.94868898607E+02 0.  0.
          5    1    1    2  502    0  0.30451609210E+02  0.65272401032E+02 -0.13956825337E+02  0.73485047550E+02  0.41800000000E+01 0.  1.
         -5    1    1    2    0  502  0.98988255723E+01 -0.48548718601E+02 -0.61174856652E+02  0.78834004794E+02  0.41800000000E+01 0.  1.
        -11    1    3    3    0    0  0.96362332538E+01 -0.35168442969E+02  0.51337988505E+01  0.36824343345E+02  0.00000000000E+00 0.  1.
         11    1    3    3    0    0 -0.49986668036E+02  0.18444760538E+02 -0.63237331458E+02  0.82691210310E+02  0.00000000000E+00 0. -1.
</event>
<event>
 7    1  0.4096326E-006  0.1031649E+03  0.7561462E-02  0.1273778E+00
          1   -1    0    0  501    0  0.00000000000E+00  0.00000000000E+00  0.53010359960E+03  0.53010359960E+03  0.00000000000E+00 0. -1.
         -1   -1    0    0    0  501 -0.00000000000E+00 -0.00000000000E+00 -0.23802527579E+02  0.23802527579E+02  0.00000000000E+00 0.  1.
         23    2    1    2    0    0 -0.54227521476E+01 -0.10710933988E+02  0.28911861241E+03  0.30298808123E+03  0.89822463679E+02 0.  0.
          5    1    1    2  502    0 -0.42686628945E+02  0.42795948949E+02  0.15227738303E+03  0.16388872847E+03  0.41800000000E+01 0. -1.
         -5    1    1    2    0  502  0.48109381092E+02 -0.32085014961E+02  0.64905076585E+02  0.87029317478E+02  0.41800000000E+01 0. -1.
        -11    1    3    3    0    0 -0.35343792991E+02  0.23399906498E+02  0.10221320694E+03  0.11065387024E+03  0.00000000000E+00 0.  1.
         11    1    3    3    0    0  0.29921040843E+02 -0.34110840486E+02  0.18690540547E+03  0.19233421099E+03  0.00000000000E+00 0. -1.
</event>
<event>
 7    1  0.4096326E-006  0.7672662E+02  0.7561462E-02  0.1338606E+00
         -2   -1    0    0    0  501 -0.00000000000E+00  0.00000000000E+00  0.34421263463E+02  0.34421263463E+02  0.00000000000E+00 0. -1.
          2   -1    0    0  501    0  0.00000000000E+00 -0.00000000000E+00 -0.47567172493E+03  0.47567172493E+03  0.00000000000E+00 0.  1.
         23    2    1    2    0    0 -0.49168449259E+02 -0.39916200240E+02 -0.24485045269E+03  0.26877948885E+03  0.90993571202E+02 0.  0.
          5    1    1    2  502    0  0.48830194693E+02  0.23477894071E+02 -0.21164204115E+03  0.21850726626E+03  0.41800000000E+01 0.  1.
         -5    1    1    2    0  502  0.33825456583E+00  0.16438306169E+02  0.15242032374E+02  0.22806233287E+02  0.41800000000E+01 0.  1.
        -11    1    3    3    0    0  0.99070490311E+01 -0.15122659897E+02 -0.26784562471E+01  0.18276175495E+02  0.00000000000E+00 0. -1.
         11    1    3    3    0    0 -0.59075498290E+02 -0.24793540344E+02 -0.24217199644E+03  0.25050331335E+03  0.00000000000E+00 0.  1.
</event>
<event>
 7    1  0.4096326E-006  0.1189227E+03  0.7561462E-02  0.1244885E+00
         -2   -1    0    0    0  501 -0.00000000000E+00  0.00000000000E+00  0.79242845138E+02  0.79242845138E+02  0.00000000000E+00 0.  1.
          2   -1    0    0  501    0  0.00000000000E+00 -0.00000000000E+00 -0.71280040260E+03  0.71280040260E+03  0.00000000000E+00 0. -1.
         23    2    1    2    0    0  0.16974437610E+00  0.99605294327E+02 -0.31966877570E+03  0.34721283533E+03  0.91909647977E+02 0.  0.
          5    1    1    2  502    0  0.11698371318E+02 -0.34042609711E+02 -0.36119571401E+03  0.36300904587E+03  0.41800000000E+01 0. -1.
         -5    1    1    2    0  502 -0.11868115695E+02 -0.65562684616E+02  0.47306932241E+02  0.81821366538E+02  0.41800000000E+01 0.  1.
        -11    1    3    3    0    0 -0.81429781817E+01 -0.16523964148E+02 -0.32813602820E+02  0.37630865189E+02  0.00000000000E+00 0.  1.
         11    1    3    3    0    0  0.83127225578E+01  0.11612925848E+03 -0.28685517288E+03  0.30958197014E+03  0.00000000000E+00 0. -1.
</event>
<event>
 7    1  0.4096326E-006  0.1331806E+03  0.7561462E-02  0.1222811E+00
         -2   -1    0    0    0  501 -0.00000000000E+00  0.00000000000E+00  0.21798872461E+03  0.21798872461E+03  0.00000000000E+00 0. -1.
          2   -1    0    0  501    0  0.00000000000E+00 -0.00000000000E+00 -0.12061545438E+03  0.12061545438E+03  0.00000000000E+00 0.  1.
         23    2    1    2    0    0  0.65761972672E+02 -0.91681990991E+02 -0.41059256913E+01  0.14194205108E+03  0.86025942113E+02 0.  0.
          5    1    1    2  502    0 -0.67246741207E+02  0.23823591267E+02  0.10674120786E+03  0.12845561708E+03  0.41800000000E+01 0. -1.
         -5    1    1    2    0  502  0.14847685345E+01  0.67858399723E+02 -0.52620119440E+01  0.68206510835E+02  0.41800000000E+01 0. -1.
        -11    1    3    3    0    0  0.51802776391E+02 -0.22777276571E+02  0.29725126571E+02  0.63921163314E+02  0.00000000000E+00 0. -1.
         11    1    3    3    0    0  0.13959196281E+02 -0.68904714420E+02 -0.33831052262E+02  0.78020887763E+02  0.00000000000E+00 0.  1.
</event>
<event>
 7    1  0.4096326E-006  0.1307779E+03  0.7561462E-02  0.1226306E+00
          1   -1    0    0  501    0  0.00000000000E+00  0.00000000000E+00  0.19135213823E+03  0.19135213823E+03  0.00000000000E+00 0. -1.
         -1   -1    0    0    0  501 -0.00000000000E+00 -0.00000000000E+00 -0.12870033221E+03  0.12870033221E+03  0.00000000000E+00 0.  1.
         23    2    1    2    0    0  0.99963525861E+02  0.98974649801E+01  0.78464899496E+02  0.15884595167E+03  0.94787286027E+02 0.  0.
          5    1    1    2  502    0 -0.61297702583E+02 -0.67161012515E+02 -0.51684870493E+01  0.91171243286E+02  0.41800000000E+01 0.  1.
         -5    1    1    2    0  502 -0.38665823278E+02  0.57263547534E+02 -0.10644606429E+02  0.70035275483E+02  0.41800000000E+01 0.  1.
        -11    1    3    3    0    0  0.56541484823E+02  0.12138366736E+02  0.95911142183E+02  0.11199654748E+03  0.00000000000E+00 0. -1.
         11    1    3    3    0    0  0.43422041037E+02 -0.22409017559E+01 -0.17446242687E+02  0.46849404184E+02  0.00000000000E+00 0.  1.
</event>
<event>
 7    1  0.4096326E-006  0.1491699E+03  0.7561462E-02  0.1201497E+00
          1   -1    0    0  501    0  0.00000000000E+00  0.00000000000E+00  0.82809878118E+02  0.82809878118E+02  0.00000000000E+00 0. -1.
         -1   -1    0    0    0  501 -0.00000000000E+00 -0.00000000000E+00 -0.73172568198E+03  0.73172568198E+03  0.00000000000E+00 0.  1.
         23    2    1    2    0    0  0.27204187098E+01  0.80736681642E+02  0.22221611783E+01  0.12148806339E+03  0.90711626082E+02 0.  0.
          5    1    1    2  502    0  0.77075455802E+02 -0.47547759498E+02 -0.99267828322E+02  0.13443581911E+03  0.41800000000E+01 0. -1.
         -5    1    1    2    0  502 -0.79795874512E+02 -0.33188922145E+02 -0.55187013672E+03  0.55861167759E+03  0.41800000000E+01 0.  1.
        -11    1    3    3    0    0 -0.26672023295E+02 -0.78655603110E+01 -0.31374756758E+01  0.27984060093E+02  0.00000000000E+00 0.  1.
         11    1    3    3    0    0  0.29392442005E+02  0.88602241953E+02  0.53596368541E+01  0.93504003301E+02  0.00000000000E+00 0. -1.
</event>
<event>
 7    1  0.4096326E-006  0.1162425E+03  0.7561462E-02  0.1249428E+00
          2   -1    0    0  501    0  0.00000000000E+00  0.00000000000E+00  0.70383426662E+03  0.70383426662E+03  0.00000000000E+00 0. -1.
         -2   -1    0    0    0  501 -0.00000000000E+00 -0.00000000000E+00 -0.26523944353E+02  0.26523944353E+02  0.00000000000E+00 0.  1.
         23    2    1    2    0    0 -0.24107935342E+02 -0.74153745332E+02  0.36992245850E+03  0.38945629496E+03  0.93560728350E+02 0.  0.
          5    1    1    2  502    0 -0.34177379124E+02  0.74403414715E+02  0.22825181992E+03  0.24252902314E+03  0.41800000000E+01 0. -1.
         -5    1    1    2    0  502  0.58285314466E+02 -0.24966938326E+00  0.79136043840E+02  0.98372892871E+02  0.41800000000E+01 0. -1.
        -11    1    3    3    0    0  0.11613311763E+02 -0.23242704367E+01  0.97001419221E+00  0.11883272727E+02  0.00000000000E+00 0.  1.
         11    1    3    3    0    0 -0.35721247106E+02 -0.71829474895E+02  0.36895244431E+03  0.37757302224E+03  0.00000000000E+00 0. -1.
</event>
<event>
 7    1  0.4096326E-006  0.1106670E+03  0.7561462E-02  0.1259340E+00
         -1   -1    0    0    0  501 -0.00000000000E+00  0.00000000000E+00  0.21218793505E+03  0.21218793505E+03  0.00000000000E+00 0.  1.
          1   -1    0    0  501    0  0.00000000000E+00 -0.00000000000E+00 -0.70450509055E+02  0.70450509055E+02  0.00000000000E+00 0. -1.
         23    2    1    2    0    0 -0.34546136388E+02  0.12521512289E+02  0.14439407847E+02  0.10043042695E+03  0.92344736440E+02 0.  0.
          5    1    1    2  502    0  0.20770047640E+02  0.53600893406E+02  0.33885074219E+02  0.66858965799E+02  0.41800000000E+01 0. -1.
         -5    1    1    2    0  502  0.13776088749E+02 -0.66122405695E+02  0.93412943928E+02  0.11534905136E+03  0.41800000000E+01 0. -1.
        -11    1    3    3    0    0 -0.42499532138E+01 -0.37394831139E+02  0.18424971122E+02  0.41903640166E+02  0.00000000000E+00 0.  1.
         11    1    3    3    0    0 -0.30296183175E+02  0.49916343428E+02 -0.39855632756E+01  0.58526786780E+02  0.00000000000E+00 0. -1.
</event>
<event>
 7    1  0.4096326E-006  0.1173399E+03  0.7561462E-02  0.1247551E+00
         -2   -1    0    0    0  501 -0.00000000000E+00  0.00000000000E+00  0.50320969917E+02  0.50320969917E+02  0.00000000000E+00 0.  1.
          2   -1    0    0  501    0  0.00000000000E+00 -0.00000000000E+00 -0.52743657871E+03  0.52743657871E+03  0.00000000000E+00 0. -1.
         23    2    1    2    0    0 -0.22501423773E+02  0.85850333528E+02 -0.36786302742E+03  0.38944936093E+03  0.92038057031E+02 0.  0.
          5    1    1    2  502    0  0.79003785860E+01  0.25405246860E+02 -0.59856241238E+02  0.65636000525E+02  0.41800000000E+01 0. -1.
         -5    1    1    2    0  502  0.14601045187E+02 -0.11125558039E+03 -0.49396340132E+02  0.12267218718E+03  0.41800000000E+01 0. -1.
        -11    1    3    3    0    0 -0.93816322807E+01  0.80893663031E+02 -0.36640860678E+03  0.37534925984E+03  0.00000000000E+00 0. -1.
         11    1    3    3    0    0 -0.13119791493E+02  0.49566704980E+01 -0.14544206476E+01  0.14100101087E+02  0.00000000000E+00 0.  1.
</event>
<event>
 7    1  0.4096326E-006  0.1085135E+03  0.7561462E-02  0.1263348E+00
         -2   -1    0    0    0  501 -0.00000000000E+00  0.00000000000E+00  0.18492892046E+02  0.18492892046E+02  0.00000000000E+00 0.  1.
          2   -1    0    0  501    0  0.00000000000E+00 -0.00000000000E+00 -0.78764006507E+03  0.78764006507E+03  0.00000000000E+00 0. -1.
         23    2    1    2    0    0 -0.32632785664E+02  0.41234381642E+02 -0.31500523354E+03  0.33215241384E+03  0.91278452754E+02 0.  0.
          5    1    1    2  502    0  0.30860455885E+02 -0.85526713392E+02 -0.29437146291E+03  0.30812208136E+03  0.41800000000E+01 0.  1.
         -5    1    1    2    0  502  0.17723297785E+01  0.44292331750E+02 -0.15977047657E+03  0.16585846191E+03  0.41800000000E+01 0.  1.
        -11    1    3    3    0    0 -0.99872762948E+01 -0.16599912055E+02 -0.11870682004E+02  0.22720384224E+02  0.00000000000E+00 0.  1.
         11    1    3    3    0    0 -0.22645509369E+02  0.57834293697E+02 -0.30313455153E+03  0.30943202962E+03  0.00000000000E+00 0. -1.
</event>
<event>
 7    1  0.4096326E-006  0.1075545E+03  0.7561462E-02  0.1265167E+00
         -1   -1    0    0    0  501 -0.00000000000E+00  0.00000000000E+00  0.16869408979E+03  0.16869408979E+03  0.00000000000E+00 0.  1.
          1   -1    0    0  501    0  0.00000000000E+00 -0.00000000000E+00 -0.10898708496E+03  0.10898708496E+03  0.00000000000E+00 0. -1.
         23    2    1    2    0    0  0.53950844439E+02 -0.34893357785E+02 -0.21777599201E+02  0.11514809298E+03  0.93040740840E+02 0.  0.
          5    1    1    2  502    0 -0.13337635415E+02 -0.39633049715E+02  0.62737849315E+02  0.75512788883E+02  0.41800000000E+01 0. -1.
         -5    1    1    2    0  502 -0.40613209025E+02  0.74526407500E+02  0.18746754713E+02  0.87020292889E+02  0.41800000000E+01 0. -1.
        -11    1    3    3    0    0  0.26944980116E+02 -0.50265501172E+02  0.22284112276E+02  0.61230990695E+02  0.00000000000E+00 0.  1.
         11    1    3    3    0    0  0.27005864323E+02  0.15372143387E+02 -0.44061711477E+02  0.53917102282E+02  0.00000000000E+00 0. -1.
</event>
<event>
 7    1  0.4096326E-006  0.9918177E+02  0.7561462E-02  0.1282026E+00
         -1   -1    0    0    0  501 -0.00000000000E+00  0.00000000000E+00  0.17860330599E+03  0.17860330599E+03  0.00000000000E+00 0.  1.
          1   -1    0    0  501    0  0.00000000000E+00 -0.00000000000E+00 -0.95490725538E+02  0.95490725538E+02  0.00000000000E+00 0. -1.
         23    2    1    2    0    0 -0.13482863839E+02 -0.24503699961E+02 -0.33719313573E+02  0.10066214822E+03  0.90629228439E+02 0.  0.
          5    1    1    2  502    0  0.60155689414E+02  0.11614371974E+02  0.19146570119E+02  0.64324677633E+02  0.41800000000E+01 0. -1.
         -5    1    1    2    0  502 -0.46672825575E+02  0.12889327987E+02  0.97685323905E+02  0.10910720567E+03  0.41800000000E+01 0. -1.
        -11    1    3    3    0    0 -0.23792795579E+02 -0.52975637388E+02 -0.39642177042E+01  0.58208507111E+02  0.00000000000E+00 0. -1.
         11    1    3    3    0    0  0.10309931740E+02  0.28471937427E+02 -0.29755095869E+02  0.42453641110E+02  0.00000000000E+00 0.  1.
</event>
<event>
 7    1  0.4096326E-006  0.1173137E+03  0.7561462E-02  0.1247596E+00
          1   -1    0    0  501    0  0.00000000000E+00  0.00000000000E+00  0.27004966931E+03  0.27004966931E+03  0.00000000000E+00 0. -1.
         -1   -1    0    0    0  501 -0.00000000000E+00 -0.00000000000E+00 -0.54748889058E+02  0.54748889058E+02  0.00000000000E+00 0.  1.
         23    2    1    2    0    0 -0.51759184445E+02 -0.28913151514E+01  0.11710723972E+03  0.15753645038E+03  0.91740147849E+02 0.  0.
          5    1    1    2  502    0  0.67037276468E+02 -0.43737127966E+02  0.35821720010E+02  0.87792942902E+02  0.41800000000E+01 0. -1.
         -5    1    1    2    0  502 -0.15278092023E+02  0.46628443118E+02  0.62371820527E+02  0.79469165085E+02  0.41800000000E+01 0. -1.
        -11    1    3    3    0    0 -0.19439047077E+02  0.44101272397E+02  0.49544325424E+02  0.69119020247E+02  0.00000000000E+00 0.  1.
         11    1    3    3    0    0 -0.32320137367E+02 -0.46992587548E+02  0.67562914294E+02  0.88417430136E+02  0.00000000000E+00 0. -1.
</event>
<event>
 7    1  0.4096326E-006  0.1221531E+03  0.7561462E-02  0.1239587E+00
          2   -1    0    0  501    0  0.00000000000E+00  0.00000000000E+00  0.11007107614E+04  0.11007107614E+04  0.00000000000E+00 0. -1.
         -2   -1    0    0    0  501 -0.00000000000E+00 -0.00000000000E+00 -0.14104353184E+02  0.14104353184E+02  0.00000000000E+00 0.  1.
         23    2    1    2    0    0 -0.47352630406E+02  0.38319072180E+02  0.51043626744E+03  0.52208479119E+03  0.91196069950E+02 0.  0.
          5    1    1    2  502    0  0.86453556525E+02 -0.39887957582E+02  0.46845106003E+03  0.47804720963E+03  0.41800000000E+01 0. -1.
         -5    1    1    2    0  502 -0.39100926119E+02  0.15688854022E+01  0.10771908074E+03  0.11468311376E+03  0.41800000000E+01 0. -1.
        -11    1    3    3    0    0 -0.18291790342E+02  0.66618662299E+02  0.32656503929E+03  0.33379239153E+03  0.00000000000E+00 0.  1.
         11    1    3    3    0    0 -0.29060840064E+02 -0.28299590119E+02  0.18387122815E+03  0.18829239966E+03  0.00000000000E+00 0. -1.
</event>
<event>
 7    1  0.4096326E-006  0.1074745E+03  0.7561462E-02  0.1265319E+00
          1   -1    0    0  501    0  0.00000000000E+00  0.00000000000E+00  0.77528496733E+02  0.77528496733E+02  0.00000000000E+00 0. -1.
         -1   -1    0    0    0  501 -0.00000000000E+00 -0.00000000000E+00 -0.44309083756E+03  0.44309083756E+03  0.00000000000E+00 0.  1.
         23    2    1    2    0    0 -0.22783988478E+02 -0.47100664923E+02  0.27563115511E+02  0.10501912104E+03  0.86785411679E+02 0.  0.
          5    1    1    2  502    0 -0.42624687814E+02  0.53506836626E+02 -0.21697714778E+03  0.22754428280E+03  0.41800000000E+01 0. -1.
         -5    1    1    2    0  502  0.65408676292E+02 -0.64061717022E+01 -0.17614830856E+03  0.18805593045E+03  0.41800000000E+01 0.  1.
        -11    1    3    3    0    0 -0.16801340235E+02  0.12321429895E+02  0.38995187464E+02  0.44212298218E+02  0.00000000000E+00 0.  1.
         11    1    3    3    0    0 -0.59826482432E+01 -0.59422094819E+02 -0.11432071953E+02  0.60806822823E+02  0.00000000000E+00 0. -1.
</event>
<event>
 6    1  0.4096326E-006  0.1715698E+03  0.7561462E-02  0.1176221E+00
          2   -1    0    0  501    0  0.00000000000E+00  0.00000000000E+00  0.45939850631E+03  0.45939850631E+03  0.00000000000E+00 0.  1.
         -2   -1    0    0    0  501 -0.00000000000E+00 -0.00000000000E+00 -0.69386886842E+02  0.69386886842E+02  0.00000000000E+00 0. -1.
          5    1    1    2  502    0 -0.15080557802E+02  0.28210813075E+02  0.10365766613E+02  0.33885021993E+02  0.41800000000E+01 0. -1.
         -5    1    1    2    0  502  0.50210926940E+02 -0.93488874631E+02  0.13442150693E+03  0.17131234862E+03  0.41800000000E+01 0. -1.
        -11    1    1    2    0    0 -0.10748297084E+03  0.75856939072E+02  0.19364350356E+03  0.23410397412E+03  0.00000000000E+00 0.  1.
         11    1    1    2    0    0  0.72352601703E+02 -0.10578877516E+02  0.51580842354E+02  0.89484048415E+02  0.00000000000E+00 0. -1.
</event>
<event>
 7    1  0.4096326E-006  0.1130744E+03  0.7561462E-02  0.1254980E+00
         -2   -1    0    0    0  501 -0.00000000000E+00  0.00000000000E+00  0.42694984516E+03  0.42694984516E+03  0.00000000000E+00 0. -1.
          2   -1    0    0  501    0  0.00000000000E+00 -0.00000000000E+00 -0.35864406097E+02  0.35864406097E+02  0.00000000000E+00 0.  1.
         23    2    1    2    0    0 -0.44698688342E+02 -0.13811647018E+02  0.10103340819E+03  0.14348740347E+03  0.90510502440E+02 0.  0.
          5    1    1    2  502    0 -0.38509279891E+02  0.19631785255E+02  0.15101565953E+03  0.15713552575E+03  0.41800000000E+01 0.  1.
         -5    1    1    2    0  502  0.83207968233E+02 -0.58201382374E+01  0.13903637135E+03  0.16219132204E+03  0.41800000000E+01 0.  1.
        -11    1    3    3    0    0 -0.71450624035E+02 -0.11271491362E+02  0.57834681965E+02  0.92612572745E+02  0.00000000000E+00 0.  1.
         11    1    3    3    0    0  0.26751935694E+02 -0.25401556565E+01  0.43198726222E+02  0.50874830725E+02  0.00000000000E+00 0. -1.
</event>
<event>
 7    1  0.4096326E-006  0.1176198E+03  0.7561462E-02  0.1247076E+00
         -2   -1    0    0    0  501 -0.00000000000E+00  0.00000000000E+00  0.40770166969E+03  0.40770166969E+03  0.00000000000E+00 0.  1.
          2   -1    0    0  501    0  0.00000000000E+00 -0.00000000000E+00 -0.35363609138E+02  0.35363609138E+02  0.00000000000E+00 0. -1.
         23    2    1    2    0    0 -0.55694260846E+02  0.58755525655E+01  0.13731176451E+03  0.17099423220E+03  0.85135973379E+02 0.  0.
          5    1    1    2  502    0 -0.89135337182E+01 -0.52603950530E+02  0.64749255972E+02  0.84003364478E+02  0.41800000000E+01 0.  1.
         -5    1    1    2    0  502  0.64607794564E+02  0.46728397965E+02  0.17027704007E+03  0.18806768215E+03  0.41800000000E+01 0.  1.
        -11    1    3    3    0    0 -0.46807036973E+02 -0.36012267379E+02  0.77659689736E+02  0.97564386544E+02  0.00000000000E+00 0.  1.
         11    1    3    3    0    0 -0.88872238733E+01  0.41887819945E+02  0.59652074777E+02  0.73429845656E+02  0.00000000000E+00 0. -1.
</event>
<event>
 7    1  0.4096326E-006  0.1001770E+03  0.7561462E-02  0.1279924E+00
          3   -1    0    0  501    0  0.00000000000E+00  0.00000000000E+00  0.15626135276E+03  0.15626135276E+03  0.00000000000E+00 0. -1.
         -3   -1    0    0    0  501 -0.00000000000E+00 -0.00000000000E+00 -0.80304751628E+02  0.80304751628E+02  0.00000000000E+00 0.  1.
         23    2    1    2    0    0 -0.60584665105E+01 -0.14292679041E+02  0.33794833417E+02  0.10368798773E+03  0.96789061070E+02 0.  0.
          5    1    1    2  502    0 -0.50597379578E+02  0.38942371374E+02  0.18781963154E+02  0.66684613280E+02  0.41800000000E+01 0.  1.
         -5    1    1    2    0  502  0.56655846089E+02 -0.24649692333E+02  0.23379804560E+02  0.66193503377E+02  0.41800000000E+01 0.  1.
        -11    1    3    3    0    0 -0.32434212969E+02 -0.29630306587E+02 -0.14758562791E+02  0.46343806652E+02  0.00000000000E+00 0.  1.
         11    1    3    3    0    0  0.26375746458E+02  0.15337627546E+02  0.48553396208E+02  0.57344181076E+02  0.00000000000E+00 0. -1.
</event>
<event>
 7    1  0.4096326E-006  0.1703735E+03  0.7561462E-02  0.1177459E+00
          3   -1    0    0  501    0  0.00000000000E+00  0.00000000000E+00  0.18413402917E+03  0.18413402917E+03  0.00000000000E+00 0. -1.
         -3   -1    0    0    0  501 -0.00000000000E+00 -0.00000000000E+00 -0.23131261810E+03  0.23131261810E+03  0.00000000000E+00 0.  1.
         23    2    1    2    0    0 -0.89651779140E+02  0.12266489749E+03  0.66096017951E+02  0.18837294273E+03  0.89618990081E+02 0.  0.
          5    1    1    2  502    0  0.63153731882E+02 -0.14155060152E+03 -0.11673295178E+03  0.19408508720E+03  0.41800000000E+01 0.  1.
         -5    1    1    2    0  502  0.26498047258E+02  0.18885704029E+02  0.34583449061E+01  0.32988617350E+02  0.41800000000E+01 0.  1.
        -11    1    3    3    0    0 -0.52892125434E+02  0.57958952465E+02  0.80674585042E+02  0.11253979641E+03  0.00000000000E+00 0. -1.
         11    1    3    3    0    0 -0.36759653706E+02  0.64705945025E+02 -0.14578567091E+02  0.75833146319E+02  0.00000000000E+00 0.  1.
</event>
<event>
 7    1  0.4096326E-006  0.1645275E+03  0.7561462E-02  0.1183678E+00
         -2   -1    0    0    0  501 -0.00000000000E+00  0.00000000000E+00  0.10870761377E+03  0.10870761377E+03  0.00000000000E+00 0.  1.
          2   -1    0    0  501    0  0.00000000000E+00 -0.00000000000E+00 -0.35531802149E+03  0.35531802149E+03  0.00000000000E+00 0. -1.
         23    2    1    2    0    0 -0.50430321518E+02 -0.10247552560E+03 -0.13363620997E+03  0.19719312063E+03  0.89342260618E+02 0.  0.
          5    1    1    2  502    0 -0.33017897990E+02  0.94430216045E+02 -0.14566087474E+03  0.17675352930E+03  0.41800000000E+01 0. -1.
         -5    1    1    2    0  502  0.83448219508E+02  0.80453095549E+01  0.32686676990E+02  0.90078985327E+02  0.41800000000E+01 0.  1.
        -11    1    3    3    0    0 -0.48802165129E+02 -0.67662280718E+01 -0.44163128386E+02  0.66165059302E+02  0.00000000000E+00 0.  1.
         11    1    3    3    0    0 -0.16281563883E+01 -0.95709297528E+02 -0.89473081589E+02  0.13102806133E+03  0.00000000000E+00 0. -1.
</event>
<event>
 7    1  0.4096326E-006  0.3582171E+03  0.7561462E-02  0.1059292E+00
         -1   -1    0    0    0  501 -0.00000000000E+00  0.00000000000E+00  0.12843739410E+03  0.12843739410E+03  0.00000000000E+00 0.  1.
          1   -1    0    0  501    0  0.00000000000E+00 -0.00000000000E+00 -0.12871755190E+04  0.12871755190E+04  0.00000000000E+00 0. -1.
         23    2    1    2    0    0  0.58836109516E+02  0.34233150658E+03 -0.88770612642E+03  0.95761797460E+03  0.91419200518E+02 0.  0.
          5    1    1    2  502    0 -0.82847978980E+02 -0.32244517326E+03 -0.26596450644E+03  0.42613292347E+03  0.41800000000E+01 0. -1.
         -5    1    1    2    0  502  0.24011869464E+02 -0.19886333312E+02 -0.50674920694E+01  0.31862015059E+02  0.41800000000E+01 0. -1.
        -11    1    3    3    0    0  0.42489262298E+01  0.19284200284E+03 -0.57934157371E+03  0.61060850834E+03  0.00000000000E+00 0. -1.
         11    1    3    3    0    0  0.54587183286E+02  0.14948950373E+03 -0.30836455271E+03  0.34700946626E+03  0.00000000000E+00 0.  1.
</event>
<event>
 7    1  0.4096326E-006  0.1809152E+03  0.7561462E-02  0.1166920E+00
          1   -1    0    0  501    0  0.00000000000E+00  0.00000000000E+00  0.10591655669E+04  0.10591655669E+04  0.00000000000E+00 0. -1.
         -1   -1    0    0    0  501 -0.00000000000E+00 -0.00000000000E+00 -0.34769363295E+02  0.34769363295E+02  0.00000000000E+00 0.  1.
         23    2    1    2    0    0 -0.31912829774E+02 -0.93595813840E+02  0.43504686999E+03  0.45535121480E+03  0.91106227323E+02 0.  0.
          5    1    1    2  502    0  0.12118888441E+03  0.91936097439E+02  0.42619257432E+03  0.45254455529E+03  0.41800000000E+01 0. -1.
         -5    1    1    2    0  502 -0.89276054632E+02  0.16597164004E+01  0.16315675927E+03  0.18603916008E+03  0.41800000000E+01 0.  1.
        -11    1    3    3    0    0 -0.27809676253E+02 -0.12562650457E+01  0.34770293611E+02  0.44541324778E+02  0.00000000000E+00 0.  1.
         11    1    3    3    0    0 -0.41031535210E+01 -0.92339548794E+02  0.40027657638E+03  0.41080989002E+03  0.00000000000E+00 0. -1.
</event>
<event>
 7    1  0.4096326E-006  0.9663680E+02  0.7561462E-02  0.1287532E+00
          2   -1    0    0  501    0  0.00000000000E+00  0.00000000000E+00  0.23364383187E+03  0.23364383187E+03  0.00000000000E+00 0. -1.
         -2   -1    0    0    0  501 -0.00000000000E+00 -0.00000000000E+00 -0.54131485372E+02  0.54131485372E+02  0.00000000000E+00 0.  1.
         23    2    1    2    0    0 -0.13949820254E+01 -0.23727523882E+02  0.14632241898E+03  0.16840845484E+03  0.79913803560E+02 0.  0.
          5    1    1    2  502    0 -0.17572785970E+02 -0.41924185232E+02  0.19006681681E+02  0.49448624477E+02  0.41800000000E+01 0. -1.
         -5    1    1    2    0  502  0.18967767996E+02  0.65651709114E+02  0.14183245833E+02  0.69918237926E+02  0.41800000000E+01 0.  1.
        -11    1    3    3    0    0 -0.29687051331E+02  0.13324803610E+02  0.87485063214E+02  0.93340814725E+02  0.00000000000E+00 0.  1.
         11    1    3    3    0    0  0.28292069306E+02 -0.37052327492E+02  0.58837355767E+02  0.75067640111E+02  0.00000000000E+00 0. -1.
</event>
<event>
 7    1  0.4096326E-006  0.1241272E+03  0.7561462E-02  0.1236440E+00
          1   -1    0    0  501    0  0.00000000000E+00  0.00000000000E+00  0.50132573539E+03  0.50132573539E+03  0.00000000000E+00 0. -1.
         -1   -1    0    0    0  501 -0.00000000000E+00 -0.00000000000E+00 -0.47912427755E+02  0.47912427755E+02  0.00000000000E+00 0.  1.
         23    2    1    2    0    0 -0.81991397710E+02 -0.42387196258E+02  0.31481488809E+03  0.34096808339E+03  0.92906169990E+02 0.  0.
          5    1    1    2  502    0  0.80715036053E+01 -0.40327191073E+02  0.20341025500E+02  0.46072347766E+02  0.41800000000E+01 0.  1.
         -5    1    1    2    0  502  0.73919894105E+02  0.82714387331E+02  0.11825739405E+03  0.16219773199E+03  0.41800000000E+01 0.  1.
        -11    1    3    3    0    0 -0.42201162804E+02 -0.72457434934E+01  0.32633763249E+02  0.53836803811E+02  0.00000000000E+00 0.  1.
         11    1    3    3    0    0 -0.39790234906E+02 -0.35141452765E+02  0.28218112484E+03  0.28713127957E+03  0.00000000000E+00 0. -1.
</event>
<event>
 7    1  0.4096326E-006  0.7084574E+02  0.7561462E-02  0.1357240E+00
          1   -1    0    0  501    0  0.00000000000E+00  0.00000000000E+00  0.20890746661E+03  0.20890746661E+03  0.00000000000E+00 0. -1.
         -1   -1    0    0    0  501 -0.00000000000E+00 -0.00000000000E+00 -0.28322100246E+03  0.28322100246E+03  0.00000000000E+00 0.  1.
         23    2    1    2    0    0  0.29638656332E+02 -0.43870990476E+02  0.18079288953E+03  0.20904479396E+03  0.90612047888E+02 0.  0.
          5    1    1    2  502    0 -0.10648941649E+02  0.17318757141E+02 -0.24868854891E+03  0.24955321289E+03  0.41800000000E+01 0.  1.
         -5    1    1    2    0  502 -0.18989714683E+02  0.26552233335E+02 -0.64178764691E+01  0.33530462228E+02  0.41800000000E+01 0. -1.
        -11    1    3    3    0    0 -0.22620189935E+02 -0.21402625705E+02  0.12697031081E+03  0.13073333625E+03  0.00000000000E+00 0. -1.
         11    1    3    3    0    0  0.52258846267E+02 -0.22468364771E+02  0.53822578720E+02  0.78311457710E+02  0.00000000000E+00 0.  1.
</event>
<event>
 7    1  0.4096326E-006  0.1158049E+03  0.7561462E-02  0.1250183E+00
          1   -1    0    0  501    0  0.00000000000E+00  0.00000000000E+00  0.38101637853E+03  0.38101637853E+03  0.00000000000E+00 0. -1.
         -1   -1    0    0    0  501 -0.00000000000E+00 -0.00000000000E+00 -0.55898196391E+02  0.55898196391E+02  0.00000000000E+00 0.  1.
         23    2    1    2    0    0 -0.23330786118E+02  0.45517793985E+02  0.27349681305E+03  0.29223977024E+03  0.89372151190E+02 0.  0.
          5    1    1    2  502    0 -0.31018680548E+02 -0.63864237427E+02  0.50360925677E+02  0.87146397516E+02  0.41800000000E+01 0.  1.
         -5    1    1    2    0  502  0.54349466666E+02  0.18346443441E+02  0.12604434117E+01  0.57528407169E+02  0.41800000000E+01 0.  1.
        -11    1    3    3    0    0  0.30788612790E+02  0.37087036436E+02  0.12796618801E+03  0.13674330778E+03  0.00000000000E+00 0.  1.
         11    1    3    3    0    0 -0.54119398908E+02  0.84307575486E+01  0.14553062505E+03  0.15549646246E+03  0.00000000000E+00 0. -1.
</event>
<event>
 7    1  0.4096326E-006  0.1076708E+03  0.7561462E-02  0.1264945E+00
          4   -1    0    0  501    0  0.00000000000E+00  0.00000000000E+00  0.48263766113E+02  0.48263766113E+02  0.00000000000E+00 0. -1.
         -4   -1    0    0    0  501 -0.00000000000E+00 -0.00000000000E+00 -0.27328297513E+03  0.27328297513E+03  0.00000000000E+00 0.  1.
         23    2    1    2    0    0  0.73884434831E+01 -0.34450954631E+02 -0.76037869114E+02  0.12384746610E+03  0.91186511877E+02 0.  0.
          5    1    1    2  502    0 -0.60467059555E+02  0.57529936536E+00 -0.42874898504E+02  0.74245037425E+02  0.41800000000E+01 0.  1.
         -5    1    1    2    0  502  0.53078616072E+02  0.33875655266E+02 -0.10610644140E+03  0.12345423772E+03  0.41800000000E+01 0.  1.
        -11    1    3    3    0    0  0.31768826497E+02 -0.52447195675E+02 -0.69801031518E+02  0.92909368054E+02  0.00000000000E+00 0.  1.
         11    1    3    3    0    0 -0.24380383014E+02  0.17996241044E+02 -0.62368375956E+01  0.30938098048E+02  0.00000000000E+00 0. -1.
</event>
<event>
 7    1  0.4096326E-006  0.1527029E+03  0.7561462E-02  0.1197191E+00
          2   -1    0    0  501    0  0.00000000000E+00  0.00000000000E+00  0.33526007027E+03  0.33526007027E+03  0.00000000000E+00 0. -1.
         -2   -1    0    0    0  501 -0.00000000000E+00 -0.00000000000E+00 -0.73794779361E+02  0.73794779361E+02  0.00000000000E+00 0.  1.
         23    2    1    2    0    0  0.54900168025E+02 -0.97172864125E+02  0.87832650035E+02  0.16769851028E+03  0.89171867576E+02 0.  0.
          5    1    1    2  502    0  0.23946230259E+01  0.10797230277E+03  0.99095838595E+02  0.14663290903E+03  0.41800000000E+01 0. -1.
         -5    1    1    2    0  502 -0.57294791051E+02 -0.10799438644E+02  0.74536802275E+02  0.94723430311E+02  0.41800000000E+01 0. -1.
        -11    1    3    3    0    0  0.26135084808E+02  0.99423310171E+01  0.31170877350E+01  0.28135544067E+02  0.00000000000E+00 0.  1.
         11    1    3    3    0    0  0.28765083217E+02 -0.10711519514E+03  0.84715562300E+02  0.13956296621E+03  0.00000000000E+00 0. -1.
</event>
<event>
 7    1  0.4096326E-006  0.1029777E+03  0.7561462E-02  0.1274156E+00
         -1   -1    0    0    0  501 -0.00000000000E+00  0.00000000000E+00  0.11275829891E+03  0.11275829891E+03  0.00000000000E+00 0.  1.
          1   -1    0    0  501    0  0.00000000000E+00 -0.00000000000E+00 -0.17903302636E+03  0.17903302636E+03  0.00000000000E+00 0. -1.
         23    2    1    2    0    0 -0.11861807466E+02  0.54176722302E+02 -0.10608451116E+03  0.14927568340E+03  0.89182321295E+02 0.  0.
          5    1    1    2  502    0  0.45536740480E+02 -0.69354205512E+02 -0.62725034843E+01  0.83309166697E+02  0.41800000000E+01 0. -1.
         -5    1    1    2    0  502 -0.33674933014E+02  0.15177483210E+02  0.46082287194E+02  0.59206475179E+02  0.41800000000E+01 0. -1.
        -11    1    3    3    0    0 -0.12407055011E+02  0.69388075551E+02 -0.11249920363E+03  0.13275809151E+03  0.00000000000E+00 0. -1.
         11    1    3    3    0    0  0.54524754557E+00 -0.15211353249E+02  0.64146924716E+01  0.16517591896E+02  0.00000000000E+00 0.  1.
</event>
<event>
 7    1  0.4096326E-006  0.1098119E+03  0.7561462E-02  0.1260919E+00
          1   -1    0    0  501    0  0.00000000000E+00  0.00000000000E+00  0.44607294732E+03  0.44607294732E+03  0.00000000000E+00 0. -1.
         -1   -1    0    0    0  501 -0.00000000000E+00 -0.00000000000E+00 -0.39631539343E+02  0.39631539343E+02  0.00000000000E+00 0.  1.
         23    2    1    2    0    0 -0.67084611731E+02  0.43389648463E+02  0.16558850019E+03  0.20490336536E+03  0.90459001842E+02 0.  0.
          5    1    1    2  502    0  0.73689116395E+02 -0.21683011754E+02  0.24549701734E+03  0.25726736443E+03  0.41800000000E+01 0. -1.
         -5    1    1    2    0  502 -0.66045046636E+01 -0.21706636709E+02 -0.46441095626E+01  0.23533756876E+02  0.41800000000E+01 0.  1.
        -11    1    3    3    0    0  0.12894869479E+02  0.37241456597E+02  0.42280237646E+02  0.57799846399E+02  0.00000000000E+00 0. -1.
         11    1    3    3    0    0 -0.79979481210E+02  0.61481918659E+01  0.12330826255E+03  0.14710351896E+03  0.00000000000E+00 0.  1.
</event>
<event>
 7    1  0.4096326E-006  0.1635622E+03  0.7561462E-02  0.1184733E+00
          2   -1    0    0  501    0  0.00000000000E+00  0.00000000000E+00  0.67242685555E+03  0.67242685555E+03  0.00000000000E+00 0. -1.
         -2   -1    0    0    0  501 -0.00000000000E+00 -0.00000000000E+00 -0.57919141473E+02  0.57919141473E+02  0.00000000000E+00 0.  1.
         23    2    1    2    0    0  0.25967941818E+02  0.12486096059E+03  0.48496607014E+03  0.50967796634E+03  0.91186329584E+02 0.  0.
          5    1    1    2  502    0  0.30274893673E+02 -0.11042227426E+03  0.57954833859E+02  0.12839736371E+03  0.41800000000E+01 0.  1.
         -5    1    1    2    0  502 -0.56242835491E+02 -0.14438686336E+02  0.71586810079E+02  0.92270666977E+02  0.41800000000E+01 0.  1.
        -11    1    3    3    0    0  0.58000897517E+02  0.71144180820E+02  0.33105641317E+03  0.34354613559E+03  0.00000000000E+00 0.  1.
         11    1    3    3    0    0 -0.32032955699E+02  0.53716779774E+02  0.15390965697E+03  0.16613183076E+03  0.00000000000E+00 0. -1.
</event>
<event>
 7    1  0.4096326E-006  0.7953679E+02  0.7561462E-02  0.1330371E+00
          1   -1    0    0  501    0  0.00000000000E+00  0.00000000000E+00  0.37429497608E+02  0.37429497608E+02  0.00000000000E+00 0. -1.
         -1   -1    0    0    0  501 -0.00000000000E+00 -0.00000000000E+00 -0.34165031017E+03  0.34165031017E+03  0.00000000000E+00 0.  1.
         23    2    1    2    0    0  0.26321460550E+02  0.10694466912E+02 -0.10605116717E+03  0.14301463215E+03  0.91646844144E+02 0.  0.
          5    1    1    2  502    0  0.31365253546E+02  0.23815402340E+02 -0.14484077049E+03  0.15015749637E+03  0.41800000000E+01 0.  1.
         -5    1    1    2    0  502 -0.57686714096E+02 -0.34509869252E+02 -0.53328874901E+02  0.85907679268E+02  0.41800000000E+01 0.  1.
        -11    1    3    3    0    0  0.70754645552E+01  0.26366559407E+02 -0.11378797043E+03  0.11701692129E+03  0.00000000000E+00 0.  1.
         11    1    3    3    0    0  0.19245995995E+02 -0.15672092495E+02  0.77368032598E+01  0.25997710855E+02  0.00000000000E+00 0. -1.
</event>
<event>
 7    1  0.4096326E-006  0.2351259E+03  0.7561462E-02  0.1123083E+00
         -1   -1    0    0    0  501 -0.00000000000E+00  0.00000000000E+00  0.14181840530E+03  0.14181840530E+03  0.00000000000E+00 0. -1.
          1   -1    0    0  501    0  0.00000000000E+00 -0.00000000000E+00 -0.45382665491E+03  0.45382665491E+03  0.00000000000E+00 0.  1.
         23    2    1    2    0    0  0.12974898993E+03 -0.17642368881E+03 -0.23042388080E+03  0.33057115014E+03  0.90675256245E+02 0.  0.
          5    1    1    2  502    0 -0.14579044793E+03  0.18231906756E+03 -0.82040851946E+02  0.24747377819E+03  0.41800000000E+01 0.  1.
         -5    1    1    2    0  502  0.16041457999E+02 -0.58953787450E+01  0.45648313788E+00  0.17600131878E+02  0.41800000000E+01 0.  1.
        -11    1    3    3    0    0  0.81404904330E+02 -0.10333840656E+03 -0.73118118076E+02  0.15050529529E+03  0.00000000000E+00 0. -1.
         11    1    3    3    0    0  0.48344085603E+02 -0.73085282257E+02 -0.15730576273E+03  0.18006585485E+03  0.00000000000E+00 0.  1.
</event>
<event>
 7    1  0.4096326E-006  0.1391475E+03  0.7561462E-02  0.1214481E+00
         -1   -1    0    0    0  501 -0.00000000000E+00  0.00000000000E+00  0.43402174652E+02  0.43402174652E+02  0.00000000000E+00 0.  1.
          1   -1    0    0  501    0  0.00000000000E+00 -0.00000000000E+00 -0.49439810270E+03  0.49439810270E+03  0.00000000000E+00 0. -1.
         23    2    1    2    0    0  0.65483750950E+02  0.59895970894E+02 -0.27776839351E+03  0.30643892029E+03  0.94201286999E+02 0.  0.
          5    1    1    2  502    0 -0.58350208866E+02  0.25082944378E+02 -0.47661065321E+02  0.79516982594E+02  0.41800000000E+01 0. -1.
         -5    1    1    2    0  502 -0.71335420839E+01 -0.84978915271E+02 -0.12556646922E+03  0.15184437446E+03  0.41800000000E+01 0. -1.
        -11    1    3    3    0    0 -0.20295738884E+02  0.34112814573E+02 -0.78494823733E+02  0.87960437060E+02  0.00000000000E+00 0. -1.
         11    1    3    3    0    0  0.85779489834E+02  0.25783156320E+02 -0.19927356977E+03  0.21847848323E+03  0.00000000000E+00 0.  1.
</event>
<event>
 7    1  0.4096326E-006  0.1040707E+03  0.7561462E-02  0.1271961E+00
          1   -1    0    0  501    0  0.00000000000E+00  0.00000000000E+00  0.48933653932E+03  0.48933653932E+03  0.00000000000E+00 0. -1.
         -1   -1    0    0    0  501 -0.00000000000E+00 -0.00000000000E+00 -0.71035089917E+02  0.71035089917E+02  0.00000000000E+00 0.  1.
         23    2    1    2    0    0 -0.83097750002E+02  0.49230715306E+01  0.38761852585E+03  0.40701509552E+03  0.92106968831E+02 0.  0.
          5    1    1    2  502    0 -0.14508705026E+01 -0.19195870164E+02  0.59599381065E+02  0.62770574953E+02  0.41800000000E+01 0. -1.
         -5    1    1    2    0  502  0.84548620504E+02  0.14272798633E+02 -0.28916457516E+02  0.90585958765E+02  0.41800000000E+01 0. -1.
        -11    1    3    3    0    0 -0.29673362346E+02 -0.27203185139E+02  0.52550841825E+02  0.66197527832E+02  0.00000000000E+00 0.  1.
         11    1    3    3    0    0 -0.53424387656E+02  0.32126256669E+02  0.33506768403E+03  0.34081756768E+03  0.00000000000E+00 0. -1.
</event>
<event>
 7    1  0.4096326E-006  0.5672550E+02  0.7561462E-02  0.1412111E+00
          1   -1    0    0  501    0  0.00000000000E+00  0.00000000000E+00  0.20362964032E+02  0.20362964032E+02  0.00000000000E+00 0.  1.
         -1   -1    0    0    0  501 -0.00000000000E+00 -0.00000000000E+00 -0.61041134048E+03  0.61041134048E+03  0.00000000000E+00 0. -1.
         23    2    1    2    0    0 -0.25443916117E+02 -0.76651026527E+01 -0.25106904010E+03  0.26847763038E+03  0.91314995741E+02 0.  0.
          5    1    1    2  502    0  0.12766527914E+02  0.24826504977E+02 -0.63188481804E+01  0.28926455481E+02  0.41800000000E+01 0.  1.
         -5    1    1    2    0  502  0.12677388204E+02 -0.17161402324E+02 -0.33266048817E+03  0.33337021866E+03  0.41800000000E+01 0.  1.
        -11    1    3    3    0    0  0.17460361508E+02  0.59856864412E+01 -0.61512607297E+01  0.19455864790E+02  0.00000000000E+00 0.  1.
         11    1    3    3    0    0 -0.42904277625E+02 -0.13650789094E+02 -0.24491777938E+03  0.24902176559E+03  0.00000000000E+00 0. -1.
</event>
<event>
 7    1  0.4096326E-006  0.8901084E+02  0.7561462E-02  0.1305265E+00
          2   -1    0    0  501    0  0.00000000000E+00  0.00000000000E+00  0.25044310704E+02  0.25044310704E+02  0.00000000000E+00 0. -1.
         -2   -1    0    0    0  501 -0.00000000000E+00 -0.00000000000E+00 -0.55772400787E+03  0.55772400787E+03  0.00000000000E+00 0.  1.
         23    2    1    2    0    0  0.35611580377E+02  0.90395112123E+01 -0.16062179369E+03  0.18852878421E+03  0.91617926465E+02 0.  0.
          5    1    1    2  502    0 -0.46316031377E+02  0.28367642582E+02 -0.33800118973E+03  0.34236263606E+03  0.41800000000E+01 0.  1.
         -5    1    1    2    0  502  0.10704451001E+02 -0.37407153794E+02 -0.34056713746E+02  0.51876898301E+02  0.41800000000E+01 0.  1.
        -11    1    3    3    0    0 -0.16979285483E+02  0.24310057035E+02 -0.11009171450E+03  0.11401517711E+03  0.00000000000E+00 0.  1.
         11    1    3    3    0    0  0.52590865860E+02 -0.15270545823E+02 -0.50530079184E+02  0.74513607106E+02  0.00000000000E+00 0. -1.
</event>
<event>
 7    1  0.4096326E-006  0.6740766E+02  0.7561462E-02  0.1369137E+00
          1   -1    0    0  501    0  0.00000000000E+00  0.00000000000E+00  0.34343340535E+03  0.34343340535E+03  0.00000000000E+00 0. -1.
         -1   -1    0    0    0  501 -0.00000000000E+00 -0.00000000000E+00 -0.36350125963E+02  0.36350125963E+02  0.00000000000E+00 0.  1.
         23    2    1    2    0    0 -0.23920918957E+01  0.10443771095E+02  0.17600601595E+03  0.19828439383E+03  0.90685107517E+02 0.  0.
          5    1    1    2  502    0 -0.21530594041E+02 -0.18204312639E+02 -0.15688395949E+02  0.32535544345E+02  0.41800000000E+01 0.  1.
         -5    1    1    2    0  502  0.23922685936E+02  0.77605415442E+01  0.14676565938E+03  0.14896359314E+03  0.41800000000E+01 0.  1.
        -11    1    3    3    0    0 -0.39419837860E+02 -0.67475157885E+01  0.41141928786E+02  0.57376919492E+02  0.00000000000E+00 0.  1.
         11    1    3    3    0    0  0.37027745964E+02  0.17191286883E+02  0.13486408717E+03  0.14090747433E+03  0.00000000000E+00 0. -1.
</event>
<event>
 7    1  0.4096326E-006  0.8589920E+02  0.7561462E-02  0.1313098E+00
         -1   -1    0    0    0  501 -0.00000000000E+00  0.00000000000E+00  0.39819331744E+03  0.39819331744E+03  0.00000000000E+00 0.  1.
          1   -1    0    0  501    0  0.00000000000E+00 -0.00000000000E+00 -0.40190430074E+02  0.40190430074E+02  0.00000000000E+00 0. -1.
         23    2    1    2    0    0 -0.49399140698E+02 -0.42270323014E+02  0.15623635565E+03  0.19224447596E+03  0.91219978070E+02 0.  0.
          5    1    1    2  502    0  0.64358016789E+02  0.54711586208E+02  0.61755841222E+02  0.10472138423E+03  0.41800000000E+01 0. -1.
         -5    1    1    2    0  502 -0.14958876091E+02 -0.12441263194E+02  0.14001069049E+03  0.14141788733E+03  0.41800000000E+01 0. -1.
        -11    1    3    3    0    0 -0.31759357303E+02 -0.15691965330E+02  0.15638268620E+03  0.16034475075E+03  0.00000000000E+00 0.  1.
         11    1    3    3    0    0 -0.17639783395E+02 -0.26578357684E+02 -0.14633054476E+00  0.31899725203E+02  0.00000000000E+00 0. -1.
</event>
<event>
 7    1  0.4096326E-006  0.9773817E+02  0.7561462E-02  0.1285125E+00
         -1   -1    0    0    0  501 -0.00000000000E+00  0.00000000000E+00  0.50103602115E+02  0.50103602115E+02  0.00000000000E+00 0.  1.
          1   -1    0    0  501    0  0.00000000000E+00 -0.00000000000E+00 -0.39222276174E+03  0.39222276174E+03  0.00000000000E+00 0. -1.
         23    2    1    2    0    0  0.29181480111E+02  0.51807452735E+02 -0.25974300735E+03  0.28117865487E+03  0.89774356854E+02 0.  0.
          5    1    1    2  502    0  0.26956624497E+02 -0.18179231296E+02  0.20853620759E+02  0.38852155069E+02  0.41800000000E+01 0.  1.
         -5    1    1    2    0  502 -0.56138104609E+02 -0.33628221439E+02 -0.10322977304E+03  0.12229555392E+03  0.41800000000E+01 0.  1.
        -11    1    3    3    0    0  0.31692296472E+02 -0.11537679883E+02 -0.15596062033E+03  0.15956576954E+03  0.00000000000E+00 0. -1.
         11    1    3    3    0    0 -0.25108163606E+01  0.63345132617E+02 -0.10378238702E+03  0.12161288534E+03  0.00000000000E+00 0.  1.
</event>
<event>
 7    1  0.4096326E-006  0.2427428E+03  0.7561462E-02  0.1117979E+00
         -2   -1    0    0    0  501 -0.00000000000E+00  0.00000000000E+00  0.73956929067E+02  0.73956929067E+02  0.00000000000E+00 0.  1.
          2   -1    0    0  501    0  0.00000000000E+00 -0.00000000000E+00 -0.93359606824E+03  0.93359606824E+03  0.00000000000E+00 0. -1.
         23    2    1    2    0    0 -0.12701241773E+03 -0.20184747084E+03 -0.45243524330E+03  0.51935650217E+03  0.90327023796E+02 0.  0.
          5    1    1    2  502    0  0.23632583477E+02  0.96058189408E+02 -0.26531468608E+03  0.28318726985E+03  0.41800000000E+01 0. -1.
         -5    1    1    2    0  502  0.10337983425E+03  0.10578928143E+03 -0.14188920979E+03  0.20500922528E+03  0.41800000000E+01 0. -1.
        -11    1    3    3    0    0 -0.28127501538E+02 -0.46958210240E+02 -0.39878347710E+02  0.67723795433E+02  0.00000000000E+00 0.  1.
         11    1    3    3    0    0 -0.98884916191E+02 -0.15488926060E+03 -0.41255689559E+03  0.45163270674E+03  0.00000000000E+00 0. -1.
</event>
<event>
 7    1  0.4096326E-006  0.1427258E+03  0.7561462E-02  0.1209708E+00
         -1   -1    0    0    0  501 -0.00000000000E+00  0.00000000000E+00  0.11573732011E+03  0.11573732011E+03  0.00000000000E+00 0.  1.
          1   -1    0    0  501    0  0.00000000000E+00 -0.00000000000E+00 -0.35763052752E+03  0.35763052752E+03  0.00000000000E+00 0. -1.
         23    2    1    2    0    0  0.26963167620E+02  0.11273784782E+03 -0.26406292294E+03  0.30256880543E+03  0.91552280177E+02 0.  0.
          5    1    1    2  502    0  0.48135689813E+02 -0.29051347692E+02  0.15115567912E+01  0.56398427641E+02  0.41800000000E+01 0. -1.
         -5    1    1    2    0  502 -0.75098857432E+02 -0.83686500129E+02  0.20658158740E+02  0.11440061457E+03  0.41800000000E+01 0.  1.
        -11    1    3    3    0    0  0.16292257027E+02  0.42612858848E+02 -0.22618058813E+02  0.50920231369E+02  0.00000000000E+00 0.  1.
         11    1    3    3    0    0  0.10670910593E+02  0.70124988974E+02 -0.24144486413E+03  0.25164857406E+03  0.00000000000E+00 0. -1.
</event>
<event>
 7    1  0.4096326E-006  0.8755514E+02  0.7561462E-02  0.1308883E+00
         -3   -1    0    0    0  501 -0.00000000000E+00  0.00000000000E+00  0.11442345370E+03  0.11442345370E+03  0.00000000000E+00 0.  1.
          3   -1    0    0  501    0  0.00000000000E+00 -0.00000000000E+00 -0.13124283647E+03  0.13124283647E+03  0.00000000000E+00 0. -1.
         23    2    1    2    0    0 -0.99284085308E+01 -0.48756334085E+02 -0.31601634351E+02  0.11022121552E+03  0.93135920286E+02 0.  0.
          5    1    1    2  502    0  0.48204744402E+02  0.33258355060E+02 -0.36757448523E+02  0.69270469798E+02  0.41800000000E+01 0. -1.
         -5    1    1    2    0  502 -0.38276335871E+02  0.15497979025E+02  0.51539700095E+02  0.66174604853E+02  0.41800000000E+01 0. -1.
        -11    1    3    3    0    0 -0.21296508480E+02  0.33503513610E+01  0.24622124566E+02  0.32726367746E+02  0.00000000000E+00 0.  1.
         11    1    3    3    0    0  0.11368099949E+02 -0.52106685446E+02 -0.56223758917E+02  0.77494847773E+02  0.00000000000E+00 0. -1.
</event>
<event>
 7    1  0.4096326E-006  0.1091510E+03  0.7561462E-02  0.1262150E+00
          2   -1    0    0  501    0  0.00000000000E+00  0.00000000000E+00  0.37157295866E+03  0.37157295866E+03  0.00000000000E+00 0. -1.
         -2   -1    0    0    0  501 -0.00000000000E+00 -0.00000000000E+00 -0.58023563113E+02  0.58023563113E+02  0.00000000000E+00 0.  1.
         23    2    1    2    0    0 -0.36842062316E+02  0.57137721066E+02  0.24949452510E+03  0.27346881030E+03  0.88969744430E+02 0.  0.
          5    1    1    2  502    0 -0.22090928978E+02  0.32749119592E+01  0.67839439054E+02  0.71542966689E+02  0.41800000000E+01 0.  1.
         -5    1    1    2    0  502  0.58932991295E+02 -0.60412633025E+02 -0.37845686065E+01  0.84584744792E+02  0.41800000000E+01 0.  1.
        -11    1    3    3    0    0 -0.58936076644E+02  0.11037719673E+02  0.11736546811E+03  0.13179508902E+03  0.00000000000E+00 0.  1.
         11    1    3    3    0    0  0.22094014328E+02  0.46100001393E+02  0.13212905700E+03  0.14167372128E+03  0.00000000000E+00 0. -1.
</event>
<event>
 7    1  0.4096326E-006  0.8677719E+02  0.7561462E-02  0.1310849E+00
         -1   -1    0    0    0  501 -0.00000000000E+00  0.00000000000E+00  0.12607899788E+03  0.12607899788E+03  0.00000000000E+00 0.  1.
          1   -1    0    0  501    0  0.00000000000E+00 -0.00000000000E+00 -0.10105595828E+03  0.10105595828E+03  0.00000000000E+00 0. -1.
         23    2    1    2    0    0  0.17313458495E+02 -0.21942863596E+02 -0.51065273992E+01  0.95464198075E+02  0.91137760474E+02 0.  0.
          5    1    1    2  502    0  0.47867191109E+02  0.36994232125E+02  0.84575268213E+01  0.61227798875E+02  0.41800000000E+01 0.  1.
         -5    1    1    2    0  502 -0.65180649603E+02 -0.15051368529E+02  0.21672040171E+02  0.70442959212E+02  0.41800000000E+01 0.  1.
        -11    1    3    3    0    0  0.11222378514E+02 -0.32121353486E+02  0.37852681899E+02  0.50897432708E+02  0.00000000000E+00 0.  1.
         11    1    3    3    0    0  0.60910799811E+01  0.10178489890E+02 -0.42959209298E+02  0.44566765367E+02  0.00000000000E+00 0. -1.
</event>
<event>
 7    1  0.4096326E-006  0.1156645E+03  0.7561462E-02  0.1250426E+00
          1   -1    0    0  501    0  0.00000000000E+00  0.00000000000E+00  0.55260929231E+03  0.55260929231E+03  0.00000000000E+00 0. -1.
         -1   -1    0    0    0  501 -0.00000000000E+00 -0.00000000000E+00 -0.28402973204E+02  0.28402973204E+02  0.00000000000E+00 0.  1.
         23    2    1    2    0    0 -0.61366298071E+02 -0.35385860951E+01  0.20127378315E+03  0.22927166153E+03  0.90972605032E+02 0.  0.
          5    1    1    2  502    0  0.48441278766E+02 -0.48020942973E+02  0.91254523838E+02  0.11400626725E+03  0.41800000000E+01 0. -1.
         -5    1    1    2    0  502  0.12925019305E+02  0.51559529068E+02  0.23167801211E+03  0.23773433673E+03  0.41800000000E+01 0. -1.
        -11    1    3    3    0    0  0.12353338262E+02 -0.29126769517E+02  0.53300836454E+02  0.61983488410E+02  0.00000000000E+00 0. -1.
         11    1    3    3    0    0 -0.73719636333E+02  0.25588183422E+02  0.14797294670E+03  0.16728817312E+03  0.00000000000E+00 0.  1.
</event>
<event>
 7    1  0.4096326E-006  0.9285760E+02  0.7561462E-02  0.1296076E+00
          4   -1    0    0  501    0  0.00000000000E+00  0.00000000000E+00  0.24079289355E+03  0.24079289355E+03  0.00000000000E+00 0. -1.
         -4   -1    0    0    0  501 -0.00000000000E+00 -0.00000000000E+00 -0.72351773058E+02  0.72351773058E+02  0.00000000000E+00 0.  1.
         23    2    1    2    0    0 -0.23232252117E+02 -0.39154741307E+02  0.14414147260E+03  0.17782763299E+03  0.93664676522E+02 0.  0.
          5    1    1    2  502    0  0.39313366787E+02  0.68344253180E+02 -0.18320542860E+02  0.81053022408E+02  0.41800000000E+01 0. -1.
         -5    1    1    2    0  502 -0.16081114670E+02 -0.29189511873E+02  0.42620190755E+02  0.54264011208E+02  0.41800000000E+01 0. -1.
        -11    1    3    3    0    0 -0.11568586486E+02  0.14337968127E+02 -0.48872429091E+01  0.19060290305E+02  0.00000000000E+00 0.  1.
         11    1    3    3    0    0 -0.11663665631E+02 -0.53492709433E+02  0.14902871551E+03  0.15876734269E+03  0.00000000000E+00 0. -1.
</event>
<event>
 7    1  0.4096326E-006  0.1753639E+03  0.7561462E-02  0.1172367E+00
         -1   -1    0    0    0  501 -0.00000000000E+00  0.00000000000E+00  0.14085040868E+03  0.14085040868E+03  0.00000000000E+00 0.  1.
          1   -1    0    0  501    0  0.00000000000E+00 -0.00000000000E+00 -0.24513265956E+03  0.24513265956E+03  0.00000000000E+00 0. -1.
         23    2    1    2    0    0 -0.60274732673E+02  0.13389016814E+03 -0.84439380020E+02  0.19207173574E+03  0.90564464591E+02 0.  0.
          5    1    1    2  502    0 -0.29965789871E+02 -0.54611226951E+02  0.22672855620E+02  0.66421874812E+02  0.41800000000E+01 0. -1.
         -5    1    1    2    0  502  0.90240522544E+02 -0.79278941194E+02 -0.42515726480E+02  0.12748945770E+03  0.41800000000E+01 0. -1.
        -11    1    3    3    0    0  0.12650062813E+02  0.70051376802E+02 -0.14745396105E+02  0.72695571992E+02  0.00000000000E+00 0.  1.
         11    1    3    3    0    0 -0.72924795486E+02  0.63838791343E+02 -0.69693983915E+02  0.11937616375E+03  0.00000000000E+00 0. -1.
</event>
<event>
 7    1  0.4096326E-006  0.2450926E+03  0.7561462E-02  0.1116446E+00
          2   -1    0    0  501    0  0.00000000000E+00  0.00000000000E+00  0.23823420278E+03  0.23823420278E+03  0.00000000000E+00 0. -1.
         -2   -1    0    0    0  501 -0.00000000000E+00 -0.00000000000E+00 -0.34555598342E+03  0.34555598342E+03  0.00000000000E+00 0.  1.
         23    2    1    2    0    0  0.16445777228E+03  0.14972797920E+03  0.95353143971E+02  0.25792899251E+03  0.89276629058E+02 0.  0.
          5    1    1    2  502    0 -0.15635975853E+02 -0.88582138819E+02 -0.10181020016E+03  0.13591934489E+03  0.41800000000E+01 0.  1.
         -5    1    1    2    0  502 -0.14882179642E+03 -0.61145840383E+02 -0.10086472446E+03  0.18994184880E+03  0.41800000000E+01 0.  1.
        -11    1    3    3    0    0  0.52693602915E+02  0.10748730034E+03  0.55774276217E+02  0.13206402012E+03  0.00000000000E+00 0. -1.
         11    1    3    3    0    0  0.11176416936E+03  0.42240678867E+02  0.39578867754E+02  0.12586497240E+03  0.00000000000E+00 0.  1.
</event>
<event>
 7    1  0.4096326E-006  0.1683073E+03  0.7561462E-02  0.1179625E+00
          1   -1    0    0  501    0  0.00000000000E+00  0.00000000000E+00  0.11994674025E+03  0.11994674025E+03  0.00000000000E+00 0. -1.
         -1   -1    0    0    0  501 -0.00000000000E+00 -0.00000000000E+00 -0.46192816489E+03  0.46192816489E+03  0.00000000000E+00 0.  1.
         23    2    1    2    0    0  0.15615917738E+03  0.31806955189E+02  0.26203108902E+01  0.18213134300E+03  0.88133926469E+02 0.  0.
          5    1    1    2  502    0 -0.22496849616E+02 -0.85585510403E+01  0.48055261139E+01  0.24898243307E+02  0.41800000000E+01 0.  1.
         -5    1    1    2    0  502 -0.13366232776E+03 -0.23248404149E+02 -0.34940726165E+03  0.37484531883E+03  0.41800000000E+01 0.  1.
        -11    1    3    3    0    0  0.57102367778E+02 -0.24917729628E+02  0.22546452872E+02  0.66256442651E+02  0.00000000000E+00 0. -1.
         11    1    3    3    0    0  0.99056809599E+02  0.56724684817E+02 -0.19926141982E+02  0.11587490034E+03  0.00000000000E+00 0.  1.
</event>
<event>
 7    1  0.4096326E-006  0.1085408E+03  0.7561462E-02  0.1263296E+00
         -2   -1    0    0    0  501 -0.00000000000E+00  0.00000000000E+00  0.16356377943E+02  0.16356377943E+02  0.00000000000E+00 0.  1.
          2   -1    0    0  501    0  0.00000000000E+00 -0.00000000000E+00 -0.85111488135E+03  0.85111488135E+03  0.00000000000E+00 0. -1.
         23    2    1    2    0    0 -0.34302975461E+02 -0.38179207859E+02 -0.36106575189E+03  0.37485933347E+03  0.86698885022E+02 0.  0.
          5    1    1    2  502    0 -0.21376635362E+02  0.58137980004E+02 -0.13273953844E+03  0.14654092508E+03  0.41800000000E+01 0.  1.
         -5    1    1    2    0  502  0.55679610823E+02 -0.19958772145E+02 -0.34095321308E+03  0.34607100074E+03  0.41800000000E+01 0.  1.
        -11    1    3    3    0    0 -0.59375110995E+02 -0.14290756340E+02 -0.28208233822E+03  0.28861752382E+03  0.00000000000E+00 0. -1.
         11    1    3    3    0    0  0.25072135534E+02 -0.23888451519E+02 -0.78983413670E+02  0.86241809647E+02  0.00000000000E+00 0.  1.
</event>
<event>
 7    1  0.4096326E-006  0.1524772E+03  0.7561462E-02  0.1197462E+00
          1   -1    0    0  501    0  0.00000000000E+00  0.00000000000E+00  0.70709132578E+02  0.70709132578E+02  0.00000000000E+00 0. -1.
         -1   -1    0    0    0  501 -0.00000000000E+00 -0.00000000000E+00 -0.34338029757E+03  0.34338029757E+03  0.00000000000E+00 0.  1.
         23    2    1    2    0    0  0.11116728370E+03 -0.13942872097E+02 -0.11796354446E+03  0.18575999463E+03  0.89659406293E+02 0.  0.
          5    1    1    2  502    0 -0.19160539682E+02  0.61283898871E+02 -0.57314077706E+02  0.86169707236E+02  0.41800000000E+01 0. -1.
         -5    1    1    2    0  502 -0.92006744016E+02 -0.47341026775E+02 -0.97393542824E+02  0.14215972828E+03  0.41800000000E+01 0. -1.
        -11    1    3    3    0    0  0.60758060707E+02 -0.46962340927E+02 -0.38133518986E+02  0.85738956586E+02  0.00000000000E+00 0.  1.
         11    1    3    3    0    0  0.50409222991E+02  0.33019468830E+02 -0.79830025476E+02  0.10002103805E+03  0.00000000000E+00 0. -1.
</event>
<event>
 7    1  0.4096326E-006  0.1353449E+03  0.7561462E-02  0.1219734E+00
          1   -1    0    0  501    0  0.00000000000E+00  0.00000000000E+00  0.46906383700E+03  0.46906383700E+03  0.00000000000E+00 0. -1.
         -1   -1    0    0    0  501 -0.00000000000E+00 -0.00000000000E+00 -0.73790825072E+02  0.73790825072E+02  0.00000000000E+00 0.  1.
         23    2    1    2    0    0 -0.16794743981E+02  0.99250174973E+02  0.35189067317E+03  0.37653676949E+03  0.88432077092E+02 0.  0.
          5    1    1    2  502    0  0.17428157984E+02 -0.12296482030E+03  0.93395680645E+01  0.12461455635E+03  0.41800000000E+01 0.  1.
         -5    1    1    2    0  502 -0.63341400215E+00  0.23714645327E+02  0.34042770694E+02  0.41703336232E+02  0.41800000000E+01 0.  1.
        -11    1    3    3    0    0  0.21479141200E+02  0.72569847391E+02  0.28571063949E+03  0.29556438516E+03  0.00000000000E+00 0. -1.
         11    1    3    3    0    0 -0.38273885181E+02  0.26680327583E+02  0.66180033680E+02  0.80972384333E+02  0.00000000000E+00 0.  1.
</event>
<event>
 7    1  0.4096326E-006  0.1145981E+03  0.7561462E-02  0.1252284E+00
          1   -1    0    0  501    0  0.00000000000E+00  0.00000000000E+00  0.14196107365E+03  0.14196107365E+03  0.00000000000E+00 0. -1.
         -1   -1    0    0    0  501 -0.00000000000E+00 -0.00000000000E+00 -0.13772037418E+03  0.13772037418E+03  0.00000000000E+00 0.  1.
         23    2    1    2    0    0 -0.61273980113E+02  0.57730346717E+02  0.24843476632E+02  0.12750221119E+03  0.92478764887E+02 0.  0.
          5    1    1    2  502    0  0.16438335555E+02  0.21977175641E+02  0.35303152034E+02  0.44911023909E+02  0.41800000000E+01 0.  1.
         -5    1    1    2    0  502  0.44835644558E+02 -0.79707522358E+02 -0.55905929205E+02  0.10726821274E+03  0.41800000000E+01 0.  1.
        -11    1    3    3    0    0  0.99234340234E+01  0.33090741444E+02  0.37631412904E+02  0.51084194711E+02  0.00000000000E+00 0. -1.
         11    1    3    3    0    0 -0.71197414137E+02  0.24639605274E+02 -0.12787936272E+02  0.76418016475E+02  0.00000000000E+00 0.  1.
</event>
<event>
 7    1  0.4096326E-006  0.9632438E+02  0.7561462E-02  0.1288221E+00
         -1   -1    0    0    0  501 -0.00000000000E+00  0.00000000000E+00  0.99515918942E+02  0.99515918942E+02  0.00000000000E+00 0.  1.
          1   -1    0    0  501    0  0.00000000000E+00 -0.00000000000E+00 -0.16811695042E+03  0.16811695042E+03  0.00000000000E+00 0. -1.
         23    2    1    2    0    0 -0.44076014608E+02 -0.38115148812E+02 -0.69171460773E+02  0.12963444123E+03  0.92870542878E+02 0.  0.
          5    1    1    2  502    0  0.74515112263E+01  0.51974953257E+02 -0.50861381213E+02  0.73220716225E+02  0.41800000000E+01 0.  1.
         -5    1    1    2    0  502  0.36624503382E+02 -0.13859804445E+02  0.51431810511E+02  0.64777711905E+02  0.41800000000E+01 0.  1.
        -11    1    3    3    0    0 -0.44051327857E+02 -0.62359925251E+02 -0.72347032332E+02  0.10518256914E+03  0.00000000000E+00 0.  1.
         11    1    3    3    0    0 -0.24686751455E-01  0.24244776439E+02  0.31755715588E+01  0.24451872090E+02  0.00000000000E+00 0. -1.
</event>
<event>
 7    1  0.4096326E-006  0.1588833E+03  0.7561462E-02  0.1189963E+00
          3   -1    0    0  501    0  0.00000000000E+00  0.00000000000E+00  0.15638969571E+03  0.15638969571E+03  0.00000000000E+00 0. -1.
         -3   -1    0    0    0  501 -0.00000000000E+00 -0.00000000000E+00 -0.27254448000E+03  0.27254448000E+03  0.00000000000E+00 0.  1.
         23    2    1    2    0    0 -0.12981946533E+03  0.49567844624E+02  0.57162005113E+02  0.17957226572E+03  0.98329237717E+02 0.  0.
          5    1    1    2  502    0 -0.11739018734E+02 -0.20003166711E+02 -0.63493963382E+02  0.67726560707E+02  0.41800000000E+01 0. -1.
         -5    1    1    2    0  502  0.14155848406E+03 -0.29564677913E+02 -0.10982282602E+03  0.18163534927E+03  0.41800000000E+01 0.  1.
        -11    1    3    3    0    0 -0.39898551491E+02 -0.10661099000E+02 -0.20749083392E+02  0.46217722841E+02  0.00000000000E+00 0.  1.
         11    1    3    3    0    0 -0.89920913836E+02  0.60228943624E+02  0.77911088506E+02  0.13335454288E+03  0.00000000000E+00 0. -1.
</event>
<event>
 7    1  0.4096326E-006  0.9447362E+02  0.7561462E-02  0.1292366E+00
         -1   -1    0    0    0  501 -0.00000000000E+00  0.00000000000E+00  0.25790422280E+03  0.25790422280E+03  0.00000000000E+00 0.  1.
          1   -1    0    0  501    0  0.00000000000E+00 -0.00000000000E+00 -0.48582947268E+02  0.48582947268E+02  0.00000000000E+00 0. -1.
         23    2    1    2    0    0 -0.10025202304E+01  0.67791704964E+01  0.44008130626E+02  0.99066130562E+02  0.88489663034E+02 0.  0.
          5    1    1    2  502    0 -0.30131147324E+02 -0.43274778003E+02  0.23920777688E+02  0.58054013259E+02  0.41800000000E+01 0.  1.
         -5    1    1    2    0  502  0.31133667554E+02  0.36495607507E+02  0.14139236722E+03  0.14936702625E+03  0.41800000000E+01 0.  1.
        -11    1    3    3    0    0 -0.26617727113E+02 -0.31874421595E+02  0.13957962424E+02  0.43809894586E+02  0.00000000000E+00 0. -1.
         11    1    3    3    0    0  0.25615206882E+02  0.38653592091E+02  0.30050168203E+02  0.55256235975E+02  0.00000000000E+00 0.  1.
</event>
<event>
 7    1  0.4096326E-006  0.2432334E+03  0.7561462E-02  0.1117657E+00
          2   -1    0    0  501    0  0.00000000000E+00  0.00000000000E+00  0.19844513444E+03  0.19844513444E+03  0.00000000000E+00 0. -1.
         -2   -1    0    0    0  501 -0.00000000000E+00 -0.00000000000E+00 -0.31911446203E+03  0.31911446203E+03  0.00000000000E+00 0.  1.
         23    2    1    2    0    0 -0.10771257576E+03  0.19971445151E+03 -0.49534056033E+02  0.24886694334E+03  0.89405098631E+02 0.  0.
          5    1    1    2  502    0  0.12208338142E+03 -0.20335638873E+03 -0.49828940389E+02  0.24240166780E+03  0.41800000000E+01 0. -1.
         -5    1    1    2    0  502 -0.14370805655E+02  0.36419372181E+01 -0.21306331165E+02  0.26290985330E+02  0.41800000000E+01 0. -1.
        -11    1    3    3    0    0 -0.11444320399E+03  0.18323469137E+03 -0.23476437027E+02  0.21730932367E+03  0.00000000000E+00 0. -1.
         11    1    3    3    0    0  0.67306282277E+01  0.16479760140E+02 -0.26057619007E+02  0.31557619665E+02  0.00000000000E+00 0.  1.
</event>
<event>
 7    1  0.4096326E-006  0.1845093E+03  0.7561462E-02  0.1163509E+00
         -2   -1    0    0    0  501 -0.00000000000E+00  0.00000000000E+00  0.83478296309E+02  0.83478296309E+02  0.00000000000E+00 0.  1.
          2   -1    0    0  501    0  0.00000000000E+00 -0.00000000000E+00 -0.49098038090E+03  0.49098038090E+03  0.00000000000E+00 0. -1.
         23    2    1    2    0    0 -0.11482211415E+03 -0.12127841611E+03 -0.24629776230E+03  0.31077763059E+03  0.89596740175E+02 0.  0.
          5    1    1    2  502    0 -0.18582686537E+02  0.31993339371E+02 -0.69277616991E+02  0.78649543031E+02  0.41800000000E+01 0.  1.
         -5    1    1    2    0  502  0.13340480068E+03  0.89285076740E+02 -0.91926705302E+02  0.18503150359E+03  0.41800000000E+01 0.  1.
        -11    1    3    3    0    0 -0.10189189633E+03 -0.85003093137E+02 -0.12058805338E+03  0.17930131901E+03  0.00000000000E+00 0. -1.
         11    1    3    3    0    0 -0.12930217815E+02 -0.36275322973E+02 -0.12570970893E+03  0.13147631158E+03  0.00000000000E+00 0.  1.
</event>
<event>
 7    1  0.4096326E-006  0.1030869E+03  0.7561462E-02  0.1273935E+00
          1   -1    0    0  501    0  0.00000000000E+00  0.00000000000E+00  0.30330922819E+03  0.30330922819E+03  0.00000000000E+00 0. -1.
         -1   -1    0    0    0  501 -0.00000000000E+00 -0.00000000000E+00 -0.56343095404E+02  0.56343095404E+02  0.00000000000E+00 0.  1.
         23    2    1    2    0    0 -0.37072004693E+02 -0.22249713899E+02  0.19112457357E+03  0.21601073602E+03  0.90899131740E+02 0.  0.
          5    1    1    2  502    0  0.19400557168E+02 -0.46243568615E+02 -0.45646679643E+01  0.50528782394E+02  0.41800000000E+01 0.  1.
         -5    1    1    2    0  502  0.17671447525E+02  0.68493282514E+02  0.60406227182E+02  0.93112805185E+02  0.41800000000E+01 0.  1.
        -11    1    3    3    0    0 -0.20975696286E+02 -0.49265215510E+02  0.16973051491E+03  0.17797609105E+03  0.00000000000E+00 0.  1.
         11    1    3    3    0    0 -0.16096308407E+02  0.27015501611E+02  0.21394058659E+02  0.38034644964E+02  0.00000000000E+00 0. -1.
</event>
<event>
 7    1  0.4096326E-006  0.6708050E+03  0.7561462E-02  0.9768505E-01
          2   -1    0    0  501    0  0.00000000000E+00  0.00000000000E+00  0.17573233148E+04  0.17573233148E+04  0.00000000000E+00 0. -1.
         -2   -1    0    0    0  501 -0.00000000000E+00 -0.00000000000E+00 -0.27865212772E+03  0.27865212772E+03  0.00000000000E+00 0.  1.
         23    2    1    2    0    0 -0.35766045537E+03  0.56477785784E+03  0.99894092649E+03  0.12055631356E+04  0.92760278722E+02 0.  0.
          5    1    1    2  502    0  0.18575371097E+03 -0.26843924649E+03  0.16778921571E+03  0.36706234280E+03  0.41800000000E+01 0. -1.
         -5    1    1    2    0  502  0.17190674440E+03 -0.29633861135E+03  0.31194104488E+03  0.46334996410E+03  0.41800000000E+01 0.  1.
        -11    1    3    3    0    0 -0.34501039307E+03  0.50617554306E+03  0.93604450483E+03  0.11186711611E+04  0.00000000000E+00 0.  1.
         11    1    3    3    0    0 -0.12650062307E+02  0.58602314781E+02  0.62896421668E+02  0.86891974501E+02  0.00000000000E+00 0. -1.
</event>
<event>
 7    1  0.4096326E-006  0.2317075E+03  0.7561462E-02  0.1125444E+00
          2   -1    0    0  501    0  0.00000000000E+00  0.00000000000E+00  0.96232154131E+02  0.96232154131E+02  0.00000000000E+00 0. -1.
         -2   -1    0    0    0  501 -0.00000000000E+00 -0.00000000000E+00 -0.83015273468E+03  0.83015273468E+03  0.00000000000E+00 0.  1.
         23    2    1    2    0    0 -0.14215971453E+03  0.15541443782E+03 -0.10054347083E+03  0.24728515585E+03  0.81718583315E+02 0.  0.
          5    1    1    2  502    0  0.76450257792E+01 -0.88221680771E+02 -0.16709480185E+03  0.18915511250E+03  0.41800000000E+01 0.  1.
         -5    1    1    2    0  502  0.13451468875E+03 -0.67192757048E+02 -0.46628230787E+03  0.48994462046E+03  0.41800000000E+01 0.  1.
        -11    1    3    3    0    0 -0.97753872809E+02  0.15078058093E+03 -0.68411549307E+02  0.19227777644E+03  0.00000000000E+00 0.  1.
         11    1    3    3    0    0 -0.44405841725E+02  0.46338568905E+01 -0.32131921520E+02  0.55007379410E+02  0.00000000000E+00 0. -1.
</event>
<event>
 7    1  0.4096326E-006  0.7913801E+02  0.7561462E-02  0.1331516E+00
         -2   -1    0    0    0  501 -0.00000000000E+00  0.00000000000E+00  0.25429913936E+02  0.25429913936E+02  0.00000000000E+00 0.  1.
          2   -1    0    0  501    0  0.00000000000E+00 -0.00000000000E+00 -0.60345413732E+03  0.60345413732E+03  0.00000000000E+00 0. -1.
         23    2    1    2    0    0  0.55158874180E+02 -0.20993625250E+02 -0.27141513137E+03  0.29252008285E+03  0.91752883500E+02 0.  0.
          5    1    1    2  502    0 -0.31690830445E+02  0.27213850345E+02 -0.16335601535E+02  0.45046938436E+02  0.41800000000E+01 0.  1.
         -5    1    1    2    0  502 -0.23468043735E+02 -0.62202250950E+01 -0.29027349048E+03  0.29131702997E+03  0.41800000000E+01 0.  1.
        -11    1    3    3    0    0 -0.14527758357E+02 -0.16271644032E+02 -0.14290483870E+02  0.26077578331E+02  0.00000000000E+00 0.  1.
         11    1    3    3    0    0  0.69686632537E+02 -0.47219812181E+01 -0.25712464750E+03  0.26644250452E+03  0.00000000000E+00 0. -1.
</event>
<event>
 7    1  0.4096326E-006  0.1112340E+03  0.7561462E-02  0.1258302E+00
          4   -1    0    0  501    0  0.00000000000E+00  0.00000000000E+00  0.74839298374E+03  0.74839298374E+03  0.00000000000E+00 0. -1.
         -4   -1    0    0    0  501 -0.00000000000E+00 -0.00000000000E+00 -0.23589997886E+02  0.23589997886E+02  0.00000000000E+00 0.  1.
         23    2    1    2    0    0  0.55516666683E+02 -0.51894697702E+02  0.38788226569E+03  0.40549720964E+03  0.90554817994E+02 0.  0.
          5    1    1    2  502    0  0.16666958727E+02  0.43840223536E+01  0.22165324439E+03  0.22236150816E+03  0.41800000000E+01 0. -1.
         -5    1    1    2    0  502 -0.72183625410E+02  0.47510675348E+02  0.11526747577E+03  0.14412426382E+03  0.41800000000E+01 0.  1.
        -11    1    3    3    0    0 -0.52913638646E+01 -0.56953853336E+02  0.18789674249E+03  0.19641009592E+03  0.00000000000E+00 0.  1.
         11    1    3    3    0    0  0.60808030548E+02  0.50591556345E+01  0.19998552320E+03  0.20908711372E+03  0.00000000000E+00 0. -1.
</event>
<event>
 7    1  0.4096326E-006  0.7770429E+02  0.7561462E-02  0.1335695E+00
          2   -1    0    0  501    0  0.00000000000E+00  0.00000000000E+00  0.84822803836E+03  0.84822803836E+03  0.00000000000E+00 0.  1.
         -2   -1    0    0    0  501 -0.00000000000E+00 -0.00000000000E+00 -0.15340150208E+02  0.15340150208E+02  0.00000000000E+00 0. -1.
         23    2    1    2    0    0  0.28552037458E+02 -0.25099816268E+02  0.38561463532E+03  0.39757585777E+03  0.89009528104E+02 0.  0.
          5    1    1    2  502    0 -0.98535047326E+01 -0.13237148220E+02  0.35809856865E+00  0.17026869445E+02  0.41800000000E+01 0.  1.
         -5    1    1    2    0  502 -0.18698532725E+02  0.38336964487E+02  0.44691515427E+03  0.44896546135E+03  0.41800000000E+01 0.  1.
        -11    1    3    3    0    0 -0.28381539727E+01 -0.53272772549E+02  0.18300016819E+03  0.19061769323E+03  0.00000000000E+00 0.  1.
         11    1    3    3    0    0  0.31390191431E+02  0.28172956281E+02  0.20261446712E+03  0.20695816454E+03  0.00000000000E+00 0. -1.
</event>
<event>
 7    1  0.4096326E-006  0.1620604E+03  0.7561462E-02  0.1186390E+00
         -1   -1    0    0    0  501 -0.00000000000E+00  0.00000000000E+00  0.13947804616E+03  0.13947804616E+03  0.00000000000E+00 0.  1.
          1   -1    0    0  501    0  0.00000000000E+00 -0.00000000000E+00 -0.20903522626E+03  0.20903522626E+03  0.00000000000E+00 0. -1.
         23    2    1    2    0    0  0.12366518805E+03 -0.44247331871E+00 -0.79221845688E+02  0.17234839525E+03  0.90191984080E+02 0.  0.
          5    1    1    2  502    0 -0.14233758784E+03  0.20052495158E+02 -0.72136737705E+01  0.14398472475E+03  0.41800000000E+01 0. -1.
         -5    1    1    2    0  502  0.18672399789E+02 -0.19610021839E+02  0.16878339359E+02  0.32180152422E+02  0.41800000000E+01 0. -1.
        -11    1    3    3    0    0  0.98485846566E+02 -0.39776690171E+02 -0.51561154672E+02  0.11806862295E+03  0.00000000000E+00 0.  1.
         11    1    3    3    0    0  0.25179341482E+02  0.39334216852E+02 -0.27660691016E+02  0.54279772294E+02  0.00000000000E+00 0. -1.
</event>
<event>
 7    1  0.4096326E-006  0.1827728E+03  0.7561462E-02  0.1165146E+00
         -2   -1    0    0    0  501 -0.00000000000E+00  0.00000000000E+00  0.42139847214E+03  0.42139847214E+03  0.00000000000E+00 0.  1.
          2   -1    0    0  501    0  0.00000000000E+00 -0.00000000000E+00 -0.84257987265E+02  0.84257987265E+02  0.00000000000E+00 0. -1.
         23    2    1    2    0    0  0.14648621395E+02 -0.14778808997E+03  0.10946475886E+03  0.20643433407E+03  0.92610470266E+02 0.  0.
          5    1    1    2  502    0 -0.61113734937E+02  0.13092464466E+03  0.16851469877E+03  0.22201537623E+03  0.41800000000E+01 0.  1.
         -5    1    1    2    0  502  0.46465113542E+02  0.16863445311E+02  0.59161027246E+02  0.77206749116E+02  0.41800000000E+01 0.  1.
        -11    1    3    3    0    0  0.49573573966E+02 -0.10535092855E+03  0.53978135423E+02  0.12833548413E+03  0.00000000000E+00 0.  1.
         11    1    3    3    0    0 -0.34924952571E+02 -0.42437161420E+02  0.55486623434E+02  0.78098849938E+02  0.00000000000E+00 0. -1.
</event>
<event>
 7    1  0.4096326E-006  0.1303630E+03  0.7561462E-02  0.1226918E+00
         -2   -1    0    0    0  501 -0.00000000000E+00  0.00000000000E+00  0.35732318634E+02  0.35732318634E+02  0.00000000000E+00 0.  1.
          2   -1    0    0  501    0  0.00000000000E+00 -0.00000000000E+00 -0.57980933736E+03  0.57980933736E+03  0.00000000000E+00 0. -1.
         23    2    1    2    0    0 -0.77853538629E+02  0.50652576320E+02 -0.24357698406E+03  0.27705316695E+03  0.93818192200E+02 0.  0.
          5    1    1    2  502    0 -0.28109833953E+02 -0.27785594467E+02 -0.13396122925E+03  0.13973290724E+03  0.41800000000E+01 0. -1.
         -5    1    1    2    0  502  0.10596337258E+03 -0.22866981853E+02 -0.16653880542E+03  0.19875558180E+03  0.41800000000E+01 0. -1.
        -11    1    3    3    0    0 -0.23612678748E+02  0.53191906498E+02 -0.19731339078E+03  0.20571706710E+03  0.00000000000E+00 0. -1.
         11    1    3    3    0    0 -0.54240859880E+02 -0.25393301785E+01 -0.46263593273E+02  0.71336099843E+02  0.00000000000E+00 0.  1.
</event>
<event>
 7    1  0.4096326E-006  0.7300904E+02  0.7561462E-02  0.1350150E+00
         -1   -1    0    0    0  501 -0.00000000000E+00  0.00000000000E+00  0.17996678040E+02  0.17996678040E+02  0.00000000000E+00 0.  1.
          1   -1    0    0  501    0  0.00000000000E+00 -0.00000000000E+00 -0.73627901158E+03  0.73627901158E+03  0.00000000000E+00 0. -1.
         23    2    1    2    0    0 -0.33101033128E+02  0.21320280852E+02 -0.33451315367E+03  0.34871905564E+03  0.90308897769E+02 0.  0.
          5    1    1    2  502    0  0.27917433648E+01 -0.19886353085E+02  0.55386252738E-01  0.20511858465E+02  0.41800000000E+01 0.  1.
         -5    1    1    2    0  502  0.30309289763E+02 -0.14339277671E+01 -0.38382456612E+03  0.38504477551E+03  0.41800000000E+01 0.  1.
        -11    1    3    3    0    0  0.22929897797E+02  0.30438192259E+02 -0.90628739203E+02  0.98314963920E+02  0.00000000000E+00 0. -1.
         11    1    3    3    0    0 -0.56030930925E+02 -0.91179114073E+01 -0.24388441447E+03  0.25040409172E+03  0.00000000000E+00 0.  1.
</event>
<event>
 7    1  0.4096326E-006  0.8411923E+02  0.7561462E-02  0.1317752E+00
         -1   -1    0    0    0  501 -0.00000000000E+00  0.00000000000E+00  0.79765441400E+02  0.79765441400E+02  0.00000000000E+00 0.  1.
          1   -1    0    0  501    0  0.00000000000E+00 -0.00000000000E+00 -0.14554788441E+03  0.14554788441E+03  0.00000000000E+00 0. -1.
         23    2    1    2    0    0  0.14591360643E+02 -0.89466873630E+01 -0.51427960709E+02  0.98241067035E+02  0.81936079290E+02 0.  0.
          5    1    1    2  502    0  0.30968173848E+02  0.20677794230E+02  0.40171419959E+02  0.54934637045E+02  0.41800000000E+01 0.  1.
         -5    1    1    2    0  502 -0.45559534491E+02 -0.11731106867E+02 -0.54525902261E+02  0.72137621730E+02  0.41800000000E+01 0.  1.
        -11    1    3    3    0    0 -0.26680722449E+02 -0.27473491468E+02 -0.20484760627E+02  0.43431314760E+02  0.00000000000E+00 0.  1.
         11    1    3    3    0    0  0.41272083093E+02  0.18526804105E+02 -0.30943200082E+02  0.54809752275E+02  0.00000000000E+00 0. -1.
</event>
<event>
 7    1  0.4096326E-006  0.1070609E+03  0.7561462E-02  0.1266112E+00
         -2   -1    0    0    0  501 -0.00000000000E+00  0.00000000000E+00  0.18704096291E+04  0.18704096291E+04  0.00000000000E+00 0.  1.
          2   -1    0    0  501    0  0.00000000000E+00 -0.00000000000E+00 -0.83628479764E+01  0.83628479764E+01  0.00000000000E+00 0. -1.
         23    2    1    2    0    0  0.47659019467E+02 -0.34662166152E+02  0.37674596724E+03  0.38704903163E+03  0.66306720288E+02 0.  0.
          5    1    1    2  502    0 -0.85315769594E+02  0.44273874590E+02  0.11830375441E+04  0.11869432420E+04  0.41800000000E+01 0. -1.
         -5    1    1    2    0  502  0.37656750127E+02 -0.96117084383E+01  0.30226326972E+03  0.30478020341E+03  0.41800000000E+01 0. -1.
        -11    1    3    3    0    0  0.41066166993E+01  0.13369542341E+02  0.19676560114E+02  0.24140753531E+02  0.00000000000E+00 0. -1.
         11    1    3    3    0    0  0.43552402768E+02 -0.48031708493E+02  0.35706940712E+03  0.36290827810E+03  0.00000000000E+00 0.  1.
</event>
<event>
 7    1  0.4096326E-006  0.8332719E+02  0.7561462E-02  0.1319866E+00
         -1   -1    0    0    0  501 -0.00000000000E+00  0.00000000000E+00  0.78389025529E+02  0.78389025529E+02  0.00000000000E+00 0.  1.
          1   -1    0    0  501    0  0.00000000000E+00 -0.00000000000E+00 -0.18063034774E+03  0.18063034774E+03  0.00000000000E+00 0. -1.
         23    2    1    2    0    0 -0.20493106327E+02 -0.25083536347E+02 -0.85411108832E+02  0.12870881174E+03  0.90673863407E+02 0.  0.
          5    1    1    2  502    0 -0.38377534272E+02  0.16895543904E+02  0.32290786640E+02  0.53089187623E+02  0.41800000000E+01 0.  1.
         -5    1    1    2    0  502  0.58870640599E+02  0.81879924429E+01 -0.49121000016E+02  0.77221373903E+02  0.41800000000E+01 0.  1.
        -11    1    3    3    0    0 -0.40093152616E+02 -0.19288281073E+02 -0.38863074119E+01  0.44660967956E+02  0.00000000000E+00 0.  1.
         11    1    3    3    0    0  0.19600046290E+02 -0.57952552734E+01 -0.81524801420E+02  0.84047843784E+02  0.00000000000E+00 0. -1.
</event>
<event>
 7    1  0.4096326E-006  0.1812574E+03  0.7561462E-02  0.1166592E+00
         -1   -1    0    0    0  501 -0.00000000000E+00  0.00000000000E+00  0.10477292457E+03  0.10477292457E+03  0.00000000000E+00 0.  1.
          1   -1    0    0  501    0  0.00000000000E+00 -0.00000000000E+00 -0.33567209859E+03  0.33567209859E+03  0.00000000000E+00 0. -1.
         23    2    1    2    0    0  0.13774320958E+03 -0.62640615764E+02 -0.12011493494E+03  0.21501587129E+03  0.94377904094E+02 0.  0.
          5    1    1    2  502    0  0.14223900278E+02  0.35848837108E+02 -0.70071525343E+01  0.39421200485E+02  0.41800000000E+01 0.  1.
         -5    1    1    2    0  502 -0.15196710986E+03  0.26791778656E+02 -0.10377708654E+03  0.18600795137E+03  0.41800000000E+01 0.  1.
        -11    1    3    3    0    0  0.94871846609E+02 -0.17535812541E+01 -0.33119034592E+02  0.10050180485E+03  0.00000000000E+00 0.  1.
         11    1    3    3    0    0  0.42871362975E+02 -0.60887034510E+02 -0.86995900351E+02  0.11451406644E+03  0.00000000000E+00 0. -1.
</event>
<event>
 7    1  0.4096326E-006  0.8067865E+02  0.7561462E-02  0.1327136E+00
         -2   -1    0    0    0  501 -0.00000000000E+00  0.00000000000E+00  0.18259865147E+02  0.18259865147E+02  0.00000000000E+00 0.  1.
          2   -1    0    0  501    0  0.00000000000E+00 -0.00000000000E+00 -0.84815896559E+03  0.84815896559E+03  0.00000000000E+00 0. -1.
         23    2    1    2    0    0 -0.32643332219E+02  0.46245697885E+02 -0.38998475291E+03  0.40557644346E+03  0.95916068917E+02 0.  0.
          5    1    1    2  502    0  0.39393736034E+02 -0.31390671793E+02 -0.51838819396E+02  0.72401493843E+02  0.41800000000E+01 0. -1.
         -5    1    1    2    0  502 -0.67504038151E+01 -0.14855026091E+02 -0.38807552815E+03  0.38844089344E+03  0.41800000000E+01 0. -1.
        -11    1    3    3    0    0  0.10766137408E+02 -0.15267401112E+02 -0.17631295886E+02  0.25687854056E+02  0.00000000000E+00 0.  1.
         11    1    3    3    0    0 -0.43409469627E+02  0.61513098997E+02 -0.37235345702E+03  0.37988858940E+03  0.00000000000E+00 0. -1.
</event>
<event>
 7    1  0.4096326E-006  0.8183052E+02  0.7561462E-02  0.1323935E+00
          2   -1    0    0  501    0  0.00000000000E+00  0.00000000000E+00  0.21102970162E+03  0.21102970162E+03  0.00000000000E+00 0. -1.
         -2   -1    0    0    0  501 -0.00000000000E+00 -0.00000000000E+00 -0.91129365830E+02  0.91129365830E+02  0.00000000000E+00 0.  1.
         23    2    1    2    0    0  0.47249269179E+01  0.51683627532E+02  0.12767431792E+03  0.16650934650E+03  0.93440402012E+02 0.  0.
          5    1    1    2  502    0 -0.68988444307E+00 -0.57165258325E+02 -0.59903927425E+02  0.82911372084E+02  0.41800000000E+01 0. -1.
         -5    1    1    2    0  502 -0.40350424749E+01  0.54816307929E+01  0.52129945299E+02  0.52738348863E+02  0.41800000000E+01 0. -1.
        -11    1    3    3    0    0 -0.39451730598E+02  0.26052383733E+02  0.29172055650E+02  0.55553348920E+02  0.00000000000E+00 0.  1.
         11    1    3    3    0    0  0.44176657516E+02  0.25631243799E+02  0.98502262267E+02  0.11095599758E+03  0.00000000000E+00 0. -1.
</event>
<event>
 7    1  0.4096326E-006  0.8962962E+02  0.7561462E-02  0.1303751E+00
         -2   -1    0    0    0  501 -0.00000000000E+00  0.00000000000E+00  0.56998506267E+02  0.56998506267E+02  0.00000000000E+00 0.  1.
          2   -1    0    0  501    0  0.00000000000E+00 -0.00000000000E+00 -0.27460387331E+03  0.27460387331E+03  0.00000000000E+00 0. -1.
         23    2    1    2    0    0 -0.41607810932E+02 -0.48960669846E+02 -0.11647547650E+03  0.15838754011E+03  0.85975107531E+02 0.  0.
          5    1    1    2  502    0  0.90001909435E+01  0.41187236244E+02 -0.12491271225E+03  0.13190166772E+03  0.41800000000E+01 0. -1.
         -5    1    1    2    0  502  0.32607619988E+02  0.77734336020E+01  0.23782821705E+02  0.41313171744E+02  0.41800000000E+01 0. -1.
        -11    1    3    3    0    0  0.20863197421E+02 -0.32310002783E+02 -0.65906386652E+02  0.76307673847E+02  0.00000000000E+00 0. -1.
         11    1    3    3    0    0 -0.62471008353E+02 -0.16650667062E+02 -0.50569089850E+02  0.82079866267E+02  0.00000000000E+00 0.  1.
</event>
<event>
 7    1  0.4096326E-006  0.1064597E+03  0.7561462E-02  0.1267270E+00
          2   -1    0    0  501    0  0.00000000000E+00  0.00000000000E+00  0.26837846236E+03  0.26837846236E+03  0.00000000000E+00 0. -1.
         -2   -1    0    0    0  501 -0.00000000000E+00 -0.00000000000E+00 -0.68185071630E+02  0.68185071630E+02  0.00000000000E+00 0.  1.
         23    2    1    2    0    0 -0.43798380468E+02  0.14225584413E+02  0.17207245519E+03  0.20033251111E+03  0.91670713913E+02 0.  0.
          5    1    1    2  502    0  0.74442826674E+01 -0.54950342918E+02  0.52336549141E+02  0.76364548759E+02  0.41800000000E+01 0.  1.
         -5    1    1    2    0  502  0.36354097801E+02  0.40724758505E+02 -0.24215613597E+02  0.59866474124E+02  0.41800000000E+01 0.  1.
        -11    1    3    3    0    0 -0.71315642782E+02  0.20762307443E+02  0.12668942044E+03  0.14685776645E+03  0.00000000000E+00 0. -1.
         11    1    3    3    0    0  0.27517262314E+02 -0.65367230299E+01  0.45383034751E+02  0.53474744660E+02  0.00000000000E+00 0.  1.
</event>
<event>
 7    1  0.4096326E-006  0.1643776E+03  0.7561462E-02  0.1183841E+00
         -1   -1    0    0    0  501 -0.00000000000E+00  0.00000000000E+00  0.77856850249E+02  0.77856850249E+02  0.00000000000E+00 0.  1.
          1   -1    0    0  501    0  0.00000000000E+00 -0.00000000000E+00 -0.55373128493E+03  0.55373128493E+03  0.00000000000E+00 0. -1.
         23    2    1    2    0    0 -0.89803913633E+02  0.12094082546E+03 -0.36630341085E+03  0.40721040466E+03  0.94608132290E+02 0.  0.
          5    1    1    2  502    0  0.40346307287E+02 -0.55186755363E+02  0.19538985974E+02  0.71222516468E+02  0.41800000000E+01 0.  1.
         -5    1    1    2    0  502  0.49457606346E+02 -0.65754070096E+02 -0.12911000980E+03  0.15315521405E+03  0.41800000000E+01 0.  1.
        -11    1    3    3    0    0 -0.18874050127E+02  0.10300356055E+03 -0.21633647993E+03  0.24034857146E+03  0.00000000000E+00 0. -1.
         11    1    3    3    0    0 -0.70929863506E+02  0.17937264913E+02 -0.14996693092E+03  0.16686183320E+03  0.00000000000E+00 0.  1.
</event>
<event>
 7    1  0.4096326E-006  0.1263084E+03  0.7561462E-02  0.1233038E+00
          1   -1    0    0  501    0  0.00000000000E+00  0.00000000000E+00  0.20793815410E+03  0.20793815410E+03  0.00000000000E+00 0. -1.
         -1   -1    0    0    0  501 -0.00000000000E+00 -0.00000000000E+00 -0.86584507171E+02  0.86584507171E+02  0.00000000000E+00 0.  1.
         23    2    1    2    0    0 -0.22759853588E+02 -0.73530259829E+02  0.63327178951E+02  0.13659854427E+03  0.93403001324E+02 0.  0.
          5    1    1    2  502    0  0.42122922645E+02 -0.20279246008E+02  0.22243560932E+01  0.46989451910E+02  0.41800000000E+01 0. -1.
         -5    1    1    2    0  502 -0.19363069057E+02  0.93809505837E+02  0.55802111888E+02  0.11093466510E+03  0.41800000000E+01 0. -1.
        -11    1    3    3    0    0 -0.43913168180E+02 -0.13174849678E+02  0.55774291468E+02  0.72199131521E+02  0.00000000000E+00 0. -1.
         11    1    3    3    0    0  0.21153314592E+02 -0.60355410151E+02  0.75528874834E+01  0.64399412747E+02  0.00000000000E+00 0.  1.
</event>
<event>
 7    1  0.4096326E-006  0.9729464E+02  0.7561462E-02  0.1286090E+00
          4   -1    0    0  501    0  0.00000000000E+00  0.00000000000E+00  0.19575930624E+03  0.19575930624E+03  0.00000000000E+00 0. -1.
         -4   -1    0    0    0  501 -0.00000000000E+00 -0.00000000000E+00 -0.84644927166E+02  0.84644927166E+02  0.00000000000E+00 0.  1.
         23    2    1    2    0    0  0.18817634041E+02  0.67063654617E+02  0.50372481150E+02  0.12490260974E+03  0.90618088379E+02 0.  0.
          5    1    1    2  502    0  0.34674574048E+02 -0.56489226464E+02 -0.88413553433E+01  0.67000005643E+02  0.41800000000E+01 0.  1.
         -5    1    1    2    0  502 -0.53492208089E+02 -0.10574428153E+02  0.69583253264E+02  0.88501618018E+02  0.41800000000E+01 0.  1.
        -11    1    3    3    0    0  0.12139594802E+01  0.46088637276E+02 -0.19346190411E+02  0.49999112662E+02  0.00000000000E+00 0.  1.
         11    1    3    3    0    0  0.17603674560E+02  0.20975017341E+02  0.69718671561E+02  0.74903497079E+02  0.00000000000E+00 0. -1.
</event>
<event>
 7    1  0.4096326E-006  0.1002738E+03  0.7561462E-02  0.1279721E+00
         -3   -1    0    0    0  501 -0.00000000000E+00  0.00000000000E+00  0.15527641178E+03  0.15527641178E+03  0.00000000000E+00 0.  1.
          3   -1    0    0  501    0  0.00000000000E+00 -0.00000000000E+00 -0.93682207000E+02  0.93682207000E+02  0.00000000000E+00 0. -1.
         23    2    1    2    0    0 -0.78355711837E+01 -0.46602110968E+02  0.83207791743E+01  0.10502045397E+03  0.93417918323E+02 0.  0.
          5    1    1    2  502    0 -0.46013424337E+01 -0.31245027779E+02  0.56570852025E+02  0.64924246718E+02  0.41800000000E+01 0. -1.
         -5    1    1    2    0  502  0.12436913617E+02  0.77847138747E+02 -0.32974264167E+01  0.79013918092E+02  0.41800000000E+01 0. -1.
        -11    1    3    3    0    0 -0.73153930484E+01 -0.67974170048E+02 -0.18400579321E+02  0.70799605144E+02  0.00000000000E+00 0. -1.
         11    1    3    3    0    0 -0.52017813532E+00  0.21372059080E+02  0.26721358495E+02  0.34220848827E+02  0.00000000000E+00 0.  1.
</event>
<event>
 7    1  0.4096326E-006  0.1092517E+03  0.7561462E-02  0.1261962E+00
          2   -1    0    0  501    0  0.00000000000E+00  0.00000000000E+00  0.12345280933E+03  0.12345280933E+03  0.00000000000E+00 0. -1.
         -2   -1    0    0    0  501 -0.00000000000E+00 -0.00000000000E+00 -0.11815801958E+03  0.11815801958E+03  0.00000000000E+00 0.  1.
         23    2    1    2    0    0 -0.12506805527E+02  0.50682955864E+02  0.65514907530E+01  0.10605794544E+03  0.92087912127E+02 0.  0.
          5    1    1    2  502    0  0.43585433371E+02  0.27027568440E+02 -0.48016929227E+01  0.51678894269E+02  0.41800000000E+01 0.  1.
         -5    1    1    2    0  502 -0.31078627844E+02 -0.77710524304E+02  0.35449919193E+01  0.83873989198E+02  0.41800000000E+01 0.  1.
        -11    1    3    3    0    0 -0.16633879012E+02 -0.11949237036E+02 -0.27780527812E+02  0.34514169876E+02  0.00000000000E+00 0.  1.
         11    1    3    3    0    0  0.41270734851E+01  0.62632192899E+02  0.34332018565E+02  0.71543775562E+02  0.00000000000E+00 0. -1.
</event>
<event>
 7    1  0.4096326E-006  0.1187528E+03  0.7561462E-02  0.1245169E+00
          1   -1    0    0  501    0  0.00000000000E+00  0.00000000000E+00  0.21247959047E+03  0.21247959047E+03  0.00000000000E+00 0. -1.
         -1   -1    0    0    0  501 -0.00000000000E+00 -0.00000000000E+00 -0.12225356369E+03  0.12225356369E+03  0.00000000000E+00 0.  1.
         23    2    1    2    0    0  0.27971881187E+02  0.52373623125E+02  0.14567738678E+03  0.18557684498E+03  0.98445120933E+02 0.  0.
          5    1    1    2  502    0 -0.70750809651E+02 -0.15185863608E+02 -0.41674191324E+01  0.72602529584E+02  0.41800000000E+01 0.  1.
         -5    1    1    2    0  502  0.42778928463E+02 -0.37187759517E+02 -0.51283940872E+02  0.76553779591E+02  0.41800000000E+01 0.  1.
        -11    1    3    3    0    0 -0.15529006831E+02  0.61761158531E+02  0.53323841580E+02  0.83060356592E+02  0.00000000000E+00 0. -1.
         11    1    3    3    0    0  0.43500888018E+02 -0.93875354060E+01  0.92353545204E+02  0.10251648839E+03  0.00000000000E+00 0.  1.
</event>
<event>
 7    1  0.4096326E-006  0.9158054E+02  0.7561462E-02  0.1299069E+00
         -3   -1    0    0    0  501 -0.00000000000E+00  0.00000000000E+00  0.99758768226E+02  0.99758768226E+02  0.00000000000E+00 0.  1.
          3   -1    0    0  501    0  0.00000000000E+00 -0.00000000000E+00 -0.15048994754E+03  0.15048994754E+03  0.00000000000E+00 0. -1.
         23    2    1    2    0    0  0.16942602675E+02  0.57486101620E+02 -0.21586227044E+02  0.10851385810E+03  0.87849806694E+02 0.  0.
          5    1    1    2  502    0 -0.23136140095E+02  0.24002932954E+02  0.26487421273E+02  0.42784081789E+02  0.41800000000E+01 0.  1.
         -5    1    1    2    0  502  0.61935374196E+01 -0.81489034574E+02 -0.55632373547E+02  0.98950775885E+02  0.41800000000E+01 0.  1.
        -11    1    3    3    0    0 -0.20273522747E+01  0.44944525182E+02  0.28672191258E+02  0.53349930203E+02  0.00000000000E+00 0.  1.
         11    1    3    3    0    0  0.18969954950E+02  0.12541576438E+02 -0.50258418303E+02  0.55163927893E+02  0.00000000000E+00 0. -1.
</event>
<event>
 7    1  0.4096326E-006  0.1070912E+03  0.7561462E-02  0.1266053E+00
         -4   -1    0    0    0  501 -0.00000000000E+00  0.00000000000E+00  0.21438778987E+03  0.21438778987E+03  0.00000000000E+00 0.  1.
          4   -1    0    0  501    0  0.00000000000E+00 -0.00000000000E+00 -0.17226137156E+03  0.17226137156E+03  0.00000000000E+00 0. -1.
         23    2    1    2    0    0  0.28470284523E+02 -0.40912877607E+02 -0.12396217262E+03  0.16142273286E+03  0.90588397648E+02 0.  0.
          5    1    1    2  502    0 -0.31385872527E+02 -0.29387591393E+02 -0.17016541723E+01  0.43232760138E+02  0.41800000000E+01 0. -1.
         -5    1    1    2    0  502  0.29155880040E+01  0.70300469000E+02  0.16779024511E+03  0.18199366843E+03  0.41800000000E+01 0.  1.
        -11    1    3    3    0    0  0.59555764033E+02 -0.34266446252E+02 -0.65771276145E+02  0.95115399037E+02  0.00000000000E+00 0. -1.
         11    1    3    3    0    0 -0.31085479510E+02 -0.66464313552E+01 -0.58190896478E+02  0.66307333825E+02  0.00000000000E+00 0.  1.
</event>
<event>
 7    1  0.4096326E-006  0.9717617E+02  0.7561462E-02  0.1286349E+00
          2   -1    0    0  501    0  0.00000000000E+00  0.00000000000E+00  0.53916415916E+03  0.53916415916E+03  0.00000000000E+00 0. -1.
         -2   -1    0    0    0  501 -0.00000000000E+00 -0.00000000000E+00 -0.23655148251E+02  0.23655148251E+02  0.00000000000E+00 0.  1.
         23    2    1    2    0    0  0.35128806376E+02  0.22076089316E+02  0.20334005681E+03  0.22397034350E+03  0.84226773115E+02 0.  0.
          5    1    1    2  502    0  0.26538695635E+02  0.25675960281E+02  0.19174567843E+03  0.19531368334E+03  0.41800000000E+01 0.  1.
         -5    1    1    2    0  502 -0.61667502011E+02 -0.47752049597E+02  0.12042327567E+03  0.14353528057E+03  0.41800000000E+01 0.  1.
        -11    1    3    3    0    0  0.12477305503E+02 -0.24386789638E+02  0.21203123351E+02  0.34640599032E+02  0.00000000000E+00 0.  1.
         11    1    3    3    0    0  0.22651500873E+02  0.46462878954E+02  0.18213693345E+03  0.18932974447E+03  0.00000000000E+00 0. -1.
</event>
<event>
 7    1  0.4096326E-006  0.1702418E+03  0.7561462E-02  0.1177596E+00
          2   -1    0    0  501    0  0.00000000000E+00  0.00000000000E+00  0.26422570200E+03  0.26422570200E+03  0.00000000000E+00 0. -1.
         -2   -1    0    0    0  501 -0.00000000000E+00 -0.00000000000E+00 -0.13474763147E+03  0.13474763147E+03  0.00000000000E+00 0.  1.
         23    2    1    2    0    0  0.14289416557E+03 -0.39659612906E+02  0.10408493872E+03  0.20331054421E+03  0.92248986272E+02 0.  0.
          5    1    1    2  502    0 -0.69968267579E+02 -0.33095653787E+02 -0.24274498569E+02  0.81225639108E+02  0.41800000000E+01 0.  1.
         -5    1    1    2    0  502 -0.72925897987E+02  0.72755266694E+02  0.49667630368E+02  0.11443715015E+03  0.41800000000E+01 0.  1.
        -11    1    3    3    0    0  0.23435466588E+02  0.15701941914E+02  0.56789759370E+02  0.63410163565E+02  0.00000000000E+00 0. -1.
         11    1    3    3    0    0  0.11945869898E+03 -0.55361554820E+02  0.47295179353E+02  0.13990038064E+03  0.00000000000E+00 0.  1.
</event>
<event>
 7    1  0.4096326E-006  0.9081928E+02  0.7561462E-02  0.1300880E+00
          2   -1    0    0  501    0  0.00000000000E+00  0.00000000000E+00  0.65270977265E+03  0.65270977265E+03  0.00000000000E+00 0. -1.
         -2   -1    0    0    0  501 -0.00000000000E+00 -0.00000000000E+00 -0.19722021138E+02  0.19722021138E+02  0.00000000000E+00 0.  1.
         23    2    1    2    0    0 -0.16110385711E+02  0.24012997659E+02  0.32274840195E+03  0.33667551132E+03  0.91365750556E+02 0.  0.
          5    1    1    2  502    0  0.47810634372E+02 -0.30071948895E+02  0.56713725661E+02  0.80150470665E+02  0.41800000000E+01 0.  1.
         -5    1    1    2    0  502 -0.31700248662E+02  0.60589512361E+01  0.25352562390E+03  0.25560581180E+03  0.41800000000E+01 0.  1.
        -11    1    3    3    0    0  0.20172329237E+02  0.45864083717E+02  0.12983677034E+03  0.13916904819E+03  0.00000000000E+00 0.  1.
         11    1    3    3    0    0 -0.36282714948E+02 -0.21851086058E+02  0.19291163161E+03  0.19750646312E+03  0.00000000000E+00 0. -1.
</event>
<event>
 7    1  0.4096326E-006  0.7342211E+02  0.7561462E-02  0.1348828E+00
         -2   -1    0    0    0  501 -0.00000000000E+00  0.00000000000E+00  0.71940501849E+02  0.71940501849E+02  0.00000000000E+00 0.  1.
          2   -1    0    0  501    0  0.00000000000E+00 -0.00000000000E+00 -0.17423411002E+03  0.17423411002E+03  0.00000000000E+00 0. -1.
         23    2    1    2    0    0 -0.24172374868E+02  0.21159698331E+01 -0.64951474436E+02  0.11339285009E+03  0.89724374530E+02 0.  0.
          5    1    1    2  502    0 -0.21124250700E+02  0.62200006463E+01  0.38151831501E+02  0.44248808148E+02  0.41800000000E+01 0. -1.
         -5    1    1    2    0  502  0.45296625568E+02 -0.83359704794E+01 -0.75493965239E+02  0.88532953634E+02  0.41800000000E+01 0. -1.
        -11    1    3    3    0    0 -0.36143985347E+00  0.36422048950E+02 -0.61517890113E+02  0.71492286944E+02  0.00000000000E+00 0. -1.
         11    1    3    3    0    0 -0.23810935015E+02 -0.34306079116E+02 -0.34335843233E+01  0.41900563146E+02  0.00000000000E+00 0.  1.
</event>
<event>
 7    1  0.4096326E-006  0.9711197E+02  0.7561462E-02  0.1286489E+00
          1   -1    0    0  501    0  0.00000000000E+00  0.00000000000E+00  0.43130547583E+03  0.43130547583E+03  0.00000000000E+00 0. -1.
         -1   -1    0    0    0  501 -0.00000000000E+00 -0.00000000000E+00 -0.39455221969E+02  0.39455221969E+02  0.00000000000E+00 0.  1.
         23    2    1    2    0    0 -0.71426927660E+02  0.14015336378E+02  0.17566745176E+03  0.21060519545E+03  0.90538715990E+02 0.  0.
          5    1    1    2  502    0 -0.17785882828E+02  0.77265096970E+01  0.13819084826E+03  0.13960737632E+03  0.41800000000E+01 0.  1.
         -5    1    1    2    0  502  0.89212810488E+02 -0.21741846075E+02  0.77991953842E+02  0.12054812603E+03  0.41800000000E+01 0.  1.
        -11    1    3    3    0    0 -0.46413454570E+02  0.27603887326E+02  0.17389159601E+03  0.18208369099E+03  0.00000000000E+00 0. -1.
         11    1    3    3    0    0 -0.25013473090E+02 -0.13588550948E+02  0.17758557460E+01  0.28521504457E+02  0.00000000000E+00 0.  1.
</event>
<event>
 7    1  0.4096326E-006  0.9120334E+02  0.7561462E-02  0.1299964E+00
         -3   -1    0    0    0  501 -0.00000000000E+00  0.00000000000E+00  0.18019298105E+03  0.18019298105E+03  0.00000000000E+00 0.  1.
          3   -1    0    0  501    0  0.00000000000E+00 -0.00000000000E+00 -0.10540916493E+03  0.10540916493E+03  0.00000000000E+00 0. -1.
         23    2    1    2    0    0 -0.22224081054E+02  0.12551958635E+02 -0.52028063569E+02  0.10565781246E+03  0.88347000465E+02 0.  0.
          5    1    1    2  502    0 -0.79176750319E+01 -0.57757795127E+02  0.23214938918E+02  0.62889253969E+02  0.41800000000E+01 0. -1.
         -5    1    1    2    0  502  0.30141756086E+02  0.45205836491E+02  0.10359694077E+03  0.11705507955E+03  0.41800000000E+01 0. -1.
        -11    1    3    3    0    0 -0.44710264528E+02  0.14220642034E+02  0.21586914704E+01  0.46966949687E+02  0.00000000000E+00 0.  1.
         11    1    3    3    0    0  0.22486183474E+02 -0.16686833989E+01 -0.54186755039E+02  0.58690862774E+02  0.00000000000E+00 0. -1.
</event>
<event>
 7    1  0.4096326E-006  0.1248618E+03  0.7561462E-02  0.1235285E+00
         -1   -1    0    0    0  501 -0.00000000000E+00  0.00000000000E+00  0.50711952108E+02  0.50711952108E+02  0.00000000000E+00 0.  1.
          1   -1    0    0  501    0  0.00000000000E+00 -0.00000000000E+00 -0.44153807195E+03  0.44153807195E+03  0.00000000000E+00 0. -1.
         23    2    1    2    0    0 -0.85397833206E+02  0.48503757978E+02 -0.22878223526E+03  0.26520120202E+03  0.91350763148E+02 0.  0.
          5    1    1    2  502    0  0.92573623490E+02 -0.52436120081E+02 -0.17870607177E+03  0.20802104447E+03  0.41800000000E+01 0.  1.
         -5    1    1    2    0  502 -0.71757902844E+01  0.39323621031E+01  0.16662187179E+02  0.19027777576E+02  0.41800000000E+01 0.  1.
        -11    1    3    3    0    0  0.97591486930E+01  0.36935009475E+02 -0.61433976024E+02  0.72343412404E+02  0.00000000000E+00 0. -1.
         11    1    3    3    0    0 -0.95156981899E+02  0.11568748503E+02 -0.16734825923E+03  0.19285778961E+03  0.00000000000E+00 0.  1.
</event>
<event>
 7    1  0.4096326E-006  0.9963950E+02  0.7561462E-02  0.1281056E+00
         -2   -1    0    0    0  501 -0.00000000000E+00  0.00000000000E+00  0.75286525662E+02  0.75286525662E+02  0.00000000000E+00 0. -1.
          2   -1    0    0  501    0  0.00000000000E+00 -0.00000000000E+00 -0.25889299854E+03  0.25889299854E+03  0.00000000000E+00 0.  1.
         23    2    1    2    0    0 -0.40335476879E+02  0.52249293463E+02 -0.15201789650E+03  0.18925687554E+03  0.91388099453E+02 0.  0.
          5    1    1    2  502    0  0.68262375673E+02  0.56833979636E+01  0.83044906854E+01  0.69126622299E+02  0.41800000000E+01 0.  1.
         -5    1    1    2    0  502 -0.27926898794E+02 -0.57932691427E+02 -0.39893067061E+02  0.75796026359E+02  0.41800000000E+01 0.  1.
        -11    1    3    3    0    0 -0.25492431229E+02  0.28896611665E+02 -0.15654539434E+03  0.16121829519E+03  0.00000000000E+00 0.  1.
         11    1    3    3    0    0 -0.14843045650E+02  0.23352681798E+02  0.45274978410E+01  0.28038580350E+02  0.00000000000E+00 0. -1.
</event>
<event>
 7    1  0.4096326E-006  0.9849713E+02  0.7561462E-02  0.1283488E+00
         -4   -1    0    0    0  501 -0.00000000000E+00  0.00000000000E+00  0.33817494401E+03  0.33817494401E+03  0.00000000000E+00 0.  1.
          4   -1    0    0  501    0  0.00000000000E+00 -0.00000000000E+00 -0.36355978339E+02  0.36355978339E+02  0.00000000000E+00 0. -1.
         23    2    1    2    0    0  0.13661988086E+02  0.27429847107E+02  0.73486371965E+02  0.11238018118E+03  0.79309594793E+02 0.  0.
          5    1    1    2  502    0 -0.25857579667E+02 -0.67588756934E+02  0.80076985500E+02  0.10801227012E+03  0.41800000000E+01 0.  1.
         -5    1    1    2    0  502  0.12195591581E+02  0.40158909827E+02  0.14825560821E+03  0.15413847105E+03  0.41800000000E+01 0.  1.
        -11    1    3    3    0    0  0.45539740204E+02  0.19092027501E+02  0.29850699251E+02  0.57701279862E+02  0.00000000000E+00 0. -1.
         11    1    3    3    0    0 -0.31877752118E+02  0.83378196066E+01  0.43635672714E+02  0.54678901316E+02  0.00000000000E+00 0.  1.
</event>
<event>
 7    1  0.1364404E-005  0.2102115E+03  0.7561462E-02  0.1141399E+00
         -2   -1    0    0    0  501 -0.00000000000E+00  0.00000000000E+00  0.54480366513E+02  0.54480366513E+02  0.00000000000E+00 0.  1.
          2   -1    0    0  501    0  0.00000000000E+00 -0.00000000000E+00 -0.86379693539E+03  0.86379693539E+03  0.00000000000E+00 0. -1.
         23    2    1    2    0    0  0.96028555085E+02 -0.16089295643E+03 -0.39770321220E+03  0.44904277549E+03  0.91452405130E+02 0.  0.
          5    1    1    2  502    0 -0.25566446463E+01  0.12457938674E+03 -0.23895387325E+03  0.26952362786E+03  0.41800000000E+01 0. -1.
         -5    1    1    2    0  502 -0.93471910438E+02  0.36313569692E+02 -0.17265948342E+03  0.19971089855E+03  0.41800000000E+01 0. -1.
        -11    1    3    3    0    0  0.82629422061E+02 -0.85858751171E+02 -0.31392463785E+03  0.33577972659E+03  0.00000000000E+00 0.  1.
         11    1    3    3    0    0  0.13399133024E+02 -0.75034205260E+02 -0.83778574350E+02  0.11326304889E+03  0.00000000000E+00 0. -1.
</event>
<event>
 7    1  0.4096326E-006  0.9653485E+02  0.7561462E-02  0.1287756E+00
         -2   -1    0    0    0  501 -0.00000000000E+00  0.00000000000E+00  0.13440653688E+03  0.13440653688E+03  0.00000000000E+00 0.  1.
          2   -1    0    0  501    0  0.00000000000E+00 -0.00000000000E+00 -0.11437224568E+03  0.11437224568E+03  0.00000000000E+00 0. -1.
         23    2    1    2    0    0  0.20914531074E+02  0.16433929478E+02 -0.44550975503E+02  0.10550807574E+03  0.91867692798E+02 0.  0.
          5    1    1    2  502    0 -0.32351824629E+02  0.35903413948E+02 -0.11756361078E+02  0.49913726727E+02  0.41800000000E+01 0. -1.
         -5    1    1    2    0  502  0.11437293555E+02 -0.52337343427E+02  0.76341627778E+02  0.93356980096E+02  0.41800000000E+01 0. -1.
        -11    1    3    3    0    0  0.53322278912E+02 -0.23370865341E+01 -0.42095549794E+02  0.67976192261E+02  0.00000000000E+00 0. -1.
         11    1    3    3    0    0 -0.32407747838E+02  0.18771016012E+02 -0.24554257085E+01  0.37531883479E+02  0.00000000000E+00 0.  1.
</event>
<event>
 7    1  0.4096326E-006  0.1179072E+03  0.7561462E-02  0.1246590E+00
          2   -1    0    0  501    0  0.00000000000E+00  0.00000000000E+00  0.66721729352E+03  0.66721729352E+03  0.00000000000E+00 0.  1.
         -2   -1    0    0    0  501 -0.00000000000E+00 -0.00000000000E+00 -0.24034587754E+02  0.24034587754E+02  0.00000000000E+00 0. -1.
         23    2    1    2    0    0 -0.41241597945E+02 -0.49420072824E+02  0.30820236278E+03  0.32792996328E+03  0.91685066340E+02 0.  0.
          5    1    1    2  502    0 -0.25651107113E+02  0.50790696298E+02  0.24237136182E+03  0.24899603121E+03  0.41800000000E+01 0.  1.
         -5    1    1    2    0  502  0.66892705058E+02 -0.13706234739E+01  0.92608981167E+02  0.11432588680E+03  0.41800000000E+01 0.  1.
        -11    1    3    3    0    0  0.22293889151E+02 -0.42267438476E+02  0.14382198174E+03  0.15155301475E+03  0.00000000000E+00 0.  1.
         11    1    3    3    0    0 -0.63535487096E+02 -0.71526343484E+01  0.16438038104E+03  0.17637694852E+03  0.00000000000E+00 0. -1.
</event>
<event>
 7    1  0.4096326E-006  0.1434900E+03  0.7561462E-02  0.1208709E+00
         -3   -1    0    0    0  501 -0.00000000000E+00  0.00000000000E+00  0.83162825507E+03  0.83162825507E+03  0.00000000000E+00 0.  1.
          3   -1    0    0  501    0  0.00000000000E+00 -0.00000000000E+00 -0.37555309451E+02  0.37555309451E+02  0.00000000000E+00 0. -1.
         23    2    1    2    0    0  0.95725307171E+02 -0.69441288056E+01  0.12202942965E+03  0.17889235739E+03  0.88880472971E+02 0.  0.
          5    1    1    2  502    0 -0.63059742991E+01  0.54710130048E+02  0.20147127051E+03  0.20890454490E+03  0.41800000000E+01 0.  1.
         -5    1    1    2    0  502 -0.89419332872E+02 -0.47766001243E+02  0.47057224547E+03  0.48138666223E+03  0.41800000000E+01 0.  1.
        -11    1    3    3    0    0 -0.80073183517E+01  0.21317610462E+02  0.15549941088E+02  0.27574595751E+02  0.00000000000E+00 0. -1.
         11    1    3    3    0    0  0.10373262552E+03 -0.28261739268E+02  0.10647948856E+03  0.15131776164E+03  0.00000000000E+00 0.  1.
</event>
<event>
 7    1  0.4096326E-006  0.8520771E+02  0.7561462E-02  0.1314890E+00
         -1   -1    0    0    0  501 -0.00000000000E+00  0.00000000000E+00  0.95406105759E+02  0.95406105759E+02  0.00000000000E+00 0.  1.
          1   -1    0    0  501    0  0.00000000000E+00 -0.00000000000E+00 -0.19384353128E+03  0.19384353128E+03  0.00000000000E+00 0. -1.
         23    2    1    2    0    0 -0.80720184643E+02 -0.11585559351E+02 -0.54502828687E+02  0.13361481953E+03  0.90732509443E+02 0.  0.
          5    1    1    2  502    0  0.42259257771E+02 -0.63213375770E+01  0.41778217907E+02  0.59905726501E+02  0.41800000000E+01 0.  1.
         -5    1    1    2    0  502  0.38460926872E+02  0.17906896928E+02 -0.85712814744E+02  0.95729091006E+02  0.41800000000E+01 0.  1.
        -11    1    3    3    0    0 -0.20467578394E+02  0.72651828019E+01  0.24332866276E+02  0.32615840134E+02  0.00000000000E+00 0.  1.
         11    1    3    3    0    0 -0.60252606249E+02 -0.18850742153E+02 -0.78835694963E+02  0.10099897940E+03  0.00000000000E+00 0. -1.
</event>
<event>
 7    1  0.4096326E-006  0.1840860E+03  0.7561462E-02  0.1163906E+00
         -1   -1    0    0    0  501 -0.00000000000E+00  0.00000000000E+00  0.29537089473E+03  0.29537089473E+03  0.00000000000E+00 0.  1.
          1   -1    0    0  501    0  0.00000000000E+00 -0.00000000000E+00 -0.40702456103E+03  0.40702456103E+03  0.00000000000E+00 0. -1.
         23    2    1    2    0    0 -0.15410340286E+03  0.61394266066E+02 -0.34256352119E+03  0.39177611146E+03  0.92852790899E+02 0.  0.
          5    1    1    2  502    0  0.69178612392E+02 -0.86265438954E+02  0.83456366295E+02  0.13859958097E+03  0.41800000000E+01 0. -1.
         -5    1    1    2    0  502  0.84924790469E+02  0.24871172888E+02  0.14745348860E+03  0.17201976333E+03  0.41800000000E+01 0. -1.
        -11    1    3    3    0    0 -0.42219176304E+02  0.20316333537E+01 -0.18422883850E+03  0.18901547904E+03  0.00000000000E+00 0. -1.
         11    1    3    3    0    0 -0.11188422656E+03  0.59362632712E+02 -0.15833468269E+03  0.20276063242E+03  0.00000000000E+00 0.  1.
</event>
<event>
 7    1  0.4096326E-006  0.1141826E+03  0.7561462E-02  0.1253015E+00
         -1   -1    0    0    0  501 -0.00000000000E+00  0.00000000000E+00  0.81169465626E+03  0.81169465626E+03  0.00000000000E+00 0.  1.
          1   -1    0    0  501    0  0.00000000000E+00 -0.00000000000E+00 -0.22023068830E+02  0.22023068830E+02  0.00000000000E+00 0. -1.
         23    2    1    2    0    0  0.45529868603E+02  0.40737338760E+02  0.20199964330E+03  0.22978221151E+03  0.90903845522E+02 0.  0.
          5    1    1    2  502    0 -0.71764689097E+02  0.78426478832E+01  0.44606747740E+03  0.45189085466E+03  0.41800000000E+01 0. -1.
         -5    1    1    2    0  502  0.26234820494E+02 -0.48579986643E+02  0.14160446672E+03  0.15204465891E+03  0.41800000000E+01 0. -1.
        -11    1    3    3    0    0  0.56988989146E+02 -0.14092866839E+01  0.15719040446E+03  0.16720811651E+03  0.00000000000E+00 0.  1.
         11    1    3    3    0    0 -0.11459120544E+02  0.42146625444E+02  0.44809238838E+02  0.62574095001E+02  0.00000000000E+00 0. -1.
</event>
<event>
 7    1  0.4096326E-006  0.8612573E+02  0.7561462E-02  0.1312515E+00
          2   -1    0    0  501    0  0.00000000000E+00  0.00000000000E+00  0.21429004484E+03  0.21429004484E+03  0.00000000000E+00 0. -1.
         -2   -1    0    0    0  501 -0.00000000000E+00 -0.00000000000E+00 -0.77232311496E+02  0.77232311496E+02  0.00000000000E+00 0.  1.
         23    2    1    2    0    0  0.63320007800E+02  0.22346575574E+02  0.77818938406E+02  0.13768479132E+03  0.91610707661E+02 0.  0.
          5    1    1    2  502    0  0.60205826557E+01 -0.32055625056E+02  0.75048420231E+02  0.81936245292E+02  0.41800000000E+01 0.  1.
         -5    1    1    2    0  502 -0.69340590456E+02  0.97090494823E+01 -0.15809625292E+02  0.71901319727E+02  0.41800000000E+01 0.  1.
        -11    1    3    3    0    0  0.45658937024E+02  0.77444308081E+01 -0.96141665023E+01  0.47298487674E+02  0.00000000000E+00 0.  1.
         11    1    3    3    0    0  0.17661070776E+02  0.14602144766E+02  0.87433104909E+02  0.90386303645E+02  0.00000000000E+00 0. -1.
</event>
<event>
 7    1  0.4096326E-006  0.9630205E+02  0.7561462E-02  0.1288270E+00
          1   -1    0    0  501    0  0.00000000000E+00  0.00000000000E+00  0.17398019760E+03  0.17398019760E+03  0.00000000000E+00 0. -1.
         -1   -1    0    0    0  501 -0.00000000000E+00 -0.00000000000E+00 -0.11298724684E+03  0.11298724684E+03  0.00000000000E+00 0.  1.
         23    2    1    2    0    0 -0.11906300718E+02 -0.29590079080E+02  0.29171439180E+02  0.10126745534E+03  0.91579429295E+02 0.  0.
          5    1    1    2  502    0  0.23120254899E+02  0.70959170415E+02  0.87648145919E+02  0.11519296826E+03  0.41800000000E+01 0. -1.
         -5    1    1    2    0  502 -0.11213954181E+02 -0.41369091334E+02 -0.55826634338E+02  0.70507020840E+02  0.41800000000E+01 0.  1.
        -11    1    3    3    0    0  0.23969129097E+02 -0.30638390267E+02 -0.17280203990E+02  0.42565661721E+02  0.00000000000E+00 0.  1.
         11    1    3    3    0    0 -0.35875429814E+02  0.10483111868E+01  0.46451643169E+02  0.58701793617E+02  0.00000000000E+00 0. -1.
</event>
<event>
 7    1  0.4096326E-006  0.1383113E+03  0.7561462E-02  0.1215619E+00
          1   -1    0    0  501    0  0.00000000000E+00  0.00000000000E+00  0.10128359623E+04  0.10128359623E+04  0.00000000000E+00 0. -1.
         -1   -1    0    0    0  501 -0.00000000000E+00 -0.00000000000E+00 -0.19579613541E+02  0.19579613541E+02  0.00000000000E+00 0.  1.
         23    2    1    2    0    0  0.62194552632E+02 -0.57872778974E+02  0.53432669643E+03  0.54921706268E+03  0.94429563692E+02 0.  0.
          5    1    1    2  502    0 -0.54141202954E+02 -0.30486621018E+02  0.18010782534E+03  0.19057021034E+03  0.41800000000E+01 0.  1.
         -5    1    1    2    0  502 -0.80533496780E+01  0.88359399992E+02  0.27882182697E+03  0.29262830280E+03  0.41800000000E+01 0.  1.
        -11    1    3    3    0    0 -0.21452545720E+02 -0.30935802146E+02  0.12414179247E+03  0.12972440098E+03  0.00000000000E+00 0.  1.
         11    1    3    3    0    0  0.83647098352E+02 -0.26936976828E+02  0.41018490396E+03  0.41949266170E+03  0.00000000000E+00 0. -1.
</event>
<event>
 7    1  0.4096326E-006  0.1315040E+03  0.7561462E-02  0.1225241E+00
          1   -1    0    0  501    0  0.00000000000E+00  0.00000000000E+00  0.50933492999E+03  0.50933492999E+03  0.00000000000E+00 0. -1.
         -1   -1    0    0    0  501 -0.00000000000E+00 -0.00000000000E+00 -0.59952277883E+02  0.59952277883E+02  0.00000000000E+00 0.  1.
         23    2    1    2    0    0  0.48882055748E+02  0.10110823303E+03  0.33828121106E+03  0.36778384626E+03  0.90655665309E+02 0.  0.
          5    1    1    2  502    0 -0.14794470703E+02 -0.10674021173E+03  0.12404880472E+03  0.16437130989E+03  0.41800000000E+01 0. -1.
         -5    1    1    2    0  502 -0.34087585045E+02  0.56319786929E+01 -0.12947363681E+02  0.37132051714E+02  0.41800000000E+01 0. -1.
        -11    1    3    3    0    0  0.72341440138E+00  0.50497612846E+02  0.49661837908E+02  0.70829586868E+02  0.00000000000E+00 0.  1.
         11    1    3    3    0    0  0.48158641346E+02  0.50610620186E+02  0.28861937316E+03  0.29695425940E+03  0.00000000000E+00 0. -1.
</event>
<event>
 7    1  0.4096326E-006  0.8484534E+02  0.7561462E-02  0.1315837E+00
         -2   -1    0    0    0  501 -0.00000000000E+00  0.00000000000E+00  0.21589314720E+03  0.21589314720E+03  0.00000000000E+00 0.  1.
          2   -1    0    0  501    0  0.00000000000E+00 -0.00000000000E+00 -0.62936977892E+02  0.62936977892E+02  0.00000000000E+00 0. -1.
         23    2    1    2    0    0  0.42720533504E+02  0.65210741320E+00  0.63201032912E+02  0.11904757870E+03  0.91391937312E+02 0.  0.
          5    1    1    2  502    0 -0.66106868512E+02 -0.34288273992E+02  0.17494257709E+02  0.76611521657E+02  0.41800000000E+01 0.  1.
         -5    1    1    2    0  502  0.23386335008E+02  0.33636166579E+02  0.72260878691E+02  0.83171024741E+02  0.41800000000E+01 0.  1.
        -11    1    3    3    0    0  0.70290517443E+01  0.14122111963E+02 -0.21200256337E+02  0.26425224379E+02  0.00000000000E+00 0. -1.
         11    1    3    3    0    0  0.35691481760E+02 -0.13470004550E+02  0.84401289248E+02  0.92622354319E+02  0.00000000000E+00 0.  1.
</event>
<event>
 7    1  0.4096326E-006  0.1074930E+03  0.7561462E-02  0.1265284E+00
          2   -1    0    0  501    0  0.00000000000E+00  0.00000000000E+00  0.15079289054E+03  0.15079289054E+03  0.00000000000E+00 0. -1.
         -2   -1    0    0    0  501 -0.00000000000E+00 -0.00000000000E+00 -0.98313815155E+02  0.98313815155E+02  0.00000000000E+00 0.  1.
         23    2    1    2    0    0  0.46665251458E+02 -0.29011994747E+02  0.19005631439E+02  0.10844868908E+03  0.91545412791E+02 0.  0.
          5    1    1    2  502    0 -0.34170119291E+02 -0.36509259606E+02  0.51018678662E+02  0.71560471363E+02  0.41800000000E+01 0. -1.
         -5    1    1    2    0  502 -0.12495132167E+02  0.65521254353E+02 -0.17545234711E+02  0.69097545260E+02  0.41800000000E+01 0. -1.
        -11    1    3    3    0    0  0.67899069766E+02 -0.84626424629E+01  0.32751494074E+02  0.75858818582E+02  0.00000000000E+00 0. -1.
         11    1    3    3    0    0 -0.21233818308E+02 -0.20549352284E+02 -0.13745862636E+02  0.32589870494E+02  0.00000000000E+00 0.  1.
</event>
<event>
 7    1  0.4096326E-006  0.1117108E+03  0.7561462E-02  0.1257434E+00
          2   -1    0    0  501    0  0.00000000000E+00  0.00000000000E+00  0.63451159203E+02  0.63451159203E+02  0.00000000000E+00 0. -1.
         -2   -1    0    0    0  501 -0.00000000000E+00 -0.00000000000E+00 -0.38227767829E+03  0.38227767829E+03  0.00000000000E+00 0.  1.
         23    2    1    2    0    0  0.25537259597E+02  0.72277878038E+02 -0.32668802847E+02  0.12415610713E+03  0.92039366453E+02 0.  0.
          5    1    1    2  502    0 -0.48395735451E+01  0.34724924351E+02 -0.96967525834E+02  0.10319600433E+03  0.41800000000E+01 0.  1.
         -5    1    1    2    0  502 -0.20697686052E+02 -0.10700280239E+03 -0.18919019041E+03  0.21837672604E+03  0.41800000000E+01 0.  1.
        -11    1    3    3    0    0 -0.17538291948E+00  0.26818138146E+02 -0.59627548024E+02  0.65381096474E+02  0.00000000000E+00 0.  1.
         11    1    3    3    0    0  0.25712642517E+02  0.45459739892E+02  0.26958745177E+02  0.58775010657E+02  0.00000000000E+00 0. -1.
</event>
<event>
 7    1  0.4096326E-006  0.1234250E+03  0.7561462E-02  0.1237551E+00
         -3   -1    0    0    0  501 -0.00000000000E+00  0.00000000000E+00  0.17542983412E+03  0.17542983412E+03  0.00000000000E+00 0.  1.
          3   -1    0    0  501    0  0.00000000000E+00 -0.00000000000E+00 -0.98212682557E+02  0.98212682557E+02  0.00000000000E+00 0. -1.
         23    2    1    2    0    0 -0.57161812956E+01  0.66850974923E+02  0.26807961366E+01  0.11331069382E+03  0.91271019982E+02 0.  0.
          5    1    1    2  502    0  0.33370428785E+01  0.37264650397E+02  0.22170224555E+02  0.43689601523E+02  0.41800000000E+01 0. -1.
         -5    1    1    2    0  502  0.23791384171E+01 -0.10411562532E+03  0.52366130867E+02  0.11664222133E+03  0.41800000000E+01 0. -1.
        -11    1    3    3    0    0  0.26588780114E+02 -0.42075289463E+01 -0.18217329331E+02  0.32504424556E+02  0.00000000000E+00 0. -1.
         11    1    3    3    0    0 -0.32304961410E+02  0.71058503869E+02  0.20898125467E+02  0.80806269261E+02  0.00000000000E+00 0.  1.
</event>
<event>
 7    1  0.4096326E-006  0.1404216E+03  0.7561462E-02  0.1212763E+00
          1   -1    0    0  501    0  0.00000000000E+00  0.00000000000E+00  0.38141987055E+02  0.38141987055E+02  0.00000000000E+00 0. -1.
         -1   -1    0    0    0  501 -0.00000000000E+00 -0.00000000000E+00 -0.77801803650E+03  0.77801803650E+03  0.00000000000E+00 0.  1.
         23    2    1    2    0    0  0.33092988704E+02 -0.10578815804E+03 -0.16985075473E+03  0.22213877319E+03  0.90609466354E+02 0.  0.
          5    1    1    2  502    0 -0.37140663262E+02 -0.18912910495E+02 -0.12595515130E+03  0.13273770975E+03  0.41800000000E+01 0.  1.
         -5    1    1    2    0  502  0.40476745572E+01  0.12470106853E+03 -0.44407014342E+03  0.46128354061E+03  0.41800000000E+01 0.  1.
        -11    1    3    3    0    0  0.20289667082E+02 -0.24419685695E+02  0.17455749689E+01  0.31796834304E+02  0.00000000000E+00 0. -1.
         11    1    3    3    0    0  0.12803321622E+02 -0.81368472342E+02 -0.17159632970E+03  0.19034193889E+03  0.00000000000E+00 0.  1.
</event>
<event>
 7    1  0.4096326E-006  0.1537244E+03  0.7561462E-02  0.1195970E+00
          2   -1    0    0  501    0  0.00000000000E+00  0.00000000000E+00  0.12552271432E+03  0.12552271432E+03  0.00000000000E+00 0. -1.
         -2   -1    0    0    0  501 -0.00000000000E+00 -0.00000000000E+00 -0.19260036654E+03  0.19260036654E+03  0.00000000000E+00 0.  1.
         23    2    1    2    0    0  0.89578134346E+02 -0.62828798350E+02 -0.50604047685E+02  0.15116703732E+03  0.91208571281E+02 0.  0.
          5    1    1    2  502    0 -0.77567226486E+01  0.80685904620E+02 -0.17797633261E+02  0.83093983539E+02  0.41800000000E+01 0. -1.
         -5    1    1    2    0  502 -0.81821411698E+02 -0.17857106270E+02  0.13240287246E+01  0.83862060007E+02  0.41800000000E+01 0. -1.
        -11    1    3    3    0    0  0.43123103600E+02  0.19945542297E+02 -0.15889339613E+02  0.50098880576E+02  0.00000000000E+00 0.  1.
         11    1    3    3    0    0  0.46455030746E+02 -0.82774340647E+02 -0.34714708071E+02  0.10106815674E+03  0.00000000000E+00 0. -1.
</event>
<event>
 7    1  0.4096326E-006  0.9349823E+02  0.7561462E-02  0.1294595E+00
          1   -1    0    0  501    0  0.00000000000E+00  0.00000000000E+00  0.21833962235E+03  0.21833962235E+03  0.00000000000E+00 0. -1.
         -1   -1    0    0    0  501 -0.00000000000E+00 -0.00000000000E+00 -0.80125366980E+02  0.80125366980E+02  0.00000000000E+00 0.  1.
         23    2    1    2    0    0  0.27217234424E+02 -0.27881522475E+02  0.13522400137E+03  0.16741416202E+03  0.90685246611E+02 0.  0.
          5    1    1    2  502    0  0.25235486776E+02 -0.16044058329E+02 -0.40018146565E+02  0.50131487660E+02  0.41800000000E+01 0. -1.
         -5    1    1    2    0  502 -0.52452721199E+02  0.43925580804E+02  0.43008400562E+02  0.80919339648E+02  0.41800000000E+01 0. -1.
        -11    1    3    3    0    0  0.15634782918E+02  0.27524234376E+02  0.16073139468E+02  0.35501770763E+02  0.00000000000E+00 0.  1.
         11    1    3    3    0    0  0.11582451505E+02 -0.55405756851E+02  0.11915086191E+03  0.13191239126E+03  0.00000000000E+00 0. -1.
</event>
<event>
 7    1  0.4096326E-006  0.7680760E+02  0.7561462E-02  0.1338363E+00
         -1   -1    0    0    0  501 -0.00000000000E+00  0.00000000000E+00  0.77044941733E+02  0.77044941733E+02  0.00000000000E+00 0.  1.
          1   -1    0    0  501    0  0.00000000000E+00 -0.00000000000E+00 -0.17406410304E+03  0.17406410304E+03  0.00000000000E+00 0. -1.
         23    2    1    2    0    0  0.32806336664E+01 -0.12148551535E+02 -0.88785684927E+02  0.12512130134E+03  0.87258766546E+02 0.  0.
          5    1    1    2  502    0  0.28987519392E+02  0.28919954292E+02 -0.53672740972E+02  0.67637826401E+02  0.41800000000E+01 0.  1.
         -5    1    1    2    0  502 -0.32268153058E+02 -0.16771402757E+02  0.45439264587E+02  0.58349917039E+02  0.41800000000E+01 0.  1.
        -11    1    3    3    0    0 -0.34745602716E+02  0.30924138651E+01 -0.73568461591E+02  0.81419521446E+02  0.00000000000E+00 0. -1.
         11    1    3    3    0    0  0.38026236382E+02 -0.15240965401E+02 -0.15217223336E+02  0.43701779893E+02  0.00000000000E+00 0.  1.
</event>
<event>
 7    1  0.4096326E-006  0.1152495E+03  0.7561462E-02  0.1251146E+00
          1   -1    0    0  501    0  0.00000000000E+00  0.00000000000E+00  0.65338778915E+02  0.65338778915E+02  0.00000000000E+00 0. -1.
         -1   -1    0    0    0  501 -0.00000000000E+00 -0.00000000000E+00 -0.32064371760E+03  0.32064371760E+03  0.00000000000E+00 0.  1.
         23    2    1    2    0    0  0.65303782143E+02  0.26135887238E+02 -0.30765818411E+02  0.11950071600E+03  0.91576290476E+02 0.  0.
          5    1    1    2  502    0  0.47784582706E+01  0.43782183115E+02 -0.75671152368E+02  0.87654486037E+02  0.41800000000E+01 0. -1.
         -5    1    1    2    0  502 -0.70082240413E+02 -0.69918070352E+02 -0.14886796791E+03  0.17882729448E+03  0.41800000000E+01 0. -1.
        -11    1    3    3    0    0 -0.58248640425E+01  0.13808217253E+02 -0.43667731420E+02  0.46167809913E+02  0.00000000000E+00 0.  1.
         11    1    3    3    0    0  0.71128646185E+02  0.12327669984E+02  0.12901913009E+02  0.73332906083E+02  0.00000000000E+00 0. -1.
</event>
<event>
 7    1  0.4096326E-006  0.1056800E+03  0.7561462E-02  0.1268786E+00
          3   -1    0    0  501    0  0.00000000000E+00  0.00000000000E+00  0.16765795071E+03  0.16765795071E+03  0.00000000000E+00 0. -1.
         -3   -1    0    0    0  501 -0.00000000000E+00 -0.00000000000E+00 -0.12424327101E+03  0.12424327101E+03  0.00000000000E+00 0.  1.
         23    2    1    2    0    0 -0.39594063968E+02 -0.43458046123E+02  0.99495100602E+02  0.15294914257E+03  0.10018918851E+03 0.  0.
          5    1    1    2  502    0 -0.28366904954E+02  0.23383064349E+02  0.13658792914E+02  0.39439624984E+02  0.41800000000E+01 0. -1.
         -5    1    1    2    0  502  0.67960968923E+02  0.20074981774E+02 -0.69739213823E+02  0.99512454169E+02  0.41800000000E+01 0.  1.
        -11    1    3    3    0    0  0.73041501390E+01  0.21811814661E+02 -0.24499284369E+01  0.23132401895E+02  0.00000000000E+00 0.  1.
         11    1    3    3    0    0 -0.46898214107E+02 -0.65269860784E+02  0.10194502904E+03  0.12981674067E+03  0.00000000000E+00 0. -1.
</event>
<event>
 7    1  0.4096326E-006  0.1081839E+03  0.7561462E-02  0.1263970E+00
          1   -1    0    0  501    0  0.00000000000E+00  0.00000000000E+00  0.43592842169E+03  0.43592842169E+03  0.00000000000E+00 0. -1.
         -1   -1    0    0    0  501 -0.00000000000E+00 -0.00000000000E+00 -0.46565548788E+02  0.46565548788E+02  0.00000000000E+00 0.  1.
         23    2    1    2    0    0 -0.31752446882E+01 -0.69282111149E+02  0.27840961566E+03  0.30147452127E+03  0.92546635706E+02 0.  0.
          5    1    1    2  502    0 -0.35457394481E+02  0.31850709290E+02  0.11731023095E+03  0.12669197761E+03  0.41800000000E+01 0.  1.
         -5    1    1    2    0  502  0.38632639169E+02  0.37431401859E+02 -0.63569737142E+01  0.54327471587E+02  0.41800000000E+01 0.  1.
        -11    1    3    3    0    0 -0.41275042509E+02 -0.63927158674E+02  0.16461211265E+03  0.18134899608E+03  0.00000000000E+00 0.  1.
         11    1    3    3    0    0  0.38099797821E+02 -0.53549524750E+01  0.11379750302E+03  0.12012552519E+03  0.00000000000E+00 0. -1.
</event>
<event>
 7    1  0.4096326E-006  0.9616312E+02  0.7561462E-02  0.1288578E+00
         -2   -1    0    0    0  501 -0.00000000000E+00  0.00000000000E+00  0.14816414043E+03  0.14816414043E+03  0.00000000000E+00 0.  1.
          2   -1    0    0  501    0  0.00000000000E+00 -0.00000000000E+00 -0.10330923624E+03  0.10330923624E+03  0.00000000000E+00 0. -1.
         23    2    1    2    0    0  0.21255920594E+02  0.50547338949E+02  0.94465605488E+01  0.11038008461E+03  0.95329313103E+02 0.  0.
          5    1    1    2  502    0 -0.67077191919E+02 -0.20196043096E+02  0.47398749792E+02  0.84683786608E+02  0.41800000000E+01 0. -1.
         -5    1    1    2    0  502  0.45821271325E+02 -0.30351295853E+02 -0.11990406149E+02  0.56409505452E+02  0.41800000000E+01 0. -1.
        -11    1    3    3    0    0  0.73788168117E+01  0.52499788906E+02  0.46654285462E+02  0.70620798102E+02  0.00000000000E+00 0.  1.
         11    1    3    3    0    0  0.13877103782E+02 -0.19524499567E+01 -0.37207724913E+02  0.39759286505E+02  0.00000000000E+00 0. -1.
</event>
<event>
 7    1  0.4096326E-006  0.8612464E+02  0.7561462E-02  0.1312517E+00
          1   -1    0    0  501    0  0.00000000000E+00  0.00000000000E+00  0.32358134469E+03  0.32358134469E+03  0.00000000000E+00 0. -1.
         -1   -1    0    0    0  501 -0.00000000000E+00 -0.00000000000E+00 -0.40939296736E+02  0.40939296736E+02  0.00000000000E+00 0.  1.
         23    2    1    2    0    0 -0.22600539921E+02 -0.20289731194E+02  0.15424054738E+03  0.18270646787E+03  0.93107729805E+02 0.  0.
          5    1    1    2  502    0 -0.26805137462E+02  0.50316442515E+02  0.10450191254E+03  0.11911499446E+03  0.41800000000E+01 0.  1.
         -5    1    1    2    0  502  0.49405677384E+02 -0.30026711322E+02  0.23899588039E+02  0.62699179093E+02  0.41800000000E+01 0.  1.
        -11    1    3    3    0    0 -0.37566757932E+02 -0.97397844197E+01  0.15909743253E+03  0.16376238194E+03  0.00000000000E+00 0. -1.
         11    1    3    3    0    0  0.14966218010E+02 -0.10549946774E+02 -0.48568851471E+01  0.18944085932E+02  0.00000000000E+00 0.  1.
</event>
<event>
 7    1  0.4096326E-006  0.9861154E+02  0.7561462E-02  0.1283243E+00
          1   -1    0    0  501    0  0.00000000000E+00  0.00000000000E+00  0.49561382315E+03  0.49561382315E+03  0.00000000000E+00 0. -1.
         -1   -1    0    0    0  501 -0.00000000000E+00 -0.00000000000E+00 -0.26140265625E+02  0.26140265625E+02  0.00000000000E+00 0.  1.
         23    2    1    2    0    0 -0.20610433339E+02 -0.17414396668E+02  0.17596992615E+03  0.20156573481E+03  0.94526606668E+02 0.  0.
          5    1    1    2  502    0 -0.11992582657E+02 -0.50634315525E+02  0.12868540928E+03  0.13887066972E+03  0.41800000000E+01 0. -1.
         -5    1    1    2    0  502  0.32603015996E+02  0.68048712192E+02  0.16481822210E+03  0.18131768424E+03  0.41800000000E+01 0. -1.
        -11    1    3    3    0    0  0.14067242663E+02  0.15991348449E+02  0.23908022436E+01  0.21431903245E+02  0.00000000000E+00 0.  1.
         11    1    3    3    0    0 -0.34677676002E+02 -0.33405745117E+02  0.17357912390E+03  0.18013383157E+03  0.00000000000E+00 0. -1.
</event>
<event>
 7    1  0.4096326E-006  0.1423621E+03  0.7561462E-02  0.1210185E+00
         -2   -1    0    0    0  501 -0.00000000000E+00  0.00000000000E+00  0.85326295531E+02  0.85326295531E+02  0.00000000000E+00 0.  1.
          2   -1    0    0  501    0  0.00000000000E+00 -0.00000000000E+00 -0.47036010134E+03  0.47036010134E+03  0.00000000000E+00 0. -1.
         23    2    1    2    0    0  0.12732655192E+03 -0.18516523728E+01 -0.31215732279E+03  0.34923346491E+03  0.91139121138E+02 0.  0.
          5    1    1    2  502    0 -0.25589970858E+02 -0.67097254324E+01 -0.97695466520E+02  0.10130026457E+03  0.41800000000E+01 0. -1.
         -5    1    1    2    0  502 -0.10173658106E+03  0.85613778053E+01  0.24818983505E+02  0.10515266738E+03  0.41800000000E+01 0.  1.
        -11    1    3    3    0    0  0.10456436171E+03 -0.39490464142E+02 -0.20704691081E+03  0.23529051357E+03  0.00000000000E+00 0.  1.
         11    1    3    3    0    0  0.22762190207E+02  0.37638811769E+02 -0.10511041198E+03  0.11394295134E+03  0.00000000000E+00 0. -1.
</event>
<event>
 7    1  0.4096326E-006  0.8895939E+02  0.7561462E-02  0.1305391E+00
          3   -1    0    0  501    0  0.00000000000E+00  0.00000000000E+00  0.10743439624E+03  0.10743439624E+03  0.00000000000E+00 0. -1.
         -3   -1    0    0    0  501 -0.00000000000E+00 -0.00000000000E+00 -0.10535304307E+03  0.10535304307E+03  0.00000000000E+00 0.  1.
         23    2    1    2    0    0 -0.23451938585E+01 -0.10985137336E+02  0.47495513240E+01  0.87163431137E+02  0.86306038684E+02 0.  0.
          5    1    1    2  502    0  0.92206805683E+01  0.50071727725E+02 -0.44544544770E+02  0.67778224647E+02  0.41800000000E+01 0.  1.
         -5    1    1    2    0  502 -0.68754867098E+01 -0.39086590389E+02  0.41876346620E+02  0.57845783528E+02  0.41800000000E+01 0.  1.
        -11    1    3    3    0    0 -0.44284979891E+02 -0.61523602678E+01  0.45953654689E+01  0.44945838123E+02  0.00000000000E+00 0.  1.
         11    1    3    3    0    0  0.41939786032E+02 -0.48327770680E+01  0.15418585519E+00  0.42217593014E+02  0.00000000000E+00 0. -1.
</event>
<event>
 7    1  0.4096326E-006  0.8865799E+02  0.7561462E-02  0.1306134E+00
         -1   -1    0    0    0  501 -0.00000000000E+00  0.00000000000E+00  0.34364788046E+03  0.34364788046E+03  0.00000000000E+00 0.  1.
          1   -1    0    0  501    0  0.00000000000E+00 -0.00000000000E+00 -0.46304821598E+02  0.46304821598E+02  0.00000000000E+00 0. -1.
         23    2    1    2    0    0  0.18678927879E+02  0.30265561943E+02  0.46406936199E+02  0.10731980206E+03  0.89994608726E+02 0.  0.
          5    1    1    2  502    0  0.80213205902E+01 -0.59529872223E+02  0.22976133358E+03  0.23752029403E+03  0.41800000000E+01 0.  1.
         -5    1    1    2    0  502 -0.26700248469E+02  0.29264310280E+02  0.21174789089E+02  0.45112605970E+02  0.41800000000E+01 0.  1.
        -11    1    3    3    0    0 -0.40398557318E+01 -0.20899472343E+02 -0.13595067840E+02  0.25257360277E+02  0.00000000000E+00 0. -1.
         11    1    3    3    0    0  0.22718783611E+02  0.51165034286E+02  0.60002004040E+02  0.82062441781E+02  0.00000000000E+00 0.  1.
</event>
<event>
 7    1  0.4096326E-006  0.1314584E+03  0.7561462E-02  0.1225308E+00
         -1   -1    0    0    0  501 -0.00000000000E+00  0.00000000000E+00  0.37260531036E+03  0.37260531036E+03  0.00000000000E+00 0.  1.
          1   -1    0    0  501    0  0.00000000000E+00 -0.00000000000E+00 -0.48146408014E+02  0.48146408014E+02  0.00000000000E+00 0. -1.
         23    2    1    2    0    0 -0.93258344191E+01 -0.77192130462E+02  0.13588444208E+03  0.18147507771E+03  0.91777045268E+02 0.  0.
          5    1    1    2  502    0 -0.48480732256E+02  0.12452922202E+01  0.41865566042E+02  0.64203817432E+02  0.41800000000E+01 0.  1.
         -5    1    1    2    0  502  0.57806566675E+02  0.75946838242E+02  0.14670889423E+03  0.17507282323E+03  0.41800000000E+01 0.  1.
        -11    1    3    3    0    0 -0.99877984318E+01  0.19553723296E+02  0.37734832643E+02  0.43658009653E+02  0.00000000000E+00 0. -1.
         11    1    3    3    0    0  0.66196401265E+00 -0.96745853758E+02  0.98149609436E+02  0.13781706806E+03  0.00000000000E+00 0.  1.
</event>
<event>
 7    1  0.4096326E-006  0.1147645E+03  0.7561462E-02  0.1251993E+00
         -2   -1    0    0    0  501 -0.00000000000E+00  0.00000000000E+00  0.33132957509E+02  0.33132957509E+02  0.00000000000E+00 0.  1.
          2   -1    0    0  501    0  0.00000000000E+00 -0.00000000000E+00 -0.67557643112E+03  0.67557643112E+03  0.00000000000E+00 0. -1.
         23    2    1    2    0    0 -0.55510166300E+02 -0.56844335108E+02 -0.44932505064E+03  0.46528606942E+03  0.91024547603E+02 0.  0.
          5    1    1    2  502    0  0.81557525474E+02  0.46940908820E+02 -0.19353692175E+03  0.21524193682E+03  0.41800000000E+01 0.  1.
         -5    1    1    2    0  502 -0.26047359174E+02  0.99034262879E+01  0.41849878719E+00  0.28181382390E+02  0.41800000000E+01 0.  1.
        -11    1    3    3    0    0 -0.72135655981E+02 -0.54407408002E+02 -0.43122375945E+03  0.44058784553E+03  0.00000000000E+00 0. -1.
         11    1    3    3    0    0  0.16625489681E+02 -0.24369271060E+01 -0.18101291192E+02  0.24698223897E+02  0.00000000000E+00 0.  1.
</event>
<event>
 7    1  0.4096326E-006  0.1218348E+03  0.7561462E-02  0.1240101E+00
          1   -1    0    0  501    0  0.00000000000E+00  0.00000000000E+00  0.11031051000E+03  0.11031051000E+03  0.00000000000E+00 0. -1.
         -1   -1    0    0    0  501 -0.00000000000E+00 -0.00000000000E+00 -0.18231763162E+03  0.18231763162E+03  0.00000000000E+00 0.  1.
         23    2    1    2    0    0 -0.21861045278E+02  0.76556192449E+02  0.14283724726E+02  0.12106749104E+03  0.90080834203E+02 0.  0.
          5    1    1    2  502    0  0.40370629219E+02  0.61745160791E+01 -0.75578009054E+02  0.86008256609E+02  0.41800000000E+01 0. -1.
         -5    1    1    2    0  502 -0.18509583941E+02 -0.82730708528E+02 -0.10712837291E+02  0.85552393970E+02  0.41800000000E+01 0. -1.
        -11    1    3    3    0    0 -0.30927834237E+02 -0.85986679615E+01 -0.69354936185E+01  0.32841575678E+02  0.00000000000E+00 0.  1.
         11    1    3    3    0    0  0.90667889584E+01  0.85154860410E+02  0.21219218344E+02  0.88225915357E+02  0.00000000000E+00 0. -1.
</event>
<event>
 7    1  0.4096326E-006  0.1437884E+03  0.7561462E-02  0.1208320E+00
         -1   -1    0    0    0  501 -0.00000000000E+00  0.00000000000E+00  0.63269469574E+03  0.63269469574E+03  0.00000000000E+00 0.  1.
          1   -1    0    0  501    0  0.00000000000E+00 -0.00000000000E+00 -0.34895657920E+02  0.34895657920E+02  0.00000000000E+00 0. -1.
         23    2    1    2    0    0 -0.98332041924E+02  0.30413915204E+02  0.29801542587E+03  0.32683381350E+03  0.86098495253E+02 0.  0.
          5    1    1    2  502    0 -0.18126418674E+02 -0.33130974678E+02  0.12517476646E+03  0.13081446057E+03  0.41800000000E+01 0. -1.
         -5    1    1    2    0  502  0.11645846060E+03  0.27170594732E+01  0.17460884549E+03  0.20994207959E+03  0.41800000000E+01 0. -1.
        -11    1    3    3    0    0 -0.83525705372E+02 -0.15342519252E+02  0.16879570876E+03  0.18895482965E+03  0.00000000000E+00 0. -1.
         11    1    3    3    0    0 -0.14806336553E+02  0.45756434456E+02  0.12921971711E+03  0.13787898385E+03  0.00000000000E+00 0.  1.
</event>
<event>
 7    1  0.4096326E-006  0.1095241E+03  0.7561462E-02  0.1261454E+00
          3   -1    0    0  501    0  0.00000000000E+00  0.00000000000E+00  0.62664645220E+02  0.62664645220E+02  0.00000000000E+00 0. -1.
         -3   -1    0    0    0  501 -0.00000000000E+00 -0.00000000000E+00 -0.23835880437E+03  0.23835880437E+03  0.00000000000E+00 0.  1.
         23    2    1    2    0    0 -0.36913043282E+02  0.43070364230E+02 -0.72542176509E+02  0.12925146484E+03  0.90696994170E+02 0.  0.
          5    1    1    2  502    0 -0.44461833200E+02 -0.84720070544E+01 -0.53763704568E+02  0.70403393696E+02  0.41800000000E+01 0. -1.
         -5    1    1    2    0  502  0.81374876481E+02 -0.34598357176E+02 -0.49388278075E+02  0.10136859106E+03  0.41800000000E+01 0. -1.
        -11    1    3    3    0    0  0.15390374431E+02  0.25703872283E+02 -0.67573137745E+02  0.73916720843E+02  0.00000000000E+00 0.  1.
         11    1    3    3    0    0 -0.52303417713E+02  0.17366491947E+02 -0.49690387639E+01  0.55334743997E+02  0.00000000000E+00 0. -1.
</event>
<event>
 7    1  0.4096326E-006  0.9592581E+02  0.7561462E-02  0.1289104E+00
         -2   -1    0    0    0  501 -0.00000000000E+00  0.00000000000E+00  0.43642916655E+03  0.43642916655E+03  0.00000000000E+00 0.  1.
          2   -1    0    0  501    0  0.00000000000E+00 -0.00000000000E+00 -0.67652940088E+02  0.67652940088E+02  0.00000000000E+00 0. -1.
         23    2    1    2    0    0  0.97265190792E+00  0.15813063037E+02 -0.18522261540E+02  0.96775014994E+02  0.93655380733E+02 0.  0.
          5    1    1    2  502    0  0.67471493181E+01  0.50245599504E+02  0.24434971894E+03  0.24958846495E+03  0.41800000000E+01 0. -1.
         -5    1    1    2    0  502 -0.77198012260E+01 -0.66058662541E+02  0.14294876906E+03  0.15771862669E+03  0.41800000000E+01 0. -1.
        -11    1    3    3    0    0  0.63642659166E+01 -0.28754843132E+02 -0.37799635141E+02  0.47918235579E+02  0.00000000000E+00 0. -1.
         11    1    3    3    0    0 -0.53916140087E+01  0.44567906168E+02  0.19277373601E+02  0.48856779415E+02  0.00000000000E+00 0.  1.
</event>
<event>
 7    1  0.4096326E-006  0.1067848E+03  0.7561462E-02  0.1266642E+00
          1   -1    0    0  501    0  0.00000000000E+00  0.00000000000E+00  0.17215732375E+03  0.17215732375E+03  0.00000000000E+00 0. -1.
         -1   -1    0    0    0  501 -0.00000000000E+00 -0.00000000000E+00 -0.10688553517E+03  0.10688553517E+03  0.00000000000E+00 0.  1.
         23    2    1    2    0    0  0.46646520464E+02  0.35570678501E+02  0.76896123726E+02  0.14039808345E+03  0.10177149381E+03 0.  0.
          5    1    1    2  502    0 -0.71717306457E+02 -0.15464693146E+02 -0.49647783198E+02  0.88684291484E+02  0.41800000000E+01 0. -1.
         -5    1    1    2    0  502  0.25070785993E+02 -0.20105985355E+02  0.38023448052E+02  0.49960483977E+02  0.41800000000E+01 0. -1.
        -11    1    3    3    0    0  0.63674222239E+02  0.53341938982E+02  0.31648584342E+02  0.88889830256E+02  0.00000000000E+00 0.  1.
         11    1    3    3    0    0 -0.17027701775E+02 -0.17771260481E+02  0.45247539384E+02  0.51508253194E+02  0.00000000000E+00 0. -1.
</event>
<event>
 7    1  0.4096326E-006  0.9047264E+02  0.7561462E-02  0.1301711E+00
         -1   -1    0    0    0  501 -0.00000000000E+00  0.00000000000E+00  0.31737262785E+03  0.31737262785E+03  0.00000000000E+00 0.  1.
          1   -1    0    0  501    0  0.00000000000E+00 -0.00000000000E+00 -0.68093673780E+02  0.68093673780E+02  0.00000000000E+00 0. -1.
         23    2    1    2    0    0  0.11738418363E+02 -0.20880177841E+01 -0.15026173015E+02  0.92811297375E+02  0.90807492869E+02 0.  0.
          5    1    1    2  502    0 -0.52918324253E+02 -0.36146495541E+02  0.18123177550E+03  0.19227414551E+03  0.41800000000E+01 0.  1.
         -5    1    1    2    0  502  0.41179905890E+02  0.38234513325E+02  0.83073351583E+02  0.10038085874E+03  0.41800000000E+01 0.  1.
        -11    1    3    3    0    0  0.36030966820E+02 -0.19266508931E+01 -0.42755206378E+02  0.55945958085E+02  0.00000000000E+00 0. -1.
         11    1    3    3    0    0 -0.24292548456E+02 -0.16136689099E+00  0.27729033363E+02  0.36865339291E+02  0.00000000000E+00 0.  1.
</event>
<event>
 7    1  0.4096326E-006  0.8694495E+02  0.7561462E-02  0.1310423E+00
         -1   -1    0    0    0  501 -0.00000000000E+00  0.00000000000E+00  0.67300044683E+03  0.67300044683E+03  0.00000000000E+00 0.  1.
          1   -1    0    0  501    0  0.00000000000E+00 -0.00000000000E+00 -0.22695434048E+02  0.22695434048E+02  0.00000000000E+00 0. -1.
         23    2    1    2    0    0 -0.26372916159E+02 -0.25933745241E+02  0.42692338478E+03  0.43701540566E+03  0.85736797573E+02 0.  0.
          5    1    1    2  502    0  0.43261609036E+02 -0.67565913992E+01  0.21661481394E+03  0.22103544594E+03  0.41800000000E+01 0. -1.
         -5    1    1    2    0  502 -0.16888692877E+02  0.32690336640E+02  0.67668140541E+01  0.37645029276E+02  0.41800000000E+01 0. -1.
        -11    1    3    3    0    0 -0.33116941475E+02 -0.54362375217E+02  0.27073197993E+03  0.27811473281E+03  0.00000000000E+00 0. -1.
         11    1    3    3    0    0  0.67440253157E+01  0.28428629976E+02  0.15619140485E+03  0.15890067284E+03  0.00000000000E+00 0.  1.
</event>
<event>
 7    1  0.4096326E-006  0.1072783E+03  0.7561462E-02  0.1265695E+00
          2   -1    0    0  501    0  0.00000000000E+00  0.00000000000E+00  0.82203546979E+03  0.82203546979E+03  0.00000000000E+00 0. -1.
         -2   -1    0    0    0  501 -0.00000000000E+00 -0.00000000000E+00 -0.15304932771E+02  0.15304932771E+02  0.00000000000E+00 0.  1.
         23    2    1    2    0    0 -0.14604109646E+02  0.80331977892E+01  0.28674932823E+03  0.30226521288E+03  0.94134315705E+02 0.  0.
          5    1    1    2  502    0  0.26829830926E+01  0.58267128302E+02  0.22560270911E+03  0.23305860078E+03  0.41800000000E+01 0. -1.
         -5    1    1    2    0  502  0.11921126553E+02 -0.66300326091E+02  0.29437849968E+03  0.30201658890E+03  0.41800000000E+01 0. -1.
        -11    1    3    3    0    0  0.79178067289E+01  0.44785976144E+02  0.20347876845E+03  0.20849960319E+03  0.00000000000E+00 0.  1.
         11    1    3    3    0    0 -0.22521916375E+02 -0.36752778355E+02  0.83270559780E+02  0.93765609688E+02  0.00000000000E+00 0. -1.
</event>
<event>
 7    1  0.4096326E-006  0.8714338E+02  0.7561462E-02  0.1309921E+00
         -1   -1    0    0    0  501 -0.00000000000E+00  0.00000000000E+00  0.20285751804E+02  0.20285751804E+02  0.00000000000E+00 0.  1.
          1   -1    0    0  501    0  0.00000000000E+00 -0.00000000000E+00 -0.81400404817E+03  0.81400404817E+03  0.00000000000E+00 0. -1.
         23    2    1    2    0    0  0.14683362508E+02 -0.67371475539E+02 -0.38491101027E+03  0.40124738222E+03  0.89935860810E+02 0.  0.
          5    1    1    2  502    0 -0.14375491336E+02  0.21361453304E+02 -0.37472252342E+03  0.37562934975E+03  0.41800000000E+01 0. -1.
         -5    1    1    2    0  502 -0.30787117255E+00  0.46010022235E+02 -0.34084762678E+02  0.57413068003E+02  0.41800000000E+01 0. -1.
        -11    1    3    3    0    0  0.28029758259E+02  0.49455623846E+01 -0.43345073234E+02  0.51854809893E+02  0.00000000000E+00 0.  1.
         11    1    3    3    0    0 -0.13346395750E+02 -0.72317037923E+02 -0.34156593704E+03  0.34939257233E+03  0.00000000000E+00 0. -1.
</event>
<event>
 7    1  0.4096326E-006  0.1015706E+03  0.7561462E-02  0.1277027E+00
          1   -1    0    0  501    0  0.00000000000E+00  0.00000000000E+00  0.44585448354E+03  0.44585448354E+03  0.00000000000E+00 0. -1.
         -1   -1    0    0    0  501 -0.00000000000E+00 -0.00000000000E+00 -0.26422009891E+02  0.26422009891E+02  0.00000000000E+00 0.  1.
         23    2    1    2    0    0  0.84864662763E+01  0.23840511410E+02  0.22053087453E+03  0.23595118330E+03  0.79991900742E+02 0.  0.
          5    1    1    2  502    0 -0.30963164640E+02 -0.68816229570E+02  0.10053148481E+03  0.12577139124E+03  0.41800000000E+01 0.  1.
         -5    1    1    2    0  502  0.22476698363E+02  0.44975718159E+02  0.98370114306E+02  0.11055391889E+03  0.41800000000E+01 0.  1.
        -11    1    3    3    0    0 -0.30534603921E+02 -0.15216310748E+01  0.45342191432E+02  0.54686302870E+02  0.00000000000E+00 0.  1.
         11    1    3    3    0    0  0.39021070197E+02  0.25362142485E+02  0.17518868310E+03  0.18126488043E+03  0.00000000000E+00 0. -1.
</event>
<event>
 7    1  0.4096326E-006  0.1589324E+03  0.7561462E-02  0.1189907E+00
          1   -1    0    0  501    0  0.00000000000E+00  0.00000000000E+00  0.90957397559E+02  0.90957397559E+02  0.00000000000E+00 0. -1.
         -1   -1    0    0    0  501 -0.00000000000E+00 -0.00000000000E+00 -0.31892591533E+03  0.31892591533E+03  0.00000000000E+00 0.  1.
         23    2    1    2    0    0 -0.90138078139E+02  0.92483322123E+02 -0.81567277159E+02  0.17802215376E+03  0.91436472615E+02 0.  0.
          5    1    1    2  502    0  0.10920631739E+03 -0.65889443116E+02 -0.63295836117E+02  0.14244744203E+03  0.41800000000E+01 0.  1.
         -5    1    1    2    0  502 -0.19068239250E+02 -0.26593879007E+02 -0.83105404500E+02  0.89413717101E+02  0.41800000000E+01 0.  1.
        -11    1    3    3    0    0 -0.23314194431E+02  0.87163587423E+02 -0.36974631740E+02  0.97509825283E+02  0.00000000000E+00 0.  1.
         11    1    3    3    0    0 -0.66823883708E+02  0.53197346997E+01 -0.44592645419E+02  0.80512328476E+02  0.00000000000E+00 0. -1.
</event>
<event>
 7    1  0.4096326E-006  0.1354676E+03  0.7561462E-02  0.1219561E+00
         -2   -1    0    0    0  501 -0.00000000000E+00  0.00000000000E+00  0.19770869977E+03  0.19770869977E+03  0.00000000000E+00 0.  1.
          2   -1    0    0  501    0  0.00000000000E+00 -0.00000000000E+00 -0.12665843792E+03  0.12665843792E+03  0.00000000000E+00 0. -1.
         23    2    1    2    0    0  0.82231147246E+02 -0.50185059939E+02 -0.30857248770E+02  0.13578309897E+03  0.90578023527E+02 0.  0.
          5    1    1    2  502    0 -0.11420577499E+03  0.50352915031E+02  0.91077075408E+02  0.15456675308E+03  0.41800000000E+01 0.  1.
         -5    1    1    2    0  502  0.31974627748E+02 -0.16785509245E+00  0.10830435208E+02  0.34017285631E+02  0.41800000000E+01 0.  1.
        -11    1    3    3    0    0  0.26017277922E+02  0.13124364028E+02  0.21521506963E+02  0.36225998172E+02  0.00000000000E+00 0.  1.
         11    1    3    3    0    0  0.56213869324E+02 -0.63309423967E+02 -0.52378755733E+02  0.99557100799E+02  0.00000000000E+00 0. -1.
</event>
<event>
 7    1  0.4096326E-006  0.1335871E+03  0.7561462E-02  0.1222228E+00
         -4   -1    0    0    0  501 -0.00000000000E+00  0.00000000000E+00  0.12293380117E+04  0.12293380117E+04  0.00000000000E+00 0.  1.
          4   -1    0    0  501    0  0.00000000000E+00 -0.00000000000E+00 -0.27381176035E+02  0.27381176035E+02  0.00000000000E+00 0. -1.
         23    2    1    2    0    0 -0.37152688580E+02 -0.85104706060E+02  0.17622883398E+03  0.21922506596E+03  0.91541762897E+02 0.  0.
          5    1    1    2  502    0 -0.34160840089E+02  0.70851385176E+02  0.41234327369E+03  0.41979915380E+03  0.41800000000E+01 0.  1.
         -5    1    1    2    0  502  0.71313528669E+02  0.14253320884E+02  0.61338472802E+03  0.61769496800E+03  0.41800000000E+01 0.  1.
        -11    1    3    3    0    0 -0.25937053583E+02  0.35697533910E+01  0.94677874936E+02  0.98231226656E+02  0.00000000000E+00 0.  1.
         11    1    3    3    0    0 -0.11215634997E+02 -0.88674459451E+02  0.81550959047E+02  0.12099383930E+03  0.00000000000E+00 0. -1.
</event>
<event>
 7    1  0.1031879E-005  0.2033615E+03  0.7561462E-02  0.1146934E+00
          2   -1    0    0  501    0  0.00000000000E+00  0.00000000000E+00  0.14820715765E+04  0.14820715765E+04  0.00000000000E+00 0. -1.
         -2   -1    0    0    0  501 -0.00000000000E+00 -0.00000000000E+00 -0.30744646469E+02  0.30744646469E+02  0.00000000000E+00 0.  1.
         23    2    1    2    0    0 -0.17825169764E+03 -0.19874304989E+01  0.84815267849E+03  0.87153288480E+03  0.91809507570E+02 0.  0.
          5    1    1    2  502    0  0.17182613213E+03  0.38729089292E+02  0.44254342741E+03  0.47632585441E+03  0.41800000000E+01 0.  1.
         -5    1    1    2    0  502  0.64255655068E+01 -0.36741658793E+02  0.16063082412E+03  0.16495748373E+03  0.41800000000E+01 0.  1.
        -11    1    3    3    0    0 -0.46312304791E+02  0.32564559113E+02  0.15327630389E+03  0.16339799699E+03  0.00000000000E+00 0. -1.
         11    1    3    3    0    0 -0.13193939285E+03 -0.34551989612E+02  0.69487637459E+03  0.70813488781E+03  0.00000000000E+00 0.  1.
</event>
<event>
 7    1  0.4096326E-006  0.1162307E+03  0.7561462E-02  0.1249448E+00
         -2   -1    0    0    0  501 -0.00000000000E+00  0.00000000000E+00  0.33062973034E+02  0.33062973034E+02  0.00000000000E+00 0.  1.
          2   -1    0    0  501    0  0.00000000000E+00 -0.00000000000E+00 -0.53246898815E+03  0.53246898815E+03  0.00000000000E+00 0. -1.
         23    2    1    2    0    0  0.10070871627E+02  0.76392077485E+02 -0.29235706851E+03  0.31623015392E+03  0.92691330684E+02 0.  0.
          5    1    1    2  502    0  0.24231523662E+02 -0.91239494226E+02 -0.10883735034E+03  0.14413484407E+03  0.41800000000E+01 0. -1.
         -5    1    1    2    0  502 -0.34302395289E+02  0.14847416741E+02 -0.98211596262E+02  0.10516696319E+03  0.41800000000E+01 0.  1.
        -11    1    3    3    0    0 -0.27153990850E+02  0.25087753115E+02 -0.20495657699E+03  0.20826409442E+03  0.00000000000E+00 0. -1.
         11    1    3    3    0    0  0.37224862477E+02  0.51304324370E+02 -0.87400491527E+02  0.10796605950E+03  0.00000000000E+00 0.  1.
</event>
<event>
 7    1  0.4096326E-006  0.1315826E+03  0.7561462E-02  0.1225126E+00
         -3   -1    0    0    0  501 -0.00000000000E+00  0.00000000000E+00  0.43775532934E+03  0.43775532934E+03  0.00000000000E+00 0.  1.
          3   -1    0    0  501    0  0.00000000000E+00 -0.00000000000E+00 -0.76071197027E+02  0.76071197027E+02  0.00000000000E+00 0. -1.
         23    2    1    2    0    0 -0.11163304791E+03 -0.46109668706E+02  0.52379756028E+02  0.15899852298E+03  0.89156337602E+02 0.  0.
          5    1    1    2  502    0 -0.56166118700E+01  0.64171263505E+01 -0.91178681536E+01  0.13165627944E+02  0.41800000000E+01 0.  1.
         -5    1    1    2    0  502  0.11724965978E+03  0.39692542355E+02  0.31842224443E+03  0.34166237544E+03  0.41800000000E+01 0.  1.
        -11    1    3    3    0    0 -0.34896928664E+02  0.81422049957E+01  0.54233887942E+02  0.65003120953E+02  0.00000000000E+00 0.  1.
         11    1    3    3    0    0 -0.76736119250E+02 -0.54251873701E+02 -0.18541319141E+01  0.93995402030E+02  0.00000000000E+00 0. -1.
</event>
<event>
 7    1  0.4096326E-006  0.1389109E+03  0.7561462E-02  0.1214802E+00
          1   -1    0    0  501    0  0.00000000000E+00  0.00000000000E+00  0.72123813242E+03  0.72123813242E+03  0.00000000000E+00 0. -1.
         -1   -1    0    0    0  501 -0.00000000000E+00 -0.00000000000E+00 -0.37437483670E+02  0.37437483670E+02  0.00000000000E+00 0.  1.
         23    2    1    2    0    0  0.79962028265E+01 -0.11464515366E+03  0.46619694530E+03  0.48881852700E+03  0.91632472474E+02 0.  0.
          5    1    1    2  502    0  0.15265779642E+02  0.12439558330E+03  0.20733160576E+03  0.24230388425E+03  0.41800000000E+01 0. -1.
         -5    1    1    2    0  502 -0.23261982469E+02 -0.97504296350E+01  0.10272097685E+02  0.27553204846E+02  0.41800000000E+01 0.  1.
        -11    1    3    3    0    0 -0.23028759891E+02 -0.42890586501E+02  0.71794152595E+02  0.86742876015E+02  0.00000000000E+00 0.  1.
         11    1    3    3    0    0  0.31024962717E+02 -0.71754567160E+02  0.39440279271E+03  0.40207565099E+03  0.00000000000E+00 0. -1.
</event>
<event>
 7    1  0.4096326E-006  0.1286966E+03  0.7561462E-02  0.1229403E+00
         -1   -1    0    0    0  501 -0.00000000000E+00  0.00000000000E+00  0.16192472639E+03  0.16192472639E+03  0.00000000000E+00 0.  1.
          1   -1    0    0  501    0  0.00000000000E+00 -0.00000000000E+00 -0.14019323751E+03  0.14019323751E+03  0.00000000000E+00 0. -1.
         23    2    1    2    0    0  0.99505167865E+02  0.18943183819E+02 -0.12556063878E+02  0.13754514944E+03  0.92200275214E+02 0.  0.
          5    1    1    2  502    0 -0.36040359442E+01  0.41461999014E+02  0.29257904017E+02  0.51044919285E+02  0.41800000000E+01 0. -1.
         -5    1    1    2    0  502 -0.95901131921E+02 -0.60405182833E+02  0.50296487356E+01  0.11352789518E+03  0.41800000000E+01 0. -1.
        -11    1    3    3    0    0  0.63624949930E+02  0.56111159180E+01  0.37856474411E+02  0.74247771214E+02  0.00000000000E+00 0.  1.
         11    1    3    3    0    0  0.35880217936E+02  0.13332067901E+02 -0.50412538289E+02  0.63297378227E+02  0.00000000000E+00 0. -1.
</event>
<event>
 7    1  0.4096326E-006  0.9641402E+02  0.7561462E-02  0.1288023E+00
         -1   -1    0    0    0  501 -0.00000000000E+00  0.00000000000E+00  0.26614149738E+03  0.26614149738E+03  0.00000000000E+00 0.  1.
          1   -1    0    0  501    0  0.00000000000E+00 -0.00000000000E+00 -0.70051726164E+02  0.70051726164E+02  0.00000000000E+00 0. -1.
         23    2    1    2    0    0 -0.68221560469E+02 -0.14044476460E+02  0.36605033691E+02  0.12186896286E+03  0.93062812040E+02 0.  0.
          5    1    1    2  502    0  0.19922504665E+02 -0.19384934658E+02 -0.13794480004E+02  0.31312009874E+02  0.41800000000E+01 0.  1.
         -5    1    1    2    0  502  0.48299055805E+02  0.33429411118E+02  0.17327921753E+03  0.18301225081E+03  0.41800000000E+01 0.  1.
        -11    1    3    3    0    0 -0.14950034847E+02 -0.42769979457E+02 -0.88675060216E+01  0.46167167421E+02  0.00000000000E+00 0. -1.
         11    1    3    3    0    0 -0.53271525622E+02  0.28725502997E+02  0.45472539713E+02  0.75701795437E+02  0.00000000000E+00 0.  1.
</event>
<event>
 6    1  0.4096326E-006  0.9824015E+02  0.7561462E-02  0.1284041E+00
          2   -1    0    0  501    0  0.00000000000E+00  0.00000000000E+00  0.24215701786E+03  0.24215701786E+03  0.00000000000E+00 0. -1.
         -2   -1    0    0    0  501 -0.00000000000E+00 -0.00000000000E+00 -0.45781762646E+02  0.45781762646E+02  0.00000000000E+00 0.  1.
          5    1    1    2  502    0 -0.71381510058E+02  0.41558127978E+02  0.49959961263E+02  0.96622296126E+02  0.41800000000E+01 0. -1.
         -5    1    1    2    0  502  0.27923734923E+02 -0.58997299644E+02  0.71527803422E+02  0.96923244889E+02  0.41800000000E+01 0.  1.
        -11    1    1    2    0    0  0.15709823747E+02  0.12743893789E+02  0.78684805019E+01  0.21705261493E+02  0.00000000000E+00 0. -1.
         11    1    1    2    0    0  0.27747951389E+02  0.46952778770E+01  0.67019010026E+02  0.72687977998E+02  0.00000000000E+00 0.  1.
</event>
<event>
 6    1  0.4096326E-006  0.8840963E+02  0.7561462E-02  0.1306749E+00
         -1   -1    0    0    0  501 -0.00000000000E+00  0.00000000000E+00  0.42071730457E+03  0.42071730457E+03  0.00000000000E+00 0.  1.
          1   -1    0    0  501    0  0.00000000000E+00 -0.00000000000E+00 -0.27281590605E+02  0.27281590605E+02  0.00000000000E+00 0. -1.
          5    1    1    2  502    0 -0.42492949280E+02  0.46877178073E+02  0.22596092828E+03  0.23468901566E+03  0.41800000000E+01 0. -1.
         -5    1    1    2    0  502  0.52291820718E+02 -0.29934628005E+02  0.13710970184E+03  0.14982342676E+03  0.41800000000E+01 0. -1.
        -11    1    1    2    0    0 -0.18661462761E+02 -0.31123804328E+02  0.11043076168E+02  0.37932715689E+02  0.00000000000E+00 0. -1.
         11    1    1    2    0    0  0.88625913233E+01  0.14181254260E+02  0.19322007683E+02  0.25553737071E+02  0.00000000000E+00 0.  1.
</event>
<event>
 7    1  0.4096326E-006  0.1039361E+03  0.7561462E-02  0.1272230E+00
          2   -1    0    0  501    0  0.00000000000E+00  0.00000000000E+00  0.31449923017E+03  0.31449923017E+03  0.00000000000E+00 0. -1.
         -2   -1    0    0    0  501 -0.00000000000E+00 -0.00000000000E+00 -0.89691716251E+02  0.89691716251E+02  0.00000000000E+00 0.  1.
         23    2    1    2    0    0 -0.49816305780E+02  0.40349562764E+02  0.25025993042E+03  0.27428544335E+03  0.92155955451E+02 0.  0.
          5    1    1    2  502    0 -0.68101122983E+01  0.18969558790E+02  0.25879109479E+02  0.33066939647E+02  0.41800000000E+01 0. -1.
         -5    1    1    2    0  502  0.56626418078E+02 -0.59319121554E+02 -0.51331525979E+02  0.96838563422E+02  0.41800000000E+01 0.  1.
        -11    1    3    3    0    0 -0.24275721611E+01  0.55399660990E+02  0.17900756111E+03  0.18739989989E+03  0.00000000000E+00 0. -1.
         11    1    3    3    0    0 -0.47388733619E+02 -0.15050098226E+02  0.71252369312E+02  0.86885543465E+02  0.00000000000E+00 0.  1.
</event>
<event>
 7    1  0.4096326E-006  0.8684846E+02  0.7561462E-02  0.1310668E+00
         -1   -1    0    0    0  501 -0.00000000000E+00  0.00000000000E+00  0.83728555444E+02  0.83728555444E+02  0.00000000000E+00 0.  1.
          1   -1    0    0  501    0  0.00000000000E+00 -0.00000000000E+00 -0.17322653469E+03  0.17322653469E+03  0.00000000000E+00 0. -1.
         23    2    1    2    0    0  0.41532097269E+02  0.15522276904E+02 -0.68260964433E+02  0.12255582819E+03  0.91621589014E+02 0.  0.
          5    1    1    2  502    0  0.38312111342E+02  0.91852687872E+01 -0.30783281283E+02  0.50172401225E+02  0.41800000000E+01 0. -1.
         -5    1    1    2    0  502 -0.79844208611E+02 -0.24707545692E+02  0.95462664739E+01  0.84226860718E+02  0.41800000000E+01 0. -1.
        -11    1    3    3    0    0  0.21161440324E+02 -0.47141494244E+01 -0.86076126169E+02  0.88764459428E+02  0.00000000000E+00 0. -1.
         11    1    3    3    0    0  0.20370656946E+02  0.20236426329E+02  0.17815161735E+02  0.33791368759E+02  0.00000000000E+00 0.  1.
</event>
<event>
 7    1  0.4096326E-006  0.1268717E+03  0.7561462E-02  0.1232173E+00
         -1   -1    0    0    0  501 -0.00000000000E+00  0.00000000000E+00  0.77552679073E+02  0.77552679073E+02  0.00000000000E+00 0.  1.
          1   -1    0    0  501    0  0.00000000000E+00 -0.00000000000E+00 -0.33246468046E+03  0.33246468046E+03  0.00000000000E+00 0. -1.
         23    2    1    2    0    0 -0.60294137212E+02  0.83007969121E+01 -0.22147695973E+03  0.24622509169E+03  0.88715646189E+02 0.  0.
          5    1    1    2  502    0  0.30000907321E+02  0.64854820538E+02 -0.43662197039E+02  0.83845465216E+02  0.41800000000E+01 0. -1.
         -5    1    1    2    0  502  0.30293229891E+02 -0.73155617450E+02  0.10227155382E+02  0.79946802618E+02  0.41800000000E+01 0.  1.
        -11    1    3    3    0    0  0.58739436234E+01 -0.27170026237E+02 -0.31835372500E+02  0.42263512415E+02  0.00000000000E+00 0.  1.
         11    1    3    3    0    0 -0.66168080835E+02  0.35470823150E+02 -0.18964158723E+03  0.20396157928E+03  0.00000000000E+00 0. -1.
</event>
<event>
 7    1  0.4096326E-006  0.1281101E+03  0.7561462E-02  0.1230287E+00
         -1   -1    0    0    0  501 -0.00000000000E+00  0.00000000000E+00  0.23216853847E+03  0.23216853847E+03  0.00000000000E+00 0.  1.
          1   -1    0    0  501    0  0.00000000000E+00 -0.00000000000E+00 -0.87397888467E+02  0.87397888467E+02  0.00000000000E+00 0. -1.
         23    2    1    2    0    0  0.91990311578E+02 -0.22636461099E+00  0.76860158089E+02  0.15008622168E+03  0.90311247199E+02 0.  0.
          5    1    1    2  502    0 -0.74737700459E+02 -0.55836787129E+02  0.57757254007E+02  0.10980365867E+03  0.41800000000E+01 0.  1.
         -5    1    1    2    0  502 -0.17252611118E+02  0.56063151740E+02  0.10153237910E+02  0.59676546595E+02  0.41800000000E+01 0.  1.
        -11    1    3    3    0    0  0.48522568100E+02 -0.24376660786E+02  0.83823344098E+02  0.99874992975E+02  0.00000000000E+00 0.  1.
         11    1    3    3    0    0  0.43467743478E+02  0.24150296175E+02 -0.69631860084E+01  0.50211228702E+02  0.00000000000E+00 0. -1.
</event>
<event>
 7    1  0.4096326E-006  0.1133254E+03  0.7561462E-02  0.1254533E+00
         -3   -1    0    0    0  501 -0.00000000000E+00  0.00000000000E+00  0.90352054688E+02  0.90352054688E+02  0.00000000000E+00 0.  1.
          3   -1    0    0  501    0  0.00000000000E+00 -0.00000000000E+00 -0.22654541038E+03  0.22654541038E+03  0.00000000000E+00 0. -1.
         23    2    1    2    0    0  0.89949081102E+02  0.16795352533E+02 -0.75898195293E+02  0.15059618817E+03  0.92443251692E+02 0.  0.
          5    1    1    2  502    0 -0.43224857742E+02 -0.23422914964E+02  0.34582124936E+02  0.60252942147E+02  0.41800000000E+01 0. -1.
         -5    1    1    2    0  502 -0.46724223359E+02  0.66275624316E+01 -0.94877285338E+02  0.10604833476E+03  0.41800000000E+01 0. -1.
        -11    1    3    3    0    0  0.48902603529E+02 -0.37672870732E+02 -0.32596879778E+02  0.69808784493E+02  0.00000000000E+00 0.  1.
         11    1    3    3    0    0  0.41046477573E+02  0.54468223265E+02 -0.43301315515E+02  0.80787403672E+02  0.00000000000E+00 0. -1.
</event>
<event>
 7    1  0.4096326E-006  0.7589110E+02  0.7561462E-02  0.1341134E+00
         -2   -1    0    0    0  501 -0.00000000000E+00  0.00000000000E+00  0.10647018658E+03  0.10647018658E+03  0.00000000000E+00 0.  1.
          2   -1    0    0  501    0  0.00000000000E+00 -0.00000000000E+00 -0.15149753482E+03  0.15149753482E+03  0.00000000000E+00 0. -1.
         23    2    1    2    0    0 -0.54680856984E+01  0.52195062059E+02 -0.29781706438E+02  0.12146252134E+03  0.10541332737E+03 0.  0.
          5    1    1    2  502    0  0.14068351661E+02 -0.61234850355E+01 -0.65651656905E+02  0.67550189058E+02  0.41800000000E+01 0. -1.
         -5    1    1    2    0  502 -0.86002659624E+01 -0.46071577023E+02  0.50406015097E+02  0.68955011000E+02  0.41800000000E+01 0. -1.
        -11    1    3    3    0    0 -0.78901256671E+01  0.70208653682E+02  0.15795534166E+02  0.72394806682E+02  0.00000000000E+00 0.  1.
         11    1    3    3    0    0  0.24220399687E+01 -0.18013591623E+02 -0.45577240603E+02  0.49067714658E+02  0.00000000000E+00 0. -1.
</event>
<event>
 7    1  0.4096326E-006  0.8111565E+02  0.7561462E-02  0.1325915E+00
          1   -1    0    0  501    0  0.00000000000E+00  0.00000000000E+00  0.37732348177E+03  0.37732348177E+03  0.00000000000E+00 0. -1.
         -1   -1    0    0    0  501 -0.00000000000E+00 -0.00000000000E+00 -0.40330112740E+02  0.40330112740E+02  0.00000000000E+00 0.  1.
         23    2    1    2    0    0 -0.45726168134E+01 -0.42208528730E+02  0.21835982175E+03  0.24010279003E+03  0.90365199624E+02 0.  0.
          5    1    1    2  502    0 -0.28314890970E+02  0.19804535663E+02 -0.15114649040E+02  0.37945720432E+02  0.41800000000E+01 0. -1.
         -5    1    1    2    0  502  0.32887507784E+02  0.22403993067E+02  0.13374819632E+03  0.13960508405E+03  0.41800000000E+01 0. -1.
        -11    1    3    3    0    0 -0.39289891023E+02 -0.11176738265E+02  0.45795906413E+02  0.61366766731E+02  0.00000000000E+00 0.  1.
         11    1    3    3    0    0  0.34717274210E+02 -0.31031790466E+02  0.17256391534E+03  0.17873602330E+03  0.00000000000E+00 0. -1.
</event>
<event>
 7    1  0.4096326E-006  0.1005502E+03  0.7561462E-02  0.1279143E+00
          2   -1    0    0  501    0  0.00000000000E+00  0.00000000000E+00  0.14602324613E+03  0.14602324613E+03  0.00000000000E+00 0. -1.
         -2   -1    0    0    0  501 -0.00000000000E+00 -0.00000000000E+00 -0.91385186122E+02  0.91385186122E+02  0.00000000000E+00 0.  1.
         23    2    1    2    0    0  0.23570431579E+02  0.93503573684E+01  0.75616869841E+02  0.11941565006E+03  0.88877398962E+02 0.  0.
          5    1    1    2  502    0 -0.64832822680E+02  0.10917909988E+02 -0.27472161249E+02  0.71377081047E+02  0.41800000000E+01 0. -1.
         -5    1    1    2    0  502  0.41262391100E+02 -0.20268267356E+02  0.64933514172E+01  0.46615701148E+02  0.41800000000E+01 0.  1.
        -11    1    3    3    0    0  0.12880197834E+02 -0.38205441869E+02  0.50381649547E+02  0.64528024112E+02  0.00000000000E+00 0.  1.
         11    1    3    3    0    0  0.10690233745E+02  0.47555799238E+02  0.25235220294E+02  0.54887625945E+02  0.00000000000E+00 0. -1.
</event>
<event>
 7    1  0.4096326E-006  0.1416013E+03  0.7561462E-02  0.1211190E+00
          1   -1    0    0  501    0  0.00000000000E+00  0.00000000000E+00  0.13056752599E+03  0.13056752599E+03  0.00000000000E+00 0. -1.
         -1   -1    0    0    0  501 -0.00000000000E+00 -0.00000000000E+00 -0.28440879362E+03  0.28440879362E+03  0.00000000000E+00 0.  1.
         23    2    1    2    0    0 -0.13679011418E+03  0.35488054390E+02  0.83160091197E+01  0.16615180070E+03  0.86984639601E+02 0.  0.
          5    1    1    2  502    0  0.19203829966E+02 -0.36202217546E+01  0.20885257758E+02  0.28906045779E+02  0.41800000000E+01 0.  1.
         -5    1    1    2    0  502  0.11758628421E+03 -0.31867832635E+02 -0.18304253450E+03  0.21991847314E+03  0.41800000000E+01 0.  1.
        -11    1    3    3    0    0 -0.11516568664E+03  0.29924253196E+02 -0.29175790241E+02  0.12251458299E+03  0.00000000000E+00 0.  1.
         11    1    3    3    0    0 -0.21624427535E+02  0.55638011938E+01  0.37491799361E+02  0.43637217708E+02  0.00000000000E+00 0. -1.
</event>
<event>
 7    1  0.4096326E-006  0.1451369E+03  0.7561462E-02  0.1206579E+00
          1   -1    0    0  501    0  0.00000000000E+00  0.00000000000E+00  0.82853432518E+03  0.82853432518E+03  0.00000000000E+00 0. -1.
         -1   -1    0    0    0  501 -0.00000000000E+00 -0.00000000000E+00 -0.32759940533E+02  0.32759940533E+02  0.00000000000E+00 0.  1.
         23    2    1    2    0    0 -0.10137882522E+03  0.33378549512E+02  0.52547525799E+03  0.54491028251E+03  0.97011213054E+02 0.  0.
          5    1    1    2  502    0  0.92971416478E+02  0.31826707671E+02  0.15425983439E+03  0.18294860620E+03  0.41800000000E+01 0. -1.
         -5    1    1    2    0  502  0.84074087443E+01 -0.65205257184E+02  0.11603929227E+03  0.13343537700E+03  0.41800000000E+01 0. -1.
        -11    1    3    3    0    0 -0.21881248016E+02 -0.20515987239E+02  0.39841386123E+02  0.49870139315E+02  0.00000000000E+00 0.  1.
         11    1    3    3    0    0 -0.79497577207E+02  0.53894536751E+02  0.48563387187E+03  0.49504014320E+03  0.00000000000E+00 0. -1.
</event>
<event>
 7    1  0.4096326E-006  0.1094322E+03  0.7561462E-02  0.1261625E+00
          1   -1    0    0  501    0  0.00000000000E+00  0.00000000000E+00  0.30505221332E+03  0.30505221332E+03  0.00000000000E+00 0. -1.
         -1   -1    0    0    0  501 -0.00000000000E+00 -0.00000000000E+00 -0.39672207016E+02  0.39672207016E+02  0.00000000000E+00 0.  1.
         23    2    1    2    0    0 -0.19241934174E+02 -0.12351664079E+02  0.11407646133E+03  0.14707942775E+03  0.89978349624E+02 0.  0.
          5    1    1    2  502    0 -0.44558575504E+02 -0.26705306893E+02  0.57783238553E+02  0.77813977696E+02  0.41800000000E+01 0. -1.
         -5    1    1    2    0  502  0.63800509678E+02  0.39056970971E+02  0.93520306418E+02  0.11983101489E+03  0.41800000000E+01 0. -1.
        -11    1    3    3    0    0  0.31113821185E+02 -0.24990744886E+02  0.60482549108E+02  0.72462031059E+02  0.00000000000E+00 0.  1.
         11    1    3    3    0    0 -0.50355755359E+02  0.12639080807E+02  0.53593912227E+02  0.74617396693E+02  0.00000000000E+00 0. -1.
</event>
<event>
 7    1  0.4096326E-006  0.8447114E+02  0.7561462E-02  0.1316821E+00
          1   -1    0    0  501    0  0.00000000000E+00  0.00000000000E+00  0.36287146555E+03  0.36287146555E+03  0.00000000000E+00 0. -1.
         -1   -1    0    0    0  501 -0.00000000000E+00 -0.00000000000E+00 -0.32459383967E+02  0.32459383967E+02  0.00000000000E+00 0.  1.
         23    2    1    2    0    0  0.13575117893E+01  0.12085407400E+02  0.15433312149E+03  0.17900011617E+03  0.89857828203E+02 0.  0.
          5    1    1    2  502    0 -0.23556210453E+02  0.25160996508E+02 -0.22990780402E+00  0.34720254229E+02  0.41800000000E+01 0. -1.
         -5    1    1    2    0  502  0.22198698663E+02 -0.37246403908E+02  0.17630886790E+03  0.18161047912E+03  0.41800000000E+01 0. -1.
        -11    1    3    3    0    0  0.37706472005E+02  0.31786800835E+02  0.82320599561E+02  0.95962804516E+02  0.00000000000E+00 0. -1.
         11    1    3    3    0    0 -0.36348960216E+02 -0.19701393435E+02  0.72012521932E+02  0.83037311656E+02  0.00000000000E+00 0.  1.
</event>
<event>
 7    1  0.4096326E-006  0.1013252E+03  0.7561462E-02  0.1277534E+00
          3   -1    0    0  501    0  0.00000000000E+00  0.00000000000E+00  0.42202403650E+02  0.42202403650E+02  0.00000000000E+00 0. -1.
         -3   -1    0    0    0  501 -0.00000000000E+00 -0.00000000000E+00 -0.43127689392E+03  0.43127689392E+03  0.00000000000E+00 0.  1.
         23    2    1    2    0    0  0.53404894579E+02 -0.96862867443E+01 -0.74952858119E+02  0.13102957320E+03  0.92762660571E+02 0.  0.
          5    1    1    2  502    0 -0.78277833619E+02 -0.27061662541E+02 -0.25668119340E+03  0.26974517653E+03  0.41800000000E+01 0.  1.
         -5    1    1    2    0  502  0.24872939040E+02  0.36747949286E+02 -0.57440438750E+02  0.72704547842E+02  0.41800000000E+01 0.  1.
        -11    1    3    3    0    0  0.31561801805E+02  0.20688007956E+02 -0.84391138959E+02  0.92444606880E+02  0.00000000000E+00 0.  1.
         11    1    3    3    0    0  0.21843092774E+02 -0.30374294701E+02  0.94382808404E+01  0.38584966318E+02  0.00000000000E+00 0. -1.
</event>
<event>
 7    1  0.4096326E-006  0.9162642E+02  0.7561462E-02  0.1298960E+00
          1   -1    0    0  501    0  0.00000000000E+00  0.00000000000E+00  0.59340452249E+03  0.59340452249E+03  0.00000000000E+00 0. -1.
         -1   -1    0    0    0  501 -0.00000000000E+00 -0.00000000000E+00 -0.20302814664E+02  0.20302814664E+02  0.00000000000E+00 0.  1.
         23    2    1    2    0    0 -0.40631600279E+02  0.16297800978E+02  0.25664123516E+03  0.27423359089E+03  0.86155635486E+02 0.  0.
          5    1    1    2  502    0  0.61433443443E+02  0.37652334189E+01  0.29932513780E+03  0.30561618981E+03  0.41800000000E+01 0. -1.
         -5    1    1    2    0  502 -0.20801843164E+02 -0.20063034397E+02  0.17135334859E+02  0.33857556453E+02  0.41800000000E+01 0.  1.
        -11    1    3    3    0    0 -0.58350520387E+02 -0.11425960721E+02  0.20081794034E+03  0.20943538615E+03  0.00000000000E+00 0.  1.
         11    1    3    3    0    0  0.17718920108E+02  0.27723761699E+02  0.55823294825E+02  0.64798204741E+02  0.00000000000E+00 0. -1.
</event>
<event>
 7    1  0.4096326E-006  0.8190181E+02  0.7561462E-02  0.1323739E+00
         -2   -1    0    0    0  501 -0.00000000000E+00  0.00000000000E+00  0.71738214075E+02  0.71738214075E+02  0.00000000000E+00 0.  1.
          2   -1    0    0  501    0  0.00000000000E+00 -0.00000000000E+00 -0.20808881802E+03  0.20808881802E+03  0.00000000000E+00 0. -1.
         23    2    1    2    0    0  0.36395833916E+02  0.42092299426E+02 -0.72439241739E+02  0.12873682214E+03  0.90715529181E+02 0.  0.
          5    1    1    2  502    0 -0.17337213827E+02 -0.10875905625E+02  0.37653604128E+02  0.43059616931E+02  0.41800000000E+01 0. -1.
         -5    1    1    2    0  502 -0.19058620090E+02 -0.31216393801E+02 -0.10156496634E+03  0.10803059302E+03  0.41800000000E+01 0. -1.
        -11    1    3    3    0    0  0.61606622781E+02  0.57535985677E+01 -0.47126637679E+02  0.77777887898E+02  0.00000000000E+00 0. -1.
         11    1    3    3    0    0 -0.25210788864E+02  0.36338700858E+02 -0.25312604059E+02  0.50958934246E+02  0.00000000000E+00 0.  1.
</event>
<event>
 7    1  0.4096326E-006  0.1124629E+03  0.7561462E-02  0.1256076E+00
          1   -1    0    0  501    0  0.00000000000E+00  0.00000000000E+00  0.56686561280E+03  0.56686561280E+03  0.00000000000E+00 0. -1.
         -1   -1    0    0    0  501 -0.00000000000E+00 -0.00000000000E+00 -0.43235193733E+02  0.43235193733E+02  0.00000000000E+00 0.  1.
         23    2    1    2    0    0 -0.44556422231E+02  0.33040700792E+02  0.43246356781E+03  0.44567386218E+03  0.92322756018E+02 0.  0.
          5    1    1    2  502    0 -0.30828958239E+01  0.35697008916E+02 -0.55499372238E+01  0.36497327237E+02  0.41800000000E+01 0. -1.
         -5    1    1    2    0  502  0.47639318055E+02 -0.68737709709E+02  0.96716788480E+02  0.12792961711E+03  0.41800000000E+01 0. -1.
        -11    1    3    3    0    0 -0.28414986451E+02  0.64098393392E+02  0.23911530093E+03  0.24918295012E+03  0.00000000000E+00 0.  1.
         11    1    3    3    0    0 -0.16141435780E+02 -0.31057692599E+02  0.19334826688E+03  0.19649091206E+03  0.00000000000E+00 0. -1.
</event>
<event>
 7    1  0.4096326E-006  0.8813298E+02  0.7561462E-02  0.1307437E+00
         -2   -1    0    0    0  501 -0.00000000000E+00  0.00000000000E+00  0.15088888580E+03  0.15088888580E+03  0.00000000000E+00 0. -1.
          2   -1    0    0  501    0  0.00000000000E+00 -0.00000000000E+00 -0.12827587331E+03  0.12827587331E+03  0.00000000000E+00 0.  1.
         23    2    1    2    0    0  0.70297537475E+02  0.23321592748E+01 -0.41101548782E+02  0.12211551166E+03  0.90970754274E+02 0.  0.
          5    1    1    2  502    0 -0.35086783921E+02  0.78728877712E+00 -0.36435698506E+02  0.50761547998E+02  0.41800000000E+01 0. -1.
         -5    1    1    2    0  502 -0.35210753554E+02 -0.31194480519E+01  0.10015025978E+03  0.10628769945E+03  0.41800000000E+01 0. -1.
        -11    1    3    3    0    0  0.84236706344E+02  0.16070412130E+02 -0.11349979892E+02  0.86503773821E+02  0.00000000000E+00 0. -1.
         11    1    3    3    0    0 -0.13939168869E+02 -0.13738252855E+02 -0.29751568890E+02  0.35611737836E+02  0.00000000000E+00 0.  1.
</event>
<event>
 7    1  0.4096326E-006  0.2108841E+03  0.7561462E-02  0.1140868E+00
         -1   -1    0    0    0  501 -0.00000000000E+00  0.00000000000E+00  0.10446916140E+03  0.10446916140E+03  0.00000000000E+00 0.  1.
          1   -1    0    0  501    0  0.00000000000E+00 -0.00000000000E+00 -0.55173531061E+03  0.55173531061E+03  0.00000000000E+00 0. -1.
         23    2    1    2    0    0  0.20097721496E+03  0.44724513638E+02 -0.28542262909E+03  0.36597690510E+03  0.10040365939E+03 0.  0.
          5    1    1    2  502    0 -0.86336117571E+02 -0.39518927299E+02 -0.41254322852E+01  0.95132341523E+02  0.41800000000E+01 0. -1.
         -5    1    1    2    0  502 -0.11464109739E+03 -0.52055863389E+01 -0.15771808783E+03  0.19509522539E+03  0.41800000000E+01 0. -1.
        -11    1    3    3    0    0  0.19519170186E+03  0.31847233652E+02 -0.29010330387E+03  0.35110393572E+03  0.00000000000E+00 0.  1.
         11    1    3    3    0    0  0.57855130978E+01  0.12877279986E+02  0.46806747791E+01  0.14872969375E+02  0.00000000000E+00 0. -1.
</event>
<event>
 7    1  0.4096326E-006  0.9500090E+02  0.7561462E-02  0.1291174E+00
         -2   -1    0    0    0  501 -0.00000000000E+00  0.00000000000E+00  0.15906955367E+03  0.15906955367E+03  0.00000000000E+00 0.  1.
          2   -1    0    0  501    0  0.00000000000E+00 -0.00000000000E+00 -0.10883607433E+03  0.10883607433E+03  0.00000000000E+00 0. -1.
         23    2    1    2    0    0  0.51779230865E+02  0.79348818293E+01 -0.32294017296E+02  0.10915389249E+03  0.90153300518E+02 0.  0.
          5    1    1    2  502    0 -0.55700649822E+01 -0.33044771173E+02  0.98095714668E+02  0.10374595974E+03  0.41800000000E+01 0. -1.
         -5    1    1    2    0  502 -0.46209165883E+02  0.25109889343E+02 -0.15568218032E+02  0.55005775762E+02  0.41800000000E+01 0. -1.
        -11    1    3    3    0    0  0.76478620579E+02  0.14670884690E+02 -0.29992650153E+02  0.83449226038E+02  0.00000000000E+00 0.  1.
         11    1    3    3    0    0 -0.24699389713E+02 -0.67360028606E+01 -0.23013671431E+01  0.25704666453E+02  0.00000000000E+00 0. -1.
</event>
<event>
 7    1  0.4096326E-006  0.1059479E+03  0.7561462E-02  0.1268263E+00
          1   -1    0    0  501    0  0.00000000000E+00  0.00000000000E+00  0.44345613664E+03  0.44345613664E+03  0.00000000000E+00 0. -1.
         -1   -1    0    0    0  501 -0.00000000000E+00 -0.00000000000E+00 -0.32611290225E+02  0.32611290225E+02  0.00000000000E+00 0.  1.
         23    2    1    2    0    0  0.33071636980E+02 -0.26894830889E+02  0.23935966125E+03  0.25956618567E+03  0.90909252578E+02 0.  0.
          5    1    1    2  502    0 -0.53693702911E+02 -0.35649485500E+02  0.10154444568E+03  0.12034386730E+03  0.41800000000E+01 0.  1.
         -5    1    1    2    0  502  0.20622065932E+02  0.62544316389E+02  0.69940739486E+02  0.96157373902E+02  0.41800000000E+01 0.  1.
        -11    1    3    3    0    0  0.10895388869E+02  0.23697090737E+02  0.18688089924E+02  0.32085920791E+02  0.00000000000E+00 0.  1.
         11    1    3    3    0    0  0.22176248111E+02 -0.50591921626E+02  0.22067157133E+03  0.22748026487E+03  0.00000000000E+00 0. -1.
</event>
<event>
 7    1  0.4096326E-006  0.1073585E+03  0.7561462E-02  0.1265541E+00
          1   -1    0    0  501    0  0.00000000000E+00  0.00000000000E+00  0.31074439631E+03  0.31074439631E+03  0.00000000000E+00 0. -1.
         -1   -1    0    0    0  501 -0.00000000000E+00 -0.00000000000E+00 -0.48062151678E+02  0.48062151678E+02  0.00000000000E+00 0.  1.
         23    2    1    2    0    0  0.52281252330E+02  0.31858994431E+01  0.82676446929E+02  0.13343401032E+03  0.90695980800E+02 0.  0.
          5    1    1    2  502    0  0.34835615130E+02 -0.21584370748E+01  0.10365446240E+03  0.10945272453E+03  0.41800000000E+01 0.  1.
         -5    1    1    2    0  502 -0.87116867460E+02 -0.10274623683E+01  0.76351335306E+02  0.11591981314E+03  0.41800000000E+01 0.  1.
        -11    1    3    3    0    0 -0.18312119138E+02  0.10928502623E+02 -0.36657408887E+01  0.21638011304E+02  0.00000000000E+00 0.  1.
         11    1    3    3    0    0  0.70593371468E+02 -0.77426031801E+01  0.86342187818E+02  0.11179599902E+03  0.00000000000E+00 0. -1.
</event>
<event>
 7    1  0.4096326E-006  0.1037275E+03  0.7561462E-02  0.1272647E+00
         -2   -1    0    0    0  501 -0.00000000000E+00  0.00000000000E+00  0.26843736088E+03  0.26843736088E+03  0.00000000000E+00 0.  1.
          2   -1    0    0  501    0  0.00000000000E+00 -0.00000000000E+00 -0.84192873865E+02  0.84192873865E+02  0.00000000000E+00 0. -1.
         23    2    1    2    0    0 -0.51248966774E+02 -0.59529815648E+02  0.69565787621E+01  0.12187300199E+03  0.92921359653E+02 0.  0.
          5    1    1    2  502    0 -0.23757836915E+02  0.42398662013E+02  0.14882378769E+02  0.51000381893E+02  0.41800000000E+01 0. -1.
         -5    1    1    2    0  502  0.75006803688E+02  0.17131153635E+02  0.16240552948E+03  0.17975685086E+03  0.41800000000E+01 0. -1.
        -11    1    3    3    0    0 -0.24918286483E+02 -0.12868923299E+02 -0.41196442896E+02  0.49836503644E+02  0.00000000000E+00 0. -1.
         11    1    3    3    0    0 -0.26330680290E+02 -0.46660892349E+02  0.48153021658E+02  0.72036498348E+02  0.00000000000E+00 0.  1.
</event>
<event>
 7    1  0.4096326E-006  0.8797091E+02  0.7561462E-02  0.1307841E+00
          4   -1    0    0  501    0  0.00000000000E+00  0.00000000000E+00  0.15791805931E+03  0.15791805931E+03  0.00000000000E+00 0. -1.
         -4   -1    0    0    0  501 -0.00000000000E+00 -0.00000000000E+00 -0.96577505319E+02  0.96577505319E+02  0.00000000000E+00 0.  1.
         23    2    1    2    0    0 -0.22562413064E+02  0.23945225599E+02  0.77180906771E+02  0.12417953456E+03  0.91549047626E+02 0.  0.
          5    1    1    2  502    0 -0.18411064765E+02  0.13754979989E+02  0.43165155531E+02  0.49080238715E+02  0.41800000000E+01 0.  1.
         -5    1    1    2    0  502  0.40973477829E+02 -0.37700205587E+02 -0.59005508309E+02  0.81235791358E+02  0.41800000000E+01 0.  1.
        -11    1    3    3    0    0 -0.45085834880E+01  0.58014914285E+02  0.39972699129E+02  0.70596559974E+02  0.00000000000E+00 0.  1.
         11    1    3    3    0    0 -0.18053829576E+02 -0.34069688686E+02  0.37208207642E+02  0.53582974586E+02  0.00000000000E+00 0. -1.
</event>
<event>
 7    1  0.4096326E-006  0.1080260E+03  0.7561462E-02  0.1264270E+00
         -4   -1    0    0    0  501 -0.00000000000E+00  0.00000000000E+00  0.17160177533E+03  0.17160177533E+03  0.00000000000E+00 0.  1.
          4   -1    0    0  501    0  0.00000000000E+00 -0.00000000000E+00 -0.10909390825E+03  0.10909390825E+03  0.00000000000E+00 0. -1.
         23    2    1    2    0    0  0.57811830689E+02  0.18261304701E+02  0.16250096425E+02  0.13419246839E+03  0.11860805167E+03 0.  0.
          5    1    1    2  502    0  0.39019022500E+02 -0.39419498594E+01  0.23540136870E+02  0.45930747103E+02  0.41800000000E+01 0.  1.
         -5    1    1    2    0  502 -0.96830853190E+02 -0.14319354841E+02  0.22717633786E+02  0.10057246809E+03  0.41800000000E+01 0.  1.
        -11    1    3    3    0    0  0.25669775813E+02 -0.17106875555E+02 -0.46201141409E+02  0.55552930157E+02  0.00000000000E+00 0. -1.
         11    1    3    3    0    0  0.32142054877E+02  0.35368180256E+02  0.62451237834E+02  0.78639538231E+02  0.00000000000E+00 0.  1.
</event>
<event>
 7    1  0.4096326E-006  0.1705784E+03  0.7561462E-02  0.1177246E+00
          2   -1    0    0  501    0  0.00000000000E+00  0.00000000000E+00  0.71697032359E+03  0.71697032359E+03  0.00000000000E+00 0. -1.
         -2   -1    0    0    0  501 -0.00000000000E+00 -0.00000000000E+00 -0.52430144195E+02  0.52430144195E+02  0.00000000000E+00 0.  1.
         23    2    1    2    0    0 -0.80541912293E+01 -0.15600309080E+03  0.24075939893E+03  0.30074391059E+03  0.89888693643E+02 0.  0.
          5    1    1    2  502    0  0.38252773504E+02  0.68278807336E+02  0.31969339850E+03  0.32916046490E+03  0.41800000000E+01 0. -1.
         -5    1    1    2    0  502 -0.30198582275E+02  0.87724283467E+02  0.10408738197E+03  0.13949609230E+03  0.41800000000E+01 0. -1.
        -11    1    3    3    0    0 -0.23748738650E+02 -0.15182237571E+03  0.23935988165E+03  0.28444189090E+03  0.00000000000E+00 0. -1.
         11    1    3    3    0    0  0.15694547421E+02 -0.41807150897E+01  0.13995172865E+01  0.16302019692E+02  0.00000000000E+00 0.  1.
</event>
<event>
 7    1  0.4096326E-006  0.1360309E+03  0.7561462E-02  0.1218772E+00
          2   -1    0    0  501    0  0.00000000000E+00  0.00000000000E+00  0.58088366475E+03  0.58088366475E+03  0.00000000000E+00 0. -1.
         -2   -1    0    0    0  501 -0.00000000000E+00 -0.00000000000E+00 -0.33801630908E+02  0.33801630908E+02  0.00000000000E+00 0.  1.
         23    2    1    2    0    0 -0.42708581971E+02  0.76510272775E+02  0.28119915963E+03  0.30805947350E+03  0.90276392386E+02 0.  0.
          5    1    1    2  502    0 -0.40024914312E+02 -0.16920158110E+01  0.85240987062E+02  0.94278072522E+02  0.41800000000E+01 0. -1.
         -5    1    1    2    0  502  0.82733496283E+02 -0.74818256964E+02  0.18064188715E+03  0.21234774963E+03  0.41800000000E+01 0. -1.
        -11    1    3    3    0    0 -0.35048648827E+02  0.94400972831E+02  0.19246134782E+03  0.21721261901E+03  0.00000000000E+00 0.  1.
         11    1    3    3    0    0 -0.76599331445E+01 -0.17890700056E+02  0.88737811818E+02  0.90846854489E+02  0.00000000000E+00 0. -1.
</event>
<event>
 7    1  0.4096326E-006  0.1089235E+03  0.7561462E-02  0.1262577E+00
          2   -1    0    0  501    0  0.00000000000E+00  0.00000000000E+00  0.17987572145E+03  0.17987572145E+03  0.00000000000E+00 0. -1.
         -2   -1    0    0    0  501 -0.00000000000E+00 -0.00000000000E+00 -0.11054771804E+03  0.11054771804E+03  0.00000000000E+00 0.  1.
         23    2    1    2    0    0  0.63717882605E+02 -0.34552349585E+02  0.87596222873E+02  0.14469988892E+03  0.89504894643E+02 0.  0.
          5    1    1    2  502    0 -0.24873791350E+02  0.78884267312E+02 -0.24342711895E+02  0.86321915803E+02  0.41800000000E+01 0.  1.
         -5    1    1    2    0  502 -0.38844091255E+02 -0.44331917726E+02  0.60744924372E+01  0.59401634768E+02  0.41800000000E+01 0.  1.
        -11    1    3    3    0    0  0.27588135577E+02 -0.26070739716E+01 -0.14872089776E+02  0.31449659992E+02  0.00000000000E+00 0.  1.
         11    1    3    3    0    0  0.36129747028E+02 -0.31945275614E+02  0.10246831265E+03  0.11325022892E+03  0.00000000000E+00 0. -1.
</event>
<event>
 7    1  0.4096326E-006  0.1595093E+03  0.7561462E-02  0.1189252E+00
         -2   -1    0    0    0  501 -0.00000000000E+00  0.00000000000E+00  0.82053195973E+02  0.82053195973E+02  0.00000000000E+00 0.  1.
          2   -1    0    0  501    0  0.00000000000E+00 -0.00000000000E+00 -0.47798723313E+03  0.47798723313E+03  0.00000000000E+00 0. -1.
         23    2    1    2    0    0 -0.12625252234E+03 -0.33056362696E+02 -0.30879299167E+03  0.34742647915E+03  0.91211973958E+02 0.  0.
          5    1    1    2  502    0 -0.38125760141E+01  0.29894256336E+02 -0.76122834867E+02  0.81977806057E+02  0.41800000000E+01 0. -1.
         -5    1    1    2    0  502  0.13006509836E+03  0.31621063602E+01 -0.11018210616E+02  0.13063614390E+03  0.41800000000E+01 0.  1.
        -11    1    3    3    0    0 -0.12569493196E+03 -0.33352579483E+00 -0.25821481499E+03  0.28718324784E+03  0.00000000000E+00 0. -1.
         11    1    3    3    0    0 -0.55759038826E+00 -0.32722836901E+02 -0.50578176678E+02  0.60243231304E+02  0.00000000000E+00 0.  1.
</event>
<event>
 7    1  0.4096326E-006  0.8293458E+02  0.7561462E-02  0.1320924E+00
          1   -1    0    0  501    0  0.00000000000E+00  0.00000000000E+00  0.14884133530E+02  0.14884133530E+02  0.00000000000E+00 0. -1.
         -1   -1    0    0    0  501 -0.00000000000E+00 -0.00000000000E+00 -0.11443073688E+04  0.11443073688E+04  0.00000000000E+00 0.  1.
         23    2    1    2    0    0  0.37874792022E+02  0.25049990088E+02 -0.23131773989E+03  0.25128009760E+03  0.87016026033E+02 0.  0.
          5    1    1    2  502    0  0.47759987869E+01 -0.27863769693E+02 -0.42415847404E+02  0.51144660884E+02  0.41800000000E+01 0. -1.
         -5    1    1    2    0  502 -0.42650790809E+02  0.28137796045E+01 -0.85568964799E+03  0.85676674386E+03  0.41800000000E+01 0. -1.
        -11    1    3    3    0    0  0.70379460237E+01  0.52554383917E+02 -0.94506280890E+02  0.10836481477E+03  0.00000000000E+00 0. -1.
         11    1    3    3    0    0  0.30836845998E+02 -0.27504393829E+02 -0.13681145900E+03  0.14291528283E+03  0.00000000000E+00 0.  1.
</event>
<event>
 7    1  0.4096326E-006  0.9345039E+02  0.7561462E-02  0.1294705E+00
         -2   -1    0    0    0  501 -0.00000000000E+00  0.00000000000E+00  0.12120341680E+03  0.12120341680E+03  0.00000000000E+00 0.  1.
          2   -1    0    0  501    0  0.00000000000E+00 -0.00000000000E+00 -0.18842816364E+03  0.18842816364E+03  0.00000000000E+00 0. -1.
         23    2    1    2    0    0  0.53451430745E+02 -0.41236653533E+02 -0.11286301137E+03  0.16034725370E+03  0.91736935801E+02 0.  0.
          5    1    1    2  502    0 -0.71709833715E+02 -0.20458077148E+01  0.66320231647E+02  0.97787172504E+02  0.41800000000E+01 0. -1.
         -5    1    1    2    0  502  0.18258402970E+02  0.43282461248E+02 -0.20681967110E+02  0.51497154234E+02  0.41800000000E+01 0. -1.
        -11    1    3    3    0    0  0.33336301509E+02 -0.29944766879E+02 -0.12604861405E+03  0.13377687082E+03  0.00000000000E+00 0. -1.
         11    1    3    3    0    0  0.20115129235E+02 -0.11291886654E+02  0.13185602681E+02  0.26570382881E+02  0.00000000000E+00 0.  1.
</event>
<event>
 7    1  0.4096326E-006  0.1156962E+03  0.7561462E-02  0.1250371E+00
         -1   -1    0    0    0  501 -0.00000000000E+00  0.00000000000E+00  0.19069879470E+03  0.19069879470E+03  0.00000000000E+00 0.  1.
          1   -1    0    0  501    0  0.00000000000E+00 -0.00000000000E+00 -0.93285197181E+02  0.93285197181E+02  0.00000000000E+00 0. -1.
         23    2    1    2    0    0  0.63474845326E+02 -0.38405350936E+01 -0.43571019326E+01  0.11064363157E+03  0.90439057776E+02 0.  0.
          5    1    1    2  502    0  0.18113702246E+02 -0.41311944037E+02  0.21127542104E+02  0.49986281764E+02  0.41800000000E+01 0.  1.
         -5    1    1    2    0  502 -0.81588547572E+02  0.45152479131E+02  0.80643157349E+02  0.12335407855E+03  0.41800000000E+01 0.  1.
        -11    1    3    3    0    0  0.75297171665E+02 -0.14672496083E+02  0.21988289964E+02  0.79802450449E+02  0.00000000000E+00 0.  1.
         11    1    3    3    0    0 -0.11822326339E+02  0.10831960990E+02 -0.26345391897E+02  0.30841181124E+02  0.00000000000E+00 0. -1.
</event>
<event>
 7    1  0.4096326E-006  0.1268493E+03  0.7561462E-02  0.1232207E+00
          1   -1    0    0  501    0  0.00000000000E+00  0.00000000000E+00  0.21613549228E+03  0.21613549228E+03  0.00000000000E+00 0.  1.
         -1   -1    0    0    0  501 -0.00000000000E+00 -0.00000000000E+00 -0.84016347757E+02  0.84016347757E+02  0.00000000000E+00 0. -1.
         23    2    1    2    0    0  0.46784083032E+02 -0.59544272563E+02  0.84081676311E+02  0.14623909466E+03  0.92638402919E+02 0.  0.
          5    1    1    2  502    0  0.36492643847E+02  0.42969172222E+02  0.54161329023E+00  0.56531659814E+02  0.41800000000E+01 0.  1.
         -5    1    1    2    0  502 -0.83276726879E+02  0.16575100341E+02  0.47495854923E+02  0.97381085565E+02  0.41800000000E+01 0.  1.
        -11    1    3    3    0    0  0.54630886429E+02 -0.76191147380E+02  0.86642863774E+02  0.12765817848E+03  0.00000000000E+00 0.  1.
         11    1    3    3    0    0 -0.78468033967E+01  0.16646874816E+02 -0.25611874623E+01  0.18580916175E+02  0.00000000000E+00 0. -1.
</event>
<event>
 7    1  0.4096326E-006  0.1006780E+03  0.7561462E-02  0.1278877E+00
         -1   -1    0    0    0  501 -0.00000000000E+00  0.00000000000E+00  0.32903653300E+02  0.32903653300E+02  0.00000000000E+00 0.  1.
          1   -1    0    0  501    0  0.00000000000E+00 -0.00000000000E+00 -0.39591977547E+03  0.39591977547E+03  0.00000000000E+00 0. -1.
         23    2    1    2    0    0 -0.11406800196E+02 -0.17277946724E+02 -0.21173911597E+03  0.23143661549E+03  0.91108787850E+02 0.  0.
          5    1    1    2  502    0 -0.16290559849E+01 -0.45939859474E+02 -0.11338914575E+03  0.12242424305E+03  0.41800000000E+01 0. -1.
         -5    1    1    2    0  502  0.13035856181E+02  0.63217806198E+02 -0.37887860455E+02  0.74962570238E+02  0.41800000000E+01 0. -1.
        -11    1    3    3    0    0  0.14426998726E+02 -0.48146924657E+02 -0.88333386703E+02  0.10163194307E+03  0.00000000000E+00 0.  1.
         11    1    3    3    0    0 -0.25833798922E+02  0.30868977933E+02 -0.12340572927E+03  0.12980467242E+03  0.00000000000E+00 0. -1.
</event>
<event>
 7    1  0.4096326E-006  0.1194134E+03  0.7561462E-02  0.1244068E+00
          2   -1    0    0  501    0  0.00000000000E+00  0.00000000000E+00  0.61111271716E+03  0.61111271716E+03  0.00000000000E+00 0. -1.
         -2   -1    0    0    0  501 -0.00000000000E+00 -0.00000000000E+00 -0.28544677026E+02  0.28544677026E+02  0.00000000000E+00 0.  1.
         23    2    1    2    0    0  0.70086407821E+02 -0.26802191368E+02  0.25359127096E+03  0.27979130359E+03  0.91346476858E+02 0.  0.
          5    1    1    2  502    0 -0.10304032570E+03  0.15508919894E+02  0.28579874544E+03  0.30423055503E+03  0.41800000000E+01 0.  1.
         -5    1    1    2    0  502  0.32953917882E+02  0.11293271473E+02  0.43178023730E+02  0.55635535565E+02  0.41800000000E+01 0.  1.
        -11    1    3    3    0    0  0.35944769143E+02 -0.47472592846E+02  0.21908060164E+03  0.22702859625E+03  0.00000000000E+00 0. -1.
         11    1    3    3    0    0  0.34141638678E+02  0.20670401478E+02  0.34510669318E+02  0.52762707338E+02  0.00000000000E+00 0.  1.
</event>
<event>
 7    1  0.4096326E-006  0.1068725E+03  0.7561462E-02  0.1266474E+00
          2   -1    0    0  501    0  0.00000000000E+00  0.00000000000E+00  0.29910191008E+03  0.29910191008E+03  0.00000000000E+00 0. -1.
         -2   -1    0    0    0  501 -0.00000000000E+00 -0.00000000000E+00 -0.38787855446E+02  0.38787855446E+02  0.00000000000E+00 0.  1.
         23    2    1    2    0    0  0.10639346823E+02  0.23740415291E+01  0.11436435802E+03  0.14536054195E+03  0.89059805719E+02 0.  0.
          5    1    1    2  502    0  0.29749030916E+02  0.50105614312E+02  0.57643824118E+02  0.82072286948E+02  0.41800000000E+01 0.  1.
         -5    1    1    2    0  502 -0.40388377738E+02 -0.52479655841E+02  0.88305872490E+02  0.11045693663E+03  0.41800000000E+01 0.  1.
        -11    1    3    3    0    0 -0.38585297827E+02  0.80596873282E+01  0.60123563825E+02  0.71893161672E+02  0.00000000000E+00 0. -1.
         11    1    3    3    0    0  0.49224644649E+02 -0.56856457991E+01  0.54240794199E+02  0.73467380274E+02  0.00000000000E+00 0.  1.
</event>
<event>
 7    1  0.4096326E-006  0.2294417E+03  0.7561462E-02  0.1127033E+00
          2   -1    0    0  501    0  0.00000000000E+00  0.00000000000E+00  0.23251488348E+03  0.23251488348E+03  0.00000000000E+00 0. -1.
         -2   -1    0    0    0  501 -0.00000000000E+00 -0.00000000000E+00 -0.32251594012E+03  0.32251594012E+03  0.00000000000E+00 0.  1.
         23    2    1    2    0    0 -0.21562004561E+03  0.31084793013E+02  0.81429031693E+02  0.25090221649E+03  0.94143330169E+02 0.  0.
          5    1    1    2  502    0  0.18989116222E+03 -0.45373485402E+02 -0.85456513014E+02  0.21316119413E+03  0.41800000000E+01 0. -1.
         -5    1    1    2    0  502  0.25728883384E+02  0.14288692389E+02 -0.85973575316E+02  0.90967412973E+02  0.41800000000E+01 0. -1.
        -11    1    3    3    0    0 -0.81623920966E+02 -0.29538554175E+02  0.51123847783E+02  0.10074045101E+03  0.00000000000E+00 0.  1.
         11    1    3    3    0    0 -0.13399612464E+03  0.60623347188E+02  0.30305183910E+02  0.15016176549E+03  0.00000000000E+00 0. -1.
</event>
<event>
 7    1  0.4096326E-006  0.7412828E+02  0.7561462E-02  0.1346592E+00
          2   -1    0    0  501    0  0.00000000000E+00  0.00000000000E+00  0.24753114169E+03  0.24753114169E+03  0.00000000000E+00 0. -1.
         -2   -1    0    0    0  501 -0.00000000000E+00 -0.00000000000E+00 -0.51692835070E+02  0.51692835070E+02  0.00000000000E+00 0.  1.
         23    2    1    2    0    0 -0.12102457732E+02  0.32592099541E+02  0.91028242320E+02  0.13236609587E+03  0.89587543781E+02 0.  0.
          5    1    1    2  502    0  0.45447080890E+00 -0.47811441968E+02 -0.11130482928E+02  0.49269671979E+02  0.41800000000E+01 0. -1.
         -5    1    1    2    0  502  0.11647986923E+02  0.15219342427E+02  0.11594054722E+03  0.11758820891E+03  0.41800000000E+01 0. -1.
        -11    1    3    3    0    0  0.19307086835E+02 -0.14425463108E+02 -0.12593751202E+01  0.24133868600E+02  0.00000000000E+00 0.  1.
         11    1    3    3    0    0 -0.31409544566E+02  0.47017562649E+02  0.92287617440E+02  0.10823222727E+03  0.00000000000E+00 0. -1.
</event>
<event>
 7    1  0.4096326E-006  0.2190657E+03  0.7561462E-02  0.1134582E+00
          2   -1    0    0  501    0  0.00000000000E+00  0.00000000000E+00  0.74964389510E+03  0.74964389510E+03  0.00000000000E+00 0. -1.
         -2   -1    0    0    0  501 -0.00000000000E+00 -0.00000000000E+00 -0.83904431313E+02  0.83904431313E+02  0.00000000000E+00 0.  1.
         23    2    1    2    0    0  0.16345111337E+03  0.14015772278E+03  0.43213983871E+03  0.49211956066E+03  0.95269974626E+02 0.  0.
          5    1    1    2  502    0 -0.13093952244E+03 -0.13459795525E+03  0.24276318800E+03  0.30694169796E+03  0.41800000000E+01 0. -1.
         -5    1    1    2    0  502 -0.32511590927E+02 -0.55597675220E+01 -0.91635629307E+01  0.34487067795E+02  0.41800000000E+01 0. -1.
        -11    1    3    3    0    0  0.59404386784E+02  0.34158578785E+02  0.58714772226E+02  0.90239205179E+02  0.00000000000E+00 0.  1.
         11    1    3    3    0    0  0.10404672658E+03  0.10599914399E+03  0.37342506649E+03  0.40188035548E+03  0.00000000000E+00 0. -1.
</event>
<event>
 7    1  0.4848559E-006  0.1265748E+03  0.7561462E-02  0.1232629E+00
         -1   -1    0    0    0  501 -0.00000000000E+00  0.00000000000E+00  0.68219450115E+02  0.68219450115E+02  0.00000000000E+00 0.  1.
          1   -1    0    0  501    0  0.00000000000E+00 -0.00000000000E+00 -0.36552438950E+03  0.36552438950E+03  0.00000000000E+00 0. -1.
         23    2    1    2    0    0  0.10144543979E+03  0.45383264683E+02 -0.17499595203E+03  0.22648124913E+03  0.91210498360E+02 0.  0.
          5    1    1    2  502    0 -0.64610521561E+02  0.15255469855E+02 -0.83444659283E+00  0.66523811962E+02  0.41800000000E+01 0.  1.
         -5    1    1    2    0  502 -0.36834918233E+02 -0.60638734538E+02 -0.12147454077E+03  0.14073877853E+03  0.41800000000E+01 0.  1.
        -11    1    3    3    0    0  0.84820508328E+02  0.23386320208E+02 -0.55913958764E+02  0.10424878604E+03  0.00000000000E+00 0.  1.
         11    1    3    3    0    0  0.16624931466E+02  0.21996944475E+02 -0.11908199327E+03  0.12223246309E+03  0.00000000000E+00 0. -1.
</event>
<event>
 7    1  0.4096326E-006  0.1099334E+03  0.7561462E-02  0.1260693E+00
          2   -1    0    0  501    0  0.00000000000E+00  0.00000000000E+00  0.23096332771E+03  0.23096332771E+03  0.00000000000E+00 0. -1.
         -2   -1    0    0    0  501 -0.00000000000E+00 -0.00000000000E+00 -0.57212156034E+02  0.57212156034E+02  0.00000000000E+00 0.  1.
         23    2    1    2    0    0 -0.30551774309E+02  0.18148922631E+02  0.10594265365E+03  0.14151522509E+03  0.86832705603E+02 0.  0.
          5    1    1    2  502    0  0.20595357485E+02 -0.70972402281E+02  0.52054948356E+02  0.90490003226E+02  0.41800000000E+01 0. -1.
         -5    1    1    2    0  502  0.99564168235E+01  0.52823479651E+02  0.15753569674E+02  0.56170255437E+02  0.41800000000E+01 0. -1.
        -11    1    3    3    0    0 -0.50755373099E+02 -0.15163672607E+02  0.74696005123E+02  0.91572583488E+02  0.00000000000E+00 0. -1.
         11    1    3    3    0    0  0.20203598790E+02  0.33312595237E+02  0.31246648528E+02  0.49942641597E+02  0.00000000000E+00 0.  1.
</event>
<event>
 7    1  0.4096326E-006  0.1000850E+03  0.7561462E-02  0.1280117E+00
          2   -1    0    0  501    0  0.00000000000E+00  0.00000000000E+00  0.63583678947E+03  0.63583678947E+03  0.00000000000E+00 0. -1.
         -2   -1    0    0    0  501 -0.00000000000E+00 -0.00000000000E+00 -0.27531208395E+02  0.27531208395E+02  0.00000000000E+00 0.  1.
         23    2    1    2    0    0 -0.12431423797E+01 -0.73666835002E+02  0.24973040798E+03  0.27651937274E+03  0.93109284428E+02 0.  0.
          5    1    1    2  502    0  0.33863323998E+02  0.11658799775E+02  0.20321688010E+02  0.41389560616E+02  0.41800000000E+01 0. -1.
         -5    1    1    2    0  502 -0.32620181618E+02  0.62008035227E+02  0.33825348509E+03  0.34545906452E+03  0.41800000000E+01 0. -1.
        -11    1    3    3    0    0  0.20426243510E+02 -0.38043688481E+01  0.53898707626E+01  0.21465212626E+02  0.00000000000E+00 0.  1.
         11    1    3    3    0    0 -0.21669385889E+02 -0.69862466154E+02  0.24434053722E+03  0.25505416011E+03  0.00000000000E+00 0. -1.
</event>
<event>
 7    1  0.4096326E-006  0.1286949E+03  0.7561462E-02  0.1229405E+00
          2   -1    0    0  501    0  0.00000000000E+00  0.00000000000E+00  0.20630743377E+03  0.20630743377E+03  0.00000000000E+00 0. -1.
         -2   -1    0    0    0  501 -0.00000000000E+00 -0.00000000000E+00 -0.10160306471E+03  0.10160306471E+03  0.00000000000E+00 0.  1.
         23    2    1    2    0    0  0.72481179556E+02  0.34097998258E+02  0.10566104904E+03  0.15938048497E+03  0.88440300949E+02 0.  0.
          5    1    1    2  502    0  0.23527939004E+02 -0.44125776489E+02  0.10386850901E+02  0.51244581529E+02  0.41800000000E+01 0. -1.
         -5    1    1    2    0  502 -0.96009118560E+02  0.10027778231E+02 -0.11343530875E+02  0.97285431980E+02  0.41800000000E+01 0. -1.
        -11    1    3    3    0    0  0.29368667226E+02  0.55245919368E+02  0.88506453193E+02  0.10838829493E+03  0.00000000000E+00 0. -1.
         11    1    3    3    0    0  0.43112512331E+02 -0.21147921110E+02  0.17154595844E+02  0.50992190042E+02  0.00000000000E+00 0.  1.
</event>
<event>
 7    1  0.4096326E-006  0.9091335E+02  0.7561462E-02  0.1300655E+00
         -2   -1    0    0    0  501 -0.00000000000E+00  0.00000000000E+00  0.87778219212E+02  0.87778219212E+02  0.00000000000E+00 0.  1.
          2   -1    0    0  501    0  0.00000000000E+00 -0.00000000000E+00 -0.16568398622E+03  0.16568398622E+03  0.00000000000E+00 0. -1.
         23    2    1    2    0    0 -0.53646528760E+02 -0.39767029738E+01 -0.40985836105E+02  0.11237606439E+03  0.89748408743E+02 0.  0.
          5    1    1    2  502    0 -0.30729766336E+02 -0.64962823338E+01 -0.45589525774E+02  0.55519343327E+02  0.41800000000E+01 0. -1.
         -5    1    1    2    0  502  0.84376295096E+02  0.10472985308E+02  0.86695948745E+01  0.85566797712E+02  0.41800000000E+01 0. -1.
        -11    1    3    3    0    0 -0.33051783894E+02 -0.20253851702E+02  0.21693862108E+02  0.44421420289E+02  0.00000000000E+00 0.  1.
         11    1    3    3    0    0 -0.20594744866E+02  0.16277148728E+02 -0.62679698213E+02  0.67954644101E+02  0.00000000000E+00 0. -1.
</event>
<event>
 7    1  0.4096326E-006  0.1439989E+03  0.7561462E-02  0.1208047E+00
          1   -1    0    0  501    0  0.00000000000E+00  0.00000000000E+00  0.84691929229E+03  0.84691929229E+03  0.00000000000E+00 0. -1.
         -1   -1    0    0    0  501 -0.00000000000E+00 -0.00000000000E+00 -0.29142827615E+02  0.29142827615E+02  0.00000000000E+00 0.  1.
         23    2    1    2    0    0  0.45647174031E+02  0.90475629787E+02  0.51890084594E+03  0.53658114756E+03  0.91606418510E+02 0.  0.
          5    1    1    2  502    0  0.19410808058E+02 -0.93404447941E+02  0.16817725594E+03  0.19339656713E+03  0.41800000000E+01 0. -1.
         -5    1    1    2    0  502 -0.65057982088E+02  0.29288181541E+01  0.13069836280E+03  0.14608440522E+03  0.41800000000E+01 0. -1.
        -11    1    3    3    0    0  0.59613699551E+02  0.33077793463E+02  0.37292795267E+03  0.37910841652E+03  0.00000000000E+00 0. -1.
         11    1    3    3    0    0 -0.13966525521E+02  0.57397836325E+02  0.14597289328E+03  0.15747273104E+03  0.00000000000E+00 0.  1.
</event>
<event>
 7    1  0.4096326E-006  0.1217197E+03  0.7561462E-02  0.1240287E+00
          1   -1    0    0  501    0  0.00000000000E+00  0.00000000000E+00  0.32950421849E+03  0.32950421849E+03  0.00000000000E+00 0. -1.
         -1   -1    0    0    0  501 -0.00000000000E+00 -0.00000000000E+00 -0.11581143055E+03  0.11581143055E+03  0.00000000000E+00 0.  1.
         23    2    1    2    0    0  0.79248420253E+02 -0.68608867802E+02  0.24350098270E+03  0.27941333280E+03  0.88270001235E+02 0.  0.
          5    1    1    2  502    0 -0.74659168671E+02  0.35874805940E+02 -0.73594764203E+02  0.11088126481E+03  0.41800000000E+01 0.  1.
         -5    1    1    2    0  502 -0.45892515820E+01  0.32734061862E+02  0.43786569447E+02  0.55021051426E+02  0.41800000000E+01 0.  1.
        -11    1    3    3    0    0  0.53512269020E+02  0.42119953380E+00  0.53681711787E+02  0.75798855698E+02  0.00000000000E+00 0. -1.
         11    1    3    3    0    0  0.25736151234E+02 -0.69030067336E+02  0.18981927091E+03  0.20361447710E+03  0.00000000000E+00 0.  1.
</event>
<event>
 7    1  0.4096326E-006  0.1515201E+03  0.7561462E-02  0.1198617E+00
         -2   -1    0    0    0  501 -0.00000000000E+00  0.00000000000E+00  0.24787494131E+03  0.24787494131E+03  0.00000000000E+00 0.  1.
          2   -1    0    0  501    0  0.00000000000E+00 -0.00000000000E+00 -0.14115230138E+03  0.14115230138E+03  0.00000000000E+00 0. -1.
         23    2    1    2    0    0 -0.13627456116E+03  0.52230915143E+02  0.93144769056E+02  0.19632959596E+03  0.92577198763E+02 0.  0.
          5    1    1    2  502    0  0.59447527805E+02  0.14478536905E+01 -0.51290152258E+02  0.78640046802E+02  0.41800000000E+01 0. -1.
         -5    1    1    2    0  502  0.76827033351E+02 -0.53678768834E+02  0.64868023139E+02  0.11405759993E+03  0.41800000000E+01 0. -1.
        -11    1    3    3    0    0 -0.97847920734E+02  0.20953318616E+02  0.11362455643E+02  0.10070929724E+03  0.00000000000E+00 0. -1.
         11    1    3    3    0    0 -0.38426640421E+02  0.31277596527E+02  0.81782313413E+02  0.95620298712E+02  0.00000000000E+00 0.  1.
</event>
<event>
 7    1  0.4096326E-006  0.1498630E+03  0.7561462E-02  0.1200641E+00
         -4   -1    0    0    0  501 -0.00000000000E+00  0.00000000000E+00  0.71762960486E+03  0.71762960486E+03  0.00000000000E+00 0. -1.
          4   -1    0    0  501    0  0.00000000000E+00 -0.00000000000E+00 -0.39077400558E+02  0.39077400558E+02  0.00000000000E+00 0.  1.
         23    2    1    2    0    0 -0.95226936141E+02  0.76116255287E+02  0.23573534172E+03  0.28068512792E+03  0.91384550183E+02 0.  0.
          5    1    1    2  502    0 -0.18687430735E+02  0.71454840719E+01  0.14512585700E+03  0.14655805942E+03  0.41800000000E+01 0. -1.
         -5    1    1    2    0  502  0.11391436688E+03 -0.83261739359E+02  0.29769100557E+03  0.32946381807E+03  0.41800000000E+01 0. -1.
        -11    1    3    3    0    0 -0.47855039515E+02  0.77099527437E+02  0.91501912929E+02  0.12886831266E+03  0.00000000000E+00 0.  1.
         11    1    3    3    0    0 -0.47371896626E+02 -0.98327214963E+00  0.14423342879E+03  0.15181681526E+03  0.00000000000E+00 0. -1.
</event>
<event>
 7    1  0.4096326E-006  0.1383689E+03  0.7561462E-02  0.1215541E+00
          2   -1    0    0  501    0  0.00000000000E+00  0.00000000000E+00  0.11615872125E+03  0.11615872125E+03  0.00000000000E+00 0. -1.
         -2   -1    0    0    0  501 -0.00000000000E+00 -0.00000000000E+00 -0.21243797283E+03  0.21243797283E+03  0.00000000000E+00 0.  1.
         23    2    1    2    0    0  0.92049863759E+02  0.57610394706E+02 -0.10960401577E+02  0.14226603982E+03  0.91254373516E+02 0.  0.
          5    1    1    2  502    0  0.14274349859E+02 -0.20679504277E+02 -0.67692616503E+02  0.72326770217E+02  0.41800000000E+01 0. -1.
         -5    1    1    2    0  502 -0.10632421362E+03 -0.36930890429E+02 -0.17626233495E+02  0.11400388404E+03  0.41800000000E+01 0. -1.
        -11    1    3    3    0    0  0.10243883749E+03  0.26469017125E+02  0.46702580138E+01  0.10590625857E+03  0.00000000000E+00 0. -1.
         11    1    3    3    0    0 -0.10388973734E+02  0.31141377581E+02 -0.15630659591E+02  0.36359781245E+02  0.00000000000E+00 0.  1.
</event>
<event>
 7    1  0.4096326E-006  0.1687661E+03  0.7561462E-02  0.1179141E+00
          1   -1    0    0  501    0  0.00000000000E+00  0.00000000000E+00  0.51724605713E+03  0.51724605713E+03  0.00000000000E+00 0. -1.
         -1   -1    0    0    0  501 -0.00000000000E+00 -0.00000000000E+00 -0.68011015953E+02  0.68011015953E+02  0.00000000000E+00 0.  1.
         23    2    1    2    0    0  0.12925751161E+03 -0.32870083953E+02  0.32339317489E+03  0.36328463226E+03  0.98003223139E+02 0.  0.
          5    1    1    2  502    0 -0.36822061975E+02  0.71652461432E+02  0.40539752089E+02  0.90282242865E+02  0.41800000000E+01 0.  1.
         -5    1    1    2    0  502 -0.92435449631E+02 -0.38782377479E+02  0.85302114193E+02  0.13169019795E+03  0.41800000000E+01 0.  1.
        -11    1    3    3    0    0  0.17233196364E+02 -0.40739648665E+02  0.15257622236E+03  0.15885907484E+03  0.00000000000E+00 0. -1.
         11    1    3    3    0    0  0.11202431524E+03  0.78695647118E+01  0.17081695254E+03  0.20442555742E+03  0.00000000000E+00 0.  1.
</event>
<event>
 7    1  0.4096326E-006  0.1434891E+03  0.7561462E-02  0.1208710E+00
         -2   -1    0    0    0  501 -0.00000000000E+00  0.00000000000E+00  0.31198694195E+02  0.31198694195E+02  0.00000000000E+00 0.  1.
          2   -1    0    0  501    0  0.00000000000E+00 -0.00000000000E+00 -0.87369734032E+03  0.87369734032E+03  0.00000000000E+00 0. -1.
         23    2    1    2    0    0 -0.94258498810E+02  0.31810006896E+02 -0.59586888676E+03  0.61100346707E+03  0.91482049790E+02 0.  0.
          5    1    1    2  502    0  0.93268895846E+02 -0.72194661812E+02 -0.16685679259E+03  0.20437665659E+03  0.41800000000E+01 0. -1.
         -5    1    1    2    0  502  0.98960296338E+00  0.40384654915E+02 -0.79772966780E+02  0.89515910851E+02  0.41800000000E+01 0. -1.
        -11    1    3    3    0    0 -0.91981626730E+02  0.53585484542E+02 -0.54961921209E+03  0.55983328064E+03  0.00000000000E+00 0. -1.
         11    1    3    3    0    0 -0.22768720799E+01 -0.21775477646E+02 -0.46249674664E+02  0.51170186434E+02  0.00000000000E+00 0.  1.
</event>
<event>
 7    1  0.4096326E-006  0.1154893E+03  0.7561462E-02  0.1250729E+00
          2   -1    0    0  501    0  0.00000000000E+00  0.00000000000E+00  0.10492034532E+03  0.10492034532E+03  0.00000000000E+00 0. -1.
         -2   -1    0    0    0  501 -0.00000000000E+00 -0.00000000000E+00 -0.15826470225E+03  0.15826470225E+03  0.00000000000E+00 0.  1.
         23    2    1    2    0    0  0.24546918655E+02  0.47778479841E+02  0.22644317523E+02  0.10727801542E+03  0.90058165234E+02 0.  0.
          5    1    1    2  502    0 -0.66931742720E+02 -0.71699403883E+01 -0.11175069567E+02  0.68363885265E+02  0.41800000000E+01 0.  1.
         -5    1    1    2    0  502  0.42384824065E+02 -0.40608539452E+02 -0.64813604886E+02  0.87543146881E+02  0.41800000000E+01 0.  1.
        -11    1    3    3    0    0  0.58205083225E+02  0.21740120157E+02  0.16466694319E+02  0.64277652100E+02  0.00000000000E+00 0.  1.
         11    1    3    3    0    0 -0.33658164570E+02  0.26038359684E+02  0.61776232036E+01  0.43000363321E+02  0.00000000000E+00 0. -1.
</event>
<event>
 7    1  0.4096326E-006  0.1072955E+03  0.7561462E-02  0.1265662E+00
         -1   -1    0    0    0  501 -0.00000000000E+00  0.00000000000E+00  0.12708900809E+04  0.12708900809E+04  0.00000000000E+00 0.  1.
          1   -1    0    0  501    0  0.00000000000E+00 -0.00000000000E+00 -0.12542870704E+02  0.12542870704E+02  0.00000000000E+00 0. -1.
         23    2    1    2    0    0  0.26482998235E+02  0.27523981592E+02  0.24306657756E+03  0.25976188437E+03  0.83282391226E+02 0.  0.
          5    1    1    2  502    0 -0.93954959149E+01  0.47807043211E+02  0.27057235158E+03  0.27495573928E+03  0.41800000000E+01 0. -1.
         -5    1    1    2    0  502 -0.17087502320E+02 -0.75331024803E+02  0.74470828103E+03  0.74871532793E+03  0.41800000000E+01 0.  1.
        -11    1    3    3    0    0 -0.67903288387E+01 -0.25138484603E+02  0.10685320715E+03  0.10998027028E+03  0.00000000000E+00 0.  1.
         11    1    3    3    0    0  0.33273327074E+02  0.52662466195E+02  0.13621337041E+03  0.14978161409E+03  0.00000000000E+00 0. -1.
</event>
<event>
 7    1  0.4096326E-006  0.9676614E+02  0.7561462E-02  0.1287247E+00
         -1   -1    0    0    0  501 -0.00000000000E+00  0.00000000000E+00  0.10750791984E+03  0.10750791984E+03  0.00000000000E+00 0.  1.
          1   -1    0    0  501    0  0.00000000000E+00 -0.00000000000E+00 -0.16269871274E+03  0.16269871274E+03  0.00000000000E+00 0. -1.
         23    2    1    2    0    0  0.66540403724E+02  0.31731142779E+02 -0.32818669485E+02  0.12329872155E+03  0.93225634453E+02 0.  0.
          5    1    1    2  502    0  0.16518405192E+02 -0.11555623408E+02 -0.52334144757E+02  0.56238112075E+02  0.41800000000E+01 0. -1.
         -5    1    1    2    0  502 -0.83058808916E+02 -0.20175519371E+02  0.29962021337E+02  0.90669798958E+02  0.41800000000E+01 0. -1.
        -11    1    3    3    0    0  0.43540768511E+02 -0.52109271682E+01  0.25351716204E+02  0.50652362225E+02  0.00000000000E+00 0.  1.
         11    1    3    3    0    0  0.22999635213E+02  0.36942069947E+02 -0.58170385689E+02  0.72646359324E+02  0.00000000000E+00 0. -1.
</event>
<event>
 7    1  0.4096326E-006  0.2564022E+03  0.7561462E-02  0.1109324E+00
         -1   -1    0    0    0  501 -0.00000000000E+00  0.00000000000E+00  0.11398696297E+03  0.11398696297E+03  0.00000000000E+00 0.  1.
          1   -1    0    0  501    0  0.00000000000E+00 -0.00000000000E+00 -0.67381994396E+03  0.67381994396E+03  0.00000000000E+00 0. -1.
         23    2    1    2    0    0  0.38752854681E+02  0.24770548659E+03 -0.33716110590E+03  0.42991089523E+03  0.91027329269E+02 0.  0.
          5    1    1    2  502    0 -0.43615929738E+01  0.37816705996E+00 -0.57573171017E+02  0.57890490796E+02  0.41800000000E+01 0. -1.
         -5    1    1    2    0  502 -0.34391261707E+02 -0.24808365365E+03 -0.16509870407E+03  0.30000552090E+03  0.41800000000E+01 0. -1.
        -11    1    3    3    0    0 -0.43196973640E+00  0.16223517962E+03 -0.26765387785E+03  0.31298408655E+03  0.00000000000E+00 0. -1.
         11    1    3    3    0    0  0.39184824417E+02  0.85470306965E+02 -0.69507228057E+02  0.11692680869E+03  0.00000000000E+00 0.  1.
</event>
<event>
 7    1  0.4096326E-006  0.1337154E+03  0.7561462E-02  0.1222045E+00
         -2   -1    0    0    0  501 -0.00000000000E+00  0.00000000000E+00  0.17994248030E+03  0.17994248030E+03  0.00000000000E+00 0. -1.
          2   -1    0    0  501    0  0.00000000000E+00 -0.00000000000E+00 -0.17950816537E+03  0.17950816537E+03  0.00000000000E+00 0.  1.
         23    2    1    2    0    0 -0.82934893781E+02 -0.34659851641E+02 -0.10938067516E+03  0.17028437449E+03  0.94621002816E+02 0.  0.
          5    1    1    2  502    0  0.56717060453E+02 -0.36900390597E+02  0.85385285633E+02  0.10902560789E+03  0.41800000000E+01 0. -1.
         -5    1    1    2    0  502  0.26217833328E+02  0.71560242238E+02  0.24429704449E+02  0.80140663293E+02  0.41800000000E+01 0. -1.
        -11    1    3    3    0    0  0.17634116110E+02 -0.73127088684E+01  0.15236337167E+00  0.19090861074E+02  0.00000000000E+00 0. -1.
         11    1    3    3    0    0 -0.10056900989E+03 -0.27347142772E+02 -0.10953303853E+03  0.15119351341E+03  0.00000000000E+00 0.  1.
</event>
<event>
 7    1  0.4096326E-006  0.1164622E+03  0.7561462E-02  0.1249050E+00
         -2   -1    0    0    0  501 -0.00000000000E+00  0.00000000000E+00  0.22687197029E+02  0.22687197029E+02  0.00000000000E+00 0.  1.
          2   -1    0    0  501    0  0.00000000000E+00 -0.00000000000E+00 -0.10148994022E+04  0.10148994022E+04  0.00000000000E+00 0. -1.
         23    2    1    2    0    0 -0.91735574960E+02  0.52491427195E+02 -0.47652086216E+03  0.49653990832E+03  0.91153622205E+02 0.  0.
          5    1    1    2  502    0  0.35281100551E+02 -0.53540948893E+02 -0.44894875603E+03  0.45352381106E+03  0.41800000000E+01 0. -1.
         -5    1    1    2    0  502  0.56454474409E+02  0.10495216981E+01 -0.66742586935E+02  0.87522879793E+02  0.41800000000E+01 0. -1.
        -11    1    3    3    0    0 -0.64337299812E+02  0.54856846518E+02 -0.45153967814E+03  0.45938724698E+03  0.00000000000E+00 0. -1.
         11    1    3    3    0    0 -0.27398275147E+02 -0.23654193229E+01 -0.24981184027E+02  0.37152661345E+02  0.00000000000E+00 0.  1.
</event>
<event>
 7    1  0.4096326E-006  0.1253238E+03  0.7561462E-02  0.1234564E+00
          2   -1    0    0  501    0  0.00000000000E+00  0.00000000000E+00  0.23249606176E+03  0.23249606176E+03  0.00000000000E+00 0. -1.
         -2   -1    0    0    0  501 -0.00000000000E+00 -0.00000000000E+00 -0.10506462351E+03  0.10506462351E+03  0.00000000000E+00 0.  1.
         23    2    1    2    0    0 -0.54708133784E+01 -0.62501310912E+02  0.15905121051E+03  0.19409168966E+03  0.91858329858E+02 0.  0.
          5    1    1    2  502    0  0.48536751887E+01  0.10074398782E+03 -0.28361533618E+02  0.10485589270E+03  0.41800000000E+01 0.  1.
         -5    1    1    2    0  502  0.61713818969E+00 -0.38242676913E+02 -0.32582386476E+01  0.38613102907E+02  0.41800000000E+01 0.  1.
        -11    1    3    3    0    0 -0.41344425171E+02 -0.26289622311E+01  0.60785160518E+02  0.73560238406E+02  0.00000000000E+00 0. -1.
         11    1    3    3    0    0  0.35873611792E+02 -0.59872348680E+02  0.98266049995E+02  0.12053145125E+03  0.00000000000E+00 0.  1.
</event>
<event>
 7    1  0.4096326E-006  0.7154558E+02  0.7561462E-02  0.1354915E+00
         -3   -1    0    0    0  501 -0.00000000000E+00  0.00000000000E+00  0.77249531774E+03  0.77249531774E+03  0.00000000000E+00 0.  1.
          3   -1    0    0  501    0  0.00000000000E+00 -0.00000000000E+00 -0.13741443816E+02  0.13741443816E+02  0.00000000000E+00 0. -1.
         23    2    1    2    0    0 -0.91044560418E+01 -0.15178024631E+01  0.14889104837E+03  0.16360941085E+03  0.67188542114E+02 0.  0.
          5    1    1    2  502    0 -0.16608755435E+02  0.32238306946E+02  0.53264505324E+02  0.64573517166E+02  0.41800000000E+01 0.  1.
         -5    1    1    2    0  502  0.25713211476E+02 -0.30720504483E+02  0.55659832023E+03  0.55805383353E+03  0.41800000000E+01 0.  1.
        -11    1    3    3    0    0  0.26941347959E+02  0.95761105729E+01  0.81680365107E+02  0.86540280607E+02  0.00000000000E+00 0.  1.
         11    1    3    3    0    0 -0.36045804000E+02 -0.11093913036E+02  0.67210683263E+02  0.77069130248E+02  0.00000000000E+00 0. -1.
</event>
<event>
 7    1  0.4096326E-006  0.1016418E+03  0.7561462E-02  0.1276881E+00
         -3   -1    0    0    0  501 -0.00000000000E+00  0.00000000000E+00  0.46217768236E+03  0.46217768236E+03  0.00000000000E+00 0.  1.
          3   -1    0    0  501    0  0.00000000000E+00 -0.00000000000E+00 -0.32912975002E+02  0.32912975002E+02  0.00000000000E+00 0. -1.
         23    2    1    2    0    0  0.28548449728E+02  0.51469499203E+02  0.18807180817E+03  0.21708814260E+03  0.91061151431E+02 0.  0.
          5    1    1    2  502    0  0.23463545228E+00  0.29653288870E+02  0.10494142936E+02  0.31732822606E+02  0.41800000000E+01 0. -1.
         -5    1    1    2    0  502 -0.28783085181E+02 -0.81122788073E+02  0.23069875625E+03  0.24626969215E+03  0.41800000000E+01 0. -1.
        -11    1    3    3    0    0  0.14775887769E+02  0.65707260219E+02  0.18520820506E+03  0.19707321007E+03  0.00000000000E+00 0.  1.
         11    1    3    3    0    0  0.13772561959E+02 -0.14237761016E+02  0.28636031128E+01  0.20014932537E+02  0.00000000000E+00 0. -1.
</event>
<event>
 7    1  0.4096326E-006  0.9725508E+02  0.7561462E-02  0.1286176E+00
         -1   -1    0    0    0  501 -0.00000000000E+00  0.00000000000E+00  0.47293274110E+02  0.47293274110E+02  0.00000000000E+00 0.  1.
          1   -1    0    0  501    0  0.00000000000E+00 -0.00000000000E+00 -0.25088823404E+03  0.25088823404E+03  0.00000000000E+00 0. -1.
         23    2    1    2    0    0 -0.85660664926E+01 -0.20970643269E+02 -0.96916501745E+02  0.13222556296E+03  0.87049674414E+02 0.  0.
          5    1    1    2  502    0  0.59985996554E+02  0.61124734219E+01 -0.92383788177E+02  0.11039890775E+03  0.41800000000E+01 0.  1.
         -5    1    1    2    0  502 -0.51419930062E+02  0.14858169847E+02 -0.14294670010E+02  0.55557037443E+02  0.41800000000E+01 0.  1.
        -11    1    3    3    0    0  0.28107341486E+02 -0.31510039413E+02 -0.20776603618E+02  0.47059244438E+02  0.00000000000E+00 0.  1.
         11    1    3    3    0    0 -0.36673407979E+02  0.10539396144E+02 -0.76139898128E+02  0.85166318523E+02  0.00000000000E+00 0. -1.
</event>
<event>
 7    1  0.4096326E-006  0.1018698E+03  0.7561462E-02  0.1276412E+00
         -1   -1    0    0    0  501 -0.00000000000E+00  0.00000000000E+00  0.63862680290E+03  0.63862680290E+03  0.00000000000E+00 0. -1.
          1   -1    0    0  501    0  0.00000000000E+00 -0.00000000000E+00 -0.29399984344E+02  0.29399984344E+02  0.00000000000E+00 0.  1.
         23    2    1    2    0    0 -0.94134897670E-01 -0.72098713848E+02  0.17394765868E+03  0.20942634655E+03  0.91669914734E+02 0.  0.
          5    1    1    2  502    0  0.54502072980E+02  0.32965456985E+02  0.11665908761E+03  0.13298124843E+03  0.41800000000E+01 0. -1.
         -5    1    1    2    0  502 -0.54407938083E+02  0.39133256863E+02  0.31862007227E+03  0.32561919227E+03  0.41800000000E+01 0. -1.
        -11    1    3    3    0    0  0.48321278969E+01 -0.34654817419E+02  0.38670349440E+01  0.35203121873E+02  0.00000000000E+00 0.  1.
         11    1    3    3    0    0 -0.49262627946E+01 -0.37443896429E+02  0.17008062374E+03  0.17422322467E+03  0.00000000000E+00 0. -1.
</event>
<event>
 7    1  0.4096326E-006  0.9963750E+02  0.7561462E-02  0.1281060E+00
         -2   -1    0    0    0  501 -0.00000000000E+00  0.00000000000E+00  0.83543363058E+02  0.83543363058E+02  0.00000000000E+00 0.  1.
          2   -1    0    0  501    0  0.00000000000E+00 -0.00000000000E+00 -0.16964553379E+03  0.16964553379E+03  0.00000000000E+00 0. -1.
         23    2    1    2    0    0  0.11140903351E+00  0.49315055658E+02 -0.46652564515E+02  0.11306338510E+03  0.90415043810E+02 0.  0.
          5    1    1    2  502    0 -0.25971920983E+02  0.35807632718E+02 -0.53271000147E+01  0.44750169106E+02  0.41800000000E+01 0.  1.
         -5    1    1    2    0  502  0.25860511949E+02 -0.85122688376E+02 -0.34122506199E+02  0.95375342641E+02  0.41800000000E+01 0.  1.
        -11    1    3    3    0    0 -0.21300225825E+02  0.30953463602E+02  0.18636376230E+02  0.41941996235E+02  0.00000000000E+00 0.  1.
         11    1    3    3    0    0  0.21411634858E+02  0.18361592056E+02 -0.65288940745E+02  0.71121388862E+02  0.00000000000E+00 0. -1.
</event>
<event>
 7    1  0.4096326E-006  0.7559366E+02  0.7561462E-02  0.1342042E+00
         -1   -1    0    0    0  501 -0.00000000000E+00  0.00000000000E+00  0.15321135670E+03  0.15321135670E+03  0.00000000000E+00 0.  1.
          1   -1    0    0  501    0  0.00000000000E+00 -0.00000000000E+00 -0.11269181092E+03  0.11269181092E+03  0.00000000000E+00 0. -1.
         23    2    1    2    0    0  0.15579097767E+02  0.39190651243E+02 -0.40971613419E+02  0.11076485334E+03  0.93869932332E+02 0.  0.
          5    1    1    2  502    0 -0.95100932689E+01  0.10452217826E+01  0.10662076450E+03  0.10713073409E+03  0.41800000000E+01 0.  1.
         -5    1    1    2    0  502 -0.60690044986E+01 -0.40235873026E+02 -0.25129605308E+02  0.48007580200E+02  0.41800000000E+01 0.  1.
        -11    1    3    3    0    0 -0.26482574199E+02 -0.15624525855E+02 -0.62617006423E+00  0.30754587192E+02  0.00000000000E+00 0.  1.
         11    1    3    3    0    0  0.42061671966E+02  0.54815177098E+02 -0.40345443355E+02  0.80010266144E+02  0.00000000000E+00 0. -1.
</event>
<event>
 7    1  0.4096326E-006  0.1199516E+03  0.7561462E-02  0.1243177E+00
         -2   -1    0    0    0  501 -0.00000000000E+00  0.00000000000E+00  0.25481537547E+02  0.25481537547E+02  0.00000000000E+00 0.  1.
          2   -1    0    0  501    0  0.00000000000E+00 -0.00000000000E+00 -0.59542024162E+03  0.59542024162E+03  0.00000000000E+00 0. -1.
         23    2    1    2    0    0  0.45245806884E+02 -0.28123675856E+02 -0.24790412620E+03  0.27133837955E+03  0.96591595119E+02 0.  0.
          5    1    1    2  502    0 -0.84341733870E+02  0.36097214459E+01 -0.25011364125E+03  0.26400921215E+03  0.41800000000E+01 0.  1.
         -5    1    1    2    0  502  0.39095926987E+02  0.24513954410E+02 -0.71920936633E+02  0.85554187471E+02  0.41800000000E+01 0.  1.
        -11    1    3    3    0    0 -0.27930183907E+02  0.55789334018E+01 -0.84142627225E+02  0.88832434321E+02  0.00000000000E+00 0.  1.
         11    1    3    3    0    0  0.73175990791E+02 -0.33702609257E+02 -0.16376149897E+03  0.18250594523E+03  0.00000000000E+00 0. -1.
</event>
<event>
 7    1  0.4096326E-006  0.1108541E+03  0.7561462E-02  0.1258996E+00
          2   -1    0    0  501    0  0.00000000000E+00  0.00000000000E+00  0.20722174104E+03  0.20722174104E+03  0.00000000000E+00 0.  1.
         -2   -1    0    0    0  501 -0.00000000000E+00 -0.00000000000E+00 -0.64836921659E+02  0.64836921659E+02  0.00000000000E+00 0. -1.
         23    2    1    2    0    0  0.20019217253E+02 -0.11807472042E+02  0.97963678312E+02  0.13729556278E+03  0.93343472374E+02 0.  0.
          5    1    1    2  502    0  0.37484503963E+02 -0.36137156095E+02  0.17355409261E+02  0.55042390197E+02  0.41800000000E+01 0. -1.
         -5    1    1    2    0  502 -0.57503721215E+02  0.47944628137E+02  0.27065731812E+02  0.79720709727E+02  0.41800000000E+01 0. -1.
        -11    1    3    3    0    0 -0.65073157797E+01  0.37734409390E+02  0.27381469757E+02  0.47074151046E+02  0.00000000000E+00 0. -1.
         11    1    3    3    0    0  0.26526533032E+02 -0.49541881432E+02  0.70582208555E+02  0.90221411732E+02  0.00000000000E+00 0.  1.
</event>
<event>
 7    1  0.4096326E-006  0.8563142E+02  0.7561462E-02  0.1313790E+00
         -2   -1    0    0    0  501 -0.00000000000E+00  0.00000000000E+00  0.16711410903E+02  0.16711410903E+02  0.00000000000E+00 0.  1.
          2   -1    0    0  501    0  0.00000000000E+00 -0.00000000000E+00 -0.80227850038E+03  0.80227850038E+03  0.00000000000E+00 0. -1.
         23    2    1    2    0    0 -0.28519735822E+02  0.18900722003E+02 -0.33593351607E+03  0.35102329319E+03  0.95892713586E+02 0.  0.
          5    1    1    2  502    0  0.43848858298E+02  0.29289387940E+01 -0.43504232876E+03  0.43727634428E+03  0.41800000000E+01 0.  1.
         -5    1    1    2    0  502 -0.15329122476E+02 -0.21829660797E+02 -0.14591244653E+02  0.30690273816E+02  0.41800000000E+01 0.  1.
        -11    1    3    3    0    0  0.34054072660E+02 -0.20881612332E+01 -0.14653849841E+03  0.15045787383E+03  0.00000000000E+00 0.  1.
         11    1    3    3    0    0 -0.62573808482E+02  0.20988883236E+02 -0.18939501767E+03  0.20056541936E+03  0.00000000000E+00 0. -1.
</event>
<event>
 7    1  0.4096326E-006  0.1164649E+03  0.7561462E-02  0.1249046E+00
         -1   -1    0    0    0  501 -0.00000000000E+00  0.00000000000E+00  0.30246063980E+03  0.30246063980E+03  0.00000000000E+00 0.  1.
          1   -1    0    0  501    0  0.00000000000E+00 -0.00000000000E+00 -0.61065331066E+02  0.61065331066E+02  0.00000000000E+00 0. -1.
         23    2    1    2    0    0 -0.72800469618E+02 -0.69405531609E+01  0.61232103644E+02  0.13232365430E+03  0.91717497322E+02 0.  0.
          5    1    1    2  502    0  0.88993625299E+02 -0.25999256327E+02  0.16866383033E+03  0.19251178337E+03  0.41800000000E+01 0.  1.
         -5    1    1    2    0  502 -0.16193155681E+02  0.32939809487E+02  0.11499374765E+02  0.38690533208E+02  0.41800000000E+01 0.  1.
        -11    1    3    3    0    0 -0.75766711305E+01 -0.32316971368E+02  0.52055826664E+02  0.61738170312E+02  0.00000000000E+00 0.  1.
         11    1    3    3    0    0 -0.65223798487E+02  0.25376418207E+02  0.91762769803E+01  0.70585483985E+02  0.00000000000E+00 0. -1.
</event>
<event>
 7    1  0.4096326E-006  0.1139808E+03  0.7561462E-02  0.1253371E+00
         -2   -1    0    0    0  501 -0.00000000000E+00  0.00000000000E+00  0.15596155165E+03  0.15596155165E+03  0.00000000000E+00 0.  1.
          2   -1    0    0  501    0  0.00000000000E+00 -0.00000000000E+00 -0.16289482781E+03  0.16289482781E+03  0.00000000000E+00 0. -1.
         23    2    1    2    0    0 -0.36212949004E+02 -0.41514630488E+02 -0.10297599522E+03  0.15179876127E+03  0.96974048651E+02 0.  0.
          5    1    1    2  502    0  0.72092175502E+02  0.22578793993E+02  0.10075665304E+03  0.12600182236E+03  0.41800000000E+01 0.  1.
         -5    1    1    2    0  502 -0.35879226498E+02  0.18935836496E+02 -0.47139339891E+01  0.41055795834E+02  0.41800000000E+01 0.  1.
        -11    1    3    3    0    0  0.30225132482E+02 -0.32645446171E+02 -0.39958219109E+02  0.59799189490E+02  0.00000000000E+00 0.  1.
         11    1    3    3    0    0 -0.66438081486E+02 -0.88691843170E+01 -0.63017776106E+02  0.91999571778E+02  0.00000000000E+00 0. -1.
</event>
<event>
 7    1  0.4096326E-006  0.1311751E+03  0.7561462E-02  0.1225722E+00
         -1   -1    0    0    0  501 -0.00000000000E+00  0.00000000000E+00  0.59958210772E+02  0.59958210772E+02  0.00000000000E+00 0.  1.
          1   -1    0    0  501    0  0.00000000000E+00 -0.00000000000E+00 -0.55626492944E+03  0.55626492944E+03  0.00000000000E+00 0. -1.
         23    2    1    2    0    0 -0.78216060499E+02 -0.85926908939E+02 -0.38429800961E+03  0.41202848302E+03  0.92635440450E+02 0.  0.
          5    1    1    2  502    0  0.75932863710E+01  0.50355603440E+02  0.16113800300E+02  0.53576783739E+02  0.41800000000E+01 0.  1.
         -5    1    1    2    0  502  0.70622774128E+02  0.35571305499E+02 -0.12812250936E+03  0.15061787346E+03  0.41800000000E+01 0.  1.
        -11    1    3    3    0    0 -0.12525924609E+02 -0.60249860317E+02 -0.27608205308E+03  0.28285728643E+03  0.00000000000E+00 0. -1.
         11    1    3    3    0    0 -0.65690135889E+02 -0.25677048622E+02 -0.10821595653E+03  0.12917119658E+03  0.00000000000E+00 0.  1.
</event>
<event>
 7    1  0.5727364E-006  0.2092507E+03  0.7561462E-02  0.1142161E+00
          1   -1    0    0  501    0  0.00000000000E+00  0.00000000000E+00  0.63727943775E+03  0.63727943775E+03  0.00000000000E+00 0. -1.
         -1   -1    0    0    0  501 -0.00000000000E+00 -0.00000000000E+00 -0.85285572166E+02  0.85285572166E+02  0.00000000000E+00 0.  1.
         23    2    1    2    0    0 -0.14322934233E+02  0.20303128282E+03  0.31978798269E+03  0.38940641121E+03  0.89141185623E+02 0.  0.
          5    1    1    2  502    0  0.10835425237E+02 -0.12201786006E+03  0.21890016131E+03  0.25087948828E+03  0.41800000000E+01 0.  1.
         -5    1    1    2    0  502  0.34875089952E+01 -0.81013422757E+02  0.13305721581E+02  0.82279110426E+02  0.41800000000E+01 0.  1.
        -11    1    3    3    0    0  0.27450581090E+02  0.95796290658E+02  0.99240557995E+02  0.14063837335E+03  0.00000000000E+00 0.  1.
         11    1    3    3    0    0 -0.41773515322E+02  0.10723499216E+03  0.22054742469E+03  0.24876803787E+03  0.00000000000E+00 0. -1.
</event>
<event>
 7    1  0.4220814E-006  0.3718055E+03  0.7561462E-02  0.1054005E+00
          2   -1    0    0  501    0  0.00000000000E+00  0.00000000000E+00  0.15036302225E+04  0.15036302225E+04  0.00000000000E+00 0. -1.
         -2   -1    0    0    0  501 -0.00000000000E+00 -0.00000000000E+00 -0.96618952752E+02  0.96618952752E+02  0.00000000000E+00 0.  1.
         23    2    1    2    0    0  0.30030594785E+03 -0.20283756274E+03  0.78909694383E+03  0.87306835804E+03  0.90816473601E+02 0.  0.
          5    1    1    2  502    0 -0.79389923030E+02 -0.12089600114E+01  0.16979793162E+03  0.18749141699E+03  0.41800000000E+01 0.  1.
         -5    1    1    2    0  502 -0.22091602482E+03  0.20404652276E+03  0.44811639430E+03  0.53968940022E+03  0.41800000000E+01 0.  1.
        -11    1    3    3    0    0  0.61418279131E+02 -0.29135401250E+02  0.80408414413E+02  0.10529287595E+03  0.00000000000E+00 0.  1.
         11    1    3    3    0    0  0.23888766872E+03 -0.17370216149E+03  0.70868852942E+03  0.76777548209E+03  0.00000000000E+00 0. -1.
</event>
<event>
 7    1  0.4096326E-006  0.7389113E+02  0.7561462E-02  0.1347340E+00
         -2   -1    0    0    0  501 -0.00000000000E+00  0.00000000000E+00  0.36936698495E+02  0.36936698495E+02  0.00000000000E+00 0.  1.
          2   -1    0    0  501    0  0.00000000000E+00 -0.00000000000E+00 -0.42165462708E+03  0.42165462708E+03  0.00000000000E+00 0. -1.
         23    2    1    2    0    0 -0.18153056539E+02 -0.29350121315E+02 -0.26408759050E+03  0.28147112582E+03  0.91064681031E+02 0.  0.
          5    1    1    2  502    0 -0.95074484528E+01 -0.28452424581E+00  0.24375075961E+02  0.26496966963E+02  0.41800000000E+01 0. -1.
         -5    1    1    2    0  502  0.27660504991E+02  0.29634645561E+02 -0.14500541405E+03  0.15062323280E+03  0.41800000000E+01 0. -1.
        -11    1    3    3    0    0 -0.11207379574E+02 -0.62129718336E+02 -0.18845286146E+03  0.19874654273E+03  0.00000000000E+00 0. -1.
         11    1    3    3    0    0 -0.69456769648E+01  0.32779597020E+02 -0.75634729043E+02  0.82724583086E+02  0.00000000000E+00 0.  1.
</event>
<event>
 7    1  0.4096326E-006  0.1074689E+03  0.7561462E-02  0.1265330E+00
         -2   -1    0    0    0  501 -0.00000000000E+00  0.00000000000E+00  0.54702834048E+02  0.54702834048E+02  0.00000000000E+00 0. -1.
          2   -1    0    0  501    0  0.00000000000E+00 -0.00000000000E+00 -0.29143027596E+03  0.29143027596E+03  0.00000000000E+00 0.  1.
         23    2    1    2    0    0 -0.54588964588E+02 -0.23310767998E+02 -0.14027306314E+03  0.17738719526E+03  0.90919402994E+02 0.  0.
          5    1    1    2  502    0 -0.34450790949E+02 -0.16841768005E+02 -0.14618873406E+02  0.41251497018E+02  0.41800000000E+01 0.  1.
         -5    1    1    2    0  502  0.89039755537E+02  0.40152536003E+02 -0.81835505365E+02  0.12749441773E+03  0.41800000000E+01 0.  1.
        -11    1    3    3    0    0  0.51092816488E+01  0.92734246111E+01  0.86479707814E+01  0.13670719133E+02  0.00000000000E+00 0. -1.
         11    1    3    3    0    0 -0.59698246237E+02 -0.32584192609E+02 -0.14892103392E+03  0.16371647613E+03  0.00000000000E+00 0.  1.
</event>
<event>
 6    1  0.4096326E-006  0.1531473E+03  0.7561462E-02  0.1196658E+00
          1   -1    0    0  501    0  0.00000000000E+00  0.00000000000E+00  0.61082013886E+03  0.61082013886E+03  0.00000000000E+00 0. -1.
         -1   -1    0    0    0  501 -0.00000000000E+00 -0.00000000000E+00 -0.48121681859E+02  0.48121681859E+02  0.00000000000E+00 0.  1.
          5    1    1    2  502    0  0.26242670476E+02  0.42029487148E+02  0.75500931743E+02  0.90404748977E+02  0.41800000000E+01 0. -1.
         -5    1    1    2    0  502 -0.11465418968E+03  0.28101906572E+02  0.22334482286E+03  0.25265724344E+03  0.41800000000E+01 0. -1.
        -11    1    1    2    0    0  0.61362998852E+02 -0.87079051051E+02  0.90998471519E+02  0.14010317833E+03  0.00000000000E+00 0.  1.
         11    1    1    2    0    0  0.27048520351E+02  0.16947657331E+02  0.17285423088E+03  0.17577664997E+03  0.00000000000E+00 0. -1.
</event>
<event>
 7    1  0.4096326E-006  0.2204525E+03  0.7561462E-02  0.1133546E+00
         -1   -1    0    0    0  501 -0.00000000000E+00  0.00000000000E+00  0.89222057187E+02  0.89222057187E+02  0.00000000000E+00 0.  1.
          1   -1    0    0  501    0  0.00000000000E+00 -0.00000000000E+00 -0.63235459731E+03  0.63235459731E+03  0.00000000000E+00 0. -1.
         23    2    1    2    0    0 -0.15042518156E+03  0.12775595701E+03 -0.37360122033E+03  0.43289481119E+03  0.94184531211E+02 0.  0.
          5    1    1    2  502    0  0.85182137913E+02  0.50827584843E+01 -0.67333615330E+02  0.10878014160E+03  0.41800000000E+01 0.  1.
         -5    1    1    2    0  502  0.65243043651E+02 -0.13283871550E+03 -0.10219770446E+03  0.17990170171E+03  0.41800000000E+01 0.  1.
        -11    1    3    3    0    0 -0.48784501966E+02  0.65351095457E+01 -0.15795740068E+03  0.16544840803E+03  0.00000000000E+00 0. -1.
         11    1    3    3    0    0 -0.10164067960E+03  0.12122084747E+03 -0.21564381965E+03  0.26744640316E+03  0.00000000000E+00 0.  1.
</event>
<event>
 7    1  0.4096326E-006  0.2062165E+03  0.7561462E-02  0.1144598E+00
          2   -1    0    0  501    0  0.00000000000E+00  0.00000000000E+00  0.87772777102E+02  0.87772777102E+02  0.00000000000E+00 0. -1.
         -2   -1    0    0    0  501 -0.00000000000E+00 -0.00000000000E+00 -0.58371007639E+03  0.58371007639E+03  0.00000000000E+00 0.  1.
         23    2    1    2    0    0 -0.17248920756E+03 -0.88127325190E+02 -0.30975622645E+03  0.37512259375E+03  0.85141578240E+02 0.  0.
          5    1    1    2  502    0  0.16150522948E+03  0.59335014359E+02 -0.19866510634E+03  0.26284953862E+03  0.41800000000E+01 0.  1.
         -5    1    1    2    0  502  0.10983978082E+02  0.28792310830E+02  0.12484033499E+02  0.33510721118E+02  0.41800000000E+01 0.  1.
        -11    1    3    3    0    0 -0.23973974203E+02  0.15122170298E+02 -0.63832924117E+02  0.69843207794E+02  0.00000000000E+00 0.  1.
         11    1    3    3    0    0 -0.14851523336E+03 -0.10324949549E+03 -0.24592330233E+03  0.30527938595E+03  0.00000000000E+00 0. -1.
</event>
<event>
 7    1  0.4096326E-006  0.9958544E+02  0.7561462E-02  0.1281170E+00
         -2   -1    0    0    0  501 -0.00000000000E+00  0.00000000000E+00  0.27960685129E+02  0.27960685129E+02  0.00000000000E+00 0. -1.
          2   -1    0    0  501    0  0.00000000000E+00 -0.00000000000E+00 -0.46543494220E+03  0.46543494220E+03  0.00000000000E+00 0.  1.
         23    2    1    2    0    0 -0.17263354421E+02 -0.23990363013E+02 -0.22838112042E+03  0.24796227970E+03  0.91944521678E+02 0.  0.
          5    1    1    2  502    0 -0.30983034565E+02  0.41158922813E+02 -0.31435873037E+02  0.60495387192E+02  0.41800000000E+01 0.  1.
         -5    1    1    2    0  502  0.48246388986E+02 -0.17168559800E+02 -0.17765726361E+03  0.18493796044E+03  0.41800000000E+01 0.  1.
        -11    1    3    3    0    0  0.34835677551E+02  0.69331257928E+01 -0.96547623564E+02  0.10287388531E+03  0.00000000000E+00 0.  1.
         11    1    3    3    0    0 -0.52099031973E+02 -0.30923488805E+02 -0.13183349685E+03  0.14508839438E+03  0.00000000000E+00 0. -1.
</event>
<event>
 7    1  0.4096326E-006  0.1229070E+03  0.7561462E-02  0.1238377E+00
         -4   -1    0    0    0  501 -0.00000000000E+00  0.00000000000E+00  0.78141686885E+02  0.78141686885E+02  0.00000000000E+00 0.  1.
          4   -1    0    0  501    0  0.00000000000E+00 -0.00000000000E+00 -0.23312082276E+03  0.23312082276E+03  0.00000000000E+00 0. -1.
         23    2    1    2    0    0  0.23657227123E+02  0.75376648876E+02 -0.86087866668E+02  0.14806081014E+03  0.90937226261E+02 0.  0.
          5    1    1    2  502    0  0.17737348623E+02  0.29404411292E+02 -0.22645287390E+02  0.41346274083E+02  0.41800000000E+01 0.  1.
         -5    1    1    2    0  502 -0.41394575746E+02 -0.10478106017E+03 -0.46245981815E+02  0.12185542542E+03  0.41800000000E+01 0.  1.
        -11    1    3    3    0    0 -0.63349741375E+01  0.67059031710E+02 -0.12970978250E+02  0.68595130351E+02  0.00000000000E+00 0.  1.
         11    1    3    3    0    0  0.29992201261E+02  0.83176171667E+01 -0.73116888419E+02  0.79465679786E+02  0.00000000000E+00 0. -1.
</event>
<event>
 7    1  0.4096326E-006  0.1607873E+03  0.7561462E-02  0.1187811E+00
          1   -1    0    0  501    0  0.00000000000E+00  0.00000000000E+00  0.60334933836E+03  0.60334933836E+03  0.00000000000E+00 0. -1.
         -1   -1    0    0    0  501 -0.00000000000E+00 -0.00000000000E+00 -0.10116794652E+03  0.10116794652E+03  0.00000000000E+00 0.  1.
         23    2    1    2    0    0 -0.10188285868E+03 -0.54978936604E+02  0.46157959460E+03  0.48485315434E+03  0.92865810485E+02 0.  0.
          5    1    1    2  502    0  0.65118652307E+02 -0.37853372312E+02  0.82064836068E+02  0.11146939666E+03  0.41800000000E+01 0. -1.
         -5    1    1    2    0  502  0.36764206378E+02  0.92832308916E+02 -0.41463038823E+02  0.10819473387E+03  0.41800000000E+01 0.  1.
        -11    1    3    3    0    0  0.12477123542E+02 -0.25059080484E+02  0.59482495838E+02  0.65740424685E+02  0.00000000000E+00 0.  1.
         11    1    3    3    0    0 -0.11435998223E+03 -0.29919856120E+02  0.40209709876E+03  0.41911272966E+03  0.00000000000E+00 0. -1.
</event>
<event>
 7    1  0.4096326E-006  0.1371849E+03  0.7561462E-02  0.1217168E+00
         -3   -1    0    0    0  501 -0.00000000000E+00  0.00000000000E+00  0.38664944995E+02  0.38664944995E+02  0.00000000000E+00 0.  1.
          3   -1    0    0  501    0  0.00000000000E+00 -0.00000000000E+00 -0.54151206343E+03  0.54151206343E+03  0.00000000000E+00 0. -1.
         23    2    1    2    0    0  0.96894445561E+02  0.47963348727E+02 -0.19876705984E+03  0.23405215514E+03  0.59858590410E+02 0.  0.
          5    1    1    2  502    0 -0.11729718892E+03 -0.58895047161E+02 -0.19885109611E+03  0.23829915638E+03  0.41800000000E+01 0. -1.
         -5    1    1    2    0  502  0.20402743356E+02  0.10931698435E+02 -0.10522896248E+03  0.10782569690E+03  0.41800000000E+01 0. -1.
        -11    1    3    3    0    0  0.59079425758E+02  0.55398930663E+02 -0.10449494869E+03  0.13220671075E+03  0.00000000000E+00 0.  1.
         11    1    3    3    0    0  0.37815019803E+02 -0.74355819364E+01 -0.94272111146E+02  0.10184544438E+03  0.00000000000E+00 0. -1.
</event>
<event>
 7    1  0.4096326E-006  0.1882931E+03  0.7561462E-02  0.1160010E+00
          1   -1    0    0  501    0  0.00000000000E+00  0.00000000000E+00  0.49400166324E+02  0.49400166324E+02  0.00000000000E+00 0. -1.
         -1   -1    0    0    0  501 -0.00000000000E+00 -0.00000000000E+00 -0.84181377473E+03  0.84181377473E+03  0.00000000000E+00 0.  1.
         23    2    1    2    0    0 -0.14333665368E+03 -0.92021368447E+02 -0.32160250711E+03  0.37514825061E+03  0.91075292063E+02 0.  0.
          5    1    1    2  502    0  0.14845033137E+03  0.76485375005E+02 -0.29158138391E+03  0.33604268972E+03  0.41800000000E+01 0. -1.
         -5    1    1    2    0  502 -0.51136776873E+01  0.15535993442E+02 -0.17922971739E+03  0.18002300072E+03  0.41800000000E+01 0. -1.
        -11    1    3    3    0    0 -0.39171466021E+01 -0.45517701737E+02 -0.88138938636E+02  0.99275765989E+02  0.00000000000E+00 0.  1.
         11    1    3    3    0    0 -0.13941950708E+03 -0.46503666710E+02 -0.23346356847E+03  0.27587248463E+03  0.00000000000E+00 0. -1.
</event>
<event>
 7    1  0.4096326E-006  0.2044120E+03  0.7561462E-02  0.1146069E+00
         -1   -1    0    0    0  501 -0.00000000000E+00  0.00000000000E+00  0.23104766652E+03  0.23104766652E+03  0.00000000000E+00 0.  1.
          1   -1    0    0  501    0  0.00000000000E+00 -0.00000000000E+00 -0.33605507334E+03  0.33605507334E+03  0.00000000000E+00 0. -1.
         23    2    1    2    0    0 -0.10739009574E+03  0.16033525434E+03 -0.22288987241E+03  0.30850751825E+03  0.90867855392E+02 0.  0.
          5    1    1    2  502    0  0.66028203414E+02 -0.58796306626E+02  0.11968819105E+03  0.14886055487E+03  0.41800000000E+01 0.  1.
         -5    1    1    2    0  502  0.41361892329E+02 -0.10153894772E+03 -0.18057254663E+01  0.10973466674E+03  0.41800000000E+01 0.  1.
        -11    1    3    3    0    0 -0.11971095156E+03  0.12457785049E+03 -0.16208834053E+03  0.23690289760E+03  0.00000000000E+00 0.  1.
         11    1    3    3    0    0  0.12320855823E+02  0.35757403853E+02 -0.60801531883E+02  0.71604620645E+02  0.00000000000E+00 0. -1.
</event>
<event>
 7    1  0.4096326E-006  0.1159751E+03  0.7561462E-02  0.1249889E+00
          2   -1    0    0  501    0  0.00000000000E+00  0.00000000000E+00  0.12403841107E+04  0.12403841107E+04  0.00000000000E+00 0.  1.
         -2   -1    0    0    0  501 -0.00000000000E+00 -0.00000000000E+00 -0.15562705268E+02  0.15562705268E+02  0.00000000000E+00 0. -1.
         23    2    1    2    0    0 -0.75876670850E+02  0.41929079501E+02  0.57110579638E+03  0.58474871800E+03  0.90851063085E+02 0.  0.
          5    1    1    2  502    0  0.25583956527E+02  0.16054842553E+02  0.48314693756E+03  0.48410818261E+03  0.41800000000E+01 0. -1.
         -5    1    1    2    0  502  0.50292714322E+02 -0.57983922053E+02  0.17056867150E+03  0.18708991535E+03  0.41800000000E+01 0. -1.
        -11    1    3    3    0    0 -0.21535902348E+02  0.62790251042E+02  0.26747849870E+03  0.27559237650E+03  0.00000000000E+00 0. -1.
         11    1    3    3    0    0 -0.54340768502E+02 -0.20861171541E+02  0.30362729768E+03  0.30915634151E+03  0.00000000000E+00 0.  1.
</event>
<event>
 7    1  0.4096326E-006  0.1219852E+03  0.7561462E-02  0.1239858E+00
          2   -1    0    0  501    0  0.00000000000E+00  0.00000000000E+00  0.49544816238E+03  0.49544816238E+03  0.00000000000E+00 0. -1.
         -2   -1    0    0    0  501 -0.00000000000E+00 -0.00000000000E+00 -0.33969879147E+02  0.33969879147E+02  0.00000000000E+00 0.  1.
         23    2    1    2    0    0 -0.11335340725E+02  0.63836264672E+02  0.25966385418E+03  0.28328812861E+03  0.92861660593E+02 0.  0.
          5    1    1    2  502    0 -0.16722320227E+02  0.30920153525E+02  0.24362657280E+02  0.42973286557E+02  0.41800000000E+01 0. -1.
         -5    1    1    2    0  502  0.28057660952E+02 -0.94756418197E+02  0.17745177177E+03  0.20315662636E+03  0.41800000000E+01 0. -1.
        -11    1    3    3    0    0 -0.25036450097E+02 -0.15302570947E+02  0.41629628566E+02  0.50931507789E+02  0.00000000000E+00 0.  1.
         11    1    3    3    0    0  0.13701109372E+02  0.79138835620E+02  0.21803422561E+03  0.23235662082E+03  0.00000000000E+00 0. -1.
</event>
<event>
 7    1  0.5484280E-006  0.2447214E+03  0.7561462E-02  0.1116687E+00
         -1   -1    0    0    0  501 -0.00000000000E+00  0.00000000000E+00  0.68902902744E+02  0.68902902744E+02  0.00000000000E+00 0.  1.
          1   -1    0    0  501    0  0.00000000000E+00 -0.00000000000E+00 -0.99729964977E+03  0.99729964977E+03  0.00000000000E+00 0. -1.
         23    2    1    2    0    0 -0.11627198190E+03  0.20418460305E+03 -0.53694204450E+03  0.59281558503E+03  0.88955229228E+02 0.  0.
          5    1    1    2  502    0  0.29287157897E+02 -0.89390365472E+00 -0.11819754189E+03  0.12184690390E+03  0.41800000000E+01 0. -1.
         -5    1    1    2    0  502  0.86984824004E+02 -0.20329069939E+03 -0.27325716064E+03  0.35154006359E+03  0.41800000000E+01 0. -1.
        -11    1    3    3    0    0 -0.29988832623E+02  0.94430365111E+02 -0.31864684366E+03  0.33369482302E+03  0.00000000000E+00 0. -1.
         11    1    3    3    0    0 -0.86283149278E+02  0.10975423793E+03 -0.21829520084E+03  0.25912076200E+03  0.00000000000E+00 0.  1.
</event>
<event>
 7    1  0.4096326E-006  0.1271378E+03  0.7561462E-02  0.1231766E+00
          1   -1    0    0  501    0  0.00000000000E+00  0.00000000000E+00  0.11109772053E+03  0.11109772053E+03  0.00000000000E+00 0. -1.
         -1   -1    0    0    0  501 -0.00000000000E+00 -0.00000000000E+00 -0.21739302670E+03  0.21739302670E+03  0.00000000000E+00 0.  1.
         23    2    1    2    0    0 -0.33326336291E+02 -0.95112457451E+02  0.65608751554E+01  0.13605564957E+03  0.91165072502E+02 0.  0.
          5    1    1    2  502    0 -0.22406123710E+02 -0.16834827765E+02 -0.35138390526E+02  0.45140056428E+02  0.41800000000E+01 0. -1.
         -5    1    1    2    0  502  0.55732460001E+02  0.11194728522E+03 -0.77717790796E+02  0.14729504123E+03  0.41800000000E+01 0.  1.
        -11    1    3    3    0    0 -0.10323980852E+02 -0.25883452575E+02 -0.40559909451E+02  0.49210201712E+02  0.00000000000E+00 0.  1.
         11    1    3    3    0    0 -0.23002355440E+02 -0.69229004876E+02  0.47120784606E+02  0.86845447859E+02  0.00000000000E+00 0. -1.
</event>
<event>
 7    1  0.4096326E-006  0.1862185E+03  0.7561462E-02  0.1161917E+00
          1   -1    0    0  501    0  0.00000000000E+00  0.00000000000E+00  0.90662246734E+03  0.90662246734E+03  0.00000000000E+00 0. -1.
         -1   -1    0    0    0  501 -0.00000000000E+00 -0.00000000000E+00 -0.49736982638E+02  0.49736982638E+02  0.00000000000E+00 0.  1.
         23    2    1    2    0    0 -0.15729302482E+03  0.71136213108E+02  0.54390582142E+03  0.57767085760E+03  0.89825501202E+02 0.  0.
          5    1    1    2  502    0  0.67188457857E+02 -0.66150652377E+02  0.64549921025E+02  0.11434317812E+03  0.41800000000E+01 0.  1.
         -5    1    1    2    0  502  0.90104566960E+02 -0.49855607313E+01  0.24842974226E+03  0.26434541426E+03  0.41800000000E+01 0.  1.
        -11    1    3    3    0    0 -0.43981356005E+02  0.59241750305E+02  0.14331640775E+03  0.16119409848E+03  0.00000000000E+00 0.  1.
         11    1    3    3    0    0 -0.11331166881E+03  0.11894462803E+02  0.40058941368E+03  0.41647675912E+03  0.00000000000E+00 0. -1.
</event>
<event>
 7    1  0.4096326E-006  0.1399236E+03  0.7561462E-02  0.1213432E+00
         -2   -1    0    0    0  501 -0.00000000000E+00  0.00000000000E+00  0.70852141227E+02  0.70852141227E+02  0.00000000000E+00 0.  1.
          2   -1    0    0  501    0  0.00000000000E+00 -0.00000000000E+00 -0.12536417277E+04  0.12536417277E+04  0.00000000000E+00 0. -1.
         23    2    1    2    0    0 -0.10763040456E+02  0.12732082839E+03 -0.38553132583E+03  0.41593379074E+03  0.89666485953E+02 0.  0.
          5    1    1    2  502    0  0.50658250008E+01 -0.10686042318E+03 -0.84730003565E+03  0.85403725647E+03  0.41800000000E+01 0. -1.
         -5    1    1    2    0  502  0.56972154547E+01 -0.20460405209E+02  0.50041774993E+02  0.54522821732E+02  0.41800000000E+01 0.  1.
        -11    1    3    3    0    0  0.30756894043E+02  0.21674848750E+02 -0.14747585533E+03  0.15220024147E+03  0.00000000000E+00 0. -1.
         11    1    3    3    0    0 -0.41519934499E+02  0.10564597964E+03 -0.23805547051E+03  0.26373354927E+03  0.00000000000E+00 0.  1.
</event>
<event>
 7    1  0.4096326E-006  0.1331298E+03  0.7561462E-02  0.1222884E+00
          2   -1    0    0  501    0  0.00000000000E+00  0.00000000000E+00  0.12230887488E+03  0.12230887488E+03  0.00000000000E+00 0. -1.
         -2   -1    0    0    0  501 -0.00000000000E+00 -0.00000000000E+00 -0.17743024353E+03  0.17743024353E+03  0.00000000000E+00 0.  1.
         23    2    1    2    0    0  0.24080618954E+02  0.90160463504E+02  0.66910990934E+01  0.13187781961E+03  0.92941934069E+02 0.  0.
          5    1    1    2  502    0  0.35017170798E+02 -0.58455577775E+02  0.10585536969E+02  0.69085329967E+02  0.41800000000E+01 0.  1.
         -5    1    1    2    0  502 -0.59097789751E+02 -0.31704885729E+02 -0.72398004710E+02  0.98775968831E+02  0.41800000000E+01 0.  1.
        -11    1    3    3    0    0  0.58929317663E+02  0.65473428057E+02 -0.27872105032E+01  0.88131735511E+02  0.00000000000E+00 0.  1.
         11    1    3    3    0    0 -0.34848698709E+02  0.24687035447E+02  0.94783095966E+01  0.43746084096E+02  0.00000000000E+00 0. -1.
</event>
<event>
 7    1  0.4096326E-006  0.8964042E+02  0.7561462E-02  0.1303725E+00
         -1   -1    0    0    0  501 -0.00000000000E+00  0.00000000000E+00  0.14905571910E+03  0.14905571910E+03  0.00000000000E+00 0.  1.
          1   -1    0    0  501    0  0.00000000000E+00 -0.00000000000E+00 -0.94038351399E+02  0.94038351399E+02  0.00000000000E+00 0. -1.
         23    2    1    2    0    0 -0.45115515818E+02  0.62514732165E+01  0.12825766459E+02  0.10344484395E+03  0.91988286050E+02 0.  0.
          5    1    1    2  502    0  0.50081814370E+02  0.51902681654E+02  0.10209762069E+02  0.72964293562E+02  0.41800000000E+01 0. -1.
         -5    1    1    2    0  502 -0.49662985516E+01 -0.58154154870E+02  0.31981839169E+02  0.66684932981E+02  0.41800000000E+01 0. -1.
        -11    1    3    3    0    0 -0.12492333193E+02 -0.57581679330E+01  0.50407239949E+02  0.52250404073E+02  0.00000000000E+00 0.  1.
         11    1    3    3    0    0 -0.32623182625E+02  0.12009641150E+02 -0.37581473489E+02  0.51194439881E+02  0.00000000000E+00 0. -1.
</event>
<event>
 7    1  0.4096326E-006  0.2202302E+03  0.7561462E-02  0.1133712E+00
          2   -1    0    0  501    0  0.00000000000E+00  0.00000000000E+00  0.47731677761E+03  0.47731677761E+03  0.00000000000E+00 0. -1.
         -2   -1    0    0    0  501 -0.00000000000E+00 -0.00000000000E+00 -0.12119010433E+03  0.12119010433E+03  0.00000000000E+00 0.  1.
         23    2    1    2    0    0  0.12429484563E+03  0.54577033615E+02  0.24298629664E+03  0.29259784330E+03  0.90240214420E+02 0.  0.
          5    1    1    2  502    0 -0.18494397695E+03 -0.91669093621E+02  0.11157102697E+03  0.23467650883E+03  0.41800000000E+01 0. -1.
         -5    1    1    2    0  502  0.60649131321E+02  0.37092060005E+02  0.15693496704E+01  0.71232529815E+02  0.41800000000E+01 0.  1.
        -11    1    3    3    0    0  0.44221789261E+02  0.68478617217E+02  0.11408427548E+03  0.14021451271E+03  0.00000000000E+00 0.  1.
         11    1    3    3    0    0  0.80073056369E+02 -0.13901583602E+02  0.12890202116E+03  0.15238333059E+03  0.00000000000E+00 0. -1.
</event>
<event>
 7    1  0.4096326E-006  0.1955102E+03  0.7561462E-02  0.1153583E+00
         -1   -1    0    0    0  501 -0.00000000000E+00  0.00000000000E+00  0.42626904753E+03  0.42626904753E+03  0.00000000000E+00 0.  1.
          1   -1    0    0  501    0  0.00000000000E+00 -0.00000000000E+00 -0.16436398680E+03  0.16436398680E+03  0.00000000000E+00 0. -1.
         23    2    1    2    0    0 -0.18023537090E+03 -0.65388686447E+01 -0.55605483128E+02  0.20863825809E+03  0.88940470306E+02 0.  0.
          5    1    1    2  502    0  0.18432785756E+03  0.40188144938E+01  0.32405863426E+03  0.37285973339E+03  0.41800000000E+01 0.  1.
         -5    1    1    2    0  502 -0.40924866607E+01  0.25200541508E+01 -0.65480904067E+01  0.91350428552E+01  0.41800000000E+01 0. -1.
        -11    1    3    3    0    0 -0.95179913139E+02 -0.46875134549E+02 -0.39070052007E+02  0.11306176661E+03  0.00000000000E+00 0. -1.
         11    1    3    3    0    0 -0.85055457763E+02  0.40336265904E+02 -0.16535431121E+02  0.95576491486E+02  0.00000000000E+00 0.  1.
</event>
<event>
 7    1  0.4096326E-006  0.1431640E+03  0.7561462E-02  0.1209134E+00
         -2   -1    0    0    0  501 -0.00000000000E+00  0.00000000000E+00  0.51370388564E+02  0.51370388564E+02  0.00000000000E+00 0.  1.
          2   -1    0    0  501    0  0.00000000000E+00 -0.00000000000E+00 -0.85782021693E+03  0.85782021693E+03  0.00000000000E+00 0. -1.
         23    2    1    2    0    0  0.10615772414E+02 -0.11881385531E+03 -0.67628699029E+03  0.69281204408E+03  0.91624278106E+02 0.  0.
          5    1    1    2  502    0 -0.38096340514E+02  0.37902576066E+02  0.73743726531E+01  0.54403953946E+02  0.41800000000E+01 0.  1.
         -5    1    1    2    0  502  0.27480568100E+02  0.80911279242E+02 -0.13753721073E+03  0.16197460747E+03  0.41800000000E+01 0.  1.
        -11    1    3    3    0    0  0.18698417991E+01 -0.13147323344E+03 -0.64050774752E+03  0.65386457470E+03  0.00000000000E+00 0. -1.
         11    1    3    3    0    0  0.87459306152E+01  0.12659378132E+02 -0.35779242778E+02  0.38947469376E+02  0.00000000000E+00 0.  1.
</event>
<event>
 7    1  0.4096326E-006  0.1442923E+03  0.7561462E-02  0.1207667E+00
         -1   -1    0    0    0  501 -0.00000000000E+00  0.00000000000E+00  0.58982720415E+03  0.58982720415E+03  0.00000000000E+00 0.  1.
          1   -1    0    0  501    0  0.00000000000E+00 -0.00000000000E+00 -0.38707611684E+02  0.38707611684E+02  0.00000000000E+00 0. -1.
         23    2    1    2    0    0  0.80506452423E+01  0.10516761295E+03  0.26531361898E+03  0.29919256866E+03  0.89441808021E+02 0.  0.
          5    1    1    2  502    0  0.20314915212E+02 -0.11969237700E+03  0.26369564272E+03  0.29033054486E+03  0.41800000000E+01 0. -1.
         -5    1    1    2    0  502 -0.28365560454E+02  0.14524764045E+02  0.22110330763E+02  0.39011702307E+02  0.41800000000E+01 0. -1.
        -11    1    3    3    0    0 -0.37435642928E+02  0.60964992328E+02  0.10770225124E+03  0.12929784442E+03  0.00000000000E+00 0.  1.
         11    1    3    3    0    0  0.45486288170E+02  0.44202620625E+02  0.15761136775E+03  0.16989472424E+03  0.00000000000E+00 0. -1.
</event>
<event>
 7    1  0.4096326E-006  0.2203042E+03  0.7561462E-02  0.1133656E+00
         -2   -1    0    0    0  501 -0.00000000000E+00  0.00000000000E+00  0.65732168999E+02  0.65732168999E+02  0.00000000000E+00 0.  1.
          2   -1    0    0  501    0  0.00000000000E+00 -0.00000000000E+00 -0.78301775609E+03  0.78301775609E+03  0.00000000000E+00 0. -1.
         23    2    1    2    0    0 -0.14786894329E+03 -0.12708749923E+03 -0.42487456190E+03  0.47569686096E+03  0.88049152882E+02 0.  0.
          5    1    1    2  502    0 -0.22534043324E+02  0.19243370402E+02 -0.35980092442E+02  0.46798823331E+02  0.41800000000E+01 0.  1.
         -5    1    1    2    0  502  0.17040298662E+03  0.10784412883E+03 -0.25643093275E+03  0.32625424080E+03  0.41800000000E+01 0.  1.
        -11    1    3    3    0    0 -0.49709895902E+02 -0.17016465843E+01 -0.62482893959E+02  0.79862891190E+02  0.00000000000E+00 0. -1.
         11    1    3    3    0    0 -0.98159047390E+02 -0.12538585265E+03 -0.36239166794E+03  0.39583396977E+03  0.00000000000E+00 0.  1.
</event>
<event>
 7    1  0.4096326E-006  0.1033022E+03  0.7561462E-02  0.1273501E+00
         -1   -1    0    0    0  501 -0.00000000000E+00  0.00000000000E+00  0.12249023788E+03  0.12249023788E+03  0.00000000000E+00 0.  1.
          1   -1    0    0  501    0  0.00000000000E+00 -0.00000000000E+00 -0.13411908928E+03  0.13411908928E+03  0.00000000000E+00 0. -1.
         23    2    1    2    0    0  0.11014114606E+02 -0.20217631488E+02 -0.74562421463E+02  0.11470277447E+03  0.84066095622E+02 0.  0.
          5    1    1    2  502    0  0.34432035543E+02 -0.35680896275E+02  0.62677498518E+01  0.50154247266E+02  0.41800000000E+01 0.  1.
         -5    1    1    2    0  502 -0.45446150149E+02  0.55898527763E+02  0.56665820214E+02  0.91752305420E+02  0.41800000000E+01 0.  1.
        -11    1    3    3    0    0 -0.11596850737E+02  0.28610372878E+02 -0.40857220782E+02  0.51208914002E+02  0.00000000000E+00 0. -1.
         11    1    3    3    0    0  0.22610965343E+02 -0.48828004366E+02 -0.33705200681E+02  0.63493860468E+02  0.00000000000E+00 0.  1.
</event>
<event>
 7    1  0.4096326E-006  0.1217033E+03  0.7561462E-02  0.1240313E+00
         -4   -1    0    0    0  501 -0.00000000000E+00  0.00000000000E+00  0.34623207076E+02  0.34623207076E+02  0.00000000000E+00 0.  1.
          4   -1    0    0  501    0  0.00000000000E+00 -0.00000000000E+00 -0.71385211360E+03  0.71385211360E+03  0.00000000000E+00 0. -1.
         23    2    1    2    0    0  0.58621861640E+02  0.15168568684E+02 -0.54263839826E+03  0.55240668139E+03  0.83845704909E+02 0.  0.
          5    1    1    2  502    0 -0.28926300761E+02  0.55872053475E+02 -0.53301347135E+02  0.82564660974E+02  0.41800000000E+01 0. -1.
         -5    1    1    2    0  502 -0.29695560879E+02 -0.71040622159E+02 -0.83289161123E+02  0.11350397831E+03  0.41800000000E+01 0.  1.
        -11    1    3    3    0    0 -0.21703347611E+02  0.50298068801E+01 -0.13119750974E+03  0.13307562067E+03  0.00000000000E+00 0.  1.
         11    1    3    3    0    0  0.80325209250E+02  0.10138761804E+02 -0.41144088852E+03  0.41933106072E+03  0.00000000000E+00 0. -1.
</event>
<event>
 7    1  0.4096326E-006  0.1089446E+03  0.7561462E-02  0.1262537E+00
          1   -1    0    0  501    0  0.00000000000E+00  0.00000000000E+00  0.11066974571E+03  0.11066974571E+03  0.00000000000E+00 0. -1.
         -1   -1    0    0    0  501 -0.00000000000E+00 -0.00000000000E+00 -0.12682291003E+03  0.12682291003E+03  0.00000000000E+00 0.  1.
         23    2    1    2    0    0 -0.10879762569E+02  0.22088267653E+02  0.35252999127E+02  0.10003075929E+03  0.90316765087E+02 0.  0.
          5    1    1    2  502    0  0.33572886704E+02 -0.68006076978E+02 -0.33827290444E+02  0.83148801593E+02  0.41800000000E+01 0. -1.
         -5    1    1    2    0  502 -0.22693124135E+02  0.45917809325E+02 -0.17578873006E+02  0.54313094852E+02  0.41800000000E+01 0. -1.
        -11    1    3    3    0    0 -0.38049025093E+02 -0.18018524969E+02  0.29145993742E+02  0.51204340673E+02  0.00000000000E+00 0. -1.
         11    1    3    3    0    0  0.27169262524E+02  0.40106792622E+02  0.61070053850E+01  0.48826418620E+02  0.00000000000E+00 0.  1.
</event>
<event>
 7    1  0.4096326E-006  0.1040020E+03  0.7561462E-02  0.1272099E+00
          2   -1    0    0  501    0  0.00000000000E+00  0.00000000000E+00  0.38502167080E+03  0.38502167080E+03  0.00000000000E+00 0. -1.
         -2   -1    0    0    0  501 -0.00000000000E+00 -0.00000000000E+00 -0.32738545171E+02  0.32738545171E+02  0.00000000000E+00 0.  1.
         23    2    1    2    0    0 -0.88209880948E+01  0.28435786112E+02  0.16223379564E+03  0.18830112856E+03  0.90835603180E+02 0.  0.
          5    1    1    2  502    0  0.36237648495E+02  0.36668673464E+02  0.47107801071E+02  0.69959817781E+02  0.41800000000E+01 0.  1.
         -5    1    1    2    0  502 -0.27416660401E+02 -0.65104459577E+02  0.14294152892E+03  0.15949926964E+03  0.41800000000E+01 0.  1.
        -11    1    3    3    0    0  0.32554684745E+02 -0.41916805604E+01  0.10718560672E+03  0.11209875991E+03  0.00000000000E+00 0. -1.
         11    1    3    3    0    0 -0.41375672840E+02  0.32627466673E+02  0.55048188922E+02  0.76202368652E+02  0.00000000000E+00 0.  1.
</event>
<event>
 7    1  0.4096326E-006  0.7290885E+02  0.7561462E-02  0.1350472E+00
          2   -1    0    0  501    0  0.00000000000E+00  0.00000000000E+00  0.27938222416E+03  0.27938222416E+03  0.00000000000E+00 0. -1.
         -2   -1    0    0    0  501 -0.00000000000E+00 -0.00000000000E+00 -0.51739691141E+02  0.51739691141E+02  0.00000000000E+00 0.  1.
         23    2    1    2    0    0  0.39056387886E+02 -0.37177075130E+02  0.91950896138E+02  0.13885451649E+03  0.88983555219E+02 0.  0.
          5    1    1    2  502    0 -0.36592067632E+01 -0.28674182450E+01  0.13844596146E+03  0.13858704314E+03  0.41800000000E+01 0.  1.
         -5    1    1    2    0  502 -0.35397181123E+02  0.40044493375E+02 -0.27543245775E+01  0.53680355672E+02  0.41800000000E+01 0.  1.
        -11    1    3    3    0    0 -0.18484726881E+02 -0.16606615799E+02  0.69407188833E+02  0.73721249839E+02  0.00000000000E+00 0. -1.
         11    1    3    3    0    0  0.57541114767E+02 -0.20570459331E+02  0.22543707305E+02  0.65133266652E+02  0.00000000000E+00 0.  1.
</event>
<event>
 7    1  0.9526087E-006  0.1808649E+03  0.7561462E-02  0.1166969E+00
         -2   -1    0    0    0  501 -0.00000000000E+00  0.00000000000E+00  0.59243965206E+02  0.59243965206E+02  0.00000000000E+00 0.  1.
          2   -1    0    0  501    0  0.00000000000E+00 -0.00000000000E+00 -0.74871857139E+03  0.74871857139E+03  0.00000000000E+00 0. -1.
         23    2    1    2    0    0  0.37510751940E+02  0.17510467391E+03 -0.28282416561E+03  0.34635575496E+03  0.88904988665E+02 0.  0.
          5    1    1    2  502    0 -0.35807812837E+02 -0.83949934089E+02 -0.76773858022E+02  0.11933770808E+03  0.41800000000E+01 0. -1.
         -5    1    1    2    0  502 -0.17029391035E+01 -0.91154739820E+02 -0.32987658256E+03  0.34226907356E+03  0.41800000000E+01 0. -1.
        -11    1    3    3    0    0  0.93352644628E+01  0.49700418891E+02 -0.16289155857E+03  0.17056065975E+03  0.00000000000E+00 0. -1.
         11    1    3    3    0    0  0.28175487477E+02  0.12540425502E+03 -0.11993260704E+03  0.17579509522E+03  0.00000000000E+00 0.  1.
</event>
<event>
 7    1  0.4096326E-006  0.5253548E+02  0.7561462E-02  0.1432127E+00
         -2   -1    0    0    0  501 -0.00000000000E+00  0.00000000000E+00  0.48431749138E+02  0.48431749138E+02  0.00000000000E+00 0.  1.
          2   -1    0    0  501    0  0.00000000000E+00 -0.00000000000E+00 -0.25878610701E+03  0.25878610701E+03  0.00000000000E+00 0. -1.
         23    2    1    2    0    0  0.99240473725E+01  0.69984450092E+01 -0.13928226624E+03  0.16283851540E+03  0.83482737507E+02 0.  0.
          5    1    1    2  502    0  0.37673420255E+01 -0.40136860341E+01 -0.10615034492E+03  0.10637514121E+03  0.41800000000E+01 0. -1.
         -5    1    1    2    0  502 -0.13691389398E+02 -0.29847589750E+01  0.35078253277E+02  0.38004199541E+02  0.41800000000E+01 0. -1.
        -11    1    3    3    0    0 -0.35035806903E+02  0.14567024613E+02 -0.74703405221E+02  0.83787258716E+02  0.00000000000E+00 0.  1.
         11    1    3    3    0    0  0.44959854276E+02 -0.75685796037E+01 -0.64578861014E+02  0.79051256686E+02  0.00000000000E+00 0. -1.
</event>
<event>
 7    1  0.4096326E-006  0.7988287E+02  0.7561462E-02  0.1329384E+00
          1   -1    0    0  501    0  0.00000000000E+00  0.00000000000E+00  0.46999923670E+03  0.46999923670E+03  0.00000000000E+00 0. -1.
         -1   -1    0    0    0  501 -0.00000000000E+00 -0.00000000000E+00 -0.43512969379E+02  0.43512969379E+02  0.00000000000E+00 0.  1.
         23    2    1    2    0    0 -0.53820606891E+02 -0.10630485822E+02  0.32953127173E+03  0.34600862009E+03  0.90119038892E+02 0.  0.
          5    1    1    2  502    0 -0.54311994738E+01 -0.34458804032E+01 -0.27679415839E+02  0.28722717153E+02  0.41800000000E+01 0.  1.
         -5    1    1    2    0  502  0.59251806365E+02  0.14076366225E+02  0.12463441143E+03  0.13878086884E+03  0.41800000000E+01 0.  1.
        -11    1    3    3    0    0  0.18204130194E+02 -0.45842610824E+01  0.17325656817E+02  0.25545727430E+02  0.00000000000E+00 0.  1.
         11    1    3    3    0    0 -0.72024737086E+02 -0.60462247396E+01  0.31220561491E+03  0.32046289266E+03  0.00000000000E+00 0. -1.
</event>
<event>
 7    1  0.4096326E-006  0.1396235E+03  0.7561462E-02  0.1213836E+00
          2   -1    0    0  501    0  0.00000000000E+00  0.00000000000E+00  0.19353296955E+03  0.19353296955E+03  0.00000000000E+00 0. -1.
         -2   -1    0    0    0  501 -0.00000000000E+00 -0.00000000000E+00 -0.10875140463E+03  0.10875140463E+03  0.00000000000E+00 0.  1.
         23    2    1    2    0    0  0.34563223521E+02 -0.87389049757E+02  0.20848024143E+02  0.13326868534E+03  0.92165285996E+02 0.  0.
          5    1    1    2  502    0 -0.73694342280E+02  0.28698898216E+02  0.57883727965E+02  0.98094246549E+02  0.41800000000E+01 0. -1.
         -5    1    1    2    0  502  0.39131118759E+02  0.58690151541E+02  0.60498128128E+01  0.70921442303E+02  0.41800000000E+01 0. -1.
        -11    1    3    3    0    0 -0.18103617445E+02 -0.72401452759E+02 -0.12814890024E+00  0.74630608656E+02  0.00000000000E+00 0.  1.
         11    1    3    3    0    0  0.52666840966E+02 -0.14987596998E+02  0.20976173043E+02  0.58638076679E+02  0.00000000000E+00 0. -1.
</event>
<event>
 7    1  0.4096326E-006  0.1092497E+03  0.7561462E-02  0.1261966E+00
          1   -1    0    0  501    0  0.00000000000E+00  0.00000000000E+00  0.64417733555E+02  0.64417733555E+02  0.00000000000E+00 0. -1.
         -1   -1    0    0    0  501 -0.00000000000E+00 -0.00000000000E+00 -0.23999565101E+03  0.23999565101E+03  0.00000000000E+00 0.  1.
         23    2    1    2    0    0 -0.52444415756E+02  0.46714549946E+02 -0.10081429271E+03  0.15345382120E+03  0.91934148751E+02 0.  0.
          5    1    1    2  502    0  0.77730450563E+02 -0.14541774061E+02 -0.18600389334E+02  0.81344532827E+02  0.41800000000E+01 0. -1.
         -5    1    1    2    0  502 -0.25286034806E+02 -0.32172775886E+02 -0.56163235406E+02  0.69615030530E+02  0.41800000000E+01 0.  1.
        -11    1    3    3    0    0 -0.68597833971E+02  0.44751422601E+02 -0.10810051036E+03  0.13562475065E+03  0.00000000000E+00 0.  1.
         11    1    3    3    0    0  0.16153418215E+02  0.19631273454E+01  0.72862176484E+01  0.17829070549E+02  0.00000000000E+00 0. -1.
</event>
<event>
 7    1  0.4096326E-006  0.1222972E+03  0.7561462E-02  0.1239355E+00
          2   -1    0    0  501    0  0.00000000000E+00  0.00000000000E+00  0.43504023403E+03  0.43504023403E+03  0.00000000000E+00 0. -1.
         -2   -1    0    0    0  501 -0.00000000000E+00 -0.00000000000E+00 -0.62574202609E+02  0.62574202609E+02  0.00000000000E+00 0.  1.
         23    2    1    2    0    0  0.64221370777E+02 -0.70325518627E+02  0.29098554712E+03  0.32053954468E+03  0.94883866059E+02 0.  0.
          5    1    1    2  502    0  0.11760124609E+01  0.39189590312E+02 -0.26122508854E+02  0.47297620056E+02  0.41800000000E+01 0. -1.
         -5    1    1    2    0  502 -0.65397383238E+02  0.31135928315E+02  0.10760299316E+03  0.12977727191E+03  0.41800000000E+01 0. -1.
        -11    1    3    3    0    0 -0.22526651610E+02 -0.28445803344E+02  0.10492386571E+03  0.11102086000E+03  0.00000000000E+00 0. -1.
         11    1    3    3    0    0  0.86748022387E+02 -0.41879715283E+02  0.18606168141E+03  0.20951868468E+03  0.00000000000E+00 0.  1.
</event>
<event>
 7    1  0.4096326E-006  0.6497002E+02  0.7561462E-02  0.1378084E+00
          1   -1    0    0  501    0  0.00000000000E+00  0.00000000000E+00  0.10094543312E+03  0.10094543312E+03  0.00000000000E+00 0. -1.
         -1   -1    0    0    0  501 -0.00000000000E+00 -0.00000000000E+00 -0.14596832462E+03  0.14596832462E+03  0.00000000000E+00 0.  1.
         23    2    1    2    0    0  0.42687973371E+02  0.21280014965E+02  0.46494754051E+01  0.10411698581E+03  0.92431742417E+02 0.  0.
          5    1    1    2  502    0 -0.43907321698E+02  0.11798866520E+02 -0.83573379323E+02  0.95231550871E+02  0.41800000000E+01 0. -1.
         -5    1    1    2    0  502  0.12193483272E+01 -0.33078881485E+02  0.33901012421E+02  0.47565221053E+02  0.41800000000E+01 0. -1.
        -11    1    3    3    0    0  0.31058210324E+02  0.23665707212E+02 -0.41195113006E+02  0.56760157346E+02  0.00000000000E+00 0.  1.
         11    1    3    3    0    0  0.11629763046E+02 -0.23856922470E+01  0.45844588411E+02  0.47356828469E+02  0.00000000000E+00 0. -1.
</event>
<event>
 7    1  0.4096326E-006  0.1175291E+03  0.7561462E-02  0.1247230E+00
          1   -1    0    0  501    0  0.00000000000E+00  0.00000000000E+00  0.84528328907E+02  0.84528328907E+02  0.00000000000E+00 0. -1.
         -1   -1    0    0    0  501 -0.00000000000E+00 -0.00000000000E+00 -0.24576281817E+03  0.24576281817E+03  0.00000000000E+00 0.  1.
         23    2    1    2    0    0 -0.20150731268E+02  0.58023158272E+02  0.95389286577E+01  0.10987189557E+03  0.90598583925E+02 0.  0.
          5    1    1    2  502    0  0.48705566398E+02  0.22200124521E+02 -0.57835452087E+02  0.78914445097E+02  0.41800000000E+01 0.  1.
         -5    1    1    2    0  502 -0.28554835129E+02 -0.80223282793E+02 -0.11293796583E+03  0.14150480641E+03  0.41800000000E+01 0.  1.
        -11    1    3    3    0    0 -0.41963926362E+02  0.96652928734E+01 -0.21790118303E+02  0.48261768075E+02  0.00000000000E+00 0.  1.
         11    1    3    3    0    0  0.21813195094E+02  0.48357865399E+02  0.31329046961E+02  0.61610127492E+02  0.00000000000E+00 0. -1.
</event>
<event>
 7    1  0.4096326E-006  0.1031806E+03  0.7561462E-02  0.1273746E+00
          2   -1    0    0  501    0  0.00000000000E+00  0.00000000000E+00  0.98089773764E+03  0.98089773764E+03  0.00000000000E+00 0. -1.
         -2   -1    0    0    0  501 -0.00000000000E+00 -0.00000000000E+00 -0.13233524814E+02  0.13233524814E+02  0.00000000000E+00 0.  1.
         23    2    1    2    0    0 -0.34533496283E+02 -0.69233782484E+01  0.40877885253E+03  0.42033716943E+03  0.91338328196E+02 0.  0.
          5    1    1    2  502    0  0.67554773049E+02 -0.21417379416E+02  0.19940243366E+03  0.21166283201E+03  0.41800000000E+01 0.  1.
         -5    1    1    2    0  502 -0.33021276767E+02  0.28340757665E+02  0.35948292663E+03  0.36213126102E+03  0.41800000000E+01 0.  1.
        -11    1    3    3    0    0 -0.28710582273E+02  0.37287993200E+02  0.28302469818E+03  0.28691056403E+03  0.00000000000E+00 0. -1.
         11    1    3    3    0    0 -0.58229140097E+01 -0.44211371449E+02  0.12575415435E+03  0.13342660541E+03  0.00000000000E+00 0.  1.
</event>
<event>
 7    1  0.4096326E-006  0.8430232E+02  0.7561462E-02  0.1317267E+00
          1   -1    0    0  501    0  0.00000000000E+00  0.00000000000E+00  0.11046636605E+03  0.11046636605E+03  0.00000000000E+00 0. -1.
         -1   -1    0    0    0  501 -0.00000000000E+00 -0.00000000000E+00 -0.24550645439E+03  0.24550645439E+03  0.00000000000E+00 0.  1.
         23    2    1    2    0    0 -0.38892424264E+01  0.12849415415E+02  0.72636565240E+02  0.11690275086E+03  0.90608768155E+02 0.  0.
          5    1    1    2  502    0 -0.73505964990E+01 -0.47317020381E+02 -0.27796375974E+02  0.55525152894E+02  0.41800000000E+01 0. -1.
         -5    1    1    2    0  502  0.11239838925E+02  0.34467604967E+02 -0.17988027760E+03  0.18354491669E+03  0.41800000000E+01 0.  1.
        -11    1    3    3    0    0 -0.30754851508E+02 -0.23597972332E+02  0.57133905800E+02  0.69043525268E+02  0.00000000000E+00 0.  1.
         11    1    3    3    0    0  0.26865609082E+02  0.36447387747E+02  0.15502659439E+02  0.47859225595E+02  0.00000000000E+00 0. -1.
</event>
<event>
 7    1  0.4096326E-006  0.1211994E+03  0.7561462E-02  0.1241131E+00
         -1   -1    0    0    0  501 -0.00000000000E+00  0.00000000000E+00  0.92035532555E+03  0.92035532555E+03  0.00000000000E+00 0.  1.
          1   -1    0    0  501    0  0.00000000000E+00 -0.00000000000E+00 -0.19378416514E+02  0.19378416514E+02  0.00000000000E+00 0. -1.
         23    2    1    2    0    0 -0.41882323408E+02  0.66519662777E+02  0.44305238552E+03  0.45856850695E+03  0.88377965057E+02 0.  0.
          5    1    1    2  502    0 -0.31239896832E+02 -0.14810024507E+02  0.37050069055E+02  0.50847300783E+02  0.41800000000E+01 0. -1.
         -5    1    1    2    0  502  0.73122220240E+02 -0.51709638270E+02  0.42087445446E+03  0.43031793432E+03  0.41800000000E+01 0. -1.
        -11    1    3    3    0    0 -0.34339377385E+02 -0.13972717522E+02  0.15639015776E+03  0.16072433269E+03  0.00000000000E+00 0. -1.
         11    1    3    3    0    0 -0.75429460229E+01  0.80492380299E+02  0.28666222776E+03  0.29784417426E+03  0.00000000000E+00 0.  1.
</event>
<event>
 7    1  0.4096326E-006  0.1486636E+03  0.7561462E-02  0.1202125E+00
         -1   -1    0    0    0  501 -0.00000000000E+00  0.00000000000E+00  0.23052636898E+03  0.23052636898E+03  0.00000000000E+00 0.  1.
          1   -1    0    0  501    0  0.00000000000E+00 -0.00000000000E+00 -0.13372032497E+03  0.13372032497E+03  0.00000000000E+00 0. -1.
         23    2    1    2    0    0 -0.11042300555E+03 -0.24245969261E+02 -0.36425787900E+02  0.14935341585E+03  0.90545555503E+02 0.  0.
          5    1    1    2  502    0 -0.73833810794E+01 -0.31477442797E+02  0.68600618255E+01  0.33314810062E+02  0.41800000000E+01 0. -1.
         -5    1    1    2    0  502  0.11780638663E+03  0.55723412059E+02  0.12637177008E+03  0.18157846804E+03  0.41800000000E+01 0. -1.
        -11    1    3    3    0    0 -0.72809748923E+02  0.20734272881E+02  0.75220694882E+01  0.76077270847E+02  0.00000000000E+00 0.  1.
         11    1    3    3    0    0 -0.37613256628E+02 -0.44980242142E+02 -0.43947857388E+02  0.73276145002E+02  0.00000000000E+00 0. -1.
</event>
<event>
 7    1  0.4096326E-006  0.8089301E+02  0.7561462E-02  0.1326536E+00
          1   -1    0    0  501    0  0.00000000000E+00  0.00000000000E+00  0.83327891854E+02  0.83327891854E+02  0.00000000000E+00 0. -1.
         -1   -1    0    0    0  501 -0.00000000000E+00 -0.00000000000E+00 -0.15711000265E+03  0.15711000265E+03  0.00000000000E+00 0.  1.
         23    2    1    2    0    0 -0.22957203471E+02 -0.32007212076E+02 -0.34030906937E+02  0.10339875574E+03  0.89340389777E+02 0.  0.
          5    1    1    2  502    0 -0.20683124915E+02  0.37161916133E+02  0.31591810078E+02  0.53144280322E+02  0.41800000000E+01 0.  1.
         -5    1    1    2    0  502  0.43640328387E+02 -0.51547040576E+01 -0.71343013939E+02  0.83894858445E+02  0.41800000000E+01 0.  1.
        -11    1    3    3    0    0 -0.19438964927E+02  0.16970897570E+02 -0.46101963483E+02  0.52832525576E+02  0.00000000000E+00 0.  1.
         11    1    3    3    0    0 -0.35182385441E+01 -0.48978109645E+02  0.12071056545E+02  0.50566230164E+02  0.00000000000E+00 0. -1.
</event>
<event>
 7    1  0.4096326E-006  0.8616407E+02  0.7561462E-02  0.1312416E+00
          1   -1    0    0  501    0  0.00000000000E+00  0.00000000000E+00  0.81822269735E+02  0.81822269735E+02  0.00000000000E+00 0. -1.
         -1   -1    0    0    0  501 -0.00000000000E+00 -0.00000000000E+00 -0.17644348659E+03  0.17644348659E+03  0.00000000000E+00 0.  1.
         23    2    1    2    0    0 -0.13378817296E+02 -0.45518589654E+02 -0.27895135037E+02  0.10876238339E+03  0.93809289123E+02 0.  0.
          5    1    1    2  502    0  0.44640527831E+02  0.38663382287E+02  0.15474738256E+02  0.61192922622E+02  0.41800000000E+01 0.  1.
         -5    1    1    2    0  502 -0.31261710536E+02  0.68552073667E+01 -0.82200820072E+02  0.88310450312E+02  0.41800000000E+01 0.  1.
        -11    1    3    3    0    0  0.38634265132E+00 -0.60500905730E+02 -0.50167741133E+02  0.78595872063E+02  0.00000000000E+00 0.  1.
         11    1    3    3    0    0 -0.13765159947E+02  0.14982316077E+02  0.22272606096E+02  0.30166511328E+02  0.00000000000E+00 0. -1.
</event>
<event>
 7    1  0.4096326E-006  0.1499597E+03  0.7561462E-02  0.1200523E+00
          2   -1    0    0  501    0  0.00000000000E+00  0.00000000000E+00  0.31888497555E+02  0.31888497555E+02  0.00000000000E+00 0.  1.
         -2   -1    0    0    0  501 -0.00000000000E+00 -0.00000000000E+00 -0.92363149466E+03  0.92363149466E+03  0.00000000000E+00 0. -1.
         23    2    1    2    0    0 -0.12430821395E+03 -0.24480375056E+01 -0.28882583133E+03  0.32733628761E+03  0.90940416761E+02 0.  0.
          5    1    1    2  502    0  0.80019540255E+02  0.59022752360E+02 -0.27478875265E+03  0.29225527044E+03  0.41800000000E+01 0.  1.
         -5    1    1    2    0  502  0.44288673693E+02 -0.56574714855E+02 -0.32812841313E+03  0.33592843416E+03  0.41800000000E+01 0.  1.
        -11    1    3    3    0    0 -0.84877840916E+02 -0.16694730377E+02 -0.26576179588E+03  0.27948576717E+03  0.00000000000E+00 0. -1.
         11    1    3    3    0    0 -0.39430373031E+02  0.14246692871E+02 -0.23064035448E+02  0.47850520439E+02  0.00000000000E+00 0.  1.
</event>
<event>
 7    1  0.4096326E-006  0.1221844E+03  0.7561462E-02  0.1239536E+00
         -2   -1    0    0    0  501 -0.00000000000E+00  0.00000000000E+00  0.65757619385E+02  0.65757619385E+02  0.00000000000E+00 0.  1.
          2   -1    0    0  501    0  0.00000000000E+00 -0.00000000000E+00 -0.32201220765E+03  0.32201220765E+03  0.00000000000E+00 0. -1.
         23    2    1    2    0    0 -0.13421123832E+02  0.73464534662E+02 -0.18899048877E+03  0.22730571315E+03  0.10184948683E+03 0.  0.
          5    1    1    2  502    0 -0.14729158884E+02  0.17805533727E+02  0.20133441490E+02  0.30932394329E+02  0.41800000000E+01 0.  1.
         -5    1    1    2    0  502  0.28150282717E+02 -0.91270068389E+02 -0.87397540993E+02  0.12953171956E+03  0.41800000000E+01 0.  1.
        -11    1    3    3    0    0 -0.11247194280E+02  0.99008504716E+02 -0.13778058202E+03  0.17003726699E+03  0.00000000000E+00 0.  1.
         11    1    3    3    0    0 -0.21739295520E+01 -0.25543970054E+02 -0.51209906750E+02  0.57268446157E+02  0.00000000000E+00 0. -1.
</event>
<event>
 6    1  0.4096326E-006  0.1623491E+03  0.7561462E-02  0.1186070E+00
         -2   -1    0    0    0  501 -0.00000000000E+00  0.00000000000E+00  0.90628487568E+03  0.90628487568E+03  0.00000000000E+00 0.  1.
          2   -1    0    0  501    0  0.00000000000E+00 -0.00000000000E+00 -0.35491503942E+02  0.35491503942E+02  0.00000000000E+00 0. -1.
          5    1    1    2  502    0  0.55369315788E+02  0.46420811935E+02  0.10228768612E+03  0.12530321641E+03  0.41800000000E+01 0. -1.
         -5    1    1    2    0  502 -0.16585250051E+01  0.58678466300E+02  0.34998159330E+03  0.35489505654E+03  0.41800000000E+01 0.  1.
        -11    1    1    2    0    0 -0.10805426866E+03 -0.71933632803E+02  0.30385615635E+03  0.33042205776E+03  0.00000000000E+00 0.  1.
         11    1    1    2    0    0  0.54343477874E+02 -0.33165645432E+02  0.11466793597E+03  0.13115604891E+03  0.00000000000E+00 0. -1.
</event>
<event>
 7    1  0.4096326E-006  0.1036458E+03  0.7561462E-02  0.1272811E+00
         -4   -1    0    0    0  501 -0.00000000000E+00  0.00000000000E+00  0.92844966840E+02  0.92844966840E+02  0.00000000000E+00 0.  1.
          4   -1    0    0  501    0  0.00000000000E+00 -0.00000000000E+00 -0.17984354496E+03  0.17984354496E+03  0.00000000000E+00 0. -1.
         23    2    1    2    0    0 -0.35652701656E+01  0.68303511672E+02 -0.54972594400E+02  0.12656926714E+03  0.91212457431E+02 0.  0.
          5    1    1    2  502    0 -0.19720572683E+02 -0.97578291002E+02 -0.40470667075E+02  0.10754427533E+03  0.41800000000E+01 0.  1.
         -5    1    1    2    0  502  0.23285842849E+02  0.29274779331E+02  0.84446833587E+01  0.38574969334E+02  0.41800000000E+01 0.  1.
        -11    1    3    3    0    0 -0.92181508688E+01  0.33122109005E+02  0.22641451929E+02  0.41166536845E+02  0.00000000000E+00 0.  1.
         11    1    3    3    0    0  0.56528807032E+01  0.35181402666E+02 -0.77614046329E+02  0.85402730292E+02  0.00000000000E+00 0. -1.
</event>
<event>
 7    1  0.4096326E-006  0.1610859E+03  0.7561462E-02  0.1187476E+00
         -1   -1    0    0    0  501 -0.00000000000E+00  0.00000000000E+00  0.25080112454E+03  0.25080112454E+03  0.00000000000E+00 0. -1.
          1   -1    0    0  501    0  0.00000000000E+00 -0.00000000000E+00 -0.20149916948E+03  0.20149916948E+03  0.00000000000E+00 0.  1.
         23    2    1    2    0    0  0.11951056547E+03  0.30943685720E+02 -0.13019568946E+03  0.20109257403E+03  0.90813098354E+02 0.  0.
          5    1    1    2  502    0 -0.10927691661E+03 -0.73280050926E+02  0.12768947792E+03  0.18339434435E+03  0.41800000000E+01 0.  1.
         -5    1    1    2    0  502 -0.10233648868E+02  0.42336365206E+02  0.51808166598E+02  0.67813375630E+02  0.41800000000E+01 0.  1.
        -11    1    3    3    0    0  0.34158533021E+02 -0.27062403943E+02 -0.14197542285E+02  0.45833931669E+02  0.00000000000E+00 0. -1.
         11    1    3    3    0    0  0.85352032452E+02  0.58006089663E+02 -0.11599814717E+03  0.15525864237E+03  0.00000000000E+00 0.  1.
</event>
<event>
 7    1  0.4096326E-006  0.1635820E+03  0.7561462E-02  0.1184711E+00
          2   -1    0    0  501    0  0.00000000000E+00  0.00000000000E+00  0.10136531883E+04  0.10136531883E+04  0.00000000000E+00 0.  1.
         -2   -1    0    0    0  501 -0.00000000000E+00 -0.00000000000E+00 -0.33111407085E+02  0.33111407085E+02  0.00000000000E+00 0. -1.
         23    2    1    2    0    0 -0.92958292190E+02 -0.11323622124E+03  0.47875767058E+03  0.50926020008E+03  0.93130866813E+02 0.  0.
          5    1    1    2  502    0  0.11067735308E+03  0.64457506913E+02  0.25619507750E+03  0.28645704183E+03  0.41800000000E+01 0.  1.
         -5    1    1    2    0  502 -0.17719060888E+02  0.48778714324E+02  0.24558903309E+03  0.25104735343E+03  0.41800000000E+01 0.  1.
        -11    1    3    3    0    0 -0.33232656928E+02 -0.49336806838E+02  0.34051153136E+03  0.34566838586E+03  0.00000000000E+00 0.  1.
         11    1    3    3    0    0 -0.59725635262E+02 -0.63899414399E+02  0.13824613922E+03  0.16359181421E+03  0.00000000000E+00 0. -1.
</event>
<event>
 7    1  0.4096326E-006  0.1519826E+03  0.7561462E-02  0.1198058E+00
         -3   -1    0    0    0  501 -0.00000000000E+00  0.00000000000E+00  0.29410150407E+03  0.29410150407E+03  0.00000000000E+00 0.  1.
          3   -1    0    0  501    0  0.00000000000E+00 -0.00000000000E+00 -0.94522151849E+02  0.94522151849E+02  0.00000000000E+00 0. -1.
         23    2    1    2    0    0  0.94382876035E+02  0.73598103394E+02  0.45900391862E+02  0.15712790080E+03  0.90870914633E+02 0.  0.
          5    1    1    2  502    0 -0.12378874965E+03 -0.51385149948E+02  0.10508789790E+03  0.17036732920E+03  0.41800000000E+01 0. -1.
         -5    1    1    2    0  502  0.29405873611E+02 -0.22212953446E+02  0.48591062465E+02  0.61128425917E+02  0.41800000000E+01 0. -1.
        -11    1    3    3    0    0  0.94090875739E+02  0.45205772085E+02  0.14672875885E+01  0.10439735466E+03  0.00000000000E+00 0. -1.
         11    1    3    3    0    0  0.29200029653E+00  0.28392331309E+02  0.44433104273E+02  0.52730546144E+02  0.00000000000E+00 0.  1.
</event>
<event>
 7    1  0.4096326E-006  0.1255465E+03  0.7561462E-02  0.1234218E+00
          1   -1    0    0  501    0  0.00000000000E+00  0.00000000000E+00  0.35618258895E+02  0.35618258895E+02  0.00000000000E+00 0. -1.
         -1   -1    0    0    0  501 -0.00000000000E+00 -0.00000000000E+00 -0.57275360860E+03  0.57275360860E+03  0.00000000000E+00 0.  1.
         23    2    1    2    0    0 -0.62485244859E+02  0.66053475634E+02 -0.21558983629E+03  0.25157203162E+03  0.92423168703E+02 0.  0.
          5    1    1    2  502    0  0.71982993757E+02 -0.11837547261E+02 -0.27516447278E+03  0.28470096311E+03  0.41800000000E+01 0. -1.
         -5    1    1    2    0  502 -0.94977488972E+01 -0.54215928373E+02 -0.46381040631E+02  0.72098872762E+02  0.41800000000E+01 0. -1.
        -11    1    3    3    0    0 -0.82341661645E+02  0.60582125952E+02 -0.20338551424E+03  0.22763130415E+03  0.00000000000E+00 0.  1.
         11    1    3    3    0    0  0.19856416786E+02  0.54713496821E+01 -0.12204322048E+02  0.23940727465E+02  0.00000000000E+00 0. -1.
</event>
<event>
 7    1  0.4096326E-006  0.9174513E+02  0.7561462E-02  0.1298680E+00
          1   -1    0    0  501    0  0.00000000000E+00  0.00000000000E+00  0.75418385734E+02  0.75418385734E+02  0.00000000000E+00 0. -1.
         -1   -1    0    0    0  501 -0.00000000000E+00 -0.00000000000E+00 -0.17645777779E+03  0.17645777779E+03  0.00000000000E+00 0.  1.
         23    2    1    2    0    0 -0.32881328513E+02 -0.18476933553E+02 -0.28002275634E+02  0.10219214996E+03  0.90755326200E+02 0.  0.
          5    1    1    2  502    0 -0.30991197073E+02 -0.10183593345E+02 -0.72431769106E+02  0.79548686006E+02  0.41800000000E+01 0. -1.
         -5    1    1    2    0  502  0.63872525586E+02  0.28660526899E+02 -0.60534731595E+00  0.70135327562E+02  0.41800000000E+01 0. -1.
        -11    1    3    3    0    0  0.22701284394E+02 -0.64604523697E+01  0.17482860177E+02  0.29372370656E+02  0.00000000000E+00 0. -1.
         11    1    3    3    0    0 -0.55582612908E+02 -0.12016481184E+02 -0.45485135811E+02  0.72819779301E+02  0.00000000000E+00 0.  1.
</event>
<event>
 7    1  0.4096326E-006  0.8997712E+02  0.7561462E-02  0.1302907E+00
         -1   -1    0    0    0  501 -0.00000000000E+00  0.00000000000E+00  0.88127909399E+02  0.88127909399E+02  0.00000000000E+00 0.  1.
          1   -1    0    0  501    0  0.00000000000E+00 -0.00000000000E+00 -0.14312718896E+03  0.14312718896E+03  0.00000000000E+00 0. -1.
         23    2    1    2    0    0 -0.62739888577E+01 -0.12271440371E+02 -0.51257867193E+02  0.10535413196E+03  0.91006444758E+02 0.  0.
          5    1    1    2  502    0 -0.15949036535E+02 -0.39472035391E+02  0.36765956612E+02  0.56405862372E+02  0.41800000000E+01 0.  1.
         -5    1    1    2    0  502  0.22223025393E+02  0.51743475763E+02 -0.40507368979E+02  0.69495104024E+02  0.41800000000E+01 0.  1.
        -11    1    3    3    0    0  0.34039816461E+02 -0.20256851871E+02 -0.50588734346E+02  0.64251608502E+02  0.00000000000E+00 0. -1.
         11    1    3    3    0    0 -0.40313805318E+02  0.79854114996E+01 -0.66913284746E+00  0.41102523461E+02  0.00000000000E+00 0.  1.
</event>
<event>
 7    1  0.4096326E-006  0.8421445E+02  0.7561462E-02  0.1317500E+00
          1   -1    0    0  501    0  0.00000000000E+00  0.00000000000E+00  0.84051281586E+02  0.84051281586E+02  0.00000000000E+00 0. -1.
         -1   -1    0    0    0  501 -0.00000000000E+00 -0.00000000000E+00 -0.48898154231E+03  0.48898154231E+03  0.00000000000E+00 0.  1.
         23    2    1    2    0    0  0.40497512787E+02 -0.47767179336E+02  0.30739244266E+02  0.11545357858E+03  0.91993889494E+02 0.  0.
          5    1    1    2  502    0 -0.36868823690E+02  0.24746230507E+02 -0.43117973338E+03  0.43348024288E+03  0.41800000000E+01 0. -1.
         -5    1    1    2    0  502 -0.36286890976E+01  0.23020948829E+02 -0.44897716047E+01  0.24099002441E+02  0.41800000000E+01 0. -1.
        -11    1    3    3    0    0  0.55527290258E+02 -0.61054240960E+01  0.41840181526E+02  0.69793674190E+02  0.00000000000E+00 0. -1.
         11    1    3    3    0    0 -0.15029777471E+02 -0.41661755240E+02 -0.11100937259E+02  0.45659904386E+02  0.00000000000E+00 0.  1.
</event>
<event>
 7    1  0.4096326E-006  0.2617130E+03  0.7561462E-02  0.1106118E+00
          2   -1    0    0  501    0  0.00000000000E+00  0.00000000000E+00  0.16758298544E+03  0.16758298544E+03  0.00000000000E+00 0. -1.
         -2   -1    0    0    0  501 -0.00000000000E+00 -0.00000000000E+00 -0.48963612654E+03  0.48963612654E+03  0.00000000000E+00 0.  1.
         23    2    1    2    0    0  0.23665800892E+03  0.86235268436E+02 -0.66508804198E+02  0.27722676904E+03  0.94803616642E+02 0.  0.
          5    1    1    2  502    0 -0.38949387959E+02  0.21593356271E+02 -0.82294993057E+01  0.45481039085E+02  0.41800000000E+01 0. -1.
         -5    1    1    2    0  502 -0.19770862096E+03 -0.10782862471E+03 -0.24731483760E+03  0.33451130386E+03  0.41800000000E+01 0. -1.
        -11    1    3    3    0    0  0.14424561269E+03  0.67072405898E+02  0.44650760250E+01  0.15913969120E+03  0.00000000000E+00 0. -1.
         11    1    3    3    0    0  0.92412396235E+02  0.19162862538E+02 -0.70973880223E+02  0.11808707784E+03  0.00000000000E+00 0.  1.
</event>
<event>
 7    1  0.4096326E-006  0.8728008E+02  0.7561462E-02  0.1309575E+00
          2   -1    0    0  501    0  0.00000000000E+00  0.00000000000E+00  0.30908584029E+03  0.30908584029E+03  0.00000000000E+00 0. -1.
         -2   -1    0    0    0  501 -0.00000000000E+00 -0.00000000000E+00 -0.40268482305E+02  0.40268482305E+02  0.00000000000E+00 0.  1.
         23    2    1    2    0    0 -0.14996980367E+02 -0.10420410311E+02  0.90292191210E+02  0.13060352912E+03  0.92580276810E+02 0.  0.
          5    1    1    2  502    0 -0.20815152242E+02 -0.45659770860E+02  0.37577098356E+02  0.62829897013E+02  0.41800000000E+01 0. -1.
         -5    1    1    2    0  502  0.35812132609E+02  0.56080181171E+02  0.14094806842E+03  0.15592089646E+03  0.41800000000E+01 0. -1.
        -11    1    3    3    0    0  0.17631765276E+02 -0.16725719504E+02 -0.89859487250E+01  0.25910926540E+02  0.00000000000E+00 0.  1.
         11    1    3    3    0    0 -0.32628745643E+02  0.63053091933E+01  0.99278139935E+02  0.10469260258E+03  0.00000000000E+00 0. -1.
</event>
<event>
 7    1  0.4096326E-006  0.1121703E+03  0.7561462E-02  0.1256603E+00
         -1   -1    0    0    0  501 -0.00000000000E+00  0.00000000000E+00  0.34326976576E+03  0.34326976576E+03  0.00000000000E+00 0.  1.
          1   -1    0    0  501    0  0.00000000000E+00 -0.00000000000E+00 -0.64758759979E+02  0.64758759979E+02  0.00000000000E+00 0. -1.
         23    2    1    2    0    0  0.63503383329E+02  0.58715556083E+02  0.52760974606E+02  0.13583097379E+03  0.90477272161E+02 0.  0.
          5    1    1    2  502    0 -0.71140878263E+02 -0.53108990060E+02  0.62577737819E+02  0.10869698733E+03  0.41800000000E+01 0. -1.
         -5    1    1    2    0  502  0.76374949337E+01 -0.56065660228E+01  0.16317229335E+03  0.16350056462E+03  0.41800000000E+01 0. -1.
        -11    1    3    3    0    0  0.29707683574E+02 -0.22418253271E+02  0.13833282056E+02  0.39704964872E+02  0.00000000000E+00 0.  1.
         11    1    3    3    0    0  0.33795699755E+02  0.81133809354E+02  0.38927692550E+02  0.96126008913E+02  0.00000000000E+00 0. -1.
</event>
<event>
 7    1  0.4096326E-006  0.1349056E+03  0.7561462E-02  0.1220353E+00
          2   -1    0    0  501    0  0.00000000000E+00  0.00000000000E+00  0.42594729754E+03  0.42594729754E+03  0.00000000000E+00 0.  1.
         -2   -1    0    0    0  501 -0.00000000000E+00 -0.00000000000E+00 -0.11782025168E+03  0.11782025168E+03  0.00000000000E+00 0. -1.
         23    2    1    2    0    0  0.98559558248E+02 -0.11450700227E+02  0.35335358489E+03  0.37782034991E+03  0.89690332784E+02 0.  0.
          5    1    1    2  502    0 -0.15639129411E+00 -0.32156171603E+02  0.21807639575E+02  0.39077990918E+02  0.41800000000E+01 0.  1.
         -5    1    1    2    0  502 -0.98403166954E+02  0.43606871829E+02 -0.67034178600E+02  0.12686920839E+03  0.41800000000E+01 0.  1.
        -11    1    3    3    0    0  0.10637495150E+03 -0.29171952070E+02  0.25917062749E+03  0.28166655330E+03  0.00000000000E+00 0. -1.
         11    1    3    3    0    0 -0.78153932477E+01  0.17721251843E+02  0.94182957404E+02  0.96153796617E+02  0.00000000000E+00 0.  1.
</event>
<event>
 7    1  0.4096326E-006  0.9756892E+02  0.7561462E-02  0.1285493E+00
         -1   -1    0    0    0  501 -0.00000000000E+00  0.00000000000E+00  0.83276512341E+02  0.83276512341E+02  0.00000000000E+00 0.  1.
          1   -1    0    0  501    0  0.00000000000E+00 -0.00000000000E+00 -0.16165845560E+03  0.16165845560E+03  0.00000000000E+00 0. -1.
         23    2    1    2    0    0 -0.10789585003E+02  0.34626571304E+02 -0.60045566253E+02  0.11341323500E+03  0.89116088680E+02 0.  0.
          5    1    1    2  502    0 -0.48996629988E+02 -0.97347969669E+01 -0.38893596630E+02  0.63447776013E+02  0.41800000000E+01 0. -1.
         -5    1    1    2    0  502  0.59786214992E+02 -0.24891774337E+02  0.20557219628E+02  0.68073956926E+02  0.41800000000E+01 0. -1.
        -11    1    3    3    0    0 -0.37833905426E+02  0.37058395326E+02 -0.64750966177E+01  0.53354062077E+02  0.00000000000E+00 0.  1.
         11    1    3    3    0    0  0.27044320423E+02 -0.24318240214E+01 -0.53570469635E+02  0.60059172922E+02  0.00000000000E+00 0. -1.
</event>
<event>
 7    1  0.4096326E-006  0.1097642E+03  0.7561462E-02  0.1261007E+00
          2   -1    0    0  501    0  0.00000000000E+00  0.00000000000E+00  0.76302743986E+03  0.76302743986E+03  0.00000000000E+00 0. -1.
         -2   -1    0    0    0  501 -0.00000000000E+00 -0.00000000000E+00 -0.16029075156E+02  0.16029075156E+02  0.00000000000E+00 0.  1.
         23    2    1    2    0    0 -0.47193907229E+02 -0.23366809087E+02  0.33172727073E+03  0.34216813006E+03  0.65289925970E+02 0.  0.
          5    1    1    2  502    0  0.85093180838E+02 -0.89968933387E+01  0.25683110260E+03  0.27074246283E+03  0.41800000000E+01 0. -1.
         -5    1    1    2    0  502 -0.37899273609E+02  0.32363702425E+02  0.15843999136E+03  0.16614592212E+03  0.41800000000E+01 0. -1.
        -11    1    3    3    0    0 -0.60637675841E+02 -0.46687479089E+01  0.23616485986E+03  0.24386997759E+03  0.00000000000E+00 0. -1.
         11    1    3    3    0    0  0.13443768611E+02 -0.18698061178E+02  0.95562410876E+02  0.98298152468E+02  0.00000000000E+00 0.  1.
</event>
<event>
 7    1  0.4096326E-006  0.1299593E+03  0.7561462E-02  0.1227516E+00
         -1   -1    0    0    0  501 -0.00000000000E+00  0.00000000000E+00  0.94776480601E+02  0.94776480601E+02  0.00000000000E+00 0.  1.
          1   -1    0    0  501    0  0.00000000000E+00 -0.00000000000E+00 -0.34466522134E+03  0.34466522134E+03  0.00000000000E+00 0. -1.
         23    2    1    2    0    0 -0.22455687917E+02  0.16937361824E+02 -0.25492018385E+03  0.27122678682E+03  0.88252691790E+02 0.  0.
          5    1    1    2  502    0 -0.61102381350E+02 -0.48245962118E+02  0.10749339962E+02  0.78703205633E+02  0.41800000000E+01 0. -1.
         -5    1    1    2    0  502  0.83558069267E+02  0.31308600294E+02 -0.57178968549E+01  0.89511709494E+02  0.41800000000E+01 0.  1.
        -11    1    3    3    0    0 -0.94627133926E+00  0.51719661813E+02 -0.14139111969E+03  0.15055652618E+03  0.00000000000E+00 0.  1.
         11    1    3    3    0    0 -0.21509416578E+02 -0.34782299989E+02 -0.11352906416E+03  0.12067026064E+03  0.00000000000E+00 0. -1.
</event>
<event>
 7    1  0.4096326E-006  0.1147256E+03  0.7561462E-02  0.1252061E+00
          3   -1    0    0  501    0  0.00000000000E+00  0.00000000000E+00  0.70917601939E+02  0.70917601939E+02  0.00000000000E+00 0. -1.
         -3   -1    0    0    0  501 -0.00000000000E+00 -0.00000000000E+00 -0.20458457041E+03  0.20458457041E+03  0.00000000000E+00 0.  1.
         23    2    1    2    0    0 -0.33362455685E+02  0.37679627750E+02 -0.52463414743E+02  0.11810868839E+03  0.93082998396E+02 0.  0.
          5    1    1    2  502    0 -0.43658364876E+02 -0.89544377831E+01 -0.55211978845E+02  0.71077913501E+02  0.41800000000E+01 0.  1.
         -5    1    1    2    0  502  0.77020820560E+02 -0.28725189966E+02 -0.25991574883E+02  0.86315570457E+02  0.41800000000E+01 0.  1.
        -11    1    3    3    0    0 -0.63438893078E+01 -0.29392596114E+02 -0.24109925039E+01  0.30165916573E+02  0.00000000000E+00 0. -1.
         11    1    3    3    0    0 -0.27018566377E+02  0.67072223863E+02 -0.50052422239E+02  0.87942771818E+02  0.00000000000E+00 0.  1.
</event>
<event>
 7    1  0.4096326E-006  0.1249402E+03  0.7561462E-02  0.1235163E+00
         -2   -1    0    0    0  501 -0.00000000000E+00  0.00000000000E+00  0.59100718523E+03  0.59100718523E+03  0.00000000000E+00 0.  1.
          2   -1    0    0  501    0  0.00000000000E+00 -0.00000000000E+00 -0.40737384740E+02  0.40737384740E+02  0.00000000000E+00 0. -1.
         23    2    1    2    0    0 -0.10303157754E+03  0.11460138222E+01  0.17655109245E+03  0.22440052517E+03  0.92566128449E+02 0.  0.
          5    1    1    2  502    0 -0.27945961170E+01  0.28869878280E+01 -0.87308156790E+01  0.10480649245E+02  0.41800000000E+01 0. -1.
         -5    1    1    2    0  502  0.10582617366E+03 -0.40330016502E+01  0.38244952372E+03  0.39686339555E+03  0.41800000000E+01 0. -1.
        -11    1    3    3    0    0 -0.42593067781E+02 -0.45071059994E+02  0.70710501881E+02  0.94050757298E+02  0.00000000000E+00 0.  1.
         11    1    3    3    0    0 -0.60438509760E+02  0.46217073816E+02  0.10584059057E+03  0.13034976788E+03  0.00000000000E+00 0. -1.
</event>
<event>
 7    1  0.4096326E-006  0.1680046E+03  0.7561462E-02  0.1179945E+00
         -3   -1    0    0    0  501 -0.00000000000E+00  0.00000000000E+00  0.67967988325E+02  0.67967988325E+02  0.00000000000E+00 0.  1.
          3   -1    0    0  501    0  0.00000000000E+00 -0.00000000000E+00 -0.55606443989E+03  0.55606443989E+03  0.00000000000E+00 0. -1.
         23    2    1    2    0    0  0.14130362908E+03 -0.43471913451E+02 -0.33763933208E+03  0.37878842851E+03  0.87314558651E+02 0.  0.
          5    1    1    2  502    0 -0.14656289346E+03  0.14701748642E+02 -0.15664088597E+03  0.21505967244E+03  0.41800000000E+01 0.  1.
         -5    1    1    2    0  502  0.52592643809E+01  0.28770164809E+02  0.61837664860E+01  0.30184327273E+02  0.41800000000E+01 0.  1.
        -11    1    3    3    0    0  0.82745268868E+02  0.52767819769E+01 -0.10380637152E+03  0.13285475797E+03  0.00000000000E+00 0.  1.
         11    1    3    3    0    0  0.58558360208E+02 -0.48748695428E+02 -0.23383296057E+03  0.24593367054E+03  0.00000000000E+00 0. -1.
</event>
<event>
 7    1  0.4096326E-006  0.9722321E+02  0.7561462E-02  0.1286246E+00
         -1   -1    0    0    0  501 -0.00000000000E+00  0.00000000000E+00  0.19956886894E+03  0.19956886894E+03  0.00000000000E+00 0.  1.
          1   -1    0    0  501    0  0.00000000000E+00 -0.00000000000E+00 -0.80601131442E+02  0.80601131442E+02  0.00000000000E+00 0. -1.
         23    2    1    2    0    0  0.42673245002E+02 -0.14414515881E+02  0.42877414465E+02  0.10988555477E+03  0.90595686263E+02 0.  0.
          5    1    1    2  502    0 -0.15891621425E+02 -0.39208136029E+02 -0.27428089835E+02  0.50592430999E+02  0.41800000000E+01 0. -1.
         -5    1    1    2    0  502 -0.26781623576E+02  0.53622651910E+02  0.10351841287E+03  0.11969201461E+03  0.41800000000E+01 0.  1.
        -11    1    3    3    0    0  0.48755432509E+02  0.23025491559E+02  0.47264139031E+02  0.71701912798E+02  0.00000000000E+00 0.  1.
         11    1    3    3    0    0 -0.60821875071E+01 -0.37440007440E+02 -0.43867245654E+01  0.38183641974E+02  0.00000000000E+00 0. -1.
</event>
<event>
 7    1  0.4096326E-006  0.5498338E+02  0.7561462E-02  0.1420178E+00
         -1   -1    0    0    0  501 -0.00000000000E+00  0.00000000000E+00  0.21489292287E+02  0.21489292287E+02  0.00000000000E+00 0.  1.
          1   -1    0    0  501    0  0.00000000000E+00 -0.00000000000E+00 -0.53932865824E+03  0.53932865824E+03  0.00000000000E+00 0. -1.
         23    2    1    2    0    0  0.88588466859E+00  0.50773409737E+01 -0.25036754582E+03  0.26549755769E+03  0.88195696907E+02 0.  0.
          5    1    1    2  502    0  0.17616225964E+02 -0.59055808550E+01  0.69274991555E+01  0.20264993141E+02  0.41800000000E+01 0.  1.
         -5    1    1    2    0  502 -0.18502110633E+02  0.82823988128E+00 -0.27439931928E+03  0.27505539969E+03  0.41800000000E+01 0.  1.
        -11    1    3    3    0    0  0.35417829006E+02  0.10589486806E+02 -0.50446565317E+02  0.62541312702E+02  0.00000000000E+00 0.  1.
         11    1    3    3    0    0 -0.34531944337E+02 -0.55121458319E+01 -0.19992098051E+03  0.20295624498E+03  0.00000000000E+00 0. -1.
</event>
<event>
 7    1  0.4096326E-006  0.8588153E+02  0.7561462E-02  0.1313143E+00
         -2   -1    0    0    0  501 -0.00000000000E+00  0.00000000000E+00  0.62756014676E+02  0.62756014676E+02  0.00000000000E+00 0.  1.
          2   -1    0    0  501    0  0.00000000000E+00 -0.00000000000E+00 -0.20720239478E+03  0.20720239478E+03  0.00000000000E+00 0. -1.
         23    2    1    2    0    0 -0.10002232099E+02 -0.20010551481E+02 -0.98674525975E+02  0.13488761234E+03  0.89205039486E+02 0.  0.
          5    1    1    2  502    0  0.44336814703E+02  0.12200823405E+02  0.27448098576E+02  0.53716698942E+02  0.41800000000E+01 0. -1.
         -5    1    1    2    0  502 -0.34334582604E+02  0.78097280752E+01 -0.73219952702E+02  0.81354098168E+02  0.41800000000E+01 0. -1.
        -11    1    3    3    0    0  0.30775752577E+02 -0.35070863840E+02 -0.64421152610E+02  0.79543681967E+02  0.00000000000E+00 0. -1.
         11    1    3    3    0    0 -0.40777984677E+02  0.15060312360E+02 -0.34253373365E+02  0.55343930377E+02  0.00000000000E+00 0.  1.
</event>
<event>
 7    1  0.4096326E-006  0.1656512E+03  0.7561462E-02  0.1182460E+00
         -1   -1    0    0    0  501 -0.00000000000E+00  0.00000000000E+00  0.13817742115E+03  0.13817742115E+03  0.00000000000E+00 0.  1.
          1   -1    0    0  501    0  0.00000000000E+00 -0.00000000000E+00 -0.20295977156E+03  0.20295977156E+03  0.00000000000E+00 0. -1.
         23    2    1    2    0    0 -0.78717087014E+02  0.97954900963E+02 -0.53504887192E+02  0.16346796730E+03  0.89819045701E+02 0.  0.
          5    1    1    2  502    0 -0.11598334417E+02 -0.84981030975E+02 -0.24524139029E+01  0.85905667571E+02  0.41800000000E+01 0.  1.
         -5    1    1    2    0  502  0.90315421431E+02 -0.12973869988E+02 -0.88250493124E+01  0.91763557833E+02  0.41800000000E+01 0.  1.
        -11    1    3    3    0    0 -0.75578946128E+02  0.11453223090E+03 -0.51091168888E+02  0.14642443973E+03  0.00000000000E+00 0. -1.
         11    1    3    3    0    0 -0.31381408867E+01 -0.16577329937E+02 -0.24137183037E+01  0.17043527572E+02  0.00000000000E+00 0.  1.
</event>
<event>
 7    1  0.4096326E-006  0.1266840E+03  0.7561462E-02  0.1232461E+00
         -1   -1    0    0    0  501 -0.00000000000E+00  0.00000000000E+00  0.13614187609E+03  0.13614187609E+03  0.00000000000E+00 0.  1.
          1   -1    0    0  501    0  0.00000000000E+00 -0.00000000000E+00 -0.23840172982E+03  0.23840172982E+03  0.00000000000E+00 0. -1.
         23    2    1    2    0    0  0.91104744392E+02 -0.30856747702E+02 -0.15810318715E+03  0.20716718447E+03  0.93109673009E+02 0.  0.
          5    1    1    2  502    0 -0.16242134352E+02  0.65965779610E+02  0.49851414483E+02  0.84367807449E+02  0.41800000000E+01 0.  1.
         -5    1    1    2    0  502 -0.74862610040E+02 -0.35109031908E+02  0.59919189376E+01  0.83008613987E+02  0.41800000000E+01 0.  1.
        -11    1    3    3    0    0  0.73452319156E+02 -0.83757199044E+01 -0.16223657651E+03  0.17828657445E+03  0.00000000000E+00 0. -1.
         11    1    3    3    0    0  0.17652425236E+02 -0.22481027798E+02  0.41333893622E+01  0.28880610020E+02  0.00000000000E+00 0.  1.
</event>
<event>
 7    1  0.4096326E-006  0.1084234E+03  0.7561462E-02  0.1263518E+00
          2   -1    0    0  501    0  0.00000000000E+00  0.00000000000E+00  0.29022251894E+03  0.29022251894E+03  0.00000000000E+00 0. -1.
         -2   -1    0    0    0  501 -0.00000000000E+00 -0.00000000000E+00 -0.65245159646E+02  0.65245159646E+02  0.00000000000E+00 0.  1.
         23    2    1    2    0    0  0.22014325629E+02 -0.80807397109E+02  0.12226316507E+03  0.17322267399E+03  0.89684710467E+02 0.  0.
          5    1    1    2  502    0  0.13138235143E+02  0.14065590358E+02  0.10483219252E+03  0.10666637260E+03  0.41800000000E+01 0.  1.
         -5    1    1    2    0  502 -0.35152560772E+02  0.66741806751E+02 -0.21179982982E+01  0.75578631994E+02  0.41800000000E+01 0.  1.
        -11    1    3    3    0    0 -0.33539665715E+02 -0.19202720729E+02  0.28427327451E+02  0.47976729835E+02  0.00000000000E+00 0.  1.
         11    1    3    3    0    0  0.55553991344E+02 -0.61604676381E+02  0.93835837616E+02  0.12524594416E+03  0.00000000000E+00 0. -1.
</event>
<event>
 7    1  0.4096326E-006  0.9764310E+02  0.7561462E-02  0.1285332E+00
         -4   -1    0    0    0  501 -0.00000000000E+00  0.00000000000E+00  0.10028662782E+03  0.10028662782E+03  0.00000000000E+00 0.  1.
          4   -1    0    0  501    0  0.00000000000E+00 -0.00000000000E+00 -0.19068522913E+03  0.19068522913E+03  0.00000000000E+00 0. -1.
         23    2    1    2    0    0  0.83106940051E+01 -0.21407059570E+02 -0.12806198884E+03  0.15833493328E+03  0.90237177903E+02 0.  0.
          5    1    1    2  502    0 -0.51907126630E+02  0.36245569254E+02 -0.12224336602E+02  0.64614223596E+02  0.41800000000E+01 0. -1.
         -5    1    1    2    0  502  0.43596432625E+02 -0.14838509684E+02  0.49887724128E+02  0.68022700078E+02  0.41800000000E+01 0. -1.
        -11    1    3    3    0    0  0.21503531354E+02 -0.49824379291E+02 -0.48329708327E+02  0.72667952630E+02  0.00000000000E+00 0.  1.
         11    1    3    3    0    0 -0.13192837349E+02  0.28417319721E+02 -0.79732280513E+02  0.85666980647E+02  0.00000000000E+00 0. -1.
</event>
<event>
 7    1  0.4096326E-006  0.1112717E+03  0.7561462E-02  0.1258233E+00
         -4   -1    0    0    0  501 -0.00000000000E+00  0.00000000000E+00  0.11126793911E+03  0.11126793911E+03  0.00000000000E+00 0.  1.
          4   -1    0    0  501    0  0.00000000000E+00 -0.00000000000E+00 -0.15499304377E+03  0.15499304377E+03  0.00000000000E+00 0. -1.
         23    2    1    2    0    0  0.12683351231E+02  0.27559793923E+02 -0.87388007916E+02  0.13034056840E+03  0.91823690868E+02 0.  0.
          5    1    1    2  502    0 -0.51408377604E+02  0.27455736964E+02  0.60863108126E+01  0.58746526361E+02  0.41800000000E+01 0. -1.
         -5    1    1    2    0  502  0.38725026374E+02 -0.55015530887E+02  0.37576592448E+02  0.77173888113E+02  0.41800000000E+01 0. -1.
        -11    1    3    3    0    0  0.88126067925E+01 -0.33949329297E+02 -0.31500843585E+02  0.47143633131E+02  0.00000000000E+00 0.  1.
         11    1    3    3    0    0  0.38707444382E+01  0.61509123220E+02 -0.55887164331E+02  0.83196935273E+02  0.00000000000E+00 0. -1.
</event>
<event>
 7    1  0.4096326E-006  0.1106375E+03  0.7561462E-02  0.1259394E+00
         -3   -1    0    0    0  501 -0.00000000000E+00  0.00000000000E+00  0.62186216814E+02  0.62186216814E+02  0.00000000000E+00 0.  1.
          3   -1    0    0  501    0  0.00000000000E+00 -0.00000000000E+00 -0.21280572166E+03  0.21280572166E+03  0.00000000000E+00 0. -1.
         23    2    1    2    0    0  0.76961854876E+01 -0.38288221322E+02 -0.69643906734E+02  0.12094599199E+03  0.90842941769E+02 0.  0.
          5    1    1    2  502    0  0.52798004107E+02  0.30823010592E+01 -0.61607762093E+02  0.81302635675E+02  0.41800000000E+01 0.  1.
         -5    1    1    2    0  502 -0.60494189595E+02  0.35205920263E+02 -0.19367836022E+02  0.72743310816E+02  0.41800000000E+01 0.  1.
        -11    1    3    3    0    0  0.48813278946E+02 -0.25329199173E+02 -0.46487089160E+02  0.72009402100E+02  0.00000000000E+00 0.  1.
         11    1    3    3    0    0 -0.41117093459E+02 -0.12959022149E+02 -0.23156817574E+02  0.48936589886E+02  0.00000000000E+00 0. -1.
</event>
<event>
 7    1  0.4096326E-006  0.1064367E+03  0.7561462E-02  0.1267315E+00
          1   -1    0    0  501    0  0.00000000000E+00  0.00000000000E+00  0.21850979800E+03  0.21850979800E+03  0.00000000000E+00 0. -1.
         -1   -1    0    0    0  501 -0.00000000000E+00 -0.00000000000E+00 -0.71932170611E+02  0.71932170611E+02  0.00000000000E+00 0.  1.
         23    2    1    2    0    0  0.19007244997E+02  0.57227069484E+02  0.10225534783E+03  0.14467440328E+03  0.82694098708E+02 0.  0.
          5    1    1    2  502    0  0.49762413064E+02 -0.63457648435E+01  0.23661641416E+01  0.50394817374E+02  0.41800000000E+01 0. -1.
         -5    1    1    2    0  502 -0.68769658061E+02 -0.50881304641E+02  0.41956115422E+02  0.95372747958E+02  0.41800000000E+01 0. -1.
        -11    1    3    3    0    0 -0.14736456461E+02  0.30378248980E+02  0.71073687872E-01  0.33763978018E+02  0.00000000000E+00 0.  1.
         11    1    3    3    0    0  0.33743701458E+02  0.26848820504E+02  0.10218427414E+03  0.11091042526E+03  0.00000000000E+00 0. -1.
</event>
<event>
 7    1  0.4096326E-006  0.1787523E+03  0.7561462E-02  0.1169016E+00
          4   -1    0    0  501    0  0.00000000000E+00  0.00000000000E+00  0.98289923998E+02  0.98289923998E+02  0.00000000000E+00 0. -1.
         -4   -1    0    0    0  501 -0.00000000000E+00 -0.00000000000E+00 -0.64834107177E+03  0.64834107177E+03  0.00000000000E+00 0.  1.
         23    2    1    2    0    0  0.89622161335E+01 -0.12651950436E+03 -0.12706000160E+03  0.19974721825E+03  0.87562554152E+02 0.  0.
          5    1    1    2  502    0 -0.56780867089E+02  0.14220400972E+03 -0.36973627679E+02  0.15757718360E+03  0.41800000000E+01 0. -1.
         -5    1    1    2    0  502  0.47818650955E+02 -0.15684505358E+02 -0.38601751849E+03  0.38930659392E+03  0.41800000000E+01 0.  1.
        -11    1    3    3    0    0 -0.28742789901E+02 -0.85621160071E+01 -0.20000632983E+02  0.36048344227E+02  0.00000000000E+00 0. -1.
         11    1    3    3    0    0  0.37705006034E+02 -0.11795738835E+03 -0.10705936862E+03  0.16369887402E+03  0.00000000000E+00 0.  1.
</event>
<event>
 7    1  0.4096326E-006  0.1683765E+03  0.7561462E-02  0.1179552E+00
         -2   -1    0    0    0  501 -0.00000000000E+00  0.00000000000E+00  0.23515474676E+02  0.23515474676E+02  0.00000000000E+00 0.  1.
          2   -1    0    0  501    0  0.00000000000E+00 -0.00000000000E+00 -0.13716011776E+04  0.13716011776E+04  0.00000000000E+00 0. -1.
         23    2    1    2    0    0 -0.13344259060E+03  0.45588608691E+02 -0.56835598838E+03  0.59292538387E+03  0.92987822217E+02 0.  0.
          5    1    1    2  502    0  0.13866165693E+03 -0.16937410921E+02 -0.45123496355E+03  0.47238162086E+03  0.41800000000E+01 0.  1.
         -5    1    1    2    0  502 -0.52190663301E+01 -0.28651197770E+02 -0.32849475097E+03  0.32980964752E+03  0.41800000000E+01 0.  1.
        -11    1    3    3    0    0 -0.10717379971E+03 -0.84352551906E+01 -0.32761800191E+03  0.34480564388E+03  0.00000000000E+00 0.  1.
         11    1    3    3    0    0 -0.26268790888E+02  0.54023863881E+02 -0.24073798648E+03  0.24811974000E+03  0.00000000000E+00 0. -1.
</event>
<event>
 7    1  0.4096326E-006  0.1289965E+03  0.7561462E-02  0.1228952E+00
          2   -1    0    0  501    0  0.00000000000E+00  0.00000000000E+00  0.87585479621E+03  0.87585479621E+03  0.00000000000E+00 0. -1.
         -2   -1    0    0    0  501 -0.00000000000E+00 -0.00000000000E+00 -0.20106974878E+02  0.20106974878E+02  0.00000000000E+00 0.  1.
         23    2    1    2    0    0  0.41057971097E+02 -0.56504451381E+02  0.46903589288E+03  0.48356399384E+03  0.94662333114E+02 0.  0.
          5    1    1    2  502    0 -0.20000424274E+02  0.95616277923E+02  0.28581204617E+03  0.30207364617E+03  0.41800000000E+01 0.  1.
         -5    1    1    2    0  502 -0.21057546823E+02 -0.39111826543E+02  0.10089988229E+03  0.11032413108E+03  0.41800000000E+01 0.  1.
        -11    1    3    3    0    0  0.22764148191E+02  0.23979965398E+02  0.17827495946E+03  0.18131521270E+03  0.00000000000E+00 0.  1.
         11    1    3    3    0    0  0.18293822906E+02 -0.80484416778E+02  0.29076093342E+03  0.30224878114E+03  0.00000000000E+00 0. -1.
</event>
<event>
 7    1  0.4096326E-006  0.9019638E+02  0.7561462E-02  0.1302377E+00
         -1   -1    0    0    0  501 -0.00000000000E+00  0.00000000000E+00  0.54547449387E+02  0.54547449387E+02  0.00000000000E+00 0.  1.
          1   -1    0    0  501    0  0.00000000000E+00 -0.00000000000E+00 -0.40157996334E+03  0.40157996334E+03  0.00000000000E+00 0. -1.
         23    2    1    2    0    0  0.43305506455E+02  0.18742882488E+02 -0.29541062000E+03  0.31281401115E+03  0.91424879704E+02 0.  0.
          5    1    1    2  502    0 -0.67789071312E+02 -0.26081938546E+02  0.12808337209E+02  0.73872536235E+02  0.41800000000E+01 0.  1.
         -5    1    1    2    0  502  0.24483564858E+02  0.73390560585E+01 -0.64430231157E+02  0.69440865338E+02  0.41800000000E+01 0.  1.
        -11    1    3    3    0    0  0.36266185636E+02 -0.20642977257E+02 -0.54696032479E+02  0.68796981762E+02  0.00000000000E+00 0.  1.
         11    1    3    3    0    0  0.70393208189E+01  0.39385859744E+02 -0.24071458752E+03  0.24401702939E+03  0.00000000000E+00 0. -1.
</event>
<event>
 7    1  0.4096326E-006  0.9662857E+02  0.7561462E-02  0.1287550E+00
         -2   -1    0    0    0  501 -0.00000000000E+00  0.00000000000E+00  0.27247451781E+03  0.27247451781E+03  0.00000000000E+00 0.  1.
          2   -1    0    0  501    0  0.00000000000E+00 -0.00000000000E+00 -0.62349861023E+02  0.62349861023E+02  0.00000000000E+00 0. -1.
         23    2    1    2    0    0 -0.71915263548E+02  0.27456193212E+01  0.89837157605E+02  0.14695261449E+03  0.91351039747E+02 0.  0.
          5    1    1    2  502    0  0.61673954214E+02  0.22497318800E+02  0.13952968003E+03  0.15425890571E+03  0.41800000000E+01 0.  1.
         -5    1    1    2    0  502  0.10241309334E+02 -0.25242938122E+02 -0.19242180845E+02  0.33612858634E+02  0.41800000000E+01 0.  1.
        -11    1    3    3    0    0 -0.20311440861E+02 -0.31858712146E+02  0.73603654533E+02  0.82734697256E+02  0.00000000000E+00 0.  1.
         11    1    3    3    0    0 -0.51603822687E+02  0.34604331467E+02  0.16233503072E+02  0.64217917236E+02  0.00000000000E+00 0. -1.
</event>
<event>
 7    1  0.4096326E-006  0.1530007E+03  0.7561462E-02  0.1196834E+00
         -4   -1    0    0    0  501 -0.00000000000E+00  0.00000000000E+00  0.50424407907E+03  0.50424407907E+03  0.00000000000E+00 0.  1.
          4   -1    0    0  501    0  0.00000000000E+00 -0.00000000000E+00 -0.69736960525E+02  0.69736960525E+02  0.00000000000E+00 0. -1.
         23    2    1    2    0    0  0.12889138176E+03 -0.33243901294E+02  0.32176434013E+03  0.35933305504E+03  0.88711941685E+02 0.  0.
          5    1    1    2  502    0  0.78101698562E+01  0.22962162933E+02  0.64869600323E+02  0.69381533031E+02  0.41800000000E+01 0. -1.
         -5    1    1    2    0  502 -0.13670155162E+03  0.10281738362E+02  0.47873178093E+02  0.14526645153E+03  0.41800000000E+01 0. -1.
        -11    1    3    3    0    0  0.12238624671E+03 -0.45331234021E+02  0.31987689566E+03  0.34547726776E+03  0.00000000000E+00 0.  1.
         11    1    3    3    0    0  0.65051350470E+01  0.12087332727E+02  0.18874444705E+01  0.13855787277E+02  0.00000000000E+00 0. -1.
</event>
<event>
 7    1  0.4096326E-006  0.1054523E+03  0.7561462E-02  0.1269231E+00
         -1   -1    0    0    0  501 -0.00000000000E+00  0.00000000000E+00  0.19882958847E+02  0.19882958847E+02  0.00000000000E+00 0.  1.
          1   -1    0    0  501    0  0.00000000000E+00 -0.00000000000E+00 -0.64523404365E+03  0.64523404365E+03  0.00000000000E+00 0. -1.
         23    2    1    2    0    0 -0.52131673798E+02 -0.11191707368E+02 -0.28484978053E+03  0.29847253216E+03  0.71438709803E+02 0.  0.
          5    1    1    2  502    0  0.52852478434E+01 -0.54553365837E+02 -0.12908982161E+03  0.14030558795E+03  0.41800000000E+01 0.  1.
         -5    1    1    2    0  502  0.46846425955E+02  0.65745073205E+02 -0.21141148266E+03  0.22633888238E+03  0.41800000000E+01 0.  1.
        -11    1    3    3    0    0 -0.13105175441E+02  0.20835893840E+02 -0.30662662999E+02  0.39320211058E+02  0.00000000000E+00 0.  1.
         11    1    3    3    0    0 -0.39026498357E+02 -0.32027601208E+02 -0.25418711753E+03  0.25915232110E+03  0.00000000000E+00 0. -1.
</event>
<event>
 7    1  0.4096326E-006  0.1916460E+03  0.7561462E-02  0.1156985E+00
         -2   -1    0    0    0  501 -0.00000000000E+00  0.00000000000E+00  0.43776802819E+03  0.43776802819E+03  0.00000000000E+00 0.  1.
          2   -1    0    0  501    0  0.00000000000E+00 -0.00000000000E+00 -0.94678269499E+02  0.94678269499E+02  0.00000000000E+00 0. -1.
         23    2    1    2    0    0 -0.15651452211E+03  0.31120971933E+02  0.82281806415E+02  0.20209180806E+03  0.92765794854E+02 0.  0.
          5    1    1    2  502    0  0.19405444179E+02  0.42627048820E+02  0.60942629850E+02  0.76974756173E+02  0.41800000000E+01 0.  1.
         -5    1    1    2    0  502  0.13710907793E+03 -0.73748020753E+02  0.19986532242E+03  0.25337973345E+03  0.41800000000E+01 0.  1.
        -11    1    3    3    0    0 -0.47121185768E+02  0.50898867277E+02  0.11514368904E+02  0.70311318644E+02  0.00000000000E+00 0. -1.
         11    1    3    3    0    0 -0.10939333634E+03 -0.19777895344E+02  0.70767437511E+02  0.13178048942E+03  0.00000000000E+00 0.  1.
</event>
<event>
 7    1  0.4096326E-006  0.2055976E+03  0.7561462E-02  0.1145100E+00
          3   -1    0    0  501    0  0.00000000000E+00  0.00000000000E+00  0.57998948803E+02  0.57998948803E+02  0.00000000000E+00 0. -1.
         -3   -1    0    0    0  501 -0.00000000000E+00 -0.00000000000E+00 -0.81608822137E+03  0.81608822137E+03  0.00000000000E+00 0.  1.
         23    2    1    2    0    0 -0.18115025647E+03 -0.43899777089E+02 -0.33759647182E+03  0.39742798603E+03  0.96099013762E+02 0.  0.
          5    1    1    2  502    0  0.19695927013E+03  0.29782234276E+02 -0.40003491713E+03  0.44690641402E+03  0.41800000000E+01 0. -1.
         -5    1    1    2    0  502 -0.15809013661E+02  0.14117542813E+02 -0.20457883611E+02  0.29752770120E+02  0.41800000000E+01 0. -1.
        -11    1    3    3    0    0 -0.14405611840E+03 -0.18151712358E+02 -0.31517861788E+03  0.34701471306E+03  0.00000000000E+00 0.  1.
         11    1    3    3    0    0 -0.37094138065E+02 -0.25748064732E+02 -0.22417853942E+02  0.50413272971E+02  0.00000000000E+00 0. -1.
</event>
<event>
 7    1  0.4096326E-006  0.8044473E+02  0.7561462E-02  0.1327794E+00
          3   -1    0    0  501    0  0.00000000000E+00  0.00000000000E+00  0.26676085337E+03  0.26676085337E+03  0.00000000000E+00 0. -1.
         -3   -1    0    0    0  501 -0.00000000000E+00 -0.00000000000E+00 -0.67922547051E+02  0.67922547051E+02  0.00000000000E+00 0.  1.
         23    2    1    2    0    0 -0.59237109998E+02 -0.44753685321E+02  0.12308615406E+03  0.17067991500E+03  0.92029910965E+02 0.  0.
          5    1    1    2  502    0  0.25154627949E+02  0.29192830560E+02  0.10777880788E+03  0.11453698307E+03  0.41800000000E+01 0.  1.
         -5    1    1    2    0  502  0.34082482049E+02  0.15560854761E+02 -0.32026655626E+02  0.49466502344E+02  0.41800000000E+01 0.  1.
        -11    1    3    3    0    0 -0.39452875973E+02 -0.46697216992E+01  0.11939035157E+03  0.12582683248E+03  0.00000000000E+00 0. -1.
         11    1    3    3    0    0 -0.19784234025E+02 -0.40083963622E+02  0.36958024888E+01  0.44853082521E+02  0.00000000000E+00 0.  1.
</event>
<event>
 7    1  0.4096326E-006  0.7791290E+02  0.7561462E-02  0.1335081E+00
          1   -1    0    0  501    0  0.00000000000E+00  0.00000000000E+00  0.17565364813E+03  0.17565364813E+03  0.00000000000E+00 0. -1.
         -1   -1    0    0    0  501 -0.00000000000E+00 -0.00000000000E+00 -0.94995499291E+02  0.94995499291E+02  0.00000000000E+00 0.  1.
         23    2    1    2    0    0 -0.62894624322E+02 -0.16836864457E+02  0.64339241006E+02  0.12868850178E+03  0.90454291128E+02 0.  0.
          5    1    1    2  502    0  0.74751174711E+02  0.98321253993E+01  0.59696661313E+02  0.96257844265E+02  0.41800000000E+01 0. -1.
         -5    1    1    2    0  502 -0.11856550389E+02  0.70047390577E+01 -0.43377753482E+02  0.45702801375E+02  0.41800000000E+01 0. -1.
        -11    1    3    3    0    0 -0.39090068917E+02 -0.15596400101E+02 -0.15895102504E+02  0.44988170308E+02  0.00000000000E+00 0.  1.
         11    1    3    3    0    0 -0.23804555405E+02 -0.12404643564E+01  0.80234343510E+02  0.83700331471E+02  0.00000000000E+00 0. -1.
</event>
<event>
 7    1  0.4096326E-006  0.1255698E+03  0.7561462E-02  0.1234181E+00
          1   -1    0    0  501    0  0.00000000000E+00  0.00000000000E+00  0.22154825748E+03  0.22154825748E+03  0.00000000000E+00 0. -1.
         -1   -1    0    0    0  501 -0.00000000000E+00 -0.00000000000E+00 -0.78151806223E+02  0.78151806223E+02  0.00000000000E+00 0.  1.
         23    2    1    2    0    0 -0.69193672100E+02  0.70108545138E+01  0.60770697151E+02  0.13443773587E+03  0.97690894420E+02 0.  0.
          5    1    1    2  502    0 -0.59623112180E+01 -0.48171902293E+02  0.39855462718E+01  0.48881881149E+02  0.41800000000E+01 0. -1.
         -5    1    1    2    0  502  0.75155983318E+02  0.41161047780E+02  0.78640207831E+02  0.11638044668E+03  0.41800000000E+01 0. -1.
        -11    1    3    3    0    0  0.22468501408E+02  0.10714421233E+02  0.26893319441E+02  0.36645368172E+02  0.00000000000E+00 0. -1.
         11    1    3    3    0    0 -0.91662173508E+02 -0.37035667195E+01  0.33877377710E+02  0.97792367694E+02  0.00000000000E+00 0.  1.
</event>
<event>
 7    1  0.4096326E-006  0.1146528E+03  0.7561462E-02  0.1252188E+00
         -1   -1    0    0    0  501 -0.00000000000E+00  0.00000000000E+00  0.40037161708E+02  0.40037161708E+02  0.00000000000E+00 0.  1.
          1   -1    0    0  501    0  0.00000000000E+00 -0.00000000000E+00 -0.49520463956E+03  0.49520463956E+03  0.00000000000E+00 0. -1.
         23    2    1    2    0    0 -0.49228430801E+02 -0.33376352345E+02 -0.33618106360E+03  0.35264056213E+03  0.88318963089E+02 0.  0.
          5    1    1    2  502    0  0.56287212240E+02  0.67741505404E+02 -0.41524352035E+02  0.97462331329E+02  0.41800000000E+01 0.  1.
         -5    1    1    2    0  502 -0.70587814394E+01 -0.34365153059E+02 -0.77462062224E+02  0.85138907816E+02  0.41800000000E+01 0.  1.
        -11    1    3    3    0    0 -0.55103081935E+02  0.14968956283E+02 -0.20106112485E+03  0.20901194994E+03  0.00000000000E+00 0.  1.
         11    1    3    3    0    0  0.58746511346E+01 -0.48345308628E+02 -0.13511993874E+03  0.14362861219E+03  0.00000000000E+00 0. -1.
</event>
<event>
 7    1  0.4096326E-006  0.9938542E+02  0.7561462E-02  0.1281594E+00
         -3   -1    0    0    0  501 -0.00000000000E+00  0.00000000000E+00  0.36478983099E+03  0.36478983099E+03  0.00000000000E+00 0.  1.
          3   -1    0    0  501    0  0.00000000000E+00 -0.00000000000E+00 -0.37990944798E+02  0.37990944798E+02  0.00000000000E+00 0. -1.
         23    2    1    2    0    0  0.11052965303E+02  0.19233665663E+02  0.77134113783E+02  0.12265173767E+03  0.92745217173E+02 0.  0.
          5    1    1    2  502    0  0.71588682939E+01  0.49818974511E+02  0.66599953449E+02  0.83583525984E+02  0.41800000000E+01 0.  1.
         -5    1    1    2    0  502 -0.18211833597E+02 -0.69052640174E+02  0.18306481896E+03  0.19654551213E+03  0.41800000000E+01 0.  1.
        -11    1    3    3    0    0  0.40296334202E+02 -0.23806784237E+01  0.34879364279E+01  0.40517007298E+02  0.00000000000E+00 0. -1.
         11    1    3    3    0    0 -0.29243368899E+02  0.21614344086E+02  0.73646177355E+02  0.82134730376E+02  0.00000000000E+00 0.  1.
</event>
<event>
 7    1  0.4096326E-006  0.9188583E+02  0.7561462E-02  0.1298348E+00
         -3   -1    0    0    0  501 -0.00000000000E+00  0.00000000000E+00  0.41972454655E+02  0.41972454655E+02  0.00000000000E+00 0.  1.
          3   -1    0    0  501    0  0.00000000000E+00 -0.00000000000E+00 -0.34900844782E+03  0.34900844782E+03  0.00000000000E+00 0. -1.
         23    2    1    2    0    0 -0.37626393713E+02  0.28520965499E+02 -0.17938982087E+03  0.20612468352E+03  0.89874837131E+02 0.  0.
          5    1    1    2  502    0  0.13179046981E+02 -0.77450588047E+02 -0.79868792219E+02  0.11211055811E+03  0.41800000000E+01 0. -1.
         -5    1    1    2    0  502  0.24447346732E+02  0.48929622547E+02 -0.47777380073E+02  0.72745660843E+02  0.41800000000E+01 0. -1.
        -11    1    3    3    0    0 -0.19331956437E+02  0.25012007953E+02 -0.18419418316E+03  0.18688719108E+03  0.00000000000E+00 0. -1.
         11    1    3    3    0    0 -0.18294437276E+02  0.35089575465E+01  0.48043622911E+01  0.19237492438E+02  0.00000000000E+00 0.  1.
</event>
<event>
 7    1  0.4096326E-006  0.9666630E+02  0.7561462E-02  0.1287467E+00
          2   -1    0    0  501    0  0.00000000000E+00  0.00000000000E+00  0.44249121594E+03  0.44249121594E+03  0.00000000000E+00 0. -1.
         -2   -1    0    0    0  501 -0.00000000000E+00 -0.00000000000E+00 -0.41183336383E+02  0.41183336383E+02  0.00000000000E+00 0.  1.
         23    2    1    2    0    0 -0.67947839860E+02  0.42026976532E+02  0.18180825929E+03  0.21869401798E+03  0.91595058018E+02 0.  0.
          5    1    1    2  502    0  0.45480007615E+02 -0.28761613784E+02  0.11341841494E+02  0.55152255517E+02  0.41800000000E+01 0.  1.
         -5    1    1    2    0  502  0.22467832245E+02 -0.13265362747E+02  0.20815777877E+03  0.20982827883E+03  0.41800000000E+01 0.  1.
        -11    1    3    3    0    0 -0.86169670868E+02  0.30678110538E+02  0.17259376976E+03  0.19533296701E+03  0.00000000000E+00 0. -1.
         11    1    3    3    0    0  0.18221831008E+02  0.11348865994E+02  0.92144895357E+01  0.23361050961E+02  0.00000000000E+00 0.  1.
</event>
<event>
 7    1  0.4096326E-006  0.1113766E+03  0.7561462E-02  0.1258042E+00
          1   -1    0    0  501    0  0.00000000000E+00  0.00000000000E+00  0.19975070851E+03  0.19975070851E+03  0.00000000000E+00 0. -1.
         -1   -1    0    0    0  501 -0.00000000000E+00 -0.00000000000E+00 -0.16136750419E+03  0.16136750419E+03  0.00000000000E+00 0.  1.
         23    2    1    2    0    0  0.28261731070E+02  0.54525188759E+02  0.14742753960E+03  0.18417329814E+03  0.91723512047E+02 0.  0.
          5    1    1    2  502    0  0.13105465952E+01 -0.78495333845E+02 -0.21674194849E+02  0.81550463458E+02  0.41800000000E+01 0. -1.
         -5    1    1    2    0  502 -0.29572277666E+02  0.23970145086E+02 -0.87370140438E+02  0.95394451106E+02  0.41800000000E+01 0. -1.
        -11    1    3    3    0    0 -0.14609321887E+01  0.71564662744E+02  0.12222169390E+03  0.14163960512E+03  0.00000000000E+00 0.  1.
         11    1    3    3    0    0  0.29722663259E+02 -0.17039473985E+02  0.25205845698E+02  0.42533693024E+02  0.00000000000E+00 0. -1.
</event>
<event>
 7    1  0.4096326E-006  0.1274312E+03  0.7561462E-02  0.1231318E+00
          1   -1    0    0  501    0  0.00000000000E+00  0.00000000000E+00  0.41632244715E+03  0.41632244715E+03  0.00000000000E+00 0. -1.
         -1   -1    0    0    0  501 -0.00000000000E+00 -0.00000000000E+00 -0.55516922698E+02  0.55516922698E+02  0.00000000000E+00 0.  1.
         23    2    1    2    0    0  0.32838347552E+01  0.85970191713E+02  0.26742320140E+03  0.29358600777E+03  0.85298991084E+02 0.  0.
          5    1    1    2  502    0  0.12944380749E+02 -0.10883875306E+03  0.10077789984E+03  0.14895331032E+03  0.41800000000E+01 0.  1.
         -5    1    1    2    0  502 -0.16228215504E+02  0.22868561346E+02 -0.73955767885E+01  0.29300051750E+02  0.41800000000E+01 0.  1.
        -11    1    3    3    0    0 -0.37903337604E+02  0.42252558255E+02  0.91338330397E+02  0.10753898028E+03  0.00000000000E+00 0.  1.
         11    1    3    3    0    0  0.41187172360E+02  0.43717633458E+02  0.17608487100E+03  0.18604702749E+03  0.00000000000E+00 0. -1.
</event>
<event>
 7    1  0.4096326E-006  0.1161195E+03  0.7561462E-02  0.1249639E+00
         -1   -1    0    0    0  501 -0.00000000000E+00  0.00000000000E+00  0.17768983084E+02  0.17768983084E+02  0.00000000000E+00 0.  1.
          1   -1    0    0  501    0  0.00000000000E+00 -0.00000000000E+00 -0.89802151811E+03  0.89802151811E+03  0.00000000000E+00 0. -1.
         23    2    1    2    0    0 -0.53951602956E+02  0.39502168303E+01 -0.51057737819E+03  0.52179233000E+03  0.93013960574E+02 0.  0.
          5    1    1    2  502    0 -0.35885425555E+02  0.39735695179E+01 -0.49971844064E+02  0.61791671131E+02  0.41800000000E+01 0.  1.
         -5    1    1    2    0  502  0.89837028512E+02 -0.79237863482E+01 -0.31970331278E+03  0.33220650006E+03  0.41800000000E+01 0.  1.
        -11    1    3    3    0    0 -0.59999638391E+02 -0.32790589205E+02 -0.37561538042E+03  0.38178802150E+03  0.00000000000E+00 0.  1.
         11    1    3    3    0    0  0.60480354351E+01  0.36740806036E+02 -0.13496199776E+03  0.14000430851E+03  0.00000000000E+00 0. -1.
</event>
<event>
 7    1  0.4096326E-006  0.1825164E+03  0.7561462E-02  0.1165390E+00
         -2   -1    0    0    0  501 -0.00000000000E+00  0.00000000000E+00  0.20540451882E+02  0.20540451882E+02  0.00000000000E+00 0. -1.
          2   -1    0    0  501    0  0.00000000000E+00 -0.00000000000E+00 -0.16349358838E+04  0.16349358838E+04  0.00000000000E+00 0.  1.
         23    2    1    2    0    0  0.11618138753E+03  0.89480166038E+02 -0.80070761475E+03  0.81927088395E+03  0.92559613551E+02 0.  0.
          5    1    1    2  502    0 -0.78846513416E+01 -0.83525463116E+02 -0.33593097539E+03  0.34627411590E+03  0.41800000000E+01 0.  1.
         -5    1    1    2    0  502 -0.10829673619E+03 -0.59547029213E+01 -0.47775684179E+03  0.48993133584E+03  0.41800000000E+01 0.  1.
        -11    1    3    3    0    0  0.68893475144E+01  0.58484484235E+02 -0.31473868613E+03  0.32020046620E+03  0.00000000000E+00 0. -1.
         11    1    3    3    0    0  0.10929204002E+03  0.30995681803E+02 -0.48596892862E+03  0.49907041776E+03  0.00000000000E+00 0.  1.
</event>
<event>
 7    1  0.4096326E-006  0.1706903E+03  0.7561462E-02  0.1177130E+00
          1   -1    0    0  501    0  0.00000000000E+00  0.00000000000E+00  0.74989985229E+03  0.74989985229E+03  0.00000000000E+00 0. -1.
         -1   -1    0    0    0  501 -0.00000000000E+00 -0.00000000000E+00 -0.12128236481E+03  0.12128236481E+03  0.00000000000E+00 0.  1.
         23    2    1    2    0    0 -0.16295021734E+03  0.42803742844E+01  0.62603381085E+03  0.65442080355E+03  0.98879526944E+02 0.  0.
          5    1    1    2  502    0  0.81913056490E+02 -0.68033867673E+01  0.72454589125E+02  0.10965023840E+03  0.41800000000E+01 0. -1.
         -5    1    1    2    0  502  0.81037160849E+02  0.25230124829E+01 -0.69870912495E+02  0.10711117516E+03  0.41800000000E+01 0.  1.
        -11    1    3    3    0    0 -0.84738789052E+02 -0.33395803526E+02  0.20190535597E+03  0.22149879195E+03  0.00000000000E+00 0.  1.
         11    1    3    3    0    0 -0.78211428286E+02  0.37676177810E+02  0.42412845488E+03  0.43292201160E+03  0.00000000000E+00 0. -1.
</event>
<event>
 7    1  0.4096326E-006  0.1385075E+03  0.7561462E-02  0.1215351E+00
         -3   -1    0    0    0  501 -0.00000000000E+00  0.00000000000E+00  0.94936999212E+02  0.94936999212E+02  0.00000000000E+00 0.  1.
          3   -1    0    0  501    0  0.00000000000E+00 -0.00000000000E+00 -0.27914711962E+03  0.27914711962E+03  0.00000000000E+00 0. -1.
         23    2    1    2    0    0  0.81847157285E+02 -0.30823196092E+02 -0.18148378043E+03  0.22157694422E+03  0.92254826855E+02 0.  0.
          5    1    1    2  502    0 -0.61858456694E+02 -0.43017131720E+02  0.42306345239E+01  0.75579844896E+02  0.41800000000E+01 0.  1.
         -5    1    1    2    0  502 -0.19988700590E+02  0.73840327812E+02 -0.69569745000E+01  0.76927329713E+02  0.41800000000E+01 0.  1.
        -11    1    3    3    0    0  0.13243436530E+02 -0.51590757676E+02 -0.57607286129E+02  0.78457595578E+02  0.00000000000E+00 0.  1.
         11    1    3    3    0    0  0.68603720754E+02  0.20767561585E+02 -0.12387649430E+03  0.14311934864E+03  0.00000000000E+00 0. -1.
</event>
<event>
 6    1  0.4096326E-006  0.8347525E+02  0.7561462E-02  0.1319469E+00
          2   -1    0    0  501    0  0.00000000000E+00  0.00000000000E+00  0.10909010553E+03  0.10909010553E+03  0.00000000000E+00 0. -1.
         -2   -1    0    0    0  501 -0.00000000000E+00 -0.00000000000E+00 -0.10902349343E+03  0.10902349343E+03  0.00000000000E+00 0.  1.
          5    1    1    2  502    0 -0.19232149258E+02  0.70895106916E+02  0.23931049369E+02  0.77370273837E+02  0.41800000000E+01 0. -1.
         -5    1    1    2    0  502  0.61927881084E+01 -0.20527183361E+02 -0.57638925973E+02  0.61639549549E+02  0.41800000000E+01 0.  1.
        -11    1    1    2    0    0 -0.16907153280E+02 -0.58778082015E+01  0.82349839174E+01  0.19703183027E+02  0.00000000000E+00 0. -1.
         11    1    1    2    0    0  0.29946514429E+02 -0.44490115353E+02  0.25539504783E+02  0.59400592549E+02  0.00000000000E+00 0.  1.
</event>
<event>
 7    1  0.4096326E-006  0.1171532E+03  0.7561462E-02  0.1247869E+00
         -2   -1    0    0    0  501 -0.00000000000E+00  0.00000000000E+00  0.55807356276E+02  0.55807356276E+02  0.00000000000E+00 0.  1.
          2   -1    0    0  501    0  0.00000000000E+00 -0.00000000000E+00 -0.27197347117E+03  0.27197347117E+03  0.00000000000E+00 0. -1.
         23    2    1    2    0    0 -0.52986819649E+02 -0.10222415985E+02 -0.12500326480E+03  0.16386103126E+03  0.91173025131E+02 0.  0.
          5    1    1    2  502    0  0.90767928974E+02  0.10769194057E+00 -0.39730974388E+02  0.99170818559E+02  0.41800000000E+01 0. -1.
         -5    1    1    2    0  502 -0.37781109325E+02  0.10114724045E+02 -0.51431875707E+02  0.64748977622E+02  0.41800000000E+01 0. -1.
        -11    1    3    3    0    0 -0.55600403461E+02 -0.43582327438E+02 -0.69827051110E+02  0.99330967964E+02  0.00000000000E+00 0.  1.
         11    1    3    3    0    0  0.26135838121E+01  0.33359911453E+02 -0.55176213686E+02  0.64530063298E+02  0.00000000000E+00 0. -1.
</event>
<event>
 7    1  0.4096326E-006  0.1751096E+03  0.7561462E-02  0.1172622E+00
          1   -1    0    0  501    0  0.00000000000E+00  0.00000000000E+00  0.25323021115E+03  0.25323021115E+03  0.00000000000E+00 0. -1.
         -1   -1    0    0    0  501 -0.00000000000E+00 -0.00000000000E+00 -0.47616892483E+03  0.47616892483E+03  0.00000000000E+00 0.  1.
         23    2    1    2    0    0  0.37450324484E+02 -0.14089144544E+03  0.20124247018E+03  0.26374788537E+03  0.88382628535E+02 0.  0.
          5    1    1    2  502    0  0.41882266062E+02  0.68460196531E+02 -0.13469319276E+03  0.15684594766E+03  0.41800000000E+01 0. -1.
         -5    1    1    2    0  502 -0.79332590547E+02  0.72431248910E+02 -0.28948799110E+03  0.30880530296E+03  0.41800000000E+01 0. -1.
        -11    1    3    3    0    0 -0.21574285667E+02 -0.34833916893E+02  0.19941673986E+02  0.45568870181E+02  0.00000000000E+00 0.  1.
         11    1    3    3    0    0  0.59024610152E+02 -0.10605752855E+03  0.18130079620E+03  0.21817901518E+03  0.00000000000E+00 0. -1.
</event>
<event>
 7    1  0.4096326E-006  0.1012921E+03  0.7561462E-02  0.1277602E+00
         -1   -1    0    0    0  501 -0.00000000000E+00  0.00000000000E+00  0.34565818348E+02  0.34565818348E+02  0.00000000000E+00 0.  1.
          1   -1    0    0  501    0  0.00000000000E+00 -0.00000000000E+00 -0.54246768305E+03  0.54246768305E+03  0.00000000000E+00 0. -1.
         23    2    1    2    0    0 -0.56148166413E+02 -0.41239560751E+02 -0.32392152010E+03  0.34390387048E+03  0.92148808913E+02 0.  0.
          5    1    1    2  502    0  0.25426681609E+02 -0.10173797606E+02 -0.16899310324E+03  0.17124883543E+03  0.41800000000E+01 0.  1.
         -5    1    1    2    0  502  0.30721484804E+02  0.51413358357E+02 -0.14987241363E+02  0.61880795484E+02  0.41800000000E+01 0.  1.
        -11    1    3    3    0    0 -0.53748144128E+02 -0.68728000229E+02 -0.26103096611E+03  0.27522639096E+03  0.00000000000E+00 0.  1.
         11    1    3    3    0    0 -0.24000222850E+01  0.27488439478E+02 -0.62890553990E+02  0.68677479519E+02  0.00000000000E+00 0. -1.
</event>
<event>
 7    1  0.4096326E-006  0.1458389E+03  0.7561462E-02  0.1205681E+00
          2   -1    0    0  501    0  0.00000000000E+00  0.00000000000E+00  0.12045287793E+04  0.12045287793E+04  0.00000000000E+00 0.  1.
         -2   -1    0    0    0  501 -0.00000000000E+00 -0.00000000000E+00 -0.27149754336E+02  0.27149754336E+02  0.00000000000E+00 0. -1.
         23    2    1    2    0    0  0.56779759597E+02  0.12665893737E+03  0.68184256172E+03  0.70208429853E+03  0.93523557270E+02 0.  0.
          5    1    1    2  502    0  0.30118126937E+00 -0.31332668090E+01  0.23997949115E+03  0.24003653189E+03  0.41800000000E+01 0. -1.
         -5    1    1    2    0  502 -0.57080940866E+02 -0.12352567056E+03  0.25555697207E+03  0.28955770318E+03  0.41800000000E+01 0. -1.
        -11    1    3    3    0    0  0.38961066451E+02  0.23248977979E+02  0.87642366299E+02  0.98689736278E+02  0.00000000000E+00 0. -1.
         11    1    3    3    0    0  0.17818693146E+02  0.10340995939E+03  0.59420019542E+03  0.60339456226E+03  0.00000000000E+00 0.  1.
</event>
<event>
 7    1  0.4096326E-006  0.7549571E+02  0.7561462E-02  0.1342343E+00
         -2   -1    0    0    0  501 -0.00000000000E+00  0.00000000000E+00  0.70196442096E+02  0.70196442096E+02  0.00000000000E+00 0.  1.
          2   -1    0    0  501    0  0.00000000000E+00 -0.00000000000E+00 -0.18297104675E+03  0.18297104675E+03  0.00000000000E+00 0. -1.
         23    2    1    2    0    0 -0.41583207487E+01 -0.22762930253E+02 -0.75240205387E+02  0.12053265666E+03  0.91277544828E+02 0.  0.
          5    1    1    2  502    0 -0.12360463417E+02 -0.15566652331E+02  0.39785000411E+02  0.44670128479E+02  0.41800000000E+01 0.  1.
         -5    1    1    2    0  502  0.16518784166E+02  0.38329582583E+02 -0.77319399678E+02  0.87964703705E+02  0.41800000000E+01 0.  1.
        -11    1    3    3    0    0 -0.74709051777E+01  0.32511840587E+02 -0.48945844904E+02  0.59232845077E+02  0.00000000000E+00 0. -1.
         11    1    3    3    0    0  0.33125844291E+01 -0.55274770840E+02 -0.26294360483E+02  0.61299811584E+02  0.00000000000E+00 0.  1.
</event>
<event>
 7    1  0.4096326E-006  0.9966607E+02  0.7561462E-02  0.1281000E+00
         -3   -1    0    0    0  501 -0.00000000000E+00  0.00000000000E+00  0.96029704445E+03  0.96029704445E+03  0.00000000000E+00 0.  1.
          3   -1    0    0  501    0  0.00000000000E+00 -0.00000000000E+00 -0.18368884997E+02  0.18368884997E+02  0.00000000000E+00 0. -1.
         23    2    1    2    0    0 -0.52751036405E+02 -0.64027653286E+02  0.35404326238E+03  0.37192219803E+03  0.78085065913E+02 0.  0.
          5    1    1    2  502    0  0.22706158558E+02  0.56588061668E+02  0.95582733200E+02  0.11345179437E+03  0.41800000000E+01 0. -1.
         -5    1    1    2    0  502  0.30044877847E+02  0.74395916186E+01  0.49230216387E+03  0.49329193705E+03  0.41800000000E+01 0. -1.
        -11    1    3    3    0    0 -0.12580158990E+01 -0.54622911828E+02  0.24429007424E+03  0.25032555896E+03  0.00000000000E+00 0.  1.
         11    1    3    3    0    0 -0.51493020506E+02 -0.94047414587E+01  0.10975318815E+03  0.12159663906E+03  0.00000000000E+00 0. -1.
</event>
<event>
 7    1  0.4096326E-006  0.1510974E+03  0.7561462E-02  0.1199131E+00
          4   -1    0    0  501    0  0.00000000000E+00  0.00000000000E+00  0.39171979066E+03  0.39171979066E+03  0.00000000000E+00 0. -1.
         -4   -1    0    0    0  501 -0.00000000000E+00 -0.00000000000E+00 -0.74372681989E+02  0.74372681989E+02  0.00000000000E+00 0.  1.
         23    2    1    2    0    0  0.10419915654E+03  0.64147261798E+02  0.21473114643E+03  0.26323552205E+03  0.90615337562E+02 0.  0.
          5    1    1    2  502    0 -0.79694783241E+02  0.17571663999E+02  0.20228301447E+02  0.84182411649E+02  0.41800000000E+01 0.  1.
         -5    1    1    2    0  502 -0.24504373299E+02 -0.81718925797E+02  0.82387660798E+02  0.11867453895E+03  0.41800000000E+01 0.  1.
        -11    1    3    3    0    0  0.10141750795E+03  0.37280641017E+02  0.10661420919E+03  0.15179574011E+03  0.00000000000E+00 0.  1.
         11    1    3    3    0    0  0.27816485870E+01  0.26866620781E+02  0.10811693723E+03  0.11143978193E+03  0.00000000000E+00 0. -1.
</event>
<event>
 7    1  0.4096326E-006  0.1360080E+03  0.7561462E-02  0.1218804E+00
          2   -1    0    0  501    0  0.00000000000E+00  0.00000000000E+00  0.13398272107E+04  0.13398272107E+04  0.00000000000E+00 0. -1.
         -2   -1    0    0    0  501 -0.00000000000E+00 -0.00000000000E+00 -0.14894262977E+02  0.14894262977E+02  0.00000000000E+00 0.  1.
         23    2    1    2    0    0  0.89146559469E+02  0.39102014475E+02  0.62156708034E+03  0.63371738940E+03  0.76000116226E+02 0.  0.
          5    1    1    2  502    0  0.11412784203E+02  0.25992732232E+02  0.26492003821E+03  0.26646945945E+03  0.41800000000E+01 0. -1.
         -5    1    1    2    0  502 -0.10055934367E+03 -0.65094746707E+02  0.43844582916E+03  0.45453462481E+03  0.41800000000E+01 0. -1.
        -11    1    3    3    0    0  0.85498075739E+02  0.13264550779E+01  0.42301072218E+03  0.43156662466E+03  0.00000000000E+00 0.  1.
         11    1    3    3    0    0  0.36484837302E+01  0.37775559397E+02  0.19855635816E+03  0.20215076474E+03  0.00000000000E+00 0. -1.
</event>
<event>
 7    1  0.4096326E-006  0.1020098E+03  0.7561462E-02  0.1276125E+00
         -1   -1    0    0    0  501 -0.00000000000E+00  0.00000000000E+00  0.45638581826E+02  0.45638581826E+02  0.00000000000E+00 0.  1.
          1   -1    0    0  501    0  0.00000000000E+00 -0.00000000000E+00 -0.38741683564E+03  0.38741683564E+03  0.00000000000E+00 0. -1.
         23    2    1    2    0    0  0.65524487120E+02 -0.28998325755E+02 -0.19437972153E+03  0.22687937537E+03  0.92500883887E+02 0.  0.
          5    1    1    2  502    0  0.25114287030E+01 -0.34625278200E+02 -0.90313018599E+02  0.96845913146E+02  0.41800000000E+01 0.  1.
         -5    1    1    2    0  502 -0.68035915823E+02  0.63623603956E+02 -0.57085513685E+02  0.10933012894E+03  0.41800000000E+01 0.  1.
        -11    1    3    3    0    0  0.46467770170E+02 -0.74804100801E+01 -0.21706750170E+02  0.51830427381E+02  0.00000000000E+00 0.  1.
         11    1    3    3    0    0  0.19056716950E+02 -0.21517915675E+02 -0.17267297136E+03  0.17504894799E+03  0.00000000000E+00 0. -1.
</event>
<event>
 7    1  0.4096326E-006  0.1387510E+03  0.7561462E-02  0.1215019E+00
         -2   -1    0    0    0  501 -0.00000000000E+00  0.00000000000E+00  0.21688718441E+03  0.21688718441E+03  0.00000000000E+00 0.  1.
          2   -1    0    0  501    0  0.00000000000E+00 -0.00000000000E+00 -0.10329225161E+03  0.10329225161E+03  0.00000000000E+00 0. -1.
         23    2    1    2    0    0  0.10402756056E+03  0.31899386712E+02  0.54002107811E+02  0.15218532295E+03  0.91677917986E+02 0.  0.
          5    1    1    2  502    0 -0.12571478478E+03 -0.31537816514E+02  0.33750936674E+02  0.13399790711E+03  0.41800000000E+01 0. -1.
         -5    1    1    2    0  502  0.21687224224E+02 -0.36157019746E+00  0.25841888314E+02  0.33996205953E+02  0.41800000000E+01 0.  1.
        -11    1    3    3    0    0  0.93796619206E+02  0.16595104781E+01  0.53102791720E+01  0.93961475161E+02  0.00000000000E+00 0.  1.
         11    1    3    3    0    0  0.10230941351E+02  0.30239876234E+02  0.48691828639E+02  0.58223847793E+02  0.00000000000E+00 0. -1.
</event>
<event>
 7    1  0.4096326E-006  0.1556838E+03  0.7561462E-02  0.1193658E+00
         -2   -1    0    0    0  501 -0.00000000000E+00  0.00000000000E+00  0.24205753409E+02  0.24205753409E+02  0.00000000000E+00 0.  1.
          2   -1    0    0  501    0  0.00000000000E+00 -0.00000000000E+00 -0.11795189988E+04  0.11795189988E+04  0.00000000000E+00 0. -1.
         23    2    1    2    0    0  0.12746312163E+03 -0.14080203530E+02 -0.51340053272E+03  0.53728320128E+03  0.92994794860E+02 0.  0.
          5    1    1    2  502    0 -0.86952668054E+02 -0.48272441565E+02 -0.28620312453E+03  0.30301929969E+03  0.41800000000E+01 0.  1.
         -5    1    1    2    0  502 -0.40510453573E+02  0.62352645094E+02 -0.35570958811E+03  0.36342225120E+03  0.41800000000E+01 0.  1.
        -11    1    3    3    0    0  0.53600278485E+02  0.18389934218E+02 -0.90670211399E+02  0.10692177874E+03  0.00000000000E+00 0.  1.
         11    1    3    3    0    0  0.73862843142E+02 -0.32470137748E+02 -0.42273032133E+03  0.43036142254E+03  0.00000000000E+00 0. -1.
</event>
<event>
 7    1  0.4096326E-006  0.7458935E+02  0.7561462E-02  0.1345147E+00
         -2   -1    0    0    0  501 -0.00000000000E+00  0.00000000000E+00  0.26669887719E+02  0.26669887719E+02  0.00000000000E+00 0.  1.
          2   -1    0    0  501    0  0.00000000000E+00 -0.00000000000E+00 -0.54086462419E+03  0.54086462419E+03  0.00000000000E+00 0. -1.
         23    2    1    2    0    0  0.35851652258E+02  0.20345004675E+02 -0.28918955182E+03  0.30681587995E+03  0.93840967186E+02 0.  0.
          5    1    1    2  502    0 -0.76904469792E+01  0.13743150878E+02  0.11587135060E+02  0.19993780775E+02  0.41800000000E+01 0. -1.
         -5    1    1    2    0  502 -0.28161205278E+02 -0.34088155553E+02 -0.23659231972E+03  0.24072485119E+03  0.41800000000E+01 0. -1.
        -11    1    3    3    0    0  0.59383446738E+02  0.34131266600E+01 -0.25567423102E+03  0.26250210587E+03  0.00000000000E+00 0. -1.
         11    1    3    3    0    0 -0.23531794481E+02  0.16931878015E+02 -0.33515320801E+02  0.44313774077E+02  0.00000000000E+00 0.  1.
</event>
<event>
 7    1  0.4096326E-006  0.8094176E+02  0.7561462E-02  0.1326400E+00
          3   -1    0    0  501    0  0.00000000000E+00  0.00000000000E+00  0.93598504930E+02  0.93598504930E+02  0.00000000000E+00 0. -1.
         -3   -1    0    0    0  501 -0.00000000000E+00 -0.00000000000E+00 -0.16343434020E+03  0.16343434020E+03  0.00000000000E+00 0.  1.
         23    2    1    2    0    0  0.13294710471E+02 -0.69811417801E+01  0.30247150177E+02  0.96129139960E+02  0.90002421015E+02 0.  0.
          5    1    1    2  502    0  0.32608267140E+02  0.41109293024E+02 -0.87615932584E+02  0.10221202034E+03  0.41800000000E+01 0.  1.
         -5    1    1    2    0  502 -0.45902977612E+02 -0.34128151244E+02 -0.12467052859E+02  0.58691684828E+02  0.41800000000E+01 0.  1.
        -11    1    3    3    0    0 -0.14879686374E+02  0.10969818589E+02 -0.25285466554E+02  0.31322464866E+02  0.00000000000E+00 0.  1.
         11    1    3    3    0    0  0.28174396845E+02 -0.17950960369E+02  0.55532616731E+02  0.64806675094E+02  0.00000000000E+00 0. -1.
</event>
<event>
 7    1  0.4096326E-006  0.1152424E+03  0.7561462E-02  0.1251159E+00
          1   -1    0    0  501    0  0.00000000000E+00  0.00000000000E+00  0.53126539368E+03  0.53126539368E+03  0.00000000000E+00 0. -1.
         -1   -1    0    0    0  501 -0.00000000000E+00 -0.00000000000E+00 -0.31569410819E+02  0.31569410819E+02  0.00000000000E+00 0.  1.
         23    2    1    2    0    0 -0.26042218233E+02 -0.61166753127E+02  0.25429220342E+03  0.27948055861E+03  0.95001521577E+02 0.  0.
          5    1    1    2  502    0  0.61114575621E+02  0.34637681968E+02  0.22296732553E+03  0.23380902681E+03  0.41800000000E+01 0. -1.
         -5    1    1    2    0  502 -0.35072357388E+02  0.26529071160E+02  0.22436453915E+02  0.49545219079E+02  0.41800000000E+01 0. -1.
        -11    1    3    3    0    0 -0.42293238791E+02  0.95673672547E+01  0.97150821835E+02  0.10638860252E+03  0.00000000000E+00 0.  1.
         11    1    3    3    0    0  0.16251020558E+02 -0.70734120382E+02  0.15714138158E+03  0.17309195608E+03  0.00000000000E+00 0. -1.
</event>
<event>
 7    1  0.4096326E-006  0.2704388E+03  0.7561462E-02  0.1101029E+00
          1   -1    0    0  501    0  0.00000000000E+00  0.00000000000E+00  0.58280289090E+03  0.58280289090E+03  0.00000000000E+00 0. -1.
         -1   -1    0    0    0  501 -0.00000000000E+00 -0.00000000000E+00 -0.19189501588E+03  0.19189501588E+03  0.00000000000E+00 0.  1.
         23    2    1    2    0    0  0.15524349754E+03  0.20481132074E+03  0.40503935958E+03  0.48852406445E+03  0.92469768597E+02 0.  0.
          5    1    1    2  502    0 -0.69539487312E+02 -0.16128273803E+03  0.33441677538E+02  0.17883981681E+03  0.41800000000E+01 0. -1.
         -5    1    1    2    0  502 -0.85704010230E+02 -0.43528582707E+02 -0.47573162101E+02  0.10733402552E+03  0.41800000000E+01 0. -1.
        -11    1    3    3    0    0  0.27005315664E+02  0.99315529843E+02  0.11514414494E+03  0.15443780514E+03  0.00000000000E+00 0.  1.
         11    1    3    3    0    0  0.12823818188E+03  0.10549579089E+03  0.28989521464E+03  0.33408625931E+03  0.00000000000E+00 0. -1.
</event>
<event>
 7    1  0.4096326E-006  0.6915492E+02  0.7561462E-02  0.1362991E+00
         -2   -1    0    0    0  501 -0.00000000000E+00  0.00000000000E+00  0.13115736129E+03  0.13115736129E+03  0.00000000000E+00 0.  1.
          2   -1    0    0  501    0  0.00000000000E+00 -0.00000000000E+00 -0.11214374162E+03  0.11214374162E+03  0.00000000000E+00 0. -1.
         23    2    1    2    0    0  0.86946501988E+01  0.30744369237E+01 -0.43503567950E+02  0.10315561984E+03  0.93077775950E+02 0.  0.
          5    1    1    2  502    0 -0.47585948678E+02 -0.16659273757E+02 -0.14565010188E+02  0.52645663026E+02  0.41800000000E+01 0. -1.
         -5    1    1    2    0  502  0.38891298480E+02  0.13584836833E+02  0.77082197806E+02  0.87499820044E+02  0.41800000000E+01 0. -1.
        -11    1    3    3    0    0  0.56776918513E+01  0.24258505172E+02  0.22623227226E+02  0.33652959277E+02  0.00000000000E+00 0.  1.
         11    1    3    3    0    0  0.30169583475E+01 -0.21184068249E+02 -0.66126795176E+02  0.69502660564E+02  0.00000000000E+00 0. -1.
</event>
<event>
 7    1  0.4096326E-006  0.1017043E+03  0.7561462E-02  0.1276752E+00
          1   -1    0    0  501    0  0.00000000000E+00  0.00000000000E+00  0.48773252469E+02  0.48773252469E+02  0.00000000000E+00 0. -1.
         -1   -1    0    0    0  501 -0.00000000000E+00 -0.00000000000E+00 -0.37610508540E+03  0.37610508540E+03  0.00000000000E+00 0.  1.
         23    2    1    2    0    0  0.63268921829E+02  0.45767990665E+02 -0.11562842731E+03  0.16687986779E+03  0.91549394494E+02 0.  0.
          5    1    1    2  502    0 -0.13658607041E+02  0.16399964589E+02 -0.16341803491E+03  0.16485885757E+03  0.41800000000E+01 0.  1.
         -5    1    1    2    0  502 -0.49610314789E+02 -0.62167955255E+02 -0.48285370710E+02  0.93139612510E+02  0.41800000000E+01 0.  1.
        -11    1    3    3    0    0  0.51899623405E+02 -0.29536297125E+01 -0.10285388667E+03  0.11524416185E+03  0.00000000000E+00 0. -1.
         11    1    3    3    0    0  0.11369298424E+02  0.48721620378E+02 -0.12774540639E+02  0.51635705935E+02  0.00000000000E+00 0.  1.
</event>
<event>
 7    1  0.4096326E-006  0.8929788E+02  0.7561462E-02  0.1304561E+00
          1   -1    0    0  501    0  0.00000000000E+00  0.00000000000E+00  0.52369543780E+03  0.52369543780E+03  0.00000000000E+00 0. -1.
         -1   -1    0    0    0  501 -0.00000000000E+00 -0.00000000000E+00 -0.24139514553E+02  0.24139514553E+02  0.00000000000E+00 0.  1.
         23    2    1    2    0    0 -0.30407807028E+02  0.48432582236E+01  0.19655466112E+03  0.21858266545E+03  0.90534827259E+02 0.  0.
          5    1    1    2  502    0 -0.31534848310E+02  0.92543850265E+01  0.18975697973E+02  0.38179049408E+02  0.41800000000E+01 0.  1.
         -5    1    1    2    0  502  0.61942655338E+02 -0.14097643250E+02  0.28402556415E+03  0.29107323750E+03  0.41800000000E+01 0.  1.
        -11    1    3    3    0    0  0.14157884805E+02 -0.24603890880E+02  0.21641865245E+02  0.35695482626E+02  0.00000000000E+00 0.  1.
         11    1    3    3    0    0 -0.44565691833E+02  0.29447149104E+02  0.17491279588E+03  0.18288718282E+03  0.00000000000E+00 0. -1.
</event>
<event>
 7    1  0.4096326E-006  0.8712626E+02  0.7561462E-02  0.1309964E+00
          1   -1    0    0  501    0  0.00000000000E+00  0.00000000000E+00  0.40044650255E+03  0.40044650255E+03  0.00000000000E+00 0. -1.
         -1   -1    0    0    0  501 -0.00000000000E+00 -0.00000000000E+00 -0.29644294482E+02  0.29644294482E+02  0.00000000000E+00 0.  1.
         23    2    1    2    0    0  0.72709255384E+01 -0.70070992492E+01  0.17696751908E+03  0.19917727059E+03  0.90841160891E+02 0.  0.
          5    1    1    2  502    0  0.40677863648E+02 -0.12346570204E+02  0.16725729380E+03  0.17262560968E+03  0.41800000000E+01 0.  1.
         -5    1    1    2    0  502 -0.47948789187E+02  0.19353669454E+02  0.26577395184E+02  0.58287916763E+02  0.41800000000E+01 0.  1.
        -11    1    3    3    0    0 -0.82383773001E+01  0.34437751474E+02  0.12962131560E+03  0.13437081173E+03  0.00000000000E+00 0.  1.
         11    1    3    3    0    0  0.15509302839E+02 -0.41444850723E+02  0.47346203485E+02  0.64806458864E+02  0.00000000000E+00 0. -1.
</event>
<event>
 7    1  0.4096326E-006  0.2524820E+03  0.7561462E-02  0.1111746E+00
         -2   -1    0    0    0  501 -0.00000000000E+00  0.00000000000E+00  0.90569591711E+02  0.90569591711E+02  0.00000000000E+00 0.  1.
          2   -1    0    0  501    0  0.00000000000E+00 -0.00000000000E+00 -0.73590437452E+03  0.73590437452E+03  0.00000000000E+00 0. -1.
         23    2    1    2    0    0 -0.58138935303E+02  0.22644495363E+03 -0.30439356848E+03  0.39456570194E+03  0.91483308817E+02 0.  0.
          5    1    1    2  502    0  0.48917802824E+02 -0.30548067254E+02 -0.32375225301E+02  0.66270381464E+02  0.41800000000E+01 0.  1.
         -5    1    1    2    0  502  0.92211324790E+01 -0.19589688637E+03 -0.30856598903E+03  0.36563788283E+03  0.41800000000E+01 0.  1.
        -11    1    3    3    0    0 -0.48012645430E+02  0.35359303714E+02 -0.68414514610E+02  0.90752632412E+02  0.00000000000E+00 0. -1.
         11    1    3    3    0    0 -0.10126289873E+02  0.19108564991E+03 -0.23597905387E+03  0.30381306953E+03  0.00000000000E+00 0.  1.
</event>
<event>
 7    1  0.4096326E-006  0.1091374E+03  0.7561462E-02  0.1262176E+00
          1   -1    0    0  501    0  0.00000000000E+00  0.00000000000E+00  0.48329924019E+02  0.48329924019E+02  0.00000000000E+00 0. -1.
         -1   -1    0    0    0  501 -0.00000000000E+00 -0.00000000000E+00 -0.51285246721E+03  0.51285246721E+03  0.00000000000E+00 0.  1.
         23    2    1    2    0    0 -0.61525279211E+00  0.10564815937E+02 -0.15406532425E+02  0.94851601126E+02  0.92991779868E+02 0.  0.
          5    1    1    2  502    0 -0.52146749730E+02  0.28225659208E+02 -0.23374241090E+03  0.24118241726E+03  0.41800000000E+01 0.  1.
         -5    1    1    2    0  502  0.52762002522E+02 -0.38790475145E+02 -0.21537359987E+03  0.22514837284E+03  0.41800000000E+01 0.  1.
        -11    1    3    3    0    0 -0.37661794532E+02 -0.22231798937E+02 -0.29706438149E+01  0.43834785000E+02  0.00000000000E+00 0.  1.
         11    1    3    3    0    0  0.37046541740E+02  0.32796614874E+02 -0.12435888611E+02  0.51016816126E+02  0.00000000000E+00 0. -1.
</event>
<event>
 7    1  0.4096326E-006  0.1407975E+03  0.7561462E-02  0.1212260E+00
         -2   -1    0    0    0  501 -0.00000000000E+00  0.00000000000E+00  0.35002665378E+02  0.35002665378E+02  0.00000000000E+00 0.  1.
          2   -1    0    0  501    0  0.00000000000E+00 -0.00000000000E+00 -0.61754357696E+03  0.61754357696E+03  0.00000000000E+00 0. -1.
         23    2    1    2    0    0 -0.55728176028E+02 -0.76469571881E+02 -0.32704459178E+03  0.35274980379E+03  0.92309447143E+02 0.  0.
          5    1    1    2  502    0  0.14884824079E+02 -0.33389983028E+02 -0.87404741423E+02  0.94834119269E+02  0.41800000000E+01 0.  1.
         -5    1    1    2    0  502  0.40843351949E+02  0.10985955491E+03 -0.16809157837E+03  0.20496231928E+03  0.41800000000E+01 0.  1.
        -11    1    3    3    0    0  0.22726059900E+02 -0.24474717521E+02 -0.49782527958E+02  0.59948191684E+02  0.00000000000E+00 0.  1.
         11    1    3    3    0    0 -0.78454235928E+02 -0.51994854361E+02 -0.27726206382E+03  0.29280161210E+03  0.00000000000E+00 0. -1.
</event>
<event>
 7    1  0.4096326E-006  0.8871830E+02  0.7561462E-02  0.1305986E+00
          2   -1    0    0  501    0  0.00000000000E+00  0.00000000000E+00  0.19390175247E+03  0.19390175247E+03  0.00000000000E+00 0. -1.
         -2   -1    0    0    0  501 -0.00000000000E+00 -0.00000000000E+00 -0.87589798277E+02  0.87589798277E+02  0.00000000000E+00 0.  1.
         23    2    1    2    0    0 -0.18778847131E+02  0.39623093139E+02  0.89908197612E+02  0.14792670813E+03  0.10897794442E+03 0.  0.
          5    1    1    2  502    0 -0.50586747007E+02 -0.24569099020E+02  0.25485098385E+02  0.61883941690E+02  0.41800000000E+01 0. -1.
         -5    1    1    2    0  502  0.69365594138E+02 -0.15053994119E+02 -0.90813418058E+01  0.71680900929E+02  0.41800000000E+01 0. -1.
        -11    1    3    3    0    0  0.31809985484E+01  0.20727988950E+02 -0.23138207254E+02  0.31227310365E+02  0.00000000000E+00 0.  1.
         11    1    3    3    0    0 -0.21959845680E+02  0.18895104189E+02  0.11304640487E+03  0.11669939776E+03  0.00000000000E+00 0. -1.
</event>
<event>
 7    1  0.4096326E-006  0.1363848E+03  0.7561462E-02  0.1218278E+00
         -1   -1    0    0    0  501 -0.00000000000E+00  0.00000000000E+00  0.20372145960E+02  0.20372145960E+02  0.00000000000E+00 0.  1.
          1   -1    0    0  501    0  0.00000000000E+00 -0.00000000000E+00 -0.12365577685E+04  0.12365577685E+04  0.00000000000E+00 0. -1.
         23    2    1    2    0    0  0.99127907915E+02  0.52344114667E+02 -0.67499257498E+03  0.69026965631E+03  0.91054783955E+02 0.  0.
          5    1    1    2  502    0 -0.24789138205E+02  0.13920381617E+02 -0.17671319605E+02  0.33734645899E+02  0.41800000000E+01 0.  1.
         -5    1    1    2    0  502 -0.74338769710E+02 -0.66264496284E+02 -0.52352172800E+03  0.53292561229E+03  0.41800000000E+01 0.  1.
        -11    1    3    3    0    0  0.40372529786E+02 -0.24806282244E+02 -0.23096502102E+03  0.23577560038E+03  0.00000000000E+00 0.  1.
         11    1    3    3    0    0  0.58755378128E+02  0.77150396911E+02 -0.44402755396E+03  0.45449405593E+03  0.00000000000E+00 0. -1.
</event>
<event>
 7    1  0.4096326E-006  0.1071427E+03  0.7561462E-02  0.1265955E+00
         -2   -1    0    0    0  501 -0.00000000000E+00  0.00000000000E+00  0.52249760864E+02  0.52249760864E+02  0.00000000000E+00 0.  1.
          2   -1    0    0  501    0  0.00000000000E+00 -0.00000000000E+00 -0.67429169476E+03  0.67429169476E+03  0.00000000000E+00 0. -1.
         23    2    1    2    0    0  0.77892730505E+02  0.40632238845E+02 -0.55341741805E+03  0.56788781684E+03  0.92235988741E+02 0.  0.
          5    1    1    2  502    0 -0.13887925492E+02 -0.12924297591E+02 -0.84749165314E+02  0.86947141207E+02  0.41800000000E+01 0. -1.
         -5    1    1    2    0  502 -0.64004805013E+02 -0.27707941253E+02  0.16124649471E+02  0.71706497570E+02  0.41800000000E+01 0.  1.
        -11    1    3    3    0    0  0.55131124502E+02 -0.21225875171E+02 -0.31681680613E+03  0.32227762459E+03  0.00000000000E+00 0.  1.
         11    1    3    3    0    0  0.22761606003E+02  0.61858114015E+02 -0.23660061192E+03  0.24561019225E+03  0.00000000000E+00 0. -1.
</event>
<event>
 7    1  0.4096326E-006  0.1595125E+03  0.7561462E-02  0.1189248E+00
         -2   -1    0    0    0  501 -0.00000000000E+00  0.00000000000E+00  0.16497827509E+02  0.16497827509E+02  0.00000000000E+00 0. -1.
          2   -1    0    0  501    0  0.00000000000E+00 -0.00000000000E+00 -0.17851820100E+04  0.17851820100E+04  0.00000000000E+00 0.  1.
         23    2    1    2    0    0 -0.80855803605E+02  0.10463024942E+03 -0.81517243600E+03  0.83094997432E+03  0.92122794879E+02 0.  0.
          5    1    1    2  502    0  0.24349983986E+02 -0.10203013235E+03 -0.80393302773E+03  0.81075819768E+03  0.41800000000E+01 0. -1.
         -5    1    1    2    0  502  0.56505819619E+02 -0.26001170668E+01 -0.14957871872E+03  0.15997166547E+03  0.41800000000E+01 0. -1.
        -11    1    3    3    0    0 -0.66692120043E+02  0.11946237294E+03 -0.75708800185E+03  0.76935124616E+03  0.00000000000E+00 0.  1.
         11    1    3    3    0    0 -0.14163683562E+02 -0.14832123520E+02 -0.58084434149E+02  0.61598728157E+02  0.00000000000E+00 0. -1.
</event>
<event>
 7    1  0.4096326E-006  0.1116402E+03  0.7561462E-02  0.1257562E+00
          2   -1    0    0  501    0  0.00000000000E+00  0.00000000000E+00  0.41623767582E+03  0.41623767582E+03  0.00000000000E+00 0. -1.
         -2   -1    0    0    0  501 -0.00000000000E+00 -0.00000000000E+00 -0.48453472641E+02  0.48453472641E+02  0.00000000000E+00 0.  1.
         23    2    1    2    0    0 -0.62007658329E+02  0.64028938790E+02  0.20301303646E+03  0.23943275043E+03  0.90383042154E+02 0.  0.
          5    1    1    2  502    0 -0.72426553777E+01 -0.12192524975E+02 -0.17829304303E+02  0.23161826657E+02  0.41800000000E+01 0.  1.
         -5    1    1    2    0  502  0.69250313706E+02 -0.51836413815E+02  0.18260047102E+03  0.20209657138E+03  0.41800000000E+01 0.  1.
        -11    1    3    3    0    0 -0.39326414337E+02 -0.13136903383E+02  0.10339390672E+03  0.11139768867E+03  0.00000000000E+00 0. -1.
         11    1    3    3    0    0 -0.22681243991E+02  0.77165842173E+02  0.99619129746E+02  0.12803506175E+03  0.00000000000E+00 0.  1.
</event>
<event>
 7    1  0.4096326E-006  0.1002256E+03  0.7561462E-02  0.1279822E+00
          2   -1    0    0  501    0  0.00000000000E+00  0.00000000000E+00  0.17756987905E+03  0.17756987905E+03  0.00000000000E+00 0. -1.
         -2   -1    0    0    0  501 -0.00000000000E+00 -0.00000000000E+00 -0.94175979713E+02  0.94175979713E+02  0.00000000000E+00 0.  1.
         23    2    1    2    0    0  0.43660218802E+02  0.93269920435E+00  0.94884642456E+02  0.13875467775E+03  0.91338275594E+02 0.  0.
          5    1    1    2  502    0  0.37859256473E+02 -0.18047456144E+02  0.16137919099E+02  0.45132458462E+02  0.41800000000E+01 0.  1.
         -5    1    1    2    0  502 -0.81519475275E+02  0.17114756940E+02 -0.27628662213E+02  0.87858722560E+02  0.41800000000E+01 0.  1.
        -11    1    3    3    0    0 -0.15497366090E+02 -0.22399776023E+01  0.74462244135E+02  0.76090811909E+02  0.00000000000E+00 0. -1.
         11    1    3    3    0    0  0.59157584892E+02  0.31726768066E+01  0.20422398321E+02  0.62663865836E+02  0.00000000000E+00 0.  1.
</event>
<event>
 7    1  0.4096326E-006  0.1185492E+03  0.7561462E-02  0.1245510E+00
          2   -1    0    0  501    0  0.00000000000E+00  0.00000000000E+00  0.40110969234E+03  0.40110969234E+03  0.00000000000E+00 0. -1.
         -2   -1    0    0    0  501 -0.00000000000E+00 -0.00000000000E+00 -0.46205439417E+02  0.46205439417E+02  0.00000000000E+00 0.  1.
         23    2    1    2    0    0  0.77446076107E+02  0.25132016916E+02  0.15924796834E+03  0.20122983808E+03  0.92217239898E+02 0.  0.
          5    1    1    2  502    0 -0.41011546439E+01  0.25270164777E+02  0.13696297419E+03  0.13939773813E+03  0.41800000000E+01 0.  1.
         -5    1    1    2    0  502 -0.73344921463E+02 -0.50402181693E+02  0.58693310395E+02  0.10668755555E+03  0.41800000000E+01 0.  1.
        -11    1    3    3    0    0  0.68552224874E+02 -0.23622245396E+02  0.10663374266E+03  0.12895027370E+03  0.00000000000E+00 0.  1.
         11    1    3    3    0    0  0.88938512329E+01  0.48754262313E+02  0.52614225679E+02  0.72279564382E+02  0.00000000000E+00 0. -1.
</event>
<event>
 7    1  0.4096326E-006  0.1563892E+03  0.7561462E-02  0.1192835E+00
          2   -1    0    0  501    0  0.00000000000E+00  0.00000000000E+00  0.48807582763E+02  0.48807582763E+02  0.00000000000E+00 0.  1.
         -2   -1    0    0    0  501 -0.00000000000E+00 -0.00000000000E+00 -0.73479716205E+03  0.73479716205E+03  0.00000000000E+00 0. -1.
         23    2    1    2    0    0  0.86393044844E+02  0.12742155658E+03 -0.27877285151E+03  0.33064656211E+03  0.88954117478E+02 0.  0.
          5    1    1    2  502    0 -0.84571402203E+02 -0.10755779033E+03 -0.18672669765E+03  0.23152825388E+03  0.41800000000E+01 0. -1.
         -5    1    1    2    0  502 -0.18216426409E+01 -0.19863766248E+02 -0.22049003013E+03  0.22142992882E+03  0.41800000000E+01 0. -1.
        -11    1    3    3    0    0  0.59850460954E+02  0.68996578022E+02 -0.23721938943E+03  0.25419607428E+03  0.00000000000E+00 0. -1.
         11    1    3    3    0    0  0.26542583890E+02  0.58424978559E+02 -0.41553462080E+02  0.76450487834E+02  0.00000000000E+00 0.  1.
</event>
<event>
 7    1  0.4096326E-006  0.1019293E+03  0.7561462E-02  0.1276290E+00
          2   -1    0    0  501    0  0.00000000000E+00  0.00000000000E+00  0.28438840345E+03  0.28438840345E+03  0.00000000000E+00 0. -1.
         -2   -1    0    0    0  501 -0.00000000000E+00 -0.00000000000E+00 -0.49967867122E+02  0.49967867122E+02  0.00000000000E+00 0.  1.
         23    2    1    2    0    0  0.38796359996E+02 -0.14724154702E+02  0.15929889835E+03  0.18265679440E+03  0.79154325506E+02 0.  0.
          5    1    1    2  502    0 -0.55500360242E+02 -0.36553020710E+02  0.71171753124E+02  0.97464373762E+02  0.41800000000E+01 0.  1.
         -5    1    1    2    0  502  0.16704000246E+02  0.51277175412E+02  0.39498848535E+01  0.54235102404E+02  0.41800000000E+01 0.  1.
        -11    1    3    3    0    0  0.56264536604E+02 -0.26419182509E+02  0.14342468608E+03  0.15631478452E+03  0.00000000000E+00 0. -1.
         11    1    3    3    0    0 -0.17468176608E+02  0.11695027806E+02  0.15874212271E+02  0.26342009882E+02  0.00000000000E+00 0.  1.
</event>
<event>
 7    1  0.4096326E-006  0.8150536E+02  0.7561462E-02  0.1324833E+00
         -2   -1    0    0    0  501 -0.00000000000E+00  0.00000000000E+00  0.12982012627E+03  0.12982012627E+03  0.00000000000E+00 0. -1.
          2   -1    0    0  501    0  0.00000000000E+00 -0.00000000000E+00 -0.14466977854E+03  0.14466977854E+03  0.00000000000E+00 0.  1.
         23    2    1    2    0    0 -0.14836409746E+02 -0.78151033217E+02 -0.33126477338E+02  0.12512759890E+03  0.90729540162E+02 0.  0.
          5    1    1    2  502    0 -0.58840383124E+01  0.15772416582E+02 -0.50943015804E+02  0.53815000613E+02  0.41800000000E+01 0. -1.
         -5    1    1    2    0  502  0.20720448058E+02  0.62378616636E+02  0.69219840872E+02  0.95547305307E+02  0.41800000000E+01 0. -1.
        -11    1    3    3    0    0 -0.84033331677E+01 -0.27802689794E+02 -0.60752776896E+02  0.67338736762E+02  0.00000000000E+00 0.  1.
         11    1    3    3    0    0 -0.64330765784E+01 -0.50348343423E+02  0.27626299558E+02  0.57788862136E+02  0.00000000000E+00 0. -1.
</event>
<event>
 7    1  0.4096326E-006  0.7003221E+02  0.7561462E-02  0.1359984E+00
          3   -1    0    0  501    0  0.00000000000E+00  0.00000000000E+00  0.76003575636E+02  0.76003575636E+02  0.00000000000E+00 0. -1.
         -3   -1    0    0    0  501 -0.00000000000E+00 -0.00000000000E+00 -0.18275174296E+03  0.18275174296E+03  0.00000000000E+00 0.  1.
         23    2    1    2    0    0  0.22495417435E+02  0.42252803511E+02 -0.30274461778E+02  0.10452709745E+03  0.87852307061E+02 0.  0.
          5    1    1    2  502    0 -0.12152906214E+02 -0.32123382026E+02  0.30545739130E+02  0.46153216369E+02  0.41800000000E+01 0. -1.
         -5    1    1    2    0  502 -0.10342511221E+02 -0.10129421485E+02 -0.10701944467E+03  0.10807500477E+03  0.41800000000E+01 0. -1.
        -11    1    3    3    0    0 -0.27104035043E+02  0.32466679863E+01 -0.31153561457E+02  0.41421177676E+02  0.00000000000E+00 0.  1.
         11    1    3    3    0    0  0.49599452478E+02  0.39006135525E+02  0.87909967944E+00  0.63105919777E+02  0.00000000000E+00 0. -1.
</event>
<event>
 7    1  0.4096326E-006  0.7147534E+02  0.7561462E-02  0.1355147E+00
         -2   -1    0    0    0  501 -0.00000000000E+00  0.00000000000E+00  0.40470142139E+02  0.40470142139E+02  0.00000000000E+00 0.  1.
          2   -1    0    0  501    0  0.00000000000E+00 -0.00000000000E+00 -0.33540280816E+03  0.33540280816E+03  0.00000000000E+00 0. -1.
         23    2    1    2    0    0 -0.21184663035E+02 -0.39114840833E+02 -0.16852525750E+03  0.19255653104E+03  0.81844330950E+02 0.  0.
          5    1    1    2  502    0 -0.18282794297E+02  0.53150730796E+02 -0.71097779638E+01  0.56809172623E+02  0.41800000000E+01 0.  1.
         -5    1    1    2    0  502  0.39467457333E+02 -0.14035889963E+02 -0.11929763056E+03  0.12650724664E+03  0.41800000000E+01 0.  1.
        -11    1    3    3    0    0 -0.51019849160E+01 -0.10187288705E+02  0.73733020893E+01  0.13571171097E+02  0.00000000000E+00 0.  1.
         11    1    3    3    0    0 -0.16082678119E+02 -0.28927552128E+02 -0.17589855959E+03  0.17898535994E+03  0.00000000000E+00 0. -1.
</event>
<event>
 7    1  0.4096326E-006  0.9851280E+02  0.7561462E-02  0.1283455E+00
         -2   -1    0    0    0  501 -0.00000000000E+00  0.00000000000E+00  0.20990530682E+03  0.20990530682E+03  0.00000000000E+00 0.  1.
          2   -1    0    0  501    0  0.00000000000E+00 -0.00000000000E+00 -0.72233407110E+02  0.72233407110E+02  0.00000000000E+00 0. -1.
         23    2    1    2    0    0 -0.47764596298E+02 -0.34497392952E+02  0.50668586899E+02  0.11877203417E+03  0.89821843789E+02 0.  0.
          5    1    1    2  502    0  0.25404798832E+02  0.54122979314E+02 -0.10934871767E+02  0.60924088126E+02  0.41800000000E+01 0. -1.
         -5    1    1    2    0  502  0.22359797466E+02 -0.19625586361E+02  0.97938184580E+02  0.10244259164E+03  0.41800000000E+01 0. -1.
        -11    1    3    3    0    0 -0.47975815066E+02  0.20412163079E+02  0.29634949943E+02  0.59971372261E+02  0.00000000000E+00 0. -1.
         11    1    3    3    0    0  0.21121876782E+00 -0.54909556031E+02  0.21033636956E+02  0.58800661905E+02  0.00000000000E+00 0.  1.
</event>
<event>
 7    1  0.4096326E-006  0.1014715E+03  0.7561462E-02  0.1277232E+00
          3   -1    0    0  501    0  0.00000000000E+00  0.00000000000E+00  0.73875313160E+03  0.73875313160E+03  0.00000000000E+00 0. -1.
         -3   -1    0    0    0  501 -0.00000000000E+00 -0.00000000000E+00 -0.30041975588E+02  0.30041975588E+02  0.00000000000E+00 0.  1.
         23    2    1    2    0    0  0.36550013032E+02  0.90808796175E+02  0.39611313520E+03  0.41815664927E+03  0.91472545264E+02 0.  0.
          5    1    1    2  502    0 -0.23847188648E+02 -0.87715172423E+02  0.32159890140E+03  0.33422442409E+03  0.41800000000E+01 0. -1.
         -5    1    1    2    0  502 -0.12702824383E+02 -0.30936237513E+01 -0.90008805823E+01  0.16414033827E+02  0.41800000000E+01 0. -1.
        -11    1    3    3    0    0  0.12951290129E+02  0.22625108944E+02  0.14597739678E+02  0.29878511918E+02  0.00000000000E+00 0.  1.
         11    1    3    3    0    0  0.23598722903E+02  0.68183687231E+02  0.38151539552E+03  0.38827813735E+03  0.00000000000E+00 0. -1.
</event>
<event>
 7    1  0.4096326E-006  0.1345312E+03  0.7561462E-02  0.1220883E+00
          1   -1    0    0  501    0  0.00000000000E+00  0.00000000000E+00  0.92362405033E+02  0.92362405033E+02  0.00000000000E+00 0. -1.
         -1   -1    0    0    0  501 -0.00000000000E+00 -0.00000000000E+00 -0.12325791067E+04  0.12325791067E+04  0.00000000000E+00 0.  1.
         23    2    1    2    0    0 -0.43382262725E+02 -0.33102287007E+01  0.55863815164E+02  0.11545436498E+03  0.91191919679E+02 0.  0.
          5    1    1    2  502    0  0.36495273275E+02 -0.84110915075E+02 -0.60483890934E+03  0.61176313198E+03  0.41800000000E+01 0. -1.
         -5    1    1    2    0  502  0.68869894495E+01  0.87421143776E+02 -0.59124160750E+03  0.59772401478E+03  0.41800000000E+01 0.  1.
        -11    1    3    3    0    0 -0.23475915716E+02  0.37408262427E+02  0.84710156308E+00  0.44172551405E+02  0.00000000000E+00 0.  1.
         11    1    3    3    0    0 -0.19906347008E+02 -0.40718491128E+02  0.55016713601E+02  0.71281813574E+02  0.00000000000E+00 0. -1.
</event>
<event>
 7    1  0.4096326E-006  0.1180051E+03  0.7561462E-02  0.1246425E+00
         -3   -1    0    0    0  501 -0.00000000000E+00  0.00000000000E+00  0.90651371481E+02  0.90651371481E+02  0.00000000000E+00 0.  1.
          3   -1    0    0  501    0  0.00000000000E+00 -0.00000000000E+00 -0.22760348973E+03  0.22760348973E+03  0.00000000000E+00 0. -1.
         23    2    1    2    0    0 -0.63390410286E+02  0.13711823905E+02 -0.13819024566E+03  0.17735750104E+03  0.90292751360E+02 0.  0.
          5    1    1    2  502    0 -0.27621484701E+02 -0.35912172161E+02  0.10416752365E+02  0.46675600224E+02  0.41800000000E+01 0.  1.
         -5    1    1    2    0  502  0.91011894987E+02  0.22200348256E+02 -0.91786249538E+01  0.94221759949E+02  0.41800000000E+01 0.  1.
        -11    1    3    3    0    0 -0.47582438881E+02 -0.25838813142E+02 -0.11880312950E+03  0.13056001047E+03  0.00000000000E+00 0. -1.
         11    1    3    3    0    0 -0.15807971405E+02  0.39550637047E+02 -0.19387116162E+02  0.46797490572E+02  0.00000000000E+00 0.  1.
</event>
<event>
 7    1  0.4096326E-006  0.1312299E+03  0.7561462E-02  0.1225642E+00
          1   -1    0    0  501    0  0.00000000000E+00  0.00000000000E+00  0.48184683212E+03  0.48184683212E+03  0.00000000000E+00 0. -1.
         -1   -1    0    0    0  501 -0.00000000000E+00 -0.00000000000E+00 -0.49368692819E+02  0.49368692819E+02  0.00000000000E+00 0.  1.
         23    2    1    2    0    0 -0.72809914407E+02 -0.61252597413E+02  0.29275881040E+03  0.32092508044E+03  0.90730490261E+02 0.  0.
          5    1    1    2  502    0  0.25491453568E+02 -0.22792181675E+02  0.10023153710E+03  0.10598646697E+03  0.41800000000E+01 0. -1.
         -5    1    1    2    0  502  0.47318460838E+02  0.84044779088E+02  0.39487791803E+02  0.10430397753E+03  0.41800000000E+01 0. -1.
        -11    1    3    3    0    0 -0.69079051741E+02  0.10191608761E+01  0.15273336464E+03  0.16763184290E+03  0.00000000000E+00 0.  1.
         11    1    3    3    0    0 -0.37308626654E+01 -0.62271758289E+02  0.14002544576E+03  0.15329323755E+03  0.00000000000E+00 0. -1.
</event>
<event>
 7    1  0.4096326E-006  0.1830124E+03  0.7561462E-02  0.1164919E+00
          2   -1    0    0  501    0  0.00000000000E+00  0.00000000000E+00  0.62098471401E+03  0.62098471401E+03  0.00000000000E+00 0.  1.
         -2   -1    0    0    0  501 -0.00000000000E+00 -0.00000000000E+00 -0.65819071713E+02  0.65819071713E+02  0.00000000000E+00 0. -1.
         23    2    1    2    0    0 -0.15574988269E+03  0.67034337066E+02  0.29251869596E+03  0.35008053914E+03  0.90761049447E+02 0.  0.
          5    1    1    2  502    0  0.35462873964E+02  0.21481440382E+02  0.94448817921E+01  0.42728747965E+02  0.41800000000E+01 0. -1.
         -5    1    1    2    0  502  0.12028700873E+03 -0.88515777447E+02  0.25320206455E+03  0.29399449861E+03  0.41800000000E+01 0. -1.
        -11    1    3    3    0    0 -0.22453992580E+02 -0.56090999461E+01  0.11129739092E+03  0.11367828733E+03  0.00000000000E+00 0.  1.
         11    1    3    3    0    0 -0.13329589011E+03  0.72643437012E+02  0.18122130504E+03  0.23640225181E+03  0.00000000000E+00 0. -1.
</event>
<event>
 7    1  0.4096326E-006  0.1583643E+03  0.7561462E-02  0.1190556E+00
          1   -1    0    0  501    0  0.00000000000E+00  0.00000000000E+00  0.47325434337E+03  0.47325434337E+03  0.00000000000E+00 0. -1.
         -1   -1    0    0    0  501 -0.00000000000E+00 -0.00000000000E+00 -0.98414400352E+02  0.98414400352E+02  0.00000000000E+00 0.  1.
         23    2    1    2    0    0  0.51399812784E+02 -0.12069692139E+03  0.35537405165E+03  0.38936977932E+03  0.90046770478E+02 0.  0.
          5    1    1    2  502    0 -0.80688254280E+02  0.55425515572E+02 -0.20706336411E+02  0.10014393103E+03  0.41800000000E+01 0. -1.
         -5    1    1    2    0  502  0.29288441496E+02  0.65271405822E+02  0.40172227778E+02  0.82155033369E+02  0.41800000000E+01 0. -1.
        -11    1    3    3    0    0 -0.15644124024E+02 -0.13574622020E+02  0.13090296083E+02  0.24502343379E+02  0.00000000000E+00 0.  1.
         11    1    3    3    0    0  0.67043936808E+02 -0.10712229937E+03  0.34228375557E+03  0.36486743594E+03  0.00000000000E+00 0. -1.
</event>
<event>
 7    1  0.4096326E-006  0.9985899E+02  0.7561462E-02  0.1280593E+00
         -3   -1    0    0    0  501 -0.00000000000E+00  0.00000000000E+00  0.31311087187E+03  0.31311087187E+03  0.00000000000E+00 0.  1.
          3   -1    0    0  501    0  0.00000000000E+00 -0.00000000000E+00 -0.46637711831E+02  0.46637711831E+02  0.00000000000E+00 0. -1.
         23    2    1    2    0    0 -0.68844210919E+00  0.51795763957E+02  0.93734720656E+02  0.14027591536E+03  0.90597237575E+02 0.  0.
          5    1    1    2  502    0  0.51519887276E+02 -0.11489426900E+02  0.26021570728E+02  0.58999154728E+02  0.41800000000E+01 0. -1.
         -5    1    1    2    0  502 -0.50831445167E+02 -0.40306337057E+02  0.14671686865E+03  0.16047351361E+03  0.41800000000E+01 0. -1.
        -11    1    3    3    0    0  0.31167426087E+02  0.22077505299E+02  0.88508280758E+02  0.96397823896E+02  0.00000000000E+00 0.  1.
         11    1    3    3    0    0 -0.31855868196E+02  0.29718258658E+02  0.52264398980E+01  0.43878091460E+02  0.00000000000E+00 0. -1.
</event>
<event>
 7    1  0.4096326E-006  0.1822901E+03  0.7561462E-02  0.1165605E+00
         -1   -1    0    0    0  501 -0.00000000000E+00  0.00000000000E+00  0.67104363072E+02  0.67104363072E+02  0.00000000000E+00 0.  1.
          1   -1    0    0  501    0  0.00000000000E+00 -0.00000000000E+00 -0.67657733776E+03  0.67657733776E+03  0.00000000000E+00 0. -1.
         23    2    1    2    0    0  0.88825632214E+02 -0.13553182117E+03 -0.44067099249E+03  0.47835039504E+03  0.91483929350E+02 0.  0.
          5    1    1    2  502    0 -0.80186077727E+02  0.14906179907E+03 -0.10459170421E+03  0.19901287394E+03  0.41800000000E+01 0. -1.
         -5    1    1    2    0  502 -0.86395544871E+01 -0.13529977900E+02 -0.64210277990E+02  0.66318431852E+02  0.41800000000E+01 0. -1.
        -11    1    3    3    0    0  0.13040802500E+02  0.87506155798E+01 -0.93740898999E+02  0.95047314260E+02  0.00000000000E+00 0.  1.
         11    1    3    3    0    0  0.75784829714E+02 -0.14428243675E+03 -0.34693009349E+03  0.38330308078E+03  0.00000000000E+00 0. -1.
</event>
<event>
 7    1  0.4096326E-006  0.1382954E+03  0.7561462E-02  0.1215641E+00
         -2   -1    0    0    0  501 -0.00000000000E+00  0.00000000000E+00  0.23167502641E+02  0.23167502641E+02  0.00000000000E+00 0.  1.
          2   -1    0    0  501    0  0.00000000000E+00 -0.00000000000E+00 -0.84217799887E+03  0.84217799887E+03  0.00000000000E+00 0. -1.
         23    2    1    2    0    0 -0.16220868556E+01  0.88911036278E+02 -0.37029598874E+03  0.39110962902E+03  0.89105662558E+02 0.  0.
          5    1    1    2  502    0 -0.24508996698E+02 -0.11382128149E+03 -0.32278935290E+03  0.34317111444E+03  0.41800000000E+01 0.  1.
         -5    1    1    2    0  502  0.26131083554E+02  0.24910245214E+02 -0.12592515459E+03  0.13106475805E+03  0.41800000000E+01 0.  1.
        -11    1    3    3    0    0  0.41976981625E+02  0.37043526550E+02 -0.13234101401E+03  0.14369562914E+03  0.00000000000E+00 0.  1.
         11    1    3    3    0    0 -0.43599068481E+02  0.51867509728E+02 -0.23795497473E+03  0.24741399988E+03  0.00000000000E+00 0. -1.
</event>
<event>
 7    1  0.4096326E-006  0.6137125E+02  0.7561462E-02  0.1392166E+00
         -2   -1    0    0    0  501 -0.00000000000E+00  0.00000000000E+00  0.19726039150E+03  0.19726039150E+03  0.00000000000E+00 0.  1.
          2   -1    0    0  501    0  0.00000000000E+00 -0.00000000000E+00 -0.62729661359E+02  0.62729661359E+02  0.00000000000E+00 0. -1.
         23    2    1    2    0    0  0.61735478552E+01 -0.70768393028E+01  0.33877577825E+02  0.96974743101E+02  0.90378184163E+02 0.  0.
          5    1    1    2  502    0  0.11301163023E+02  0.69534483048E+01 -0.28978204949E+02  0.32144602830E+02  0.41800000000E+01 0. -1.
         -5    1    1    2    0  502 -0.17474710878E+02  0.12339099807E+00  0.12963135726E+03  0.13087070693E+03  0.41800000000E+01 0.  1.
        -11    1    3    3    0    0 -0.37599281063E+02  0.16595320413E+02  0.14984393720E+02  0.43745201465E+02  0.00000000000E+00 0.  1.
         11    1    3    3    0    0  0.43772828918E+02 -0.23672159716E+02  0.18893184106E+02  0.53229541636E+02  0.00000000000E+00 0. -1.
</event>
<event>
 7    1  0.4096326E-006  0.1654814E+03  0.7561462E-02  0.1182644E+00
          2   -1    0    0  501    0  0.00000000000E+00  0.00000000000E+00  0.48516861973E+03  0.48516861973E+03  0.00000000000E+00 0. -1.
         -2   -1    0    0    0  501 -0.00000000000E+00 -0.00000000000E+00 -0.11127350250E+03  0.11127350250E+03  0.00000000000E+00 0.  1.
         23    2    1    2    0    0 -0.27722642504E+02  0.14455385838E+03  0.36437717899E+03  0.40304035611E+03  0.89478696934E+02 0.  0.
          5    1    1    2  502    0  0.45314742947E+02 -0.72681731573E+02  0.59178250070E+02  0.10419019970E+03  0.41800000000E+01 0.  1.
         -5    1    1    2    0  502 -0.17592100442E+02 -0.71872126812E+02 -0.49660311835E+02  0.89211566414E+02  0.41800000000E+01 0.  1.
        -11    1    3    3    0    0  0.28038710682E+02  0.85040695715E+02  0.21384269974E+03  0.23183353825E+03  0.00000000000E+00 0.  1.
         11    1    3    3    0    0 -0.55761353187E+02  0.59513162670E+02  0.15053447925E+03  0.17120681786E+03  0.00000000000E+00 0. -1.
</event>
<event>
 7    1  0.4096326E-006  0.1267695E+03  0.7561462E-02  0.1232329E+00
         -1   -1    0    0    0  501 -0.00000000000E+00  0.00000000000E+00  0.24251288250E+02  0.24251288250E+02  0.00000000000E+00 0.  1.
          1   -1    0    0  501    0  0.00000000000E+00 -0.00000000000E+00 -0.78488293906E+03  0.78488293906E+03  0.00000000000E+00 0. -1.
         23    2    1    2    0    0 -0.59175079379E+02  0.54284329296E+02 -0.41720352218E+03  0.43491700064E+03  0.92981396537E+02 0.  0.
          5    1    1    2  502    0  0.30234159670E+02 -0.89193456488E+02 -0.28470341787E+03  0.29990512773E+03  0.41800000000E+01 0. -1.
         -5    1    1    2    0  502  0.28940919709E+02  0.34909127192E+02 -0.58724710763E+02  0.74312098941E+02  0.41800000000E+01 0. -1.
        -11    1    3    3    0    0 -0.43034093852E+02 -0.12667684119E+02 -0.90196289968E+02  0.10073616123E+03  0.00000000000E+00 0. -1.
         11    1    3    3    0    0 -0.16140985527E+02  0.66952013415E+02 -0.32700723221E+03  0.33418083941E+03  0.00000000000E+00 0.  1.
</event>
<event>
 7    1  0.4096326E-006  0.1050129E+03  0.7561462E-02  0.1270094E+00
         -1   -1    0    0    0  501 -0.00000000000E+00  0.00000000000E+00  0.80199246265E+02  0.80199246265E+02  0.00000000000E+00 0.  1.
          1   -1    0    0  501    0  0.00000000000E+00 -0.00000000000E+00 -0.23890569008E+03  0.23890569008E+03  0.00000000000E+00 0. -1.
         23    2    1    2    0    0  0.16839113835E+02  0.60486720807E+02 -0.13812039971E+03  0.17763620722E+03  0.92386027910E+02 0.  0.
          5    1    1    2  502    0  0.27794245149E+02 -0.69013864909E+02 -0.47615750710E+02  0.88431700926E+02  0.41800000000E+01 0. -1.
         -5    1    1    2    0  502 -0.44633358983E+02  0.85271441017E+01  0.27029706603E+02  0.53037028195E+02  0.41800000000E+01 0. -1.
        -11    1    3    3    0    0  0.31296199287E+02  0.39793858626E+01 -0.45353357820E+01  0.31872509665E+02  0.00000000000E+00 0.  1.
         11    1    3    3    0    0 -0.14457085453E+02  0.56507334944E+02 -0.13358506392E+03  0.14576369756E+03  0.00000000000E+00 0. -1.
</event>
<event>
 7    1  0.4096326E-006  0.1060735E+03  0.7561462E-02  0.1268019E+00
         -2   -1    0    0    0  501 -0.00000000000E+00  0.00000000000E+00  0.20184962671E+02  0.20184962671E+02  0.00000000000E+00 0.  1.
          2   -1    0    0  501    0  0.00000000000E+00 -0.00000000000E+00 -0.81477083727E+03  0.81477083727E+03  0.00000000000E+00 0. -1.
         23    2    1    2    0    0  0.58500106562E+02 -0.39942016405E+02 -0.37267781101E+03  0.38922942057E+03  0.87138762173E+02 0.  0.
          5    1    1    2  502    0  0.16160073679E+02  0.22975172602E+02 -0.15911281045E+02  0.32552231904E+02  0.41800000000E+01 0. -1.
         -5    1    1    2    0  502 -0.74660180241E+02  0.16966843803E+02 -0.40599678254E+03  0.41317414746E+03  0.41800000000E+01 0. -1.
        -11    1    3    3    0    0  0.56885065612E+02  0.94392172987E+01 -0.14087314246E+03  0.15221777748E+03  0.00000000000E+00 0.  1.
         11    1    3    3    0    0  0.16150409501E+01 -0.49381233704E+02 -0.23180466855E+03  0.23701164309E+03  0.00000000000E+00 0. -1.
</event>
<event>
 7    1  0.4096326E-006  0.1137849E+03  0.7561462E-02  0.1253717E+00
          2   -1    0    0  501    0  0.00000000000E+00  0.00000000000E+00  0.17284191103E+03  0.17284191103E+03  0.00000000000E+00 0. -1.
         -2   -1    0    0    0  501 -0.00000000000E+00 -0.00000000000E+00 -0.79567723372E+02  0.79567723372E+02  0.00000000000E+00 0.  1.
         23    2    1    2    0    0  0.33285627672E+02  0.17339908079E+02  0.70189407027E+02  0.11978866445E+03  0.89521873590E+02 0.  0.
          5    1    1    2  502    0 -0.69987739634E+02 -0.45907995596E+02  0.17228716868E+02  0.85557751511E+02  0.41800000000E+01 0.  1.
         -5    1    1    2    0  502  0.36702111962E+02  0.28568087517E+02  0.58560637635E+01  0.47063218437E+02  0.41800000000E+01 0.  1.
        -11    1    3    3    0    0  0.44361156048E+02 -0.26618799845E+02  0.36878647841E+02  0.63533513501E+02  0.00000000000E+00 0. -1.
         11    1    3    3    0    0 -0.11075528376E+02  0.43958707925E+02  0.33310759185E+02  0.56255150953E+02  0.00000000000E+00 0.  1.
</event>
<event>
 7    1  0.4096326E-006  0.1072096E+03  0.7561462E-02  0.1265826E+00
         -1   -1    0    0    0  501 -0.00000000000E+00  0.00000000000E+00  0.44538711170E+02  0.44538711170E+02  0.00000000000E+00 0.  1.
          1   -1    0    0  501    0  0.00000000000E+00 -0.00000000000E+00 -0.47574349753E+03  0.47574349753E+03  0.00000000000E+00 0. -1.
         23    2    1    2    0    0  0.28031337152E+02  0.38539104969E+02 -0.34706175102E+03  0.36217316847E+03  0.91904986095E+02 0.  0.
          5    1    1    2  502    0 -0.25459036716E+01  0.34982301289E+02 -0.70699456379E+02  0.79032452583E+02  0.41800000000E+01 0.  1.
         -5    1    1    2    0  502 -0.25485433481E+02 -0.73521406258E+02 -0.13443578963E+02  0.79076587643E+02  0.41800000000E+01 0.  1.
        -11    1    3    3    0    0  0.16296138317E+02  0.67754386936E+02 -0.20041593294E+03  0.21218569049E+03  0.00000000000E+00 0. -1.
         11    1    3    3    0    0  0.11735198835E+02 -0.29215281966E+02 -0.14664581808E+03  0.14998747799E+03  0.00000000000E+00 0.  1.
</event>
<event>
 7    1  0.4096326E-006  0.8939637E+02  0.7561462E-02  0.1304320E+00
         -2   -1    0    0    0  501 -0.00000000000E+00  0.00000000000E+00  0.19970731142E+02  0.19970731142E+02  0.00000000000E+00 0. -1.
          2   -1    0    0  501    0  0.00000000000E+00 -0.00000000000E+00 -0.59029378450E+03  0.59029378450E+03  0.00000000000E+00 0.  1.
         23    2    1    2    0    0 -0.14081901927E+01  0.69021944202E+01 -0.28119923949E+03  0.29516115953E+03  0.89428600112E+02 0.  0.
          5    1    1    2  502    0 -0.42411472497E+02  0.10024238628E+02 -0.25006458104E+03  0.25386804732E+03  0.41800000000E+01 0. -1.
         -5    1    1    2    0  502  0.43819662689E+02 -0.16926433048E+02 -0.39059232832E+02  0.61235308796E+02  0.41800000000E+01 0. -1.
        -11    1    3    3    0    0 -0.22311711686E+01 -0.40440540890E+02 -0.10032879489E+03  0.10819557550E+03  0.00000000000E+00 0. -1.
         11    1    3    3    0    0  0.82298097600E+00  0.47342735311E+02 -0.18087044460E+03  0.18696558403E+03  0.00000000000E+00 0.  1.
</event>
<event>
 7    1  0.4096326E-006  0.1079644E+03  0.7561462E-02  0.1264387E+00
         -4   -1    0    0    0  501 -0.00000000000E+00  0.00000000000E+00  0.45673885264E+02  0.45673885264E+02  0.00000000000E+00 0.  1.
          4   -1    0    0  501    0  0.00000000000E+00 -0.00000000000E+00 -0.39042699581E+03  0.39042699581E+03  0.00000000000E+00 0. -1.
         23    2    1    2    0    0  0.54995228725E+01  0.73339641865E+02 -0.18014117577E+03  0.21666336431E+03  0.95305941077E+02 0.  0.
          5    1    1    2  502    0  0.23698364659E+02 -0.99606618083E+02 -0.13769877012E+03  0.17164356832E+03  0.41800000000E+01 0. -1.
         -5    1    1    2    0  502 -0.29197887531E+02  0.26266976218E+02 -0.26913164650E+02  0.47793948439E+02  0.41800000000E+01 0. -1.
        -11    1    3    3    0    0  0.62601825638E+01  0.31612830506E+02 -0.49210781610E+00  0.32230468635E+02  0.00000000000E+00 0.  1.
         11    1    3    3    0    0 -0.76065969126E+00  0.41726811359E+02 -0.17964906796E+03  0.18443289567E+03  0.00000000000E+00 0. -1.
</event>
<event>
 7    1  0.4096326E-006  0.1723680E+03  0.7561462E-02  0.1175401E+00
         -1   -1    0    0    0  501 -0.00000000000E+00  0.00000000000E+00  0.92602383031E+02  0.92602383031E+02  0.00000000000E+00 0.  1.
          1   -1    0    0  501    0  0.00000000000E+00 -0.00000000000E+00 -0.41108966938E+03  0.41108966938E+03  0.00000000000E+00 0. -1.
         23    2    1    2    0    0  0.10529014898E+03 -0.41853798806E+02 -0.19636947257E+03  0.24413498900E+03  0.90571337334E+02 0.  0.
          5    1    1    2  502    0 -0.13947422505E+03  0.88842419838E+02 -0.11362363571E+03  0.20068342734E+03  0.41800000000E+01 0. -1.
         -5    1    1    2    0  502  0.34184076068E+02 -0.46988621033E+02 -0.84941780609E+01  0.58873636070E+02  0.41800000000E+01 0.  1.
        -11    1    3    3    0    0  0.96645788430E+02 -0.21589221522E+02 -0.84689797017E+02  0.13030297244E+03  0.00000000000E+00 0. -1.
         11    1    3    3    0    0  0.86443605542E+01 -0.20264577284E+02 -0.11167967555E+03  0.11383201656E+03  0.00000000000E+00 0.  1.
</event>
<event>
 7    1  0.4096326E-006  0.1165419E+03  0.7561462E-02  0.1248913E+00
          1   -1    0    0  501    0  0.00000000000E+00  0.00000000000E+00  0.36852562156E+03  0.36852562156E+03  0.00000000000E+00 0. -1.
         -1   -1    0    0    0  501 -0.00000000000E+00 -0.00000000000E+00 -0.55352107883E+02  0.55352107883E+02  0.00000000000E+00 0.  1.
         23    2    1    2    0    0 -0.26361421922E+02  0.66472037492E+02  0.23126583809E+03  0.25813646818E+03  0.89649829919E+02 0.  0.
          5    1    1    2  502    0  0.82507944459E+01  0.24309451248E+02  0.67017678904E+02  0.71887875992E+02  0.41800000000E+01 0. -1.
         -5    1    1    2    0  502  0.18110627476E+02 -0.90781488740E+02  0.14889996688E+02  0.93853385271E+02  0.41800000000E+01 0. -1.
        -11    1    3    3    0    0 -0.22153438427E+01  0.84341310638E+02  0.16254741656E+03  0.18313936512E+03  0.00000000000E+00 0. -1.
         11    1    3    3    0    0 -0.24146078079E+02 -0.17869273146E+02  0.68718421530E+02  0.74997103057E+02  0.00000000000E+00 0.  1.
</event>
<event>
 7    1  0.4096326E-006  0.9198480E+02  0.7561462E-02  0.1298115E+00
         -2   -1    0    0    0  501 -0.00000000000E+00  0.00000000000E+00  0.75319968936E+02  0.75319968936E+02  0.00000000000E+00 0.  1.
          2   -1    0    0  501    0  0.00000000000E+00 -0.00000000000E+00 -0.18114300048E+03  0.18114300048E+03  0.00000000000E+00 0. -1.
         23    2    1    2    0    0  0.19641109683E+02  0.57236204291E+01 -0.88246737481E+02  0.12849807081E+03  0.91135802540E+02 0.  0.
          5    1    1    2  502    0  0.41840318127E+02  0.93632486526E-02 -0.43828924353E+02  0.60737626877E+02  0.41800000000E+01 0.  1.
         -5    1    1    2    0  502 -0.61481427810E+02 -0.57329836778E+01  0.26252630291E+02  0.67227271733E+02  0.41800000000E+01 0.  1.
        -11    1    3    3    0    0  0.36398785437E+02 -0.25604981513E+02 -0.14782544148E+02  0.46893605865E+02  0.00000000000E+00 0.  1.
         11    1    3    3    0    0 -0.16757675754E+02  0.31328601942E+02 -0.73464193333E+02  0.81604464942E+02  0.00000000000E+00 0. -1.
</event>
<event>
 7    1  0.4096326E-006  0.1128303E+03  0.7561462E-02  0.1255417E+00
          2   -1    0    0  501    0  0.00000000000E+00  0.00000000000E+00  0.49845118824E+03  0.49845118824E+03  0.00000000000E+00 0. -1.
         -2   -1    0    0    0  501 -0.00000000000E+00 -0.00000000000E+00 -0.28251868904E+02  0.28251868904E+02  0.00000000000E+00 0.  1.
         23    2    1    2    0    0  0.19569523949E+02  0.10810224608E+02  0.26691515134E+03  0.28697600490E+03  0.10301311640E+03 0.  0.
          5    1    1    2  502    0 -0.10063062926E+02 -0.66021476962E+02  0.13957385148E+03  0.15478511903E+03  0.41800000000E+01 0.  1.
         -5    1    1    2    0  502 -0.95064610228E+01  0.55211252355E+02  0.63710316511E+02  0.84941933212E+02  0.41800000000E+01 0.  1.
        -11    1    3    3    0    0  0.55098444212E+02 -0.16764497275E+02  0.18187382291E+03  0.19077466914E+03  0.00000000000E+00 0.  1.
         11    1    3    3    0    0 -0.35528920263E+02  0.27574721883E+02  0.85041328430E+02  0.96201335766E+02  0.00000000000E+00 0. -1.
</event>
<event>
 7    1  0.4096326E-006  0.1042219E+03  0.7561462E-02  0.1271660E+00
         -1   -1    0    0    0  501 -0.00000000000E+00  0.00000000000E+00  0.99224825704E+03  0.99224825704E+03  0.00000000000E+00 0.  1.
          1   -1    0    0  501    0  0.00000000000E+00 -0.00000000000E+00 -0.13065019309E+02  0.13065019309E+02  0.00000000000E+00 0. -1.
         23    2    1    2    0    0  0.92891412053E+01 -0.21715691134E+02  0.30473089157E+03  0.31895240511E+03  0.91169408575E+02 0.  0.
          5    1    1    2  502    0 -0.29916141979E+01 -0.45948407683E+02  0.13651426020E+03  0.14413126504E+03  0.41800000000E+01 0. -1.
         -5    1    1    2    0  502 -0.62975270074E+01  0.67664098818E+02  0.53793808596E+03  0.54222960620E+03  0.41800000000E+01 0. -1.
        -11    1    3    3    0    0 -0.18614939277E+02 -0.50628257766E+02  0.16920071673E+03  0.17759115685E+03  0.00000000000E+00 0. -1.
         11    1    3    3    0    0  0.27904080482E+02  0.28912566632E+02  0.13553017484E+03  0.14136124826E+03  0.00000000000E+00 0.  1.
</event>
<event>
 7    1  0.4096326E-006  0.1122980E+03  0.7561462E-02  0.1256373E+00
         -3   -1    0    0    0  501 -0.00000000000E+00  0.00000000000E+00  0.52193818791E+02  0.52193818791E+02  0.00000000000E+00 0.  1.
          3   -1    0    0  501    0  0.00000000000E+00 -0.00000000000E+00 -0.31631197930E+03  0.31631197930E+03  0.00000000000E+00 0. -1.
         23    2    1    2    0    0  0.52559173498E+02 -0.47830473342E+02 -0.12024315049E+03  0.16504193243E+03  0.87921574848E+02 0.  0.
          5    1    1    2  502    0  0.38682345798E+02 -0.31170574075E+01 -0.44536824146E+02  0.59220275483E+02  0.41800000000E+01 0. -1.
         -5    1    1    2    0  502 -0.91241519296E+02  0.50947530749E+02 -0.99338185876E+02  0.14424359017E+03  0.41800000000E+01 0. -1.
        -11    1    3    3    0    0  0.57942993028E+02 -0.36628139876E+02 -0.13148624414E+03  0.14828231004E+03  0.00000000000E+00 0. -1.
         11    1    3    3    0    0 -0.53838195302E+01 -0.11202333466E+02  0.11243093657E+02  0.16759622394E+02  0.00000000000E+00 0.  1.
</event>
<event>
 7    1  0.4096326E-006  0.1545902E+03  0.7561462E-02  0.1194943E+00
         -2   -1    0    0    0  501 -0.00000000000E+00  0.00000000000E+00  0.17296975275E+03  0.17296975275E+03  0.00000000000E+00 0.  1.
          2   -1    0    0  501    0  0.00000000000E+00 -0.00000000000E+00 -0.18513799880E+03  0.18513799880E+03  0.00000000000E+00 0. -1.
         23    2    1    2    0    0 -0.87386276140E+02 -0.90186632140E+02 -0.72574013535E+02  0.17084603556E+03  0.90285051655E+02 0.  0.
          5    1    1    2  502    0  0.78509853468E+02  0.11089493549E+03  0.79461958160E+02  0.15745843580E+03  0.41800000000E+01 0. -1.
         -5    1    1    2    0  502  0.88764226715E+01 -0.20708303353E+02 -0.19056190678E+02  0.29803280195E+02  0.41800000000E+01 0. -1.
        -11    1    3    3    0    0  0.45544514724E-01 -0.56704341283E+02 -0.83605771664E+01  0.57317393915E+02  0.00000000000E+00 0. -1.
         11    1    3    3    0    0 -0.87431820654E+02 -0.33482290857E+02 -0.64213436368E+02  0.11352864165E+03  0.00000000000E+00 0.  1.
</event>
<event>
 7    1  0.4096326E-006  0.2366214E+03  0.7561462E-02  0.1122064E+00
          1   -1    0    0  501    0  0.00000000000E+00  0.00000000000E+00  0.13105238724E+04  0.13105238724E+04  0.00000000000E+00 0. -1.
         -1   -1    0    0    0  501 -0.00000000000E+00 -0.00000000000E+00 -0.49047281599E+02  0.49047281599E+02  0.00000000000E+00 0.  1.
         23    2    1    2    0    0  0.24406808558E+02  0.22687915013E+03  0.55550250628E+03  0.60716429313E+03  0.89418137422E+02 0.  0.
          5    1    1    2  502    0 -0.38951597296E+02 -0.21837161218E+03  0.69956297204E+03  0.73390000149E+03  0.41800000000E+01 0.  1.
         -5    1    1    2    0  502  0.14544788738E+02 -0.85075379577E+01  0.64111125103E+01  0.18506859408E+02  0.41800000000E+01 0.  1.
        -11    1    3    3    0    0 -0.38252590525E+01  0.17432482403E+03  0.32220848837E+03  0.36636332630E+03  0.00000000000E+00 0. -1.
         11    1    3    3    0    0  0.28232067610E+02  0.52554326101E+02  0.23329401791E+03  0.24080096683E+03  0.00000000000E+00 0.  1.
</event>
<event>
 7    1  0.4096326E-006  0.1084446E+03  0.7561462E-02  0.1263478E+00
         -2   -1    0    0    0  501 -0.00000000000E+00  0.00000000000E+00  0.28920132771E+02  0.28920132771E+02  0.00000000000E+00 0.  1.
          2   -1    0    0  501    0  0.00000000000E+00 -0.00000000000E+00 -0.67140225944E+03  0.67140225944E+03  0.00000000000E+00 0. -1.
         23    2    1    2    0    0  0.57084095896E+02  0.67428381655E+02 -0.31800944266E+03  0.34152520246E+03  0.87774014583E+02 0.  0.
          5    1    1    2  502    0 -0.19993566033E+02  0.18444381372E+01 -0.24874247957E+03  0.24958653445E+03  0.41800000000E+01 0. -1.
         -5    1    1    2    0  502 -0.37090529864E+02 -0.69272819793E+02 -0.75730204430E+02  0.10921065530E+03  0.41800000000E+01 0. -1.
        -11    1    3    3    0    0  0.43277418626E+01  0.64721382071E+02 -0.22910530096E+03  0.23811095223E+03  0.00000000000E+00 0.  1.
         11    1    3    3    0    0  0.52756354034E+02  0.27069995846E+01 -0.88904141707E+02  0.10341425023E+03  0.00000000000E+00 0. -1.
</event>
<event>
 7    1  0.4096326E-006  0.7208542E+02  0.7561462E-02  0.1353142E+00
         -1   -1    0    0    0  501 -0.00000000000E+00  0.00000000000E+00  0.91892493871E+02  0.91892493871E+02  0.00000000000E+00 0.  1.
          1   -1    0    0  501    0  0.00000000000E+00 -0.00000000000E+00 -0.17874403435E+03  0.17874403435E+03  0.00000000000E+00 0. -1.
         23    2    1    2    0    0  0.17323761851E+02  0.51068499432E+02 -0.82760235619E+02  0.13435516354E+03  0.91071120627E+02 0.  0.
          5    1    1    2  502    0 -0.26634112481E+02 -0.59763340153E+02  0.48791249111E+02  0.81725706872E+02  0.41800000000E+01 0.  1.
         -5    1    1    2    0  502  0.93103506302E+01  0.86948407217E+01 -0.52882553972E+02  0.54555657806E+02  0.41800000000E+01 0.  1.
        -11    1    3    3    0    0 -0.11585076992E+02  0.13299046974E+02  0.16585435782E+02  0.24210645167E+02  0.00000000000E+00 0.  1.
         11    1    3    3    0    0  0.28908838843E+02  0.37769452457E+02 -0.99345671401E+02  0.11014451838E+03  0.00000000000E+00 0. -1.
</event>
<event>
 7    1  0.4096326E-006  0.1751166E+03  0.7561462E-02  0.1172615E+00
         -1   -1    0    0    0  501 -0.00000000000E+00  0.00000000000E+00  0.23435893095E+03  0.23435893095E+03  0.00000000000E+00 0.  1.
          1   -1    0    0  501    0  0.00000000000E+00 -0.00000000000E+00 -0.15716414952E+03  0.15716414952E+03  0.00000000000E+00 0. -1.
         23    2    1    2    0    0 -0.10243449343E+03  0.11496378387E+03  0.76752821467E+01  0.18131153264E+03  0.95422559534E+02 0.  0.
          5    1    1    2  502    0  0.86688495926E+02 -0.41634329122E+02  0.90602593712E+02  0.13219158473E+03  0.41800000000E+01 0. -1.
         -5    1    1    2    0  502  0.15745997501E+02 -0.73329454743E+02 -0.21083094438E+02  0.78019963095E+02  0.41800000000E+01 0. -1.
        -11    1    3    3    0    0 -0.10386593383E+03  0.52506578796E+02 -0.87591398736E+01  0.11671244817E+03  0.00000000000E+00 0.  1.
         11    1    3    3    0    0  0.14314404038E+01  0.62457205069E+02  0.16434422020E+02  0.64599084466E+02  0.00000000000E+00 0. -1.
</event>
<event>
 7    1  0.4096326E-006  0.6060962E+02  0.7561462E-02  0.1395291E+00
          1   -1    0    0  501    0  0.00000000000E+00  0.00000000000E+00  0.13805194797E+03  0.13805194797E+03  0.00000000000E+00 0. -1.
         -1   -1    0    0    0  501 -0.00000000000E+00 -0.00000000000E+00 -0.91014946541E+02  0.91014946541E+02  0.00000000000E+00 0.  1.
         23    2    1    2    0    0 -0.23992812901E+02  0.12657334266E+02  0.33477861151E+02  0.10035034405E+03  0.90628699554E+02 0.  0.
          5    1    1    2  502    0 -0.22574053165E+02 -0.28930928532E+02 -0.40907680784E+02  0.55113494256E+02  0.41800000000E+01 0.  1.
         -5    1    1    2    0  502  0.46566866066E+02  0.16273594266E+02  0.54466821063E+02  0.73603056202E+02  0.41800000000E+01 0.  1.
        -11    1    3    3    0    0 -0.15902512280E+02 -0.38813532502E+01 -0.30044041370E+02  0.34214020836E+02  0.00000000000E+00 0.  1.
         11    1    3    3    0    0 -0.80903006206E+01  0.16538687516E+02  0.63521902521E+02  0.66136323218E+02  0.00000000000E+00 0. -1.
</event>
<event>
 7    1  0.4096326E-006  0.5076946E+02  0.7561462E-02  0.1441235E+00
          1   -1    0    0  501    0  0.00000000000E+00  0.00000000000E+00  0.22089184702E+03  0.22089184702E+03  0.00000000000E+00 0. -1.
         -1   -1    0    0    0  501 -0.00000000000E+00 -0.00000000000E+00 -0.56861255933E+02  0.56861255933E+02  0.00000000000E+00 0.  1.
         23    2    1    2    0    0  0.16757955590E+02 -0.24540523909E+02  0.96716206450E+02  0.13262333821E+03  0.85742981404E+02 0.  0.
          5    1    1    2  502    0  0.91560555157E+01  0.70776527548E+01 -0.35509618224E+02  0.37581004611E+02  0.41800000000E+01 0. -1.
         -5    1    1    2    0  502 -0.25914011105E+02  0.17462871154E+02  0.10282400286E+03  0.10754876013E+03  0.41800000000E+01 0. -1.
        -11    1    3    3    0    0  0.33159220760E+02 -0.73820253516E+01  0.10267629301E+03  0.10815012421E+03  0.00000000000E+00 0. -1.
         11    1    3    3    0    0 -0.16401265170E+02 -0.17158498557E+02 -0.59600865628E+01  0.24473214006E+02  0.00000000000E+00 0.  1.
</event>
<event>
 6    1  0.4096326E-006  0.2019934E+03  0.7561462E-02  0.1148068E+00
         -3   -1    0    0    0  501 -0.00000000000E+00  0.00000000000E+00  0.23317097257E+03  0.23317097257E+03  0.00000000000E+00 0.  1.
          3   -1    0    0  501    0  0.00000000000E+00 -0.00000000000E+00 -0.22374061756E+03  0.22374061756E+03  0.00000000000E+00 0. -1.
          5    1    1    2  502    0 -0.12109663047E+03 -0.22215801505E+02  0.76281033536E+02  0.14489376876E+03  0.41800000000E+01 0. -1.
         -5    1    1    2    0  502  0.10016966531E+02  0.26418332900E+02 -0.16280518996E+02  0.32875456354E+02  0.41800000000E+01 0. -1.
        -11    1    1    2    0    0  0.16530007120E+03  0.52837050545E+02  0.18382937041E+02  0.17451017112E+03  0.00000000000E+00 0.  1.
         11    1    1    2    0    0 -0.54220407262E+02 -0.57039581940E+02 -0.68953096571E+02  0.10463219389E+03  0.00000000000E+00 0. -1.
</event>
<event>
 7    1  0.4096326E-006  0.1025070E+03  0.7561462E-02  0.1275111E+00
          1   -1    0    0  501    0  0.00000000000E+00  0.00000000000E+00  0.86978854067E+03  0.86978854067E+03  0.00000000000E+00 0. -1.
         -1   -1    0    0    0  501 -0.00000000000E+00 -0.00000000000E+00 -0.13759139948E+02  0.13759139948E+02  0.00000000000E+00 0.  1.
         23    2    1    2    0    0  0.50860752199E+01  0.55604606878E+01  0.39572205012E+03  0.40648556724E+03  0.92616351355E+02 0.  0.
          5    1    1    2  502    0  0.53336708837E+02 -0.12391040213E+00  0.32707588302E+03  0.33142257846E+03  0.41800000000E+01 0.  1.
         -5    1    1    2    0  502 -0.58422784057E+02 -0.54365502857E+01  0.13323146758E+03  0.14563953492E+03  0.41800000000E+01 0.  1.
        -11    1    3    3    0    0  0.48765883324E+02  0.10438298132E+01  0.22254643562E+03  0.22782913985E+03  0.00000000000E+00 0.  1.
         11    1    3    3    0    0 -0.43679808104E+02  0.45166308746E+01  0.17317561450E+03  0.17865642739E+03  0.00000000000E+00 0. -1.
</event>
<event>
 7    1  0.4096326E-006  0.2058397E+03  0.7561462E-02  0.1144903E+00
          1   -1    0    0  501    0  0.00000000000E+00  0.00000000000E+00  0.16398432648E+04  0.16398432648E+04  0.00000000000E+00 0. -1.
         -1   -1    0    0    0  501 -0.00000000000E+00 -0.00000000000E+00 -0.30957843257E+02  0.30957843257E+02  0.00000000000E+00 0.  1.
         23    2    1    2    0    0  0.16492318710E+03 -0.10195569312E+03  0.88420063399E+03  0.91025630954E+03  0.95713984902E+02 0.  0.
          5    1    1    2  502    0 -0.61540841992E+02 -0.12229434924E+02  0.10869149244E+03  0.12557128350E+03  0.41800000000E+01 0. -1.
         -5    1    1    2    0  502 -0.10338234510E+03  0.11418512805E+03  0.61599329508E+03  0.63497351499E+03  0.41800000000E+01 0. -1.
        -11    1    3    3    0    0  0.26516189043E+02 -0.24491379982E+02  0.53429604338E+02  0.64479908455E+02  0.00000000000E+00 0.  1.
         11    1    3    3    0    0  0.13840699805E+03 -0.77464313140E+02  0.83077102965E+03  0.84577640109E+03  0.00000000000E+00 0. -1.
</event>
<event>
 7    1  0.4096326E-006  0.1250505E+03  0.7561462E-02  0.1234990E+00
         -1   -1    0    0    0  501 -0.00000000000E+00  0.00000000000E+00  0.43721855527E+02  0.43721855527E+02  0.00000000000E+00 0.  1.
          1   -1    0    0  501    0  0.00000000000E+00 -0.00000000000E+00 -0.75113214803E+03  0.75113214803E+03  0.00000000000E+00 0. -1.
         23    2    1    2    0    0  0.97615024288E+02 -0.43124437609E+02 -0.54823281640E+03  0.56600220673E+03  0.91710778870E+02 0.  0.
          5    1    1    2  502    0 -0.95092814183E+02  0.35216131798E+02 -0.39645360514E+02  0.10895892005E+03  0.41800000000E+01 0. -1.
         -5    1    1    2    0  502 -0.25222101047E+01  0.79083058112E+01 -0.11953211558E+03  0.11989287677E+03  0.41800000000E+01 0. -1.
        -11    1    3    3    0    0  0.53277386510E+02  0.24350517884E+02 -0.27060194875E+03  0.27686972081E+03  0.00000000000E+00 0.  1.
         11    1    3    3    0    0  0.44337637778E+02 -0.67474955493E+02 -0.27763086765E+03  0.28913248592E+03  0.00000000000E+00 0. -1.
</event>
<event>
 7    1  0.9600025E-006  0.2124090E+03  0.7561462E-02  0.1139672E+00
          1   -1    0    0  501    0  0.00000000000E+00  0.00000000000E+00  0.13866094643E+04  0.13866094643E+04  0.00000000000E+00 0. -1.
         -1   -1    0    0    0  501 -0.00000000000E+00 -0.00000000000E+00 -0.40313249164E+02  0.40313249164E+02  0.00000000000E+00 0.  1.
         23    2    1    2    0    0  0.12218322587E+03  0.17003296102E+03  0.70261785211E+03  0.73858477899E+03  0.89418572666E+02 0.  0.
          5    1    1    2  502    0 -0.11238295571E+03 -0.15283578510E+03  0.38854935100E+03  0.43240811337E+03  0.41800000000E+01 0. -1.
         -5    1    1    2    0  502 -0.98002701650E+01 -0.17197175924E+02  0.25512901206E+03  0.25592982114E+03  0.41800000000E+01 0. -1.
        -11    1    3    3    0    0  0.11661843449E+02  0.51360592793E+02  0.84683349528E+02  0.99725517156E+02  0.00000000000E+00 0.  1.
         11    1    3    3    0    0  0.11052138242E+03  0.11867236823E+03  0.61793450258E+03  0.63885926183E+03  0.00000000000E+00 0. -1.
</event>
<event>
 7    1  0.4096326E-006  0.8518744E+02  0.7561462E-02  0.1314943E+00
          1   -1    0    0  501    0  0.00000000000E+00  0.00000000000E+00  0.49575093744E+03  0.49575093744E+03  0.00000000000E+00 0. -1.
         -1   -1    0    0    0  501 -0.00000000000E+00 -0.00000000000E+00 -0.25074601495E+02  0.25074601495E+02  0.00000000000E+00 0.  1.
         23    2    1    2    0    0  0.19467018996E+02  0.19187672356E+02  0.19907834349E+03  0.22055859151E+03  0.90921800707E+02 0.  0.
          5    1    1    2  502    0  0.33261573357E+02 -0.39553146537E+02  0.51845298235E+02  0.73322513679E+02  0.41800000000E+01 0.  1.
         -5    1    1    2    0  502 -0.52728592354E+02  0.20365474181E+02  0.21975269423E+03  0.22694443375E+03  0.41800000000E+01 0.  1.
        -11    1    3    3    0    0 -0.17526911799E+02  0.17571125378E+02  0.82239079171E+01  0.26145166775E+02  0.00000000000E+00 0.  1.
         11    1    3    3    0    0  0.36993930796E+02  0.16165469777E+01  0.19085443557E+03  0.19441342473E+03  0.00000000000E+00 0. -1.
</event>
<event>
 7    1  0.4096326E-006  0.1865947E+03  0.7561462E-02  0.1161569E+00
          1   -1    0    0  501    0  0.00000000000E+00  0.00000000000E+00  0.24810593907E+03  0.24810593907E+03  0.00000000000E+00 0. -1.
         -1   -1    0    0    0  501 -0.00000000000E+00 -0.00000000000E+00 -0.15491352489E+03  0.15491352489E+03  0.00000000000E+00 0.  1.
         23    2    1    2    0    0  0.12122526092E+01  0.15565592000E+03  0.88494772156E+02  0.20327329886E+03  0.96220966233E+02 0.  0.
          5    1    1    2  502    0  0.22655048656E+02  0.82756801511E+01 -0.20751089039E+02  0.32090780730E+02  0.41800000000E+01 0.  1.
         -5    1    1    2    0  502 -0.23867301265E+02 -0.16393160015E+03  0.25448731061E+02  0.16765538438E+03  0.41800000000E+01 0.  1.
        -11    1    3    3    0    0 -0.36893719548E+02  0.13438441152E+03  0.67057712788E+02  0.15465139329E+03  0.00000000000E+00 0.  1.
         11    1    3    3    0    0  0.38105972157E+02  0.21271508482E+02  0.21437059367E+02  0.48621905572E+02  0.00000000000E+00 0. -1.
</event>
<event>
 7    1  0.4096326E-006  0.1004230E+03  0.7561462E-02  0.1279409E+00
         -2   -1    0    0    0  501 -0.00000000000E+00  0.00000000000E+00  0.23782500760E+02  0.23782500760E+02  0.00000000000E+00 0. -1.
          2   -1    0    0  501    0  0.00000000000E+00 -0.00000000000E+00 -0.86633769386E+03  0.86633769386E+03  0.00000000000E+00 0.  1.
         23    2    1    2    0    0 -0.90106687866E+02  0.65655139279E+00 -0.44976026256E+03  0.46816199296E+03  0.93657416252E+02 0.  0.
          5    1    1    2  502    0  0.65508362529E+02  0.17998799421E+02 -0.38343388608E+03  0.38942819587E+03  0.41800000000E+01 0. -1.
         -5    1    1    2    0  502  0.24598325337E+02 -0.18655350813E+02 -0.93610444619E+01  0.32530005791E+02  0.41800000000E+01 0. -1.
        -11    1    3    3    0    0 -0.76235278579E+02 -0.18046268461E+02 -0.43154489381E+03  0.43859831382E+03  0.00000000000E+00 0.  1.
         11    1    3    3    0    0 -0.13871409287E+02  0.18702819854E+02 -0.18215368744E+02  0.29563679145E+02  0.00000000000E+00 0. -1.
</event>
<event>
 7    1  0.9208068E-006  0.1889832E+03  0.7561462E-02  0.1159382E+00
         -1   -1    0    0    0  501 -0.00000000000E+00  0.00000000000E+00  0.21992463985E+04  0.21992463985E+04  0.00000000000E+00 0.  1.
          1   -1    0    0  501    0  0.00000000000E+00 -0.00000000000E+00 -0.17448027368E+02  0.17448027368E+02  0.00000000000E+00 0. -1.
         23    2    1    2    0    0  0.11365326118E+03  0.11004121930E+03  0.80129935200E+03  0.82154153903E+03  0.88451767165E+02 0.  0.
          5    1    1    2  502    0 -0.11529949254E+03 -0.31524110909E+02  0.95345201048E+03  0.96092452942E+03  0.41800000000E+01 0. -1.
         -5    1    1    2    0  502  0.16462313623E+01 -0.78517108395E+02  0.42704700864E+03  0.43422835741E+03  0.41800000000E+01 0. -1.
        -11    1    3    3    0    0  0.11711560970E+02  0.68732695417E+02  0.26047424558E+03  0.26964453766E+03  0.00000000000E+00 0.  1.
         11    1    3    3    0    0  0.10194170021E+03  0.41308523887E+02  0.54082510643E+03  0.55189700138E+03  0.00000000000E+00 0. -1.
</event>
<event>
 7    1  0.4096326E-006  0.1277594E+03  0.7561462E-02  0.1230819E+00
          1   -1    0    0  501    0  0.00000000000E+00  0.00000000000E+00  0.61120840152E+02  0.61120840152E+02  0.00000000000E+00 0. -1.
         -1   -1    0    0    0  501 -0.00000000000E+00 -0.00000000000E+00 -0.28168137750E+03  0.28168137750E+03  0.00000000000E+00 0.  1.
         23    2    1    2    0    0 -0.73704509472E+02  0.90031390770E+01 -0.83076461558E+02  0.14264001047E+03  0.89056515152E+02 0.  0.
          5    1    1    2  502    0  0.49276807690E+02  0.55969171511E+02 -0.84234158030E+02  0.11257716338E+03  0.41800000000E+01 0.  1.
         -5    1    1    2    0  502  0.24427701782E+02 -0.64972310588E+02 -0.53249917765E+02  0.87585043812E+02  0.41800000000E+01 0.  1.
        -11    1    3    3    0    0 -0.50860949351E+02 -0.34981886864E+02 -0.25821964209E+02  0.66912946528E+02  0.00000000000E+00 0.  1.
         11    1    3    3    0    0 -0.22843560121E+02  0.43985025941E+02 -0.57254497349E+02  0.75727063938E+02  0.00000000000E+00 0. -1.
</event>
<event>
 7    1  0.4096326E-006  0.8912126E+02  0.7561462E-02  0.1304994E+00
         -3   -1    0    0    0  501 -0.00000000000E+00  0.00000000000E+00  0.73293778137E+02  0.73293778137E+02  0.00000000000E+00 0. -1.
          3   -1    0    0  501    0  0.00000000000E+00 -0.00000000000E+00 -0.23248652982E+03  0.23248652982E+03  0.00000000000E+00 0.  1.
         23    2    1    2    0    0 -0.29003980902E+02 -0.91022857384E+01 -0.14540757348E+03  0.17631280708E+03  0.94967157474E+02 0.  0.
          5    1    1    2  502    0 -0.28655104242E+02  0.19989490532E+02  0.37500281681E+02  0.51424101908E+02  0.41800000000E+01 0.  1.
         -5    1    1    2    0  502  0.57659085144E+02 -0.10887204794E+02 -0.51285459878E+02  0.78043398970E+02  0.41800000000E+01 0.  1.
        -11    1    3    3    0    0 -0.16002112319E+02 -0.44089318534E+02 -0.31636612257E+02  0.56575708944E+02  0.00000000000E+00 0.  1.
         11    1    3    3    0    0 -0.13001868584E+02  0.34987032796E+02 -0.11377096123E+03  0.11973709813E+03  0.00000000000E+00 0. -1.
</event>
<event>
 7    1  0.4096326E-006  0.2387363E+03  0.7561462E-02  0.1120638E+00
          1   -1    0    0  501    0  0.00000000000E+00  0.00000000000E+00  0.56614222591E+03  0.56614222591E+03  0.00000000000E+00 0. -1.
         -1   -1    0    0    0  501 -0.00000000000E+00 -0.00000000000E+00 -0.11575318075E+03  0.11575318075E+03  0.00000000000E+00 0.  1.
         23    2    1    2    0    0 -0.29672126528E+02  0.21066204221E+03  0.34035910835E+03  0.41168580257E+03  0.91552969777E+02 0.  0.
          5    1    1    2  502    0 -0.49205700833E+02 -0.79873558789E+02  0.45552493045E+02  0.10437187557E+03  0.41800000000E+01 0. -1.
         -5    1    1    2    0  502  0.78877827360E+02 -0.13078848343E+03  0.64477443761E+02  0.16583772852E+03  0.41800000000E+01 0. -1.
        -11    1    3    3    0    0  0.97252484831E+01  0.18149838760E+03  0.25310603768E+03  0.31160698238E+03  0.00000000000E+00 0.  1.
         11    1    3    3    0    0 -0.39397375011E+02  0.29163654619E+02  0.87253070677E+02  0.10007882019E+03  0.00000000000E+00 0. -1.
</event>
<event>
 7    1  0.4096326E-006  0.1312775E+03  0.7561462E-02  0.1225572E+00
          1   -1    0    0  501    0  0.00000000000E+00  0.00000000000E+00  0.80244093675E+03  0.80244093675E+03  0.00000000000E+00 0. -1.
         -1   -1    0    0    0  501 -0.00000000000E+00 -0.00000000000E+00 -0.36387396257E+02  0.36387396257E+02  0.00000000000E+00 0.  1.
         23    2    1    2    0    0 -0.47844913307E+01  0.12631570623E+03  0.44885695124E+03  0.47518086867E+03  0.91355056101E+02 0.  0.
          5    1    1    2  502    0 -0.21583854061E+02 -0.70477508726E+02  0.28395045298E+03  0.29339099192E+03  0.41800000000E+01 0. -1.
         -5    1    1    2    0  502  0.26368345392E+02 -0.55838197507E+02  0.33246136277E+02  0.70256472420E+02  0.41800000000E+01 0. -1.
        -11    1    3    3    0    0  0.28470625074E+01  0.15626503521E+02  0.35711583524E+01  0.16280250280E+02  0.00000000000E+00 0.  1.
         11    1    3    3    0    0 -0.76315538381E+01  0.11068920271E+03  0.44528579289E+03  0.45890061839E+03  0.00000000000E+00 0. -1.
</event>
<event>
 7    1  0.4096326E-006  0.8586011E+02  0.7561462E-02  0.1313198E+00
         -2   -1    0    0    0  501 -0.00000000000E+00  0.00000000000E+00  0.70411987549E+02  0.70411987549E+02  0.00000000000E+00 0.  1.
          2   -1    0    0  501    0  0.00000000000E+00 -0.00000000000E+00 -0.17725875540E+03  0.17725875540E+03  0.00000000000E+00 0. -1.
         23    2    1    2    0    0  0.52406083209E+01 -0.39800453775E+01 -0.47204918903E+02  0.10893498706E+03  0.97955205576E+02 0.  0.
          5    1    1    2  502    0 -0.33410672754E+02 -0.21563142532E+02 -0.84244833113E+02  0.93251844357E+02  0.41800000000E+01 0. -1.
         -5    1    1    2    0  502  0.28170064433E+02  0.25543187909E+02  0.24602984165E+02  0.45483911535E+02  0.41800000000E+01 0. -1.
        -11    1    3    3    0    0 -0.39521545970E+02 -0.21994719698E+02 -0.62761470002E+01  0.45663008131E+02  0.00000000000E+00 0.  1.
         11    1    3    3    0    0  0.44762154290E+02  0.18014674321E+02 -0.40928771902E+02  0.63271978925E+02  0.00000000000E+00 0. -1.
</event>
<event>
 7    1  0.4096326E-006  0.1380735E+03  0.7561462E-02  0.1215945E+00
         -2   -1    0    0    0  501 -0.00000000000E+00  0.00000000000E+00  0.56311285448E+02  0.56311285448E+02  0.00000000000E+00 0.  1.
          2   -1    0    0  501    0  0.00000000000E+00 -0.00000000000E+00 -0.42835582118E+03  0.42835582118E+03  0.00000000000E+00 0. -1.
         23    2    1    2    0    0  0.18668772558E+02 -0.97430011185E+02 -0.27591541729E+03  0.30759611509E+03  0.92978074660E+02 0.  0.
          5    1    1    2  502    0 -0.19057601591E+02 -0.17235644888E+02 -0.43814836651E+02  0.50965399477E+02  0.41800000000E+01 0. -1.
         -5    1    1    2    0  502  0.38882903312E+00  0.11466565607E+03 -0.52314281786E+02  0.12610559206E+03  0.41800000000E+01 0.  1.
        -11    1    3    3    0    0  0.56172896307E+02 -0.63706625816E+02 -0.15893988642E+03  0.18021047680E+03  0.00000000000E+00 0.  1.
         11    1    3    3    0    0 -0.37504123749E+02 -0.33723385369E+02 -0.11697553088E+03  0.12738563829E+03  0.00000000000E+00 0. -1.
</event>
<event>
 7    1  0.4096326E-006  0.1101305E+03  0.7561462E-02  0.1260328E+00
          2   -1    0    0  501    0  0.00000000000E+00  0.00000000000E+00  0.18461661679E+03  0.18461661679E+03  0.00000000000E+00 0. -1.
         -2   -1    0    0    0  501 -0.00000000000E+00 -0.00000000000E+00 -0.99863867852E+02  0.99863867852E+02  0.00000000000E+00 0.  1.
         23    2    1    2    0    0  0.12501816112E+02  0.42016755539E+02  0.11042010045E+03  0.14947059235E+03  0.90703672695E+02 0.  0.
          5    1    1    2  502    0  0.38176749078E+02  0.22147801053E+02  0.10414670760E+02  0.45540388982E+02  0.41800000000E+01 0. -1.
         -5    1    1    2    0  502 -0.50678565190E+02 -0.64164556592E+02 -0.36082022272E+02  0.89469503316E+02  0.41800000000E+01 0. -1.
        -11    1    3    3    0    0 -0.23739269115E+02  0.51402672231E+02  0.38744247793E+02  0.68606882655E+02  0.00000000000E+00 0.  1.
         11    1    3    3    0    0  0.36241085228E+02 -0.93859166914E+01  0.71675852660E+02  0.80863709692E+02  0.00000000000E+00 0. -1.
</event>
<event>
 7    1  0.4096326E-006  0.9994936E+02  0.7561462E-02  0.1280402E+00
          2   -1    0    0  501    0  0.00000000000E+00  0.00000000000E+00  0.64630521750E+02  0.64630521750E+02  0.00000000000E+00 0. -1.
         -2   -1    0    0    0  501 -0.00000000000E+00 -0.00000000000E+00 -0.29963808983E+03  0.29963808983E+03  0.00000000000E+00 0.  1.
         23    2    1    2    0    0  0.38147726182E+02 -0.57348240444E+02 -0.35626637797E+02  0.11903383403E+03  0.90309061722E+02 0.  0.
          5    1    1    2  502    0 -0.88413744446E+01 -0.30846213566E+02 -0.11558591304E+03  0.12003013991E+03  0.41800000000E+01 0. -1.
         -5    1    1    2    0  502 -0.29306351737E+02  0.88194454011E+02 -0.83795017238E+02  0.12520463763E+03  0.41800000000E+01 0. -1.
        -11    1    3    3    0    0  0.11959212753E+02 -0.55886289930E+00 -0.52833376827E+02  0.54172878863E+02  0.00000000000E+00 0.  1.
         11    1    3    3    0    0  0.26188513429E+02 -0.56789377545E+02  0.17206739030E+02  0.64860955171E+02  0.00000000000E+00 0. -1.
</event>
<event>
 7    1  0.4096326E-006  0.1242589E+03  0.7561462E-02  0.1236232E+00
          2   -1    0    0  501    0  0.00000000000E+00  0.00000000000E+00  0.17452462914E+03  0.17452462914E+03  0.00000000000E+00 0. -1.
         -2   -1    0    0    0  501 -0.00000000000E+00 -0.00000000000E+00 -0.12700283145E+03  0.12700283145E+03  0.00000000000E+00 0.  1.
         23    2    1    2    0    0 -0.80773590786E+02  0.22580311119E+02  0.79823628879E+02  0.14749749881E+03  0.91375363249E+02 0.  0.
          5    1    1    2  502    0 -0.15417436706E+02  0.14636473427E+02 -0.45081608693E+02  0.50017472460E+02  0.41800000000E+01 0. -1.
         -5    1    1    2    0  502  0.96191027492E+02 -0.37216784546E+02  0.12779777494E+02  0.10401248932E+03  0.41800000000E+01 0. -1.
        -11    1    3    3    0    0 -0.60137972819E+02 -0.29954793046E+02  0.37438447398E+02  0.76912305549E+02  0.00000000000E+00 0.  1.
         11    1    3    3    0    0 -0.20635617967E+02  0.52535104165E+02  0.42385181481E+02  0.70585193261E+02  0.00000000000E+00 0. -1.
</event>
<event>
 7    1  0.4096326E-006  0.1184082E+03  0.7561462E-02  0.1245746E+00
          3   -1    0    0  501    0  0.00000000000E+00  0.00000000000E+00  0.28463683242E+03  0.28463683242E+03  0.00000000000E+00 0. -1.
         -3   -1    0    0    0  501 -0.00000000000E+00 -0.00000000000E+00 -0.54263223956E+02  0.54263223956E+02  0.00000000000E+00 0.  1.
         23    2    1    2    0    0  0.10140848597E+02  0.76869668405E+02  0.11335155912E+03  0.15087381364E+03  0.62470384619E+02 0.  0.
          5    1    1    2  502    0 -0.60429500022E+02 -0.26403829674E+02  0.22957888737E+02  0.69953011011E+02  0.41800000000E+01 0. -1.
         -5    1    1    2    0  502  0.50288651424E+02 -0.50465838731E+02  0.94064160604E+02  0.11807323173E+03  0.41800000000E+01 0. -1.
        -11    1    3    3    0    0 -0.24111494673E+02  0.51114777933E+02  0.69165997056E+02  0.89319761796E+02  0.00000000000E+00 0.  1.
         11    1    3    3    0    0  0.34252343271E+02  0.25754890472E+02  0.44185562068E+02  0.61554051841E+02  0.00000000000E+00 0. -1.
</event>
<event>
 7    1  0.4096326E-006  0.1672292E+03  0.7561462E-02  0.1180769E+00
         -1   -1    0    0    0  501 -0.00000000000E+00  0.00000000000E+00  0.20546739183E+03  0.20546739183E+03  0.00000000000E+00 0.  1.
          1   -1    0    0  501    0  0.00000000000E+00 -0.00000000000E+00 -0.21876002364E+03  0.21876002364E+03  0.00000000000E+00 0. -1.
         23    2    1    2    0    0  0.12428603659E+03  0.98345714315E+02 -0.95643339680E+02  0.20617024184E+03  0.90772362432E+02 0.  0.
          5    1    1    2  502    0 -0.93584253801E+02 -0.26094535397E+02  0.97823340473E+02  0.13793409904E+03  0.41800000000E+01 0. -1.
         -5    1    1    2    0  502 -0.30701782790E+02 -0.72251178918E+02 -0.15472632594E+02  0.80123074585E+02  0.41800000000E+01 0. -1.
        -11    1    3    3    0    0  0.23988471402E+02  0.16076105732E+02  0.17731371503E+02  0.33886420157E+02  0.00000000000E+00 0.  1.
         11    1    3    3    0    0  0.10029756519E+03  0.82269608583E+02 -0.11337471118E+03  0.17228382169E+03  0.00000000000E+00 0. -1.
</event>
<event>
 7    1  0.4096326E-006  0.1551801E+03  0.7561462E-02  0.1194248E+00
          4   -1    0    0  501    0  0.00000000000E+00  0.00000000000E+00  0.48218643982E+02  0.48218643982E+02  0.00000000000E+00 0. -1.
         -4   -1    0    0    0  501 -0.00000000000E+00 -0.00000000000E+00 -0.10985371177E+04  0.10985371177E+04  0.00000000000E+00 0.  1.
         23    2    1    2    0    0  0.76861098932E+02 -0.95616308081E+02 -0.90438478623E+02  0.17101624700E+03  0.77571460096E+02 0.  0.
          5    1    1    2  502    0 -0.24874366961E+02  0.11240029316E+03 -0.75147253454E+03  0.76025061829E+03  0.41800000000E+01 0.  1.
         -5    1    1    2    0  502 -0.51986731971E+02 -0.16783985080E+02 -0.20840746052E+03  0.21548889637E+03  0.41800000000E+01 0.  1.
        -11    1    3    3    0    0  0.65174414840E+02 -0.10620340557E+03 -0.92396964453E+02  0.15512597057E+03  0.00000000000E+00 0.  1.
         11    1    3    3    0    0  0.11686684092E+02  0.10587097488E+02  0.19584858298E+01  0.15890276431E+02  0.00000000000E+00 0. -1.
</event>
<event>
 7    1  0.4096326E-006  0.2562324E+03  0.7561462E-02  0.1109428E+00
         -2   -1    0    0    0  501 -0.00000000000E+00  0.00000000000E+00  0.77101306101E+02  0.77101306101E+02  0.00000000000E+00 0.  1.
          2   -1    0    0  501    0  0.00000000000E+00 -0.00000000000E+00 -0.13992966183E+04  0.13992966183E+04  0.00000000000E+00 0. -1.
         23    2    1    2    0    0 -0.23772669475E+03  0.56355274111E+02 -0.10783587234E+04  0.11092553996E+04  0.88882545817E+02 0.  0.
          5    1    1    2  502    0  0.14309935300E+03 -0.15547268347E+01 -0.20698410265E+03  0.25167386268E+03  0.41800000000E+01 0. -1.
         -5    1    1    2    0  502  0.94627341742E+02 -0.54800547276E+02 -0.36852486121E+02  0.11546866207E+03  0.41800000000E+01 0. -1.
        -11    1    3    3    0    0 -0.99933636649E+02 -0.20607663858E+02 -0.43961252430E+03  0.45129876918E+03  0.00000000000E+00 0.  1.
         11    1    3    3    0    0 -0.13779305810E+03  0.76962937969E+02 -0.63874619910E+03  0.65795663044E+03  0.00000000000E+00 0. -1.
</event>
<event>
 7    1  0.4096326E-006  0.6168851E+02  0.7561462E-02  0.1390879E+00
         -1   -1    0    0    0  501 -0.00000000000E+00  0.00000000000E+00  0.43960626032E+03  0.43960626032E+03  0.00000000000E+00 0.  1.
          1   -1    0    0  501    0  0.00000000000E+00 -0.00000000000E+00 -0.32657232478E+02  0.32657232478E+02  0.00000000000E+00 0. -1.
         23    2    1    2    0    0 -0.88196788307E+01  0.47223225950E+02  0.14337599250E+03  0.17658400181E+03  0.91199861101E+02 0.  0.
          5    1    1    2  502    0 -0.13600066842E+02  0.37800961951E+01  0.23005693423E+03  0.23052747414E+03  0.41800000000E+01 0.  1.
         -5    1    1    2    0  502  0.22419745673E+02 -0.51003322145E+02  0.33516101107E+02  0.65152016847E+02  0.41800000000E+01 0.  1.
        -11    1    3    3    0    0 -0.14920101194E+02  0.20379695045E+02 -0.49390872783E+01  0.25735888812E+02  0.00000000000E+00 0. -1.
         11    1    3    3    0    0  0.61004223636E+01  0.26843530904E+02  0.14831507978E+03  0.15084811299E+03  0.00000000000E+00 0.  1.
</event>
<event>
 7    1  0.4096326E-006  0.1631589E+03  0.7561462E-02  0.1185176E+00
         -1   -1    0    0    0  501 -0.00000000000E+00  0.00000000000E+00  0.72456458350E+02  0.72456458350E+02  0.00000000000E+00 0.  1.
          1   -1    0    0  501    0  0.00000000000E+00 -0.00000000000E+00 -0.59457622060E+03  0.59457622060E+03  0.00000000000E+00 0. -1.
         23    2    1    2    0    0 -0.13883364083E+03  0.18826719061E+02 -0.42521873607E+03  0.45568610984E+03  0.84909551983E+02 0.  0.
          5    1    1    2  502    0 -0.14474248220E+02 -0.15568254167E+02  0.10511447817E+02  0.24079811763E+02  0.41800000000E+01 0. -1.
         -5    1    1    2    0  502  0.15330788905E+03 -0.32584648944E+01 -0.10741247400E+03  0.18726675735E+03  0.41800000000E+01 0. -1.
        -11    1    3    3    0    0 -0.44330669437E+02  0.33570993773E+02 -0.79759174204E+02  0.97230374602E+02  0.00000000000E+00 0.  1.
         11    1    3    3    0    0 -0.94502971394E+02 -0.14744274712E+02 -0.34545956187E+03  0.35845573524E+03  0.00000000000E+00 0. -1.
</event>
<event>
 7    1  0.4096326E-006  0.1136770E+03  0.7561462E-02  0.1253908E+00
         -1   -1    0    0    0  501 -0.00000000000E+00  0.00000000000E+00  0.14043695122E+02  0.14043695122E+02  0.00000000000E+00 0.  1.
          1   -1    0    0  501    0  0.00000000000E+00 -0.00000000000E+00 -0.98750944222E+03  0.98750944222E+03  0.00000000000E+00 0. -1.
         23    2    1    2    0    0  0.40697197690E+02 -0.58861807622E+01 -0.33088676315E+03  0.34562121742E+03  0.90978386878E+02 0.  0.
          5    1    1    2  502    0 -0.68575997157E+02 -0.38444927592E+02 -0.41046144130E+03  0.41794347350E+03  0.41800000000E+01 0.  1.
         -5    1    1    2    0  502  0.27878799468E+02  0.44331108354E+02 -0.23211754265E+03  0.23798844643E+03  0.41800000000E+01 0.  1.
        -11    1    3    3    0    0  0.55229663018E+02 -0.33706869825E+02 -0.17435322699E+03  0.18597181644E+03  0.00000000000E+00 0.  1.
         11    1    3    3    0    0 -0.14532465328E+02  0.27820689063E+02 -0.15653353616E+03  0.15964940097E+03  0.00000000000E+00 0. -1.
</event>
<event>
 7    1  0.4096326E-006  0.1119717E+03  0.7561462E-02  0.1256962E+00
         -2   -1    0    0    0  501 -0.00000000000E+00  0.00000000000E+00  0.22006248782E+03  0.22006248782E+03  0.00000000000E+00 0.  1.
          2   -1    0    0  501    0  0.00000000000E+00 -0.00000000000E+00 -0.85851150334E+02  0.85851150334E+02  0.00000000000E+00 0. -1.
         23    2    1    2    0    0  0.30741161698E+02 -0.56549999180E+02  0.34281326667E+01  0.11383406347E+03  0.93827077561E+02 0.  0.
          5    1    1    2  502    0  0.30937511063E+02 -0.22798188227E+02  0.24618559251E+02  0.45830479343E+02  0.41800000000E+01 0.  1.
         -5    1    1    2    0  502 -0.61678672761E+02  0.79348187407E+02  0.10616464557E+03  0.14624909534E+03  0.41800000000E+01 0.  1.
        -11    1    3    3    0    0 -0.15260066472E+02 -0.23640069385E+02 -0.35405605948E+02  0.45224765802E+02  0.00000000000E+00 0. -1.
         11    1    3    3    0    0  0.46001228170E+02 -0.32909929795E+02  0.38833738615E+02  0.68609297673E+02  0.00000000000E+00 0.  1.
</event>
<event>
 7    1  0.4096326E-006  0.1279538E+03  0.7561462E-02  0.1230524E+00
          1   -1    0    0  501    0  0.00000000000E+00  0.00000000000E+00  0.40390457279E+02  0.40390457279E+02  0.00000000000E+00 0. -1.
         -1   -1    0    0    0  501 -0.00000000000E+00 -0.00000000000E+00 -0.66979535189E+03  0.66979535189E+03  0.00000000000E+00 0.  1.
         23    2    1    2    0    0 -0.11862345659E+03  0.42217492624E+01 -0.22386889243E+03  0.26950809398E+03  0.91804052740E+02 0.  0.
          5    1    1    2  502    0  0.67156660097E+02 -0.23243918104E+02 -0.36615067396E+03  0.37300681651E+03  0.41800000000E+01 0. -1.
         -5    1    1    2    0  502  0.51466796496E+02  0.19022168842E+02 -0.39385328220E+02  0.67670898679E+02  0.41800000000E+01 0. -1.
        -11    1    3    3    0    0 -0.58752032822E+02  0.28233469551E+02 -0.18015462269E+03  0.19158449373E+03  0.00000000000E+00 0.  1.
         11    1    3    3    0    0 -0.59871423771E+02 -0.24011720289E+02 -0.43714269745E+02  0.77923600243E+02  0.00000000000E+00 0. -1.
</event>
<event>
 7    1  0.4096326E-006  0.9787171E+02  0.7561462E-02  0.1284836E+00
         -1   -1    0    0    0  501 -0.00000000000E+00  0.00000000000E+00  0.24137187897E+02  0.24137187897E+02  0.00000000000E+00 0.  1.
          1   -1    0    0  501    0  0.00000000000E+00 -0.00000000000E+00 -0.50945373431E+03  0.50945373431E+03  0.00000000000E+00 0. -1.
         23    2    1    2    0    0 -0.35280226911E+01 -0.23701700912E+02 -0.24785923660E+03  0.26413153510E+03  0.88074111369E+02 0.  0.
          5    1    1    2  502    0 -0.42058768922E+02  0.37760140862E+02 -0.48711174695E+02  0.74732986166E+02  0.41800000000E+01 0.  1.
         -5    1    1    2    0  502  0.45586791613E+02 -0.14058439950E+02 -0.18874613511E+03  0.19472640094E+03  0.41800000000E+01 0.  1.
        -11    1    3    3    0    0  0.35175745830E+02  0.13325999433E+02 -0.10829453146E+03  0.11464127049E+03  0.00000000000E+00 0.  1.
         11    1    3    3    0    0 -0.38703768521E+02 -0.37027700345E+02 -0.13956470514E+03  0.14949026460E+03  0.00000000000E+00 0. -1.
</event>
<event>
 7    1  0.4096326E-006  0.1172690E+03  0.7561462E-02  0.1247672E+00
          1   -1    0    0  501    0  0.00000000000E+00  0.00000000000E+00  0.71435093430E+02  0.71435093430E+02  0.00000000000E+00 0. -1.
         -1   -1    0    0    0  501 -0.00000000000E+00 -0.00000000000E+00 -0.22463374685E+03  0.22463374685E+03  0.00000000000E+00 0.  1.
         23    2    1    2    0    0  0.35164247003E+02 -0.57738560768E+02 -0.56335485613E+02  0.12401974056E+03  0.87389607174E+02 0.  0.
          5    1    1    2  502    0 -0.63634136600E+02  0.68286548997E+02 -0.29398440190E+02  0.97949460439E+02  0.41800000000E+01 0.  1.
         -5    1    1    2    0  502  0.28469889597E+02 -0.10547988228E+02 -0.67464727618E+02  0.74099639283E+02  0.41800000000E+01 0.  1.
        -11    1    3    3    0    0  0.46945865508E+02 -0.75641234580E+02 -0.44265586501E+02  0.99423099959E+02  0.00000000000E+00 0.  1.
         11    1    3    3    0    0 -0.11781618505E+02  0.17902673812E+02 -0.12069899112E+02  0.24596640600E+02  0.00000000000E+00 0. -1.
</event>
<event>
 7    1  0.4096326E-006  0.1461698E+03  0.7561462E-02  0.1205260E+00
          2   -1    0    0  501    0  0.00000000000E+00  0.00000000000E+00  0.16433170943E+04  0.16433170943E+04  0.00000000000E+00 0. -1.
         -2   -1    0    0    0  501 -0.00000000000E+00 -0.00000000000E+00 -0.15963063435E+02  0.15963063435E+02  0.00000000000E+00 0.  1.
         23    2    1    2    0    0 -0.89382567673E+02  0.52931459249E+02  0.45437197067E+03  0.47508180051E+03  0.91966551865E+02 0.  0.
          5    1    1    2  502    0  0.43875537443E+02  0.39127451667E+02  0.48867559302E+03  0.49221674888E+03  0.41800000000E+01 0. -1.
         -5    1    1    2    0  502  0.45507030230E+02 -0.92058910916E+02  0.68430646717E+03  0.69198160834E+03  0.41800000000E+01 0. -1.
        -11    1    3    3    0    0 -0.15400593886E-01  0.40381823471E+02  0.22500901555E+03  0.22860391288E+03  0.00000000000E+00 0.  1.
         11    1    3    3    0    0 -0.89367167079E+02  0.12549635777E+02  0.22936295512E+03  0.24647788763E+03  0.00000000000E+00 0. -1.
</event>
<event>
 7    1  0.4096326E-006  0.1022977E+03  0.7561462E-02  0.1275537E+00
          1   -1    0    0  501    0  0.00000000000E+00  0.00000000000E+00  0.34559582408E+03  0.34559582408E+03  0.00000000000E+00 0. -1.
         -1   -1    0    0    0  501 -0.00000000000E+00 -0.00000000000E+00 -0.55616398252E+02  0.55616398252E+02  0.00000000000E+00 0.  1.
         23    2    1    2    0    0  0.50367158947E+02 -0.67827111271E+02  0.15975563709E+03  0.20185447836E+03  0.89922183731E+02 0.  0.
          5    1    1    2  502    0 -0.41925505102E+02  0.50435909455E+02  0.15458720295E+03  0.16797679797E+03  0.41800000000E+01 0. -1.
         -5    1    1    2    0  502 -0.84416538454E+01  0.17391201816E+02 -0.24363414210E+02  0.31380946006E+02  0.41800000000E+01 0. -1.
        -11    1    3    3    0    0  0.32813712143E+02  0.13805255046E+02  0.74245219401E+02  0.82338796295E+02  0.00000000000E+00 0. -1.
         11    1    3    3    0    0  0.17553446804E+02 -0.81632366317E+02  0.85510417689E+02  0.11951568206E+03  0.00000000000E+00 0.  1.
</event>
<event>
 7    1  0.4096326E-006  0.9352391E+02  0.7561462E-02  0.1294536E+00
          2   -1    0    0  501    0  0.00000000000E+00  0.00000000000E+00  0.12917982152E+04  0.12917982152E+04  0.00000000000E+00 0. -1.
         -2   -1    0    0    0  501 -0.00000000000E+00 -0.00000000000E+00 -0.84295489717E+01  0.84295489717E+01  0.00000000000E+00 0.  1.
         23    2    1    2    0    0 -0.96177628234E+01 -0.17170633814E+02  0.41198680350E+03  0.41969328144E+03  0.77601496124E+02 0.  0.
          5    1    1    2  502    0 -0.87364095373E+01  0.59860167708E+02  0.70884606860E+03  0.71143501874E+03  0.41800000000E+01 0.  1.
         -5    1    1    2    0  502  0.18354172361E+02 -0.42689533895E+02  0.16253579415E+03  0.16909946400E+03  0.41800000000E+01 0.  1.
        -11    1    3    3    0    0  0.31065474116E+02  0.77851576263E+01  0.14781379999E+03  0.15124348524E+03  0.00000000000E+00 0.  1.
         11    1    3    3    0    0 -0.40683236939E+02 -0.24955791440E+02  0.26417300352E+03  0.26844979620E+03  0.00000000000E+00 0. -1.
</event>
<event>
 7    1  0.4096326E-006  0.1299757E+03  0.7561462E-02  0.1227492E+00
         -1   -1    0    0    0  501 -0.00000000000E+00  0.00000000000E+00  0.77469045635E+03  0.77469045635E+03  0.00000000000E+00 0.  1.
          1   -1    0    0  501    0  0.00000000000E+00 -0.00000000000E+00 -0.36119831640E+02  0.36119831640E+02  0.00000000000E+00 0. -1.
         23    2    1    2    0    0 -0.90295423133E+02 -0.27094055209E+02  0.16046397579E+03  0.21185963231E+03  0.10123470259E+03 0.  0.
          5    1    1    2  502    0  0.11339673655E+03  0.28056481456E+02  0.33689598516E+03  0.35659832196E+03  0.41800000000E+01 0. -1.
         -5    1    1    2    0  502 -0.23101313420E+02 -0.96242624617E+00  0.24121066376E+03  0.24235233371E+03  0.41800000000E+01 0. -1.
        -11    1    3    3    0    0 -0.14691397763E+02 -0.40229199833E+02  0.11488317617E+03  0.12260656530E+03  0.00000000000E+00 0.  1.
         11    1    3    3    0    0 -0.75604025370E+02  0.13135144623E+02  0.45580799620E+02  0.89253067008E+02  0.00000000000E+00 0. -1.
</event>
<event>
 7    1  0.4096326E-006  0.9010604E+02  0.7561462E-02  0.1302595E+00
          3   -1    0    0  501    0  0.00000000000E+00  0.00000000000E+00  0.91415043678E+02  0.91415043678E+02  0.00000000000E+00 0. -1.
         -3   -1    0    0    0  501 -0.00000000000E+00 -0.00000000000E+00 -0.25908750512E+03  0.25908750512E+03  0.00000000000E+00 0.  1.
         23    2    1    2    0    0 -0.32126260917E+02 -0.67572094289E+01  0.40357078470E+02  0.10555034349E+03  0.91839124062E+02 0.  0.
          5    1    1    2  502    0  0.71397433319E+02 -0.12081850494E+02 -0.72579925008E+02  0.10261034310E+03  0.41800000000E+01 0. -1.
         -5    1    1    2    0  502 -0.39271172402E+02  0.18839059923E+02 -0.13544961491E+03  0.14234186221E+03  0.41800000000E+01 0. -1.
        -11    1    3    3    0    0  0.15297822084E+02  0.27824183597E+01 -0.21806716484E+02  0.26782421404E+02  0.00000000000E+00 0.  1.
         11    1    3    3    0    0 -0.47424083000E+02 -0.95396277886E+01  0.62163794954E+02  0.78767922087E+02  0.00000000000E+00 0. -1.
</event>
<event>
 7    1  0.4096326E-006  0.1661326E+03  0.7561462E-02  0.1181942E+00
         -1   -1    0    0    0  501 -0.00000000000E+00  0.00000000000E+00  0.22840575751E+03  0.22840575751E+03  0.00000000000E+00 0.  1.
          1   -1    0    0  501    0  0.00000000000E+00 -0.00000000000E+00 -0.12603105685E+03  0.12603105685E+03  0.00000000000E+00 0. -1.
         23    2    1    2    0    0  0.40194476414E+01  0.12783277040E+03  0.22471449169E+02  0.15851149678E+03  0.90904100209E+02 0.  0.
          5    1    1    2  502    0 -0.74096898248E+01  0.23130740182E+02 -0.80187020542E+00  0.24658670696E+02  0.41800000000E+01 0.  1.
         -5    1    1    2    0  502  0.33902421834E+01 -0.15096351058E+03  0.80705121697E+02  0.17126664689E+03  0.41800000000E+01 0.  1.
        -11    1    3    3    0    0 -0.38403137762E+02  0.96381387275E+02  0.19881747273E+02  0.10563832959E+03  0.00000000000E+00 0. -1.
         11    1    3    3    0    0  0.42422585404E+02  0.31451383125E+02  0.25897018960E+01  0.52873167190E+02  0.00000000000E+00 0.  1.
</event>
<event>
 7    1  0.4096326E-006  0.1184101E+03  0.7561462E-02  0.1245743E+00
          2   -1    0    0  501    0  0.00000000000E+00  0.00000000000E+00  0.41577339330E+02  0.41577339330E+02  0.00000000000E+00 0. -1.
         -2   -1    0    0    0  501 -0.00000000000E+00 -0.00000000000E+00 -0.38732146812E+03  0.38732146812E+03  0.00000000000E+00 0.  1.
         23    2    1    2    0    0  0.10193634302E+01  0.56000194308E+02 -0.10265639764E+03  0.14983583023E+03  0.93676993875E+02 0.  0.
          5    1    1    2  502    0  0.55278337152E+02 -0.40009615799E+01 -0.67532360810E+02  0.87463103126E+02  0.41800000000E+01 0.  1.
         -5    1    1    2    0  502 -0.56297700582E+02 -0.51999232728E+02 -0.17555537035E+03  0.19159987409E+03  0.41800000000E+01 0.  1.
        -11    1    3    3    0    0 -0.49736030879E+01  0.79795170070E+02 -0.94926560949E+02  0.12410905635E+03  0.00000000000E+00 0.  1.
         11    1    3    3    0    0  0.59929665181E+01 -0.23794975763E+02 -0.77298366865E+01  0.25726773883E+02  0.00000000000E+00 0. -1.
</event>
<event>
 7    1  0.4096326E-006  0.2546323E+03  0.7561462E-02  0.1110412E+00
         -1   -1    0    0    0  501 -0.00000000000E+00  0.00000000000E+00  0.37135611989E+03  0.37135611989E+03  0.00000000000E+00 0. -1.
          1   -1    0    0  501    0  0.00000000000E+00 -0.00000000000E+00 -0.22377553961E+03  0.22377553961E+03  0.00000000000E+00 0.  1.
         23    2    1    2    0    0  0.60663163028E+02  0.22427634269E+03 -0.63944502930E+02  0.25694441793E+03  0.89171953076E+02 0.  0.
          5    1    1    2  502    0 -0.56163780352E+02 -0.21291029144E+02  0.58072873294E+02  0.83651713420E+02  0.41800000000E+01 0. -1.
         -5    1    1    2    0  502 -0.44993826762E+01 -0.20298531354E+03  0.15345220992E+03  0.25453552814E+03  0.41800000000E+01 0. -1.
        -11    1    3    3    0    0 -0.15983983036E+02  0.89624986694E+02 -0.42704213177E+02  0.10055732582E+03  0.00000000000E+00 0.  1.
         11    1    3    3    0    0  0.76647146064E+02  0.13465135599E+03 -0.21240289752E+02  0.15638709211E+03  0.00000000000E+00 0. -1.
</event>
<event>
 7    1  0.4096326E-006  0.1098927E+03  0.7561462E-02  0.1260769E+00
          2   -1    0    0  501    0  0.00000000000E+00  0.00000000000E+00  0.34536050301E+03  0.34536050301E+03  0.00000000000E+00 0.  1.
         -2   -1    0    0    0  501 -0.00000000000E+00 -0.00000000000E+00 -0.69569135890E+02  0.69569135890E+02  0.00000000000E+00 0. -1.
         23    2    1    2    0    0  0.19933218060E+02  0.68799303185E+02  0.23858223149E+03  0.26605809779E+03  0.93459900053E+02 0.  0.
          5    1    1    2  502    0  0.30594506772E+02 -0.73036194653E+02  0.53261011298E+02  0.95522339264E+02  0.41800000000E+01 0.  1.
         -5    1    1    2    0  502 -0.50527724832E+02  0.42368914679E+01 -0.16051875658E+02  0.53349201851E+02  0.41800000000E+01 0.  1.
        -11    1    3    3    0    0  0.38233176527E+02  0.38798412619E+02  0.21932079261E+03  0.22598385491E+03  0.00000000000E+00 0.  1.
         11    1    3    3    0    0 -0.18299958467E+02  0.30000890566E+02  0.19261438872E+02  0.40074242876E+02  0.00000000000E+00 0. -1.
</event>
<event>
 7    1  0.4096326E-006  0.8945493E+02  0.7561462E-02  0.1304177E+00
         -2   -1    0    0    0  501 -0.00000000000E+00  0.00000000000E+00  0.36648174370E+02  0.36648174370E+02  0.00000000000E+00 0.  1.
          2   -1    0    0  501    0  0.00000000000E+00 -0.00000000000E+00 -0.27540055648E+03  0.27540055648E+03  0.00000000000E+00 0. -1.
         23    2    1    2    0    0 -0.34658845221E+02  0.21032121438E+02 -0.82878470784E+02  0.10811506533E+03  0.56359921472E+02 0.  0.
          5    1    1    2  502    0 -0.92633189649E+01 -0.54789409402E+02 -0.13235451184E+03  0.14360667695E+03  0.41800000000E+01 0. -1.
         -5    1    1    2    0  502  0.43922164186E+02  0.33757287964E+02 -0.23519399491E+02  0.60326988569E+02  0.41800000000E+01 0. -1.
        -11    1    3    3    0    0  0.14803452258E+02  0.54268188258E+01 -0.30878415287E+02  0.34670868059E+02  0.00000000000E+00 0. -1.
         11    1    3    3    0    0 -0.49462297479E+02  0.15605302612E+02 -0.52000055497E+02  0.73444197274E+02  0.00000000000E+00 0.  1.
</event>
<event>
 7    1  0.4096326E-006  0.1372835E+03  0.7561462E-02  0.1217032E+00
          1   -1    0    0  501    0  0.00000000000E+00  0.00000000000E+00  0.26013491832E+03  0.26013491832E+03  0.00000000000E+00 0. -1.
         -1   -1    0    0    0  501 -0.00000000000E+00 -0.00000000000E+00 -0.97206024829E+02  0.97206024829E+02  0.00000000000E+00 0.  1.
         23    2    1    2    0    0 -0.75170789589E+02 -0.84976010499E+02  0.62398166822E+02  0.16081767672E+03  0.95379368605E+02 0.  0.
          5    1    1    2  502    0  0.41698275630E+02  0.10351733021E+03  0.11013635226E+03  0.15685047764E+03  0.41800000000E+01 0.  1.
         -5    1    1    2    0  502  0.33472513959E+02 -0.18541319715E+02 -0.96056255946E+01  0.39672788792E+02  0.41800000000E+01 0.  1.
        -11    1    3    3    0    0  0.74114310186E+01 -0.12444204102E+02 -0.19111650939E+02  0.23980048522E+02  0.00000000000E+00 0.  1.
         11    1    3    3    0    0 -0.82582220607E+02 -0.72531806397E+02  0.81509817761E+02  0.13683762820E+03  0.00000000000E+00 0. -1.
</event>
<event>
 7    1  0.4096326E-006  0.1281525E+03  0.7561462E-02  0.1230223E+00
          2   -1    0    0  501    0  0.00000000000E+00  0.00000000000E+00  0.27078837221E+02  0.27078837221E+02  0.00000000000E+00 0. -1.
         -2   -1    0    0    0  501 -0.00000000000E+00 -0.00000000000E+00 -0.81493213565E+03  0.81493213565E+03  0.00000000000E+00 0.  1.
         23    2    1    2    0    0  0.58515948242E+02  0.56720556236E+02 -0.18507139476E+03  0.22101429762E+03  0.89188345065E+02 0.  0.
          5    1    1    2  502    0 -0.90347635246E+02 -0.34567716867E+02 -0.52640664380E+03  0.53523737657E+03  0.41800000000E+01 0.  1.
         -5    1    1    2    0  502  0.31831687004E+02 -0.22152839370E+02 -0.76375259865E+02  0.85759298674E+02  0.41800000000E+01 0.  1.
        -11    1    3    3    0    0  0.40439535332E+02  0.80805618185E+02 -0.13137229542E+03  0.15944774678E+03  0.00000000000E+00 0.  1.
         11    1    3    3    0    0  0.18076412910E+02 -0.24085061949E+02 -0.53699099342E+02  0.61566550845E+02  0.00000000000E+00 0. -1.
</event>
<event>
 7    1  0.4096326E-006  0.1153876E+03  0.7561462E-02  0.1250906E+00
         -3   -1    0    0    0  501 -0.00000000000E+00  0.00000000000E+00  0.51779177190E+02  0.51779177190E+02  0.00000000000E+00 0.  1.
          3   -1    0    0  501    0  0.00000000000E+00 -0.00000000000E+00 -0.30231591491E+03  0.30231591491E+03  0.00000000000E+00 0. -1.
         23    2    1    2    0    0 -0.10475536968E+02  0.46257943095E+02 -0.16460349979E+03  0.19509417128E+03  0.93369638255E+02 0.  0.
          5    1    1    2  502    0 -0.29675631482E+02  0.30728424262E+02 -0.11188637182E+02  0.44356929148E+02  0.41800000000E+01 0. -1.
         -5    1    1    2    0  502  0.40151168450E+02 -0.76986367356E+02 -0.74744600750E+02  0.11464399168E+03  0.41800000000E+01 0. -1.
        -11    1    3    3    0    0 -0.20813250210E+02 -0.22930693043E+02 -0.28603442727E+02  0.42156434901E+02  0.00000000000E+00 0.  1.
         11    1    3    3    0    0  0.10337713242E+02  0.69188636138E+02 -0.13600005706E+03  0.15293773637E+03  0.00000000000E+00 0. -1.
</event>
<event>
 7    1  0.4096326E-006  0.2070283E+03  0.7561462E-02  0.1143941E+00
         -1   -1    0    0    0  501 -0.00000000000E+00  0.00000000000E+00  0.87745722146E+03  0.87745722146E+03  0.00000000000E+00 0.  1.
          1   -1    0    0  501    0  0.00000000000E+00 -0.00000000000E+00 -0.62339351577E+02  0.62339351577E+02  0.00000000000E+00 0. -1.
         23    2    1    2    0    0  0.19076173023E+03 -0.75117733969E+02  0.33906341852E+03  0.40659186994E+03  0.91215323503E+02 0.  0.
          5    1    1    2  502    0 -0.93012432773E+02  0.36821690878E+02  0.37235674485E+03  0.38558289304E+03  0.41800000000E+01 0.  1.
         -5    1    1    2    0  502 -0.97749297460E+02  0.38296043092E+02  0.10369770652E+03  0.14762181007E+03  0.41800000000E+01 0.  1.
        -11    1    3    3    0    0  0.16586934858E+03 -0.78917603322E+02  0.22839762143E+03  0.29309742815E+03  0.00000000000E+00 0. -1.
         11    1    3    3    0    0  0.24892381655E+02  0.37998693531E+01  0.11066579709E+03  0.11349444179E+03  0.00000000000E+00 0.  1.
</event>
<event>
 7    1  0.4096326E-006  0.1405980E+03  0.7561462E-02  0.1212527E+00
         -1   -1    0    0    0  501 -0.00000000000E+00  0.00000000000E+00  0.23468048694E+03  0.23468048694E+03  0.00000000000E+00 0.  1.
          1   -1    0    0  501    0  0.00000000000E+00 -0.00000000000E+00 -0.98233369046E+02  0.98233369046E+02  0.00000000000E+00 0. -1.
         23    2    1    2    0    0 -0.56958701179E+02 -0.88040221654E+02  0.45833357924E+02  0.14621644058E+03  0.91011958155E+02 0.  0.
          5    1    1    2  502    0  0.85351811596E+02  0.30876926171E+02  0.23218000704E+02  0.93780937664E+02  0.41800000000E+01 0.  1.
         -5    1    1    2    0  502 -0.28393110417E+02  0.57163295483E+02  0.67395759270E+02  0.92916477748E+02  0.41800000000E+01 0.  1.
        -11    1    3    3    0    0  0.11469632269E+02 -0.42872779750E+02  0.46421976026E+02  0.64223263433E+02  0.00000000000E+00 0.  1.
         11    1    3    3    0    0 -0.68428333448E+02 -0.45167441905E+02 -0.58861810229E+00  0.81993177143E+02  0.00000000000E+00 0. -1.
</event>
<event>
 7    1  0.4096326E-006  0.1318615E+03  0.7561462E-02  0.1224720E+00
         -4   -1    0    0    0  501 -0.00000000000E+00  0.00000000000E+00  0.36098246548E+03  0.36098246548E+03  0.00000000000E+00 0.  1.
          4   -1    0    0  501    0  0.00000000000E+00 -0.00000000000E+00 -0.53824285737E+02  0.53824285737E+02  0.00000000000E+00 0. -1.
         23    2    1    2    0    0  0.46834831692E+02  0.61958915723E+02  0.79088571280E+02  0.14334210316E+03  0.90882053972E+02 0.  0.
          5    1    1    2  502    0 -0.77517585156E+02 -0.79921014845E+02  0.17432631330E+03  0.20689002037E+03  0.41800000000E+01 0.  1.
         -5    1    1    2    0  502  0.30682753464E+02  0.17962099122E+02  0.53743295166E+02  0.64574627682E+02  0.41800000000E+01 0.  1.
        -11    1    3    3    0    0 -0.11736592008E+02  0.56472456225E+02  0.55238373340E+02  0.79863407098E+02  0.00000000000E+00 0.  1.
         11    1    3    3    0    0  0.58571423700E+02  0.54864594987E+01  0.23850197940E+02  0.63478696063E+02  0.00000000000E+00 0. -1.
</event>
<event>
 7    1  0.4096326E-006  0.9095985E+02  0.7561462E-02  0.1300544E+00
         -2   -1    0    0    0  501 -0.00000000000E+00  0.00000000000E+00  0.51728057851E+02  0.51728057851E+02  0.00000000000E+00 0.  1.
          2   -1    0    0  501    0  0.00000000000E+00 -0.00000000000E+00 -0.25619565922E+03  0.25619565922E+03  0.00000000000E+00 0. -1.
         23    2    1    2    0    0 -0.89932717144E+01 -0.33121348168E+02 -0.11494386856E+03  0.15031647012E+03  0.90581706916E+02 0.  0.
          5    1    1    2  502    0  0.48496327654E+02 -0.24214165745E+01  0.51004748582E+01  0.49002492773E+02  0.41800000000E+01 0. -1.
         -5    1    1    2    0  502 -0.39503055940E+02  0.35542764742E+02 -0.94624207663E+02  0.10860475418E+03  0.41800000000E+01 0. -1.
        -11    1    3    3    0    0  0.26073235778E+02  0.65990292735E+01 -0.37650291118E+01  0.27157618737E+02  0.00000000000E+00 0.  1.
         11    1    3    3    0    0 -0.35066507492E+02 -0.39720377441E+02 -0.11117883945E+03  0.12315885138E+03  0.00000000000E+00 0. -1.
</event>
<event>
 7    1  0.4096326E-006  0.1067632E+03  0.7561462E-02  0.1266684E+00
          2   -1    0    0  501    0  0.00000000000E+00  0.00000000000E+00  0.86221600230E+03  0.86221600230E+03  0.00000000000E+00 0. -1.
         -2   -1    0    0    0  501 -0.00000000000E+00 -0.00000000000E+00 -0.20176310601E+02  0.20176310601E+02  0.00000000000E+00 0.  1.
         23    2    1    2    0    0  0.33180821565E+02 -0.64621497402E+02  0.44297161579E+03  0.45791583408E+03  0.90477366520E+02 0.  0.
          5    1    1    2  502    0 -0.53988511133E+02  0.60230300602E+02  0.39397371248E+03  0.40221288763E+03  0.41800000000E+01 0. -1.
         -5    1    1    2    0  502  0.20807689568E+02  0.43911968003E+01  0.50943634259E+01  0.22263591202E+02  0.41800000000E+01 0. -1.
        -11    1    3    3    0    0  0.54975016075E+02 -0.15496016680E+02  0.16008371620E+03  0.16996815913E+03  0.00000000000E+00 0.  1.
         11    1    3    3    0    0 -0.21794194510E+02 -0.49125480722E+02  0.28288789959E+03  0.28794767495E+03  0.00000000000E+00 0. -1.
</event>
<event>
 7    1  0.4096326E-006  0.1179300E+03  0.7561462E-02  0.1246552E+00
         -1   -1    0    0    0  501 -0.00000000000E+00  0.00000000000E+00  0.47489707200E+03  0.47489707200E+03  0.00000000000E+00 0.  1.
          1   -1    0    0  501    0  0.00000000000E+00 -0.00000000000E+00 -0.32511817873E+02  0.32511817873E+02  0.00000000000E+00 0. -1.
         23    2    1    2    0    0 -0.11354922229E+02 -0.50425124995E+02  0.14626113570E+03  0.18181878118E+03  0.94837344350E+02 0.  0.
          5    1    1    2  502    0 -0.40556530039E+02  0.64506844586E+02  0.12799536414E+03  0.14901761899E+03  0.41800000000E+01 0.  1.
         -5    1    1    2    0  502  0.51911452268E+02 -0.14081719591E+02  0.16812875429E+03  0.17657248971E+03  0.41800000000E+01 0.  1.
        -11    1    3    3    0    0 -0.21823916368E+02 -0.75412564319E+02  0.12395831561E+03  0.14672764631E+03  0.00000000000E+00 0.  1.
         11    1    3    3    0    0  0.10468994139E+02  0.24987439324E+02  0.22302820084E+02  0.35091134863E+02  0.00000000000E+00 0. -1.
</event>
<event>
 7    1  0.4096326E-006  0.2476655E+03  0.7561462E-02  0.1114789E+00
         -1   -1    0    0    0  501 -0.00000000000E+00  0.00000000000E+00  0.10933387132E+03  0.10933387132E+03  0.00000000000E+00 0.  1.
          1   -1    0    0  501    0  0.00000000000E+00 -0.00000000000E+00 -0.57168323577E+03  0.57168323577E+03  0.00000000000E+00 0. -1.
         23    2    1    2    0    0 -0.23640321088E+02 -0.22666692161E+03 -0.21292698856E+03  0.32074407150E+03  0.74847169704E+02 0.  0.
          5    1    1    2  502    0  0.65915670159E+02  0.70454209471E+02 -0.11234807114E+03  0.14814935941E+03  0.41800000000E+01 0. -1.
         -5    1    1    2    0  502 -0.42275349072E+02  0.15621271214E+03 -0.13707430475E+03  0.21212367617E+03  0.41800000000E+01 0. -1.
        -11    1    3    3    0    0  0.22167178329E+02 -0.91821624618E+02 -0.11021873275E+03  0.14515771971E+03  0.00000000000E+00 0. -1.
         11    1    3    3    0    0 -0.45807499416E+02 -0.13484529699E+03 -0.10270825581E+03  0.17558635179E+03  0.00000000000E+00 0.  1.
</event>
<event>
 7    1  0.4096326E-006  0.1330419E+03  0.7561462E-02  0.1223011E+00
         -2   -1    0    0    0  501 -0.00000000000E+00  0.00000000000E+00  0.42117601531E+02  0.42117601531E+02  0.00000000000E+00 0.  1.
          2   -1    0    0  501    0  0.00000000000E+00 -0.00000000000E+00 -0.59617920754E+03  0.59617920754E+03  0.00000000000E+00 0. -1.
         23    2    1    2    0    0 -0.98139538783E+02 -0.79210588352E+01 -0.37699532116E+03  0.40019308365E+03  0.91295781858E+02 0.  0.
          5    1    1    2  502    0  0.98628930156E+02  0.52096758915E+02 -0.14668202626E+03  0.18432261766E+03  0.41800000000E+01 0. -1.
         -5    1    1    2    0  502 -0.48939137320E+00 -0.44175700080E+02 -0.30384258596E+02  0.53781107760E+02  0.41800000000E+01 0. -1.
        -11    1    3    3    0    0 -0.86127831236E+02  0.11864253787E+02 -0.36273079516E+03  0.37300454902E+03  0.00000000000E+00 0. -1.
         11    1    3    3    0    0 -0.12011707548E+02 -0.19785312622E+02 -0.14264525999E+02  0.27188534637E+02  0.00000000000E+00 0.  1.
</event>
<event>
 7    1  0.4096326E-006  0.9978320E+02  0.7561462E-02  0.1280753E+00
         -1   -1    0    0    0  501 -0.00000000000E+00  0.00000000000E+00  0.67020989614E+02  0.67020989614E+02  0.00000000000E+00 0.  1.
          1   -1    0    0  501    0  0.00000000000E+00 -0.00000000000E+00 -0.24532961176E+03  0.24532961176E+03  0.00000000000E+00 0. -1.
         23    2    1    2    0    0  0.61975602064E+02  0.36993224454E+02 -0.82562124177E+02  0.13907470393E+03  0.85532420858E+02 0.  0.
          5    1    1    2  502    0  0.20595919825E+02  0.56901189724E+01  0.16616965347E+02  0.27389145746E+02  0.41800000000E+01 0.  1.
         -5    1    1    2    0  502 -0.82571521889E+02 -0.42683343426E+02 -0.11236346332E+03  0.14588675170E+03  0.41800000000E+01 0.  1.
        -11    1    3    3    0    0  0.26018354720E+02 -0.79368177966E+01  0.10909981147E+02  0.29308284625E+02  0.00000000000E+00 0.  1.
         11    1    3    3    0    0  0.35957247344E+02  0.44930042250E+02 -0.93472105324E+02  0.10976641930E+03  0.00000000000E+00 0. -1.
</event>
<event>
 7    1  0.4096326E-006  0.1140925E+03  0.7561462E-02  0.1253174E+00
          1   -1    0    0  501    0  0.00000000000E+00  0.00000000000E+00  0.80701521573E+02  0.80701521573E+02  0.00000000000E+00 0. -1.
         -1   -1    0    0    0  501 -0.00000000000E+00 -0.00000000000E+00 -0.16530086337E+03  0.16530086337E+03  0.00000000000E+00 0.  1.
         23    2    1    2    0    0  0.23896664816E+02  0.13735671717E+02 -0.31167211969E+02  0.10721624077E+03  0.98814006681E+02 0.  0.
          5    1    1    2  502    0  0.51126197505E+02 -0.49984470584E+01 -0.13645209367E+02  0.53315445070E+02  0.41800000000E+01 0. -1.
         -5    1    1    2    0  502 -0.75022862322E+02 -0.87372246588E+01 -0.39786920464E+02  0.85470699106E+02  0.41800000000E+01 0. -1.
        -11    1    3    3    0    0  0.47374918610E+02  0.42656130392E+02 -0.28619305547E+02  0.69878416005E+02  0.00000000000E+00 0.  1.
         11    1    3    3    0    0 -0.23478253794E+02 -0.28920458675E+02 -0.25479064219E+01  0.37337824766E+02  0.00000000000E+00 0. -1.
</event>
<event>
 7    1  0.4096326E-006  0.1825328E+03  0.7561462E-02  0.1165374E+00
         -2   -1    0    0    0  501 -0.00000000000E+00  0.00000000000E+00  0.84043266930E+03  0.84043266930E+03  0.00000000000E+00 0.  1.
          2   -1    0    0  501    0  0.00000000000E+00 -0.00000000000E+00 -0.92147508087E+02  0.92147508087E+02  0.00000000000E+00 0. -1.
         23    2    1    2    0    0  0.13936081983E+03 -0.92629688934E+02  0.35842189442E+02  0.19013528775E+03  0.82855704245E+02 0.  0.
          5    1    1    2  502    0 -0.10710096194E+02  0.37031411415E+02  0.40657704488E+02  0.56183208578E+02  0.41800000000E+01 0.  1.
         -5    1    1    2    0  502 -0.12865072364E+03  0.55598277519E+02  0.67178526728E+03  0.68626168106E+03  0.41800000000E+01 0.  1.
        -11    1    3    3    0    0  0.77205798276E+02 -0.96758286586E+02  0.16326330184E+02  0.12485772050E+03  0.00000000000E+00 0. -1.
         11    1    3    3    0    0  0.62155021559E+02  0.41285976520E+01  0.19515859258E+02  0.65277567250E+02  0.00000000000E+00 0.  1.
</event>
<event>
 7    1  0.4096326E-006  0.7570509E+02  0.7561462E-02  0.1341701E+00
         -4   -1    0    0    0  501 -0.00000000000E+00  0.00000000000E+00  0.26002450981E+03  0.26002450981E+03  0.00000000000E+00 0.  1.
          4   -1    0    0  501    0  0.00000000000E+00 -0.00000000000E+00 -0.47504906617E+02  0.47504906617E+02  0.00000000000E+00 0. -1.
         23    2    1    2    0    0 -0.33101568932E+01 -0.10609679181E+02  0.50230723287E+02  0.10232342243E+03  0.88450182500E+02 0.  0.
          5    1    1    2  502    0 -0.11357408460E+02 -0.28784150548E+02 -0.59137426886E+01  0.31779911930E+02  0.41800000000E+01 0.  1.
         -5    1    1    2    0  502  0.14667565354E+02  0.39393829728E+02  0.16820262259E+03  0.17342608207E+03  0.41800000000E+01 0.  1.
        -11    1    3    3    0    0  0.36144694851E+02  0.28445510185E+01  0.48562881071E+02  0.60604322076E+02  0.00000000000E+00 0.  1.
         11    1    3    3    0    0 -0.39454851745E+02 -0.13454230199E+02  0.16678422157E+01  0.41719100351E+02  0.00000000000E+00 0. -1.
</event>
<event>
 7    1  0.4096326E-006  0.1003585E+03  0.7561462E-02  0.1279544E+00
         -1   -1    0    0    0  501 -0.00000000000E+00  0.00000000000E+00  0.26843343180E+03  0.26843343180E+03  0.00000000000E+00 0.  1.
          1   -1    0    0  501    0  0.00000000000E+00 -0.00000000000E+00 -0.58697175837E+02  0.58697175837E+02  0.00000000000E+00 0. -1.
         23    2    1    2    0    0  0.28931690673E+02 -0.36170611283E+02  0.46661343279E+02  0.11645132165E+03  0.96115937865E+02 0.  0.
          5    1    1    2  502    0  0.29193177082E+01  0.72763109917E+02  0.13757049031E+03  0.15571160774E+03  0.41800000000E+01 0. -1.
         -5    1    1    2    0  502 -0.31851008382E+02 -0.36592498633E+02  0.25504422375E+02  0.54967678247E+02  0.41800000000E+01 0. -1.
        -11    1    3    3    0    0  0.28280912653E+02 -0.54150715188E+02  0.66070598643E+02  0.89985743209E+02  0.00000000000E+00 0.  1.
         11    1    3    3    0    0  0.65077802004E+00  0.17980103905E+02 -0.19409255364E+02  0.26465578441E+02  0.00000000000E+00 0. -1.
</event>
<event>
 7    1  0.4096326E-006  0.7638101E+02  0.7561462E-02  0.1339647E+00
         -2   -1    0    0    0  501 -0.00000000000E+00  0.00000000000E+00  0.82756235590E+02  0.82756235590E+02  0.00000000000E+00 0. -1.
          2   -1    0    0  501    0  0.00000000000E+00 -0.00000000000E+00 -0.15628804634E+03  0.15628804634E+03  0.00000000000E+00 0.  1.
         23    2    1    2    0    0 -0.24189664213E+02 -0.21284024554E+02 -0.29494010688E+02  0.10257090604E+03  0.92804873489E+02 0.  0.
          5    1    1    2  502    0  0.17169322836E+02 -0.30262612913E+02 -0.69925483765E+02  0.78215452864E+02  0.41800000000E+01 0.  1.
         -5    1    1    2    0  502  0.70203413769E+01  0.51546637466E+02  0.25887683709E+02  0.58257923023E+02  0.41800000000E+01 0.  1.
        -11    1    3    3    0    0 -0.16878540129E+02  0.18520282208E+02 -0.50940066019E+02  0.56769501460E+02  0.00000000000E+00 0.  1.
         11    1    3    3    0    0 -0.73111240838E+01 -0.39804306762E+02  0.21446055331E+02  0.45801404579E+02  0.00000000000E+00 0. -1.
</event>
<event>
 7    1  0.4096326E-006  0.1363965E+03  0.7561462E-02  0.1218262E+00
          1   -1    0    0  501    0  0.00000000000E+00  0.00000000000E+00  0.10229774114E+04  0.10229774114E+04  0.00000000000E+00 0. -1.
         -1   -1    0    0    0  501 -0.00000000000E+00 -0.00000000000E+00 -0.30219116817E+02  0.30219116817E+02  0.00000000000E+00 0.  1.
         23    2    1    2    0    0  0.10326764225E+03 -0.54029504875E+02  0.68793826936E+03  0.70370244789E+03  0.91403935259E+02 0.  0.
          5    1    1    2  502    0 -0.75157237194E+02  0.59733636017E+02  0.86605142574E+02  0.12936243927E+03  0.41800000000E+01 0. -1.
         -5    1    1    2    0  502 -0.28110405051E+02 -0.57041311417E+01  0.21821488262E+03  0.22013164102E+03  0.41800000000E+01 0. -1.
        -11    1    3    3    0    0  0.26575942055E+02 -0.65015529163E+02  0.35311600345E+03  0.36003362568E+03  0.00000000000E+00 0. -1.
         11    1    3    3    0    0  0.76691700190E+02  0.10986024288E+02  0.33482226591E+03  0.34366882221E+03  0.00000000000E+00 0.  1.
</event>
<event>
 7    1  0.4096326E-006  0.1274497E+03  0.7561462E-02  0.1231290E+00
         -3   -1    0    0    0  501 -0.00000000000E+00  0.00000000000E+00  0.36421170304E+02  0.36421170304E+02  0.00000000000E+00 0.  1.
          3   -1    0    0  501    0  0.00000000000E+00 -0.00000000000E+00 -0.70071890437E+03  0.70071890437E+03  0.00000000000E+00 0. -1.
         23    2    1    2    0    0 -0.11323985781E+03 -0.12926719777E+02 -0.38901363685E+03  0.41399565903E+03  0.84085852328E+02 0.  0.
          5    1    1    2  502    0  0.10307752134E+03  0.18155687017E+02 -0.28744785596E+03  0.30593846877E+03  0.41800000000E+01 0. -1.
         -5    1    1    2    0  502  0.10162336471E+02 -0.52289672392E+01  0.12163758744E+02  0.17205946871E+02  0.41800000000E+01 0. -1.
        -11    1    3    3    0    0 -0.90824668859E+02  0.24755116026E+02 -0.21812374928E+03  0.23757084468E+03  0.00000000000E+00 0.  1.
         11    1    3    3    0    0 -0.22415188955E+02 -0.37681835804E+02 -0.17088988757E+03  0.17642481435E+03  0.00000000000E+00 0. -1.
</event>
<event>
 7    1  0.4096326E-006  0.1064932E+03  0.7561462E-02  0.1267205E+00
         -3   -1    0    0    0  501 -0.00000000000E+00  0.00000000000E+00  0.31673178013E+02  0.31673178013E+02  0.00000000000E+00 0.  1.
          3   -1    0    0  501    0  0.00000000000E+00 -0.00000000000E+00 -0.38700092701E+03  0.38700092701E+03  0.00000000000E+00 0. -1.
         23    2    1    2    0    0 -0.12681148680E+02  0.11706642332E+02 -0.18715739059E+03  0.20836953695E+03  0.89956200834E+02 0.  0.
          5    1    1    2  502    0  0.68117610734E+02  0.24850334851E+01 -0.10162532352E+03  0.12243922192E+03  0.41800000000E+01 0. -1.
         -5    1    1    2    0  502 -0.55436462054E+02 -0.14191675818E+02 -0.66545034890E+02  0.87865346161E+02  0.41800000000E+01 0. -1.
        -11    1    3    3    0    0  0.35634893562E+02 -0.54453424224E+01 -0.47723309220E+02  0.59808123496E+02  0.00000000000E+00 0.  1.
         11    1    3    3    0    0 -0.48316042241E+02  0.17151984755E+02 -0.13943408137E+03  0.14856141345E+03  0.00000000000E+00 0. -1.
</event>
<event>
 7    1  0.4096326E-006  0.9738034E+02  0.7561462E-02  0.1285903E+00
          1   -1    0    0  501    0  0.00000000000E+00  0.00000000000E+00  0.63644652382E+02  0.63644652382E+02  0.00000000000E+00 0. -1.
         -1   -1    0    0    0  501 -0.00000000000E+00 -0.00000000000E+00 -0.25256829240E+03  0.25256829240E+03  0.00000000000E+00 0.  1.
         23    2    1    2    0    0  0.30613769685E+01 -0.25371204603E+02 -0.10269374151E+02  0.96630382106E+02  0.92622355015E+02 0.  0.
          5    1    1    2  502    0 -0.61441447562E+02 -0.46911769349E+01 -0.91011314592E+02  0.10998904674E+03  0.41800000000E+01 0. -1.
         -5    1    1    2    0  502  0.58380070594E+02  0.30062381538E+02 -0.87642951270E+02  0.10959351593E+03  0.41800000000E+01 0. -1.
        -11    1    3    3    0    0  0.14733001949E+02 -0.43338748171E+02  0.27360543492E+02  0.53328301863E+02  0.00000000000E+00 0. -1.
         11    1    3    3    0    0 -0.11671624981E+02  0.17967543567E+02 -0.37629917643E+02  0.43302080243E+02  0.00000000000E+00 0.  1.
</event>
<event>
 7    1  0.4096326E-006  0.9715165E+02  0.7561462E-02  0.1286402E+00
          2   -1    0    0  501    0  0.00000000000E+00  0.00000000000E+00  0.18787674564E+03  0.18787674564E+03  0.00000000000E+00 0. -1.
         -2   -1    0    0    0  501 -0.00000000000E+00 -0.00000000000E+00 -0.80565428224E+02  0.80565428224E+02  0.00000000000E+00 0.  1.
         23    2    1    2    0    0 -0.49367153798E+02 -0.24742183842E+02  0.57867441290E+02  0.12303587426E+03  0.93487400533E+02 0.  0.
          5    1    1    2  502    0 -0.32586346594E+01  0.36899282871E+02 -0.30958118676E+02  0.48456715615E+02  0.41800000000E+01 0.  1.
         -5    1    1    2    0  502  0.52625788457E+02 -0.12157099029E+02  0.80401994805E+02  0.96949583992E+02  0.41800000000E+01 0.  1.
        -11    1    3    3    0    0 -0.21759147540E+02 -0.56634157250E+02  0.14174975915E+02  0.62304239111E+02  0.00000000000E+00 0.  1.
         11    1    3    3    0    0 -0.27608006258E+02  0.31891973408E+02  0.43692465375E+02  0.60731635150E+02  0.00000000000E+00 0. -1.
</event>
<event>
 7    1  0.4096326E-006  0.1283506E+03  0.7561462E-02  0.1229924E+00
         -2   -1    0    0    0  501 -0.00000000000E+00  0.00000000000E+00  0.32213840184E+02  0.32213840184E+02  0.00000000000E+00 0.  1.
          2   -1    0    0  501    0  0.00000000000E+00 -0.00000000000E+00 -0.69256394957E+03  0.69256394957E+03  0.00000000000E+00 0. -1.
         23    2    1    2    0    0  0.88019866596E+02  0.42706256958E+02 -0.37543726026E+03  0.39859120644E+03  0.91381027368E+02 0.  0.
          5    1    1    2  502    0  0.30347094498E+02  0.49075743501E+01 -0.50457047693E+02  0.59231887463E+02  0.41800000000E+01 0.  1.
         -5    1    1    2    0  502 -0.11836696109E+03 -0.47613831308E+02 -0.23445580144E+03  0.26695469585E+03  0.41800000000E+01 0.  1.
        -11    1    3    3    0    0  0.65091915206E+02  0.34516780433E+02 -0.36455067603E+03  0.37192144459E+03  0.00000000000E+00 0. -1.
         11    1    3    3    0    0  0.22927951391E+02  0.81894765248E+01 -0.10886584229E+02  0.26669761846E+02  0.00000000000E+00 0.  1.
</event>
<event>
 7    1  0.4096326E-006  0.1134174E+03  0.7561462E-02  0.1254369E+00
         -4   -1    0    0    0  501 -0.00000000000E+00  0.00000000000E+00  0.10055447685E+04  0.10055447685E+04  0.00000000000E+00 0.  1.
          4   -1    0    0  501    0  0.00000000000E+00 -0.00000000000E+00 -0.25387652349E+02  0.25387652349E+02  0.00000000000E+00 0. -1.
         23    2    1    2    0    0  0.73545310986E+02 -0.29532838263E+02  0.16928479650E+03  0.20664663324E+03  0.88115761346E+02 0.  0.
          5    1    1    2  502    0 -0.32592300514E+02  0.59368971736E+02  0.68761072215E+03  0.69095072941E+03  0.41800000000E+01 0. -1.
         -5    1    1    2    0  502 -0.40953010472E+02 -0.29836133473E+02  0.12326159750E+03  0.13333505820E+03  0.41800000000E+01 0. -1.
        -11    1    3    3    0    0  0.57303780077E+02 -0.54021362594E+02  0.78378485275E+02  0.11110903555E+03  0.00000000000E+00 0. -1.
         11    1    3    3    0    0  0.16241530909E+02  0.24488524332E+02  0.90906311227E+02  0.95537597683E+02  0.00000000000E+00 0.  1.
</event>
<event>
 7    1  0.4096326E-006  0.9195822E+02  0.7561462E-02  0.1298178E+00
         -4   -1    0    0    0  501 -0.00000000000E+00  0.00000000000E+00  0.35936143850E+02  0.35936143850E+02  0.00000000000E+00 0.  1.
          4   -1    0    0  501    0  0.00000000000E+00 -0.00000000000E+00 -0.32429288800E+03  0.32429288800E+03  0.00000000000E+00 0. -1.
         23    2    1    2    0    0  0.20212407991E+02  0.24889326735E+02 -0.13515555190E+03  0.15986575856E+03  0.79132910544E+02 0.  0.
          5    1    1    2  502    0 -0.27013999155E+02  0.32390783559E+02 -0.13221046368E+03  0.13883802835E+03  0.41800000000E+01 0. -1.
         -5    1    1    2    0  502  0.68015911645E+01 -0.57280110294E+02 -0.20990728569E+02  0.61525244929E+02  0.41800000000E+01 0. -1.
        -11    1    3    3    0    0  0.26066932737E+02 -0.23416064421E+02 -0.41421325064E+02  0.54254246151E+02  0.00000000000E+00 0.  1.
         11    1    3    3    0    0 -0.58545247464E+01  0.48305391156E+02 -0.93734226832E+02  0.10561151241E+03  0.00000000000E+00 0. -1.
</event>
<event>
 7    1  0.4096326E-006  0.1472146E+03  0.7561462E-02  0.1203938E+00
         -1   -1    0    0    0  501 -0.00000000000E+00  0.00000000000E+00  0.22131079791E+03  0.22131079791E+03  0.00000000000E+00 0.  1.
          1   -1    0    0  501    0  0.00000000000E+00 -0.00000000000E+00 -0.14180017112E+03  0.14180017112E+03  0.00000000000E+00 0. -1.
         23    2    1    2    0    0 -0.54256715089E+02 -0.91262794444E+02 -0.53930719091E+02  0.15162597286E+03  0.93857468546E+02 0.  0.
          5    1    1    2  502    0  0.84060377670E+02  0.20669072685E+02  0.80232357612E+02  0.11810191052E+03  0.41800000000E+01 0. -1.
         -5    1    1    2    0  502 -0.29803662581E+02  0.70593721759E+02  0.53208988267E+02  0.93383085660E+02  0.41800000000E+01 0. -1.
        -11    1    3    3    0    0 -0.36804808358E+02  0.13016015321E+01  0.95385536384E+01  0.38043029457E+02  0.00000000000E+00 0. -1.
         11    1    3    3    0    0 -0.17451906731E+02 -0.92564395976E+02 -0.63469272730E+02  0.11358294340E+03  0.00000000000E+00 0.  1.
</event>
<event>
 7    1  0.4096326E-006  0.1130779E+03  0.7561462E-02  0.1254974E+00
          2   -1    0    0  501    0  0.00000000000E+00  0.00000000000E+00  0.24318676527E+02  0.24318676527E+02  0.00000000000E+00 0. -1.
         -2   -1    0    0    0  501 -0.00000000000E+00 -0.00000000000E+00 -0.78438063582E+03  0.78438063582E+03  0.00000000000E+00 0.  1.
         23    2    1    2    0    0 -0.33651254859E+02 -0.51201892968E+02 -0.18142016827E+03  0.21352920719E+03  0.94484940973E+02 0.  0.
          5    1    1    2  502    0 -0.49994845122E+01 -0.30666414051E+02 -0.31149517716E+03  0.31306890869E+03  0.41800000000E+01 0.  1.
         -5    1    1    2    0  502  0.38650739371E+02  0.81868307019E+02 -0.26714661388E+03  0.28210119648E+03  0.41800000000E+01 0.  1.
        -11    1    3    3    0    0  0.15495882331E+02  0.15104850234E+02 -0.79440715531E+02  0.82335327496E+02  0.00000000000E+00 0.  1.
         11    1    3    3    0    0 -0.49147137189E+02 -0.66306743202E+02 -0.10197945274E+03  0.13119387969E+03  0.00000000000E+00 0. -1.
</event>
<event>
 7    1  0.4096326E-006  0.6491840E+02  0.7561462E-02  0.1378279E+00
         -2   -1    0    0    0  501 -0.00000000000E+00  0.00000000000E+00  0.11774248906E+03  0.11774248906E+03  0.00000000000E+00 0.  1.
          2   -1    0    0  501    0  0.00000000000E+00 -0.00000000000E+00 -0.13065494124E+03  0.13065494124E+03  0.00000000000E+00 0. -1.
         23    2    1    2    0    0  0.54822004625E+02  0.23224352957E+02 -0.27845708231E+02  0.10907141880E+03  0.87042335509E+02 0.  0.
          5    1    1    2  502    0 -0.18442555772E+02  0.91345109444E+01  0.65632034602E+02  0.68910111882E+02  0.41800000000E+01 0. -1.
         -5    1    1    2    0  502 -0.36379448854E+02 -0.32358863901E+02 -0.50698778551E+02  0.70415899614E+02  0.41800000000E+01 0. -1.
        -11    1    3    3    0    0  0.42854459211E+02  0.21268782443E+02  0.25604555166E+02  0.54262869682E+02  0.00000000000E+00 0.  1.
         11    1    3    3    0    0  0.11967545415E+02  0.19555705134E+01 -0.53450263397E+02  0.54808549119E+02  0.00000000000E+00 0. -1.
</event>
<event>
 7    1  0.4096326E-006  0.1102443E+03  0.7561462E-02  0.1260118E+00
         -1   -1    0    0    0  501 -0.00000000000E+00  0.00000000000E+00  0.12864011065E+02  0.12864011065E+02  0.00000000000E+00 0.  1.
          1   -1    0    0  501    0  0.00000000000E+00 -0.00000000000E+00 -0.11631749390E+04  0.11631749390E+04  0.00000000000E+00 0. -1.
         23    2    1    2    0    0  0.38346021130E+02  0.37207210762E+02 -0.53582294934E+03  0.54667616368E+03  0.94306951078E+02 0.  0.
          5    1    1    2  502    0 -0.46299951587E+02  0.23025665640E+02 -0.46589508583E+03  0.46877454090E+03  0.41800000000E+01 0. -1.
         -5    1    1    2    0  502  0.79539304572E+01 -0.60232876402E+02 -0.14859289277E+03  0.16058824549E+03  0.41800000000E+01 0. -1.
        -11    1    3    3    0    0  0.82842343480E+01  0.65742610933E+02 -0.35861566199E+03  0.36468604642E+03  0.00000000000E+00 0. -1.
         11    1    3    3    0    0  0.30061786782E+02 -0.28535400171E+02 -0.17720728735E+03  0.18199011725E+03  0.00000000000E+00 0.  1.
</event>
<event>
 7    1  0.4096326E-006  0.1088270E+03  0.7561462E-02  0.1262758E+00
          2   -1    0    0  501    0  0.00000000000E+00  0.00000000000E+00  0.32264161352E+03  0.32264161352E+03  0.00000000000E+00 0. -1.
         -2   -1    0    0    0  501 -0.00000000000E+00 -0.00000000000E+00 -0.65100130760E+02  0.65100130760E+02  0.00000000000E+00 0.  1.
         23    2    1    2    0    0 -0.73538115646E+02 -0.63056561110E+02  0.13946905450E+03  0.19034046696E+03  0.85987742436E+02 0.  0.
          5    1    1    2  502    0  0.77760932963E+02  0.71286502287E+02  0.31412297652E+02  0.11014868564E+03  0.41800000000E+01 0.  1.
         -5    1    1    2    0  502 -0.42228173176E+01 -0.82299411773E+01  0.86660130611E+02  0.87252591683E+02  0.41800000000E+01 0.  1.
        -11    1    3    3    0    0 -0.60005321066E+02 -0.31894561198E+02  0.14079966083E+03  0.15634080107E+03  0.00000000000E+00 0. -1.
         11    1    3    3    0    0 -0.13532794580E+02 -0.31161999911E+02 -0.13306063285E+01  0.33999665893E+02  0.00000000000E+00 0.  1.
</event>
<event>
 7    1  0.4096326E-006  0.1113462E+03  0.7561462E-02  0.1258097E+00
          1   -1    0    0  501    0  0.00000000000E+00  0.00000000000E+00  0.26685424413E+02  0.26685424413E+02  0.00000000000E+00 0. -1.
         -1   -1    0    0    0  501 -0.00000000000E+00 -0.00000000000E+00 -0.57270299241E+03  0.57270299241E+03  0.00000000000E+00 0.  1.
         23    2    1    2    0    0  0.15584488908E+02  0.60365204353E+02 -0.17764269963E+03  0.20831667479E+03  0.89174402578E+02 0.  0.
          5    1    1    2  502    0 -0.51377128885E+02 -0.67141857446E+02 -0.17679263244E+03  0.19601210595E+03  0.41800000000E+01 0. -1.
         -5    1    1    2    0  502  0.35792639977E+02  0.67766530926E+01 -0.19158223593E+03  0.19505963608E+03  0.41800000000E+01 0.  1.
        -11    1    3    3    0    0  0.44912741720E+02  0.14987345247E+02 -0.12149361068E+03  0.13039352869E+03  0.00000000000E+00 0.  1.
         11    1    3    3    0    0 -0.29328252812E+02  0.45377859106E+02 -0.56149088942E+02  0.77923146106E+02  0.00000000000E+00 0. -1.
</event>
<event>
 7    1  0.4096326E-006  0.1044400E+03  0.7561462E-02  0.1271227E+00
          2   -1    0    0  501    0  0.00000000000E+00  0.00000000000E+00  0.33768390925E+03  0.33768390925E+03  0.00000000000E+00 0.  1.
         -2   -1    0    0    0  501 -0.00000000000E+00 -0.00000000000E+00 -0.52180064732E+02  0.52180064732E+02  0.00000000000E+00 0. -1.
         23    2    1    2    0    0 -0.30142875651E+01  0.58527068434E+02  0.18181364031E+03  0.21713977495E+03  0.10324232850E+03 0.  0.
          5    1    1    2  502    0  0.34624624694E+02 -0.84027547490E+02  0.45721525468E+02  0.10182054637E+03  0.41800000000E+01 0.  1.
         -5    1    1    2    0  502 -0.31610337129E+02  0.25500479056E+02  0.57968678736E+02  0.70903652656E+02  0.41800000000E+01 0.  1.
        -11    1    3    3    0    0 -0.15971629601E+02  0.61699951349E+02  0.19072827458E+03  0.20109513090E+03  0.00000000000E+00 0.  1.
         11    1    3    3    0    0  0.12957342035E+02 -0.31728829150E+01 -0.89146342656E+01  0.16044644050E+02  0.00000000000E+00 0. -1.
</event>
<event>
 7    1  0.4096326E-006  0.1453542E+03  0.7561462E-02  0.1206301E+00
         -1   -1    0    0    0  501 -0.00000000000E+00  0.00000000000E+00  0.34658594054E+03  0.34658594054E+03  0.00000000000E+00 0.  1.
          1   -1    0    0  501    0  0.00000000000E+00 -0.00000000000E+00 -0.75973985463E+02  0.75973985463E+02  0.00000000000E+00 0. -1.
         23    2    1    2    0    0  0.98081248542E+02  0.20038896107E+02  0.37479377688E+02  0.13968265908E+03  0.89916921787E+02 0.  0.
          5    1    1    2  502    0  0.16518515238E+01 -0.54301622120E+02  0.72937700740E+02  0.91042711776E+02  0.41800000000E+01 0. -1.
         -5    1    1    2    0  502 -0.99733100066E+02  0.34262726013E+02  0.16019487665E+03  0.19183455514E+03  0.41800000000E+01 0. -1.
        -11    1    3    3    0    0  0.61346968354E+02  0.53195765071E+02  0.39203631026E+02  0.90167425567E+02  0.00000000000E+00 0.  1.
         11    1    3    3    0    0  0.36734280188E+02 -0.33156868965E+02 -0.17242533381E+01  0.49515233515E+02  0.00000000000E+00 0. -1.
</event>
<event>
 7    1  0.4096326E-006  0.1000937E+03  0.7561462E-02  0.1280099E+00
          2   -1    0    0  501    0  0.00000000000E+00  0.00000000000E+00  0.13063618741E+03  0.13063618741E+03  0.00000000000E+00 0. -1.
         -2   -1    0    0    0  501 -0.00000000000E+00 -0.00000000000E+00 -0.10267322045E+03  0.10267322045E+03  0.00000000000E+00 0.  1.
         23    2    1    2    0    0 -0.72253225261E+01  0.13927212982E+02  0.52353040994E+02  0.10491766566E+03  0.89558378280E+02 0.  0.
          5    1    1    2  502    0 -0.51813491618E+01  0.54895487244E+02 -0.17481199015E+02  0.57995048219E+02  0.41800000000E+01 0.  1.
         -5    1    1    2    0  502  0.12406671688E+02 -0.68822700226E+02 -0.69088750249E+01  0.70396693977E+02  0.41800000000E+01 0.  1.
        -11    1    3    3    0    0 -0.35288939228E+02  0.26450861540E+02 -0.12700012452E+00  0.44101852989E+02  0.00000000000E+00 0.  1.
         11    1    3    3    0    0  0.28063616702E+02 -0.12523648558E+02  0.52480041119E+02  0.60815812676E+02  0.00000000000E+00 0. -1.
</event>
<event>
 7    1  0.4096326E-006  0.1314332E+03  0.7561462E-02  0.1225345E+00
         -1   -1    0    0    0  501 -0.00000000000E+00  0.00000000000E+00  0.76816120563E+03  0.76816120563E+03  0.00000000000E+00 0.  1.
          1   -1    0    0  501    0  0.00000000000E+00 -0.00000000000E+00 -0.29685019901E+02  0.29685019901E+02  0.00000000000E+00 0. -1.
         23    2    1    2    0    0  0.63544926873E+02  0.38122286228E+02  0.14572561932E+03  0.18722320868E+03  0.91243121944E+02 0.  0.
          5    1    1    2  502    0 -0.87880664989E+01 -0.77616338646E+02  0.34913923768E+03  0.35779492146E+03  0.41800000000E+01 0. -1.
         -5    1    1    2    0  502 -0.54756860374E+02  0.39494052418E+02  0.24361132873E+03  0.25282809540E+03  0.41800000000E+01 0.  1.
        -11    1    3    3    0    0  0.87022939011E+02  0.32168038088E+02  0.10785174885E+03  0.14226656079E+03  0.00000000000E+00 0. -1.
         11    1    3    3    0    0 -0.23478012138E+02  0.59542481401E+01  0.37873870473E+02  0.44956647890E+02  0.00000000000E+00 0.  1.
</event>
<event>
 7    1  0.4096326E-006  0.1540037E+03  0.7561462E-02  0.1195638E+00
         -3   -1    0    0    0  501 -0.00000000000E+00  0.00000000000E+00  0.23799050242E+03  0.23799050242E+03  0.00000000000E+00 0.  1.
          3   -1    0    0  501    0  0.00000000000E+00 -0.00000000000E+00 -0.12574184084E+03  0.12574184084E+03  0.00000000000E+00 0. -1.
         23    2    1    2    0    0  0.10172147003E+02  0.13418917872E+03  0.43076624407E+02  0.16741528805E+03  0.89789057468E+02 0.  0.
          5    1    1    2  502    0  0.25612269118E+01  0.13781807784E+02  0.43042595041E+02  0.45460262834E+02  0.41800000000E+01 0. -1.
         -5    1    1    2    0  502 -0.12733373915E+02 -0.14797098651E+03  0.26129442131E+02  0.15085679237E+03  0.41800000000E+01 0. -1.
        -11    1    3    3    0    0  0.28757399057E+02  0.11307456755E+03  0.84966954606E+00  0.11667719471E+03  0.00000000000E+00 0. -1.
         11    1    3    3    0    0 -0.18585252054E+02  0.21114611176E+02  0.42226954861E+02  0.50738093341E+02  0.00000000000E+00 0.  1.
</event>
<event>
 7    1  0.6557840E-006  0.3675733E+03  0.7561462E-02  0.1055625E+00
          1   -1    0    0  501    0  0.00000000000E+00  0.00000000000E+00  0.14026690346E+03  0.14026690346E+03  0.00000000000E+00 0. -1.
         -1   -1    0    0    0  501 -0.00000000000E+00 -0.00000000000E+00 -0.10103792791E+04  0.10103792791E+04  0.00000000000E+00 0.  1.
         23    2    1    2    0    0  0.44683083192E+01  0.35592827374E+03 -0.34605190582E+03  0.50489711237E+03  0.92001471347E+02 0.  0.
          5    1    1    2  502    0  0.54867231824E+02 -0.99453005806E+02 -0.17103116580E+03  0.20535443888E+03  0.41800000000E+01 0. -1.
         -5    1    1    2    0  502 -0.59335540143E+02 -0.25647526794E+03 -0.35302930397E+03  0.44039463127E+03  0.41800000000E+01 0. -1.
        -11    1    3    3    0    0  0.21996520120E+02  0.16243213286E+03 -0.21577470628E+03  0.27097374144E+03  0.00000000000E+00 0.  1.
         11    1    3    3    0    0 -0.17528211801E+02  0.19349614088E+03 -0.13027719955E+03  0.23392337093E+03  0.00000000000E+00 0. -1.
</event>
<event>
 7    1  0.4096326E-006  0.1700986E+03  0.7561462E-02  0.1177745E+00
         -1   -1    0    0    0  501 -0.00000000000E+00  0.00000000000E+00  0.13950261256E+03  0.13950261256E+03  0.00000000000E+00 0.  1.
          1   -1    0    0  501    0  0.00000000000E+00 -0.00000000000E+00 -0.27224047587E+03  0.27224047587E+03  0.00000000000E+00 0. -1.
         23    2    1    2    0    0 -0.21788065898E+02 -0.15906185897E+03 -0.66998072329E+02  0.19786583025E+03  0.94269561839E+02 0.  0.
          5    1    1    2  502    0  0.40904533411E+02  0.38755635006E+02  0.25135075102E+02  0.61841931556E+02  0.41800000000E+01 0.  1.
         -5    1    1    2    0  502 -0.19116467513E+02  0.12030622397E+03 -0.90874866082E+02  0.15203532662E+03  0.41800000000E+01 0.  1.
        -11    1    3    3    0    0  0.11994988570E+01 -0.63761444780E+02  0.19959302240E+02  0.66823157542E+02  0.00000000000E+00 0.  1.
         11    1    3    3    0    0 -0.22987564755E+02 -0.95300414191E+02 -0.86957374569E+02  0.13104267271E+03  0.00000000000E+00 0. -1.
</event>
<event>
 7    1  0.4096326E-006  0.1688395E+03  0.7561462E-02  0.1179064E+00
         -2   -1    0    0    0  501 -0.00000000000E+00  0.00000000000E+00  0.67811619700E+02  0.67811619700E+02  0.00000000000E+00 0.  1.
          2   -1    0    0  501    0  0.00000000000E+00 -0.00000000000E+00 -0.77947568993E+03  0.77947568993E+03  0.00000000000E+00 0. -1.
         23    2    1    2    0    0 -0.12649051007E+03  0.80492399514E+02 -0.60488526263E+03  0.63096261550E+03  0.98735837953E+02 0.  0.
          5    1    1    2  502    0  0.77313071014E+01  0.11308080539E+02  0.16638066506E+02  0.21953210518E+02  0.41800000000E+01 0. -1.
         -5    1    1    2    0  502  0.11875920296E+03 -0.91800480054E+02 -0.12341687411E+03  0.19437148361E+03  0.41800000000E+01 0.  1.
        -11    1    3    3    0    0 -0.12898648804E+02  0.55377817054E+02 -0.28409333223E+03  0.28972762930E+03  0.00000000000E+00 0. -1.
         11    1    3    3    0    0 -0.11359186126E+03  0.25114582460E+02 -0.32079193039E+03  0.34123498619E+03  0.00000000000E+00 0.  1.
</event>
<event>
 7    1  0.4096326E-006  0.1635444E+03  0.7561462E-02  0.1184752E+00
          1   -1    0    0  501    0  0.00000000000E+00  0.00000000000E+00  0.16144540861E+03  0.16144540861E+03  0.00000000000E+00 0. -1.
         -1   -1    0    0    0  501 -0.00000000000E+00 -0.00000000000E+00 -0.69613956491E+03  0.69613956491E+03  0.00000000000E+00 0.  1.
         23    2    1    2    0    0  0.11062483835E+02 -0.44555343565E+02  0.12044103191E+03  0.15864500988E+03  0.92491295813E+02 0.  0.
          5    1    1    2  502    0  0.11351556701E+03  0.32767548874E+02 -0.32906147369E+03  0.34965471837E+03  0.41800000000E+01 0. -1.
         -5    1    1    2    0  502 -0.12457805084E+03  0.11787794691E+02 -0.32607371453E+03  0.34928524527E+03  0.41800000000E+01 0.  1.
        -11    1    3    3    0    0 -0.17499130293E+02  0.11366578172E+02 -0.20798187515E+01  0.20970081220E+02  0.00000000000E+00 0. -1.
         11    1    3    3    0    0  0.28561614128E+02 -0.55921921737E+02  0.12252085067E+03  0.13767492866E+03  0.00000000000E+00 0.  1.
</event>
<event>
 7    1  0.4096326E-006  0.1184904E+03  0.7561462E-02  0.1245608E+00
          1   -1    0    0  501    0  0.00000000000E+00  0.00000000000E+00  0.72621311315E+02  0.72621311315E+02  0.00000000000E+00 0. -1.
         -1   -1    0    0    0  501 -0.00000000000E+00 -0.00000000000E+00 -0.25233195366E+03  0.25233195366E+03  0.00000000000E+00 0.  1.
         23    2    1    2    0    0  0.91573698594E+01 -0.93072825703E+02 -0.41201130402E+02  0.11619780317E+03  0.55299077821E+02 0.  0.
          5    1    1    2  502    0 -0.35140156864E+02  0.10481574155E+03 -0.61595775414E+02  0.12662022844E+03  0.41800000000E+01 0.  1.
         -5    1    1    2    0  502  0.25982787005E+02 -0.11742915848E+02 -0.76913736531E+02  0.82135233367E+02  0.41800000000E+01 0.  1.
        -11    1    3    3    0    0 -0.48535140980E+01 -0.72391677592E+02 -0.51711435938E+02  0.89096488092E+02  0.00000000000E+00 0.  1.
         11    1    3    3    0    0  0.14010883957E+02 -0.20681148112E+02  0.10510305535E+02  0.27101315078E+02  0.00000000000E+00 0. -1.
</event>
<event>
 7    1  0.4096326E-006  0.1760109E+03  0.7561462E-02  0.1171721E+00
          1   -1    0    0  501    0  0.00000000000E+00  0.00000000000E+00  0.11317091759E+04  0.11317091759E+04  0.00000000000E+00 0. -1.
         -1   -1    0    0    0  501 -0.00000000000E+00 -0.00000000000E+00 -0.31702776957E+02  0.31702776957E+02  0.00000000000E+00 0.  1.
         23    2    1    2    0    0 -0.11732217409E+03  0.99883558920E+02  0.57961038351E+03  0.60645489528E+03  0.89989585290E+02 0.  0.
          5    1    1    2  502    0  0.62089877706E+01 -0.83384467902E+02  0.18085636512E+03  0.19929379875E+03  0.41800000000E+01 0.  1.
         -5    1    1    2    0  502  0.11111318632E+03 -0.16499091018E+02  0.33953965033E+03  0.35766325884E+03  0.41800000000E+01 0.  1.
        -11    1    3    3    0    0 -0.42585259792E+02  0.51654244986E+02  0.11218117213E+03  0.13063797594E+03  0.00000000000E+00 0. -1.
         11    1    3    3    0    0 -0.74736914300E+02  0.48229313934E+02  0.46742921138E+03  0.47581691934E+03  0.00000000000E+00 0.  1.
</event>
<event>
 7    1  0.4096326E-006  0.1480962E+03  0.7561462E-02  0.1202832E+00
         -2   -1    0    0    0  501 -0.00000000000E+00  0.00000000000E+00  0.12289464380E+03  0.12289464380E+03  0.00000000000E+00 0.  1.
          2   -1    0    0  501    0  0.00000000000E+00 -0.00000000000E+00 -0.22977969552E+03  0.22977969552E+03  0.00000000000E+00 0. -1.
         23    2    1    2    0    0 -0.52802382697E+02  0.11477682916E+03 -0.38432732812E+02  0.16216584298E+03  0.94121589164E+02 0.  0.
          5    1    1    2  502    0 -0.17862468061E+02 -0.87840117450E+02 -0.20136085308E+01  0.89757902261E+02  0.41800000000E+01 0.  1.
         -5    1    1    2    0  502  0.70664850758E+02 -0.26936711710E+02 -0.66438710380E+02  0.10075059408E+03  0.41800000000E+01 0.  1.
        -11    1    3    3    0    0 -0.50450571653E+01  0.49918018724E+02  0.28268748683E+02  0.57588048649E+02  0.00000000000E+00 0.  1.
         11    1    3    3    0    0 -0.47757325532E+02  0.64858810436E+02 -0.66701481495E+02  0.10457779433E+03  0.00000000000E+00 0. -1.
</event>
<event>
 7    1  0.4096326E-006  0.1370817E+03  0.7561462E-02  0.1217311E+00
          4   -1    0    0  501    0  0.00000000000E+00  0.00000000000E+00  0.11365536550E+03  0.11365536550E+03  0.00000000000E+00 0. -1.
         -4   -1    0    0    0  501 -0.00000000000E+00 -0.00000000000E+00 -0.23516642808E+03  0.23516642808E+03  0.00000000000E+00 0.  1.
         23    2    1    2    0    0 -0.59271430509E+02 -0.10034768618E+03 -0.97752733634E+02  0.17620283897E+03  0.88933024982E+02 0.  0.
          5    1    1    2  502    0 -0.63767889256E+01  0.31361673223E+02  0.44791271535E+02  0.55208227558E+02  0.41800000000E+01 0.  1.
         -5    1    1    2    0  502  0.65648219435E+02  0.68986012958E+02 -0.68549600484E+02  0.11741072705E+03  0.41800000000E+01 0.  1.
        -11    1    3    3    0    0  0.19515138290E+02 -0.48424564241E+02 -0.36657839707E+02  0.63793230490E+02  0.00000000000E+00 0.  1.
         11    1    3    3    0    0 -0.78786568799E+02 -0.51923121940E+02 -0.61094893926E+02  0.11240960848E+03  0.00000000000E+00 0. -1.
</event>
<event>
 7    1  0.4096326E-006  0.8608222E+02  0.7561462E-02  0.1312626E+00
          1   -1    0    0  501    0  0.00000000000E+00  0.00000000000E+00  0.15675142895E+03  0.15675142895E+03  0.00000000000E+00 0. -1.
         -1   -1    0    0    0  501 -0.00000000000E+00 -0.00000000000E+00 -0.12595414726E+03  0.12595414726E+03  0.00000000000E+00 0.  1.
         23    2    1    2    0    0 -0.26396529349E+02  0.69487343424E+02  0.66728001124E+02  0.13282660454E+03  0.87550060432E+02 0.  0.
          5    1    1    2  502    0  0.34885210888E+02 -0.77221652458E+02 -0.72327688882E+02  0.11148510450E+03  0.41800000000E+01 0. -1.
         -5    1    1    2    0  502 -0.84886815391E+01  0.77343090337E+01  0.36396969448E+02  0.38393867160E+02  0.41800000000E+01 0. -1.
        -11    1    3    3    0    0 -0.13502787100E+02  0.21276934964E+02 -0.20397610965E+02  0.32420606935E+02  0.00000000000E+00 0.  1.
         11    1    3    3    0    0 -0.12893742249E+02  0.48210408460E+02  0.87125612089E+02  0.10040599760E+03  0.00000000000E+00 0. -1.
</event>
<event>
 7    1  0.4096326E-006  0.1638134E+03  0.7561462E-02  0.1184458E+00
          1   -1    0    0  501    0  0.00000000000E+00  0.00000000000E+00  0.13273519189E+03  0.13273519189E+03  0.00000000000E+00 0. -1.
         -1   -1    0    0    0  501 -0.00000000000E+00 -0.00000000000E+00 -0.25970436434E+03  0.25970436434E+03  0.00000000000E+00 0.  1.
         23    2    1    2    0    0 -0.45902037303E+02  0.14213490747E+03 -0.46296094321E+02  0.18157288753E+03  0.92282480380E+02 0.  0.
          5    1    1    2  502    0  0.27089057854E+02 -0.41721274552E+02  0.31546936929E+02  0.59052209402E+02  0.41800000000E+01 0. -1.
         -5    1    1    2    0  502  0.18812979449E+02 -0.10041363292E+03 -0.11222001505E+03  0.15181445929E+03  0.41800000000E+01 0. -1.
        -11    1    3    3    0    0 -0.64507955831E+02  0.50411108397E+02 -0.18388717812E+02  0.83908886050E+02  0.00000000000E+00 0.  1.
         11    1    3    3    0    0  0.18605918528E+02  0.91723799077E+02 -0.27907376509E+02  0.97664001480E+02  0.00000000000E+00 0. -1.
</event>
<event>
 7    1  0.4096326E-006  0.1509485E+03  0.7561462E-02  0.1199312E+00
          2   -1    0    0  501    0  0.00000000000E+00  0.00000000000E+00  0.89250860026E+03  0.89250860026E+03  0.00000000000E+00 0. -1.
         -2   -1    0    0    0  501 -0.00000000000E+00 -0.00000000000E+00 -0.27005625549E+02  0.27005625549E+02  0.00000000000E+00 0.  1.
         23    2    1    2    0    0 -0.37325948903E+02 -0.10544494858E+03  0.39529989279E+03  0.42026085550E+03  0.88573798509E+02 0.  0.
          5    1    1    2  502    0  0.79880687083E+02  0.79638615996E+02  0.37670456405E+03  0.39325187132E+03  0.41800000000E+01 0. -1.
         -5    1    1    2    0  502 -0.42554738181E+02  0.25806332579E+02  0.93498517879E+02  0.10600149899E+03  0.41800000000E+01 0. -1.
        -11    1    3    3    0    0  0.23746900503E+01 -0.98796863833E+02  0.23397234293E+03  0.25398723730E+03  0.00000000000E+00 0.  1.
         11    1    3    3    0    0 -0.39700638953E+02 -0.66480847424E+01  0.16132754986E+03  0.16627361820E+03  0.00000000000E+00 0. -1.
</event>
<event>
 7    1  0.4096326E-006  0.1154866E+03  0.7561462E-02  0.1250734E+00
          1   -1    0    0  501    0  0.00000000000E+00  0.00000000000E+00  0.50033010894E+02  0.50033010894E+02  0.00000000000E+00 0. -1.
         -1   -1    0    0    0  501 -0.00000000000E+00 -0.00000000000E+00 -0.29051092951E+03  0.29051092951E+03  0.00000000000E+00 0.  1.
         23    2    1    2    0    0 -0.92100455041E+01 -0.49129041260E+02 -0.83860116282E+02  0.13396747708E+03  0.91740275667E+02 0.  0.
          5    1    1    2  502    0 -0.34778077088E+02  0.73082246784E+02 -0.11819558733E+03  0.14331154421E+03  0.41800000000E+01 0. -1.
         -5    1    1    2    0  502  0.43988122592E+02 -0.23953205525E+02 -0.38422215007E+02  0.63264919112E+02  0.41800000000E+01 0. -1.
        -11    1    3    3    0    0 -0.43601296104E+02 -0.48574745290E+02 -0.34569255687E+02  0.73862117088E+02  0.00000000000E+00 0. -1.
         11    1    3    3    0    0  0.34391250599E+02 -0.55429596993E+00 -0.49290860594E+02  0.60105359994E+02  0.00000000000E+00 0.  1.
</event>
<event>
 7    1  0.4096326E-006  0.1138853E+03  0.7561462E-02  0.1253540E+00
         -2   -1    0    0    0  501 -0.00000000000E+00  0.00000000000E+00  0.31741745158E+03  0.31741745158E+03  0.00000000000E+00 0.  1.
          2   -1    0    0  501    0  0.00000000000E+00 -0.00000000000E+00 -0.24779843567E+03  0.24779843567E+03  0.00000000000E+00 0. -1.
         23    2    1    2    0    0  0.90657002234E+02  0.37494741641E+02  0.58826853193E+02  0.14563880069E+03  0.90141632480E+02 0.  0.
          5    1    1    2  502    0 -0.24793580535E+02 -0.30402837976E+01 -0.19711861672E+03  0.19873899069E+03  0.41800000000E+01 0. -1.
         -5    1    1    2    0  502 -0.65863421699E+02 -0.34454457844E+02  0.20791077943E+03  0.22083809587E+03  0.41800000000E+01 0.  1.
        -11    1    3    3    0    0  0.37305499069E+02  0.59545690188E+02  0.11952339134E+02  0.71275857705E+02  0.00000000000E+00 0. -1.
         11    1    3    3    0    0  0.53351503165E+02 -0.22050948546E+02  0.46874514059E+02  0.74362942989E+02  0.00000000000E+00 0.  1.
</event>
<event>
 7    1  0.4096326E-006  0.3273804E+03  0.7561462E-02  0.1072302E+00
          2   -1    0    0  501    0  0.00000000000E+00  0.00000000000E+00  0.63386648666E+03  0.63386648666E+03  0.00000000000E+00 0. -1.
         -2   -1    0    0    0  501 -0.00000000000E+00 -0.00000000000E+00 -0.19361025670E+03  0.19361025670E+03  0.00000000000E+00 0.  1.
         23    2    1    2    0    0 -0.23770833628E+03 -0.21099179117E+03  0.33302898950E+03  0.46948138446E+03  0.92096001171E+02 0.  0.
          5    1    1    2  502    0  0.19608405009E+03  0.21918191909E+03  0.11279039178E+03  0.31500605269E+03  0.41800000000E+01 0. -1.
         -5    1    1    2    0  502  0.41624286189E+02 -0.81901279204E+01 -0.55631513111E+01  0.42989306212E+02  0.41800000000E+01 0. -1.
        -11    1    3    3    0    0 -0.20019541568E+03 -0.17246807234E+03  0.21820422654E+03  0.34269012958E+03  0.00000000000E+00 0. -1.
         11    1    3    3    0    0 -0.37512920600E+02 -0.38523718835E+02  0.11482476296E+03  0.12679125488E+03  0.00000000000E+00 0.  1.
</event>
<event>
 7    1  0.4096326E-006  0.1147524E+03  0.7561462E-02  0.1252014E+00
         -1   -1    0    0    0  501 -0.00000000000E+00  0.00000000000E+00  0.26380940898E+03  0.26380940898E+03  0.00000000000E+00 0.  1.
          1   -1    0    0  501    0  0.00000000000E+00 -0.00000000000E+00 -0.78296007789E+02  0.78296007789E+02  0.00000000000E+00 0. -1.
         23    2    1    2    0    0 -0.25503594087E+02  0.64355866308E+02  0.13111445963E+02  0.11813622960E+03  0.94826936517E+02 0.  0.
          5    1    1    2  502    0 -0.15986909348E+02  0.31031761485E+02  0.23515317788E+02  0.42296501771E+02  0.41800000000E+01 0.  1.
         -5    1    1    2    0  502  0.41490503435E+02 -0.95387627793E+02  0.14888663744E+03  0.18167268540E+03  0.41800000000E+01 0.  1.
        -11    1    3    3    0    0 -0.73898099956E+01  0.70673951151E+02  0.42678584650E+02  0.82890760950E+02  0.00000000000E+00 0.  1.
         11    1    3    3    0    0 -0.18113784092E+02 -0.63180848427E+01 -0.29567138688E+02  0.35245468650E+02  0.00000000000E+00 0. -1.
</event>
<event>
 7    1  0.4096326E-006  0.1394988E+03  0.7561462E-02  0.1214005E+00
         -2   -1    0    0    0  501 -0.00000000000E+00  0.00000000000E+00  0.67184020167E+02  0.67184020167E+02  0.00000000000E+00 0.  1.
          2   -1    0    0  501    0  0.00000000000E+00 -0.00000000000E+00 -0.36634055359E+03  0.36634055359E+03  0.00000000000E+00 0. -1.
         23    2    1    2    0    0  0.10536742237E+03  0.40015739109E+02 -0.14288668627E+03  0.20380515370E+03  0.91740844164E+02 0.  0.
          5    1    1    2  502    0 -0.12480251176E+03 -0.57505011427E+02 -0.14795472239E+03  0.20196674369E+03  0.41800000000E+01 0.  1.
         -5    1    1    2    0  502  0.19435089384E+02  0.17489272318E+02 -0.83151247609E+01  0.27752676364E+02  0.41800000000E+01 0.  1.
        -11    1    3    3    0    0  0.72648831909E+02  0.38662751724E+02 -0.14926000856E+03  0.17044415890E+03  0.00000000000E+00 0. -1.
         11    1    3    3    0    0  0.32718590462E+02  0.13529873846E+01  0.63733222926E+01  0.33360994796E+02  0.00000000000E+00 0.  1.
</event>
<event>
 7    1  0.4096326E-006  0.1841492E+03  0.7561462E-02  0.1163847E+00
          2   -1    0    0  501    0  0.00000000000E+00  0.00000000000E+00  0.33992339737E+03  0.33992339737E+03  0.00000000000E+00 0. -1.
         -2   -1    0    0    0  501 -0.00000000000E+00 -0.00000000000E+00 -0.21748534071E+03  0.21748534071E+03  0.00000000000E+00 0.  1.
         23    2    1    2    0    0 -0.23111535539E+02  0.16459955859E+03  0.25017343571E+03  0.31322954044E+03  0.88875414538E+02 0.  0.
          5    1    1    2  502    0  0.18539034485E+02  0.82473864913E+01 -0.50838330641E+02  0.54897390156E+02  0.41800000000E+01 0.  1.
         -5    1    1    2    0  502  0.45725010548E+01 -0.17284694508E+03 -0.76897048411E+02  0.18928180748E+03  0.41800000000E+01 0.  1.
        -11    1    3    3    0    0  0.11609245746E+02  0.10506221625E+03  0.20551375861E+03  0.23110332937E+03  0.00000000000E+00 0. -1.
         11    1    3    3    0    0 -0.34720781285E+02  0.59537342343E+02  0.44659677101E+02  0.82126211072E+02  0.00000000000E+00 0.  1.
</event>
<event>
 7    1  0.4096326E-006  0.2989180E+03  0.7561462E-02  0.1085783E+00
         -1   -1    0    0    0  501 -0.00000000000E+00  0.00000000000E+00  0.19370401668E+04  0.19370401668E+04  0.00000000000E+00 0. -1.
          1   -1    0    0  501    0  0.00000000000E+00 -0.00000000000E+00 -0.48395384033E+02  0.48395384033E+02  0.00000000000E+00 0.  1.
         23    2    1    2    0    0 -0.26813549686E+03 -0.94669210792E+02  0.83196791153E+03  0.88404001502E+03  0.92180465392E+02 0.  0.
          5    1    1    2  502    0  0.26686394002E+03  0.11437550835E+03  0.98088010624E+03  0.10229571714E+04  0.41800000000E+01 0.  1.
         -5    1    1    2    0  502  0.12715568348E+01 -0.19706297554E+02  0.75796764956E+02  0.78438364324E+02  0.41800000000E+01 0.  1.
        -11    1    3    3    0    0 -0.84044754002E+02 -0.50194312377E+02  0.17731019867E+03  0.20253862897E+03  0.00000000000E+00 0.  1.
         11    1    3    3    0    0 -0.18409074285E+03 -0.44474898415E+02  0.65465771285E+03  0.68150138605E+03  0.00000000000E+00 0. -1.
</event>
<event>
 7    1  0.4096326E-006  0.1242147E+03  0.7561462E-02  0.1236302E+00
         -2   -1    0    0    0  501 -0.00000000000E+00  0.00000000000E+00  0.14298328576E+02  0.14298328576E+02  0.00000000000E+00 0. -1.
          2   -1    0    0  501    0  0.00000000000E+00 -0.00000000000E+00 -0.11883211749E+04  0.11883211749E+04  0.00000000000E+00 0.  1.
         23    2    1    2    0    0 -0.62916672680E+02  0.32570332075E+02 -0.58774971817E+03  0.59897955443E+03  0.91145165404E+02 0.  0.
          5    1    1    2  502    0 -0.21786571913E+02 -0.42162960405E+02 -0.33258501219E+03  0.33598010756E+03  0.41800000000E+01 0. -1.
         -5    1    1    2    0  502  0.84703244593E+02  0.95926283303E+01 -0.25368811594E+03  0.26765984147E+03  0.41800000000E+01 0. -1.
        -11    1    3    3    0    0 -0.34323880764E+02  0.64201234100E+02 -0.37248766239E+03  0.37953522351E+03  0.00000000000E+00 0. -1.
         11    1    3    3    0    0 -0.28592791916E+02 -0.31630902025E+02 -0.21526205579E+03  0.21944433092E+03  0.00000000000E+00 0.  1.
</event>
<event>
 7    1  0.4096326E-006  0.1009237E+03  0.7561462E-02  0.1278365E+00
         -2   -1    0    0    0  501 -0.00000000000E+00  0.00000000000E+00  0.76847715876E+02  0.76847715876E+02  0.00000000000E+00 0.  1.
          2   -1    0    0  501    0  0.00000000000E+00 -0.00000000000E+00 -0.26376955021E+03  0.26376955021E+03  0.00000000000E+00 0. -1.
         23    2    1    2    0    0 -0.12800145117E+01 -0.80586069661E+02 -0.13870510341E+03  0.18419293435E+03  0.90510652912E+02 0.  0.
          5    1    1    2  502    0  0.11159519764E+02  0.29548960020E+02 -0.86204123064E+02  0.91903749395E+02  0.41800000000E+01 0.  1.
         -5    1    1    2    0  502 -0.98795052521E+01  0.51037109641E+02  0.37987392140E+02  0.64520582345E+02  0.41800000000E+01 0.  1.
        -11    1    3    3    0    0 -0.18797677944E+02  0.12849755495E+02 -0.11845003273E+02  0.25666573884E+02  0.00000000000E+00 0.  1.
         11    1    3    3    0    0  0.17517663432E+02 -0.93435825156E+02 -0.12686010014E+03  0.15852636046E+03  0.00000000000E+00 0. -1.
</event>
<event>
 7    1  0.4096326E-006  0.8011619E+02  0.7561462E-02  0.1328722E+00
         -1   -1    0    0    0  501 -0.00000000000E+00  0.00000000000E+00  0.79745278317E+03  0.79745278317E+03  0.00000000000E+00 0.  1.
          1   -1    0    0  501    0  0.00000000000E+00 -0.00000000000E+00 -0.16029260854E+02  0.16029260854E+02  0.00000000000E+00 0. -1.
         23    2    1    2    0    0  0.23447522145E+02 -0.14675752473E+02  0.29712666505E+03  0.31252675980E+03  0.92863106260E+02 0.  0.
          5    1    1    2  502    0  0.23775557904E+02  0.25945537667E+02  0.41346252345E+03  0.41497852809E+03  0.41800000000E+01 0.  1.
         -5    1    1    2    0  502 -0.47223080049E+02 -0.11269785193E+02  0.70834333818E+02  0.85976756132E+02  0.41800000000E+01 0.  1.
        -11    1    3    3    0    0  0.47431555280E+02  0.94713294628E+00  0.26617039764E+03  0.27036517912E+03  0.00000000000E+00 0.  1.
         11    1    3    3    0    0 -0.23984033135E+02 -0.15622885420E+02  0.30956267406E+02  0.42161580687E+02  0.00000000000E+00 0. -1.
</event>
<event>
 7    1  0.4096326E-006  0.1088629E+03  0.7561462E-02  0.1262690E+00
          1   -1    0    0  501    0  0.00000000000E+00  0.00000000000E+00  0.41871372527E+03  0.41871372527E+03  0.00000000000E+00 0. -1.
         -1   -1    0    0    0  501 -0.00000000000E+00 -0.00000000000E+00 -0.43824600294E+02  0.43824600294E+02  0.00000000000E+00 0.  1.
         23    2    1    2    0    0 -0.35510125637E+02 -0.39893168136E+01  0.29810755743E+03  0.31147224110E+03  0.82885206827E+02 0.  0.
          5    1    1    2  502    0  0.80012666067E+02  0.16919913013E+02  0.37051980600E+02  0.89881209682E+02  0.41800000000E+01 0. -1.
         -5    1    1    2    0  502 -0.44502540430E+02 -0.12930596199E+02  0.39729586948E+02  0.61184874780E+02  0.41800000000E+01 0. -1.
        -11    1    3    3    0    0 -0.56155727712E+02 -0.23523434293E+02  0.22316532439E+03  0.23132137758E+03  0.00000000000E+00 0.  1.
         11    1    3    3    0    0  0.20645602074E+02  0.19534117479E+02  0.74942233038E+02  0.80150863523E+02  0.00000000000E+00 0. -1.
</event>
<event>
 7    1  0.4096326E-006  0.1210478E+03  0.7561462E-02  0.1241378E+00
          2   -1    0    0  501    0  0.00000000000E+00  0.00000000000E+00  0.50570668143E+03  0.50570668143E+03  0.00000000000E+00 0. -1.
         -2   -1    0    0    0  501 -0.00000000000E+00 -0.00000000000E+00 -0.31288676034E+02  0.31288676034E+02  0.00000000000E+00 0.  1.
         23    2    1    2    0    0  0.61649756609E+02  0.12294085153E+02  0.19096527308E+03  0.22085280259E+03  0.91413280607E+02 0.  0.
          5    1    1    2  502    0 -0.31251881988E+02 -0.65711980944E+02  0.10891443487E+03  0.13105178782E+03  0.41800000000E+01 0. -1.
         -5    1    1    2    0  502 -0.30397874621E+02  0.53417895791E+02  0.17453829745E+03  0.18509076705E+03  0.41800000000E+01 0. -1.
        -11    1    3    3    0    0  0.85777233035E+01  0.44638986902E+02  0.10811135945E+03  0.11727865335E+03  0.00000000000E+00 0. -1.
         11    1    3    3    0    0  0.53072033306E+02 -0.32344901749E+02  0.82853913624E+02  0.10357414924E+03  0.00000000000E+00 0.  1.
</event>
<event>
 6    1  0.4096326E-006  0.8751121E+02  0.7561462E-02  0.1308993E+00
          1   -1    0    0  501    0  0.00000000000E+00  0.00000000000E+00  0.82597642834E+03  0.82597642834E+03  0.00000000000E+00 0. -1.
         -1   -1    0    0    0  501 -0.00000000000E+00 -0.00000000000E+00 -0.10078774590E+02  0.10078774590E+02  0.00000000000E+00 0.  1.
          5    1    1    2  502    0  0.59538686244E+02 -0.18644204065E+02  0.37441635471E+03  0.37960181846E+03  0.41800000000E+01 0.  1.
         -5    1    1    2    0  502 -0.60484384848E+02 -0.67809346485E+01  0.21551899732E+03  0.22398717037E+03  0.41800000000E+01 0.  1.
        -11    1    1    2    0    0  0.22754657886E+02  0.10508298638E+02  0.71630275166E+02  0.75888702164E+02  0.00000000000E+00 0. -1.
         11    1    1    2    0    0 -0.21808959282E+02  0.14916840076E+02  0.15433202655E+03  0.15657751193E+03  0.00000000000E+00 0.  1.
</event>
<event>
 7    1  0.4096326E-006  0.1003583E+03  0.7561462E-02  0.1279544E+00
         -1   -1    0    0    0  501 -0.00000000000E+00  0.00000000000E+00  0.55993833318E+03  0.55993833318E+03  0.00000000000E+00 0.  1.
          1   -1    0    0  501    0  0.00000000000E+00 -0.00000000000E+00 -0.43781615161E+02  0.43781615161E+02  0.00000000000E+00 0. -1.
         23    2    1    2    0    0  0.43079710209E+02  0.78566380267E+02  0.10844881491E+03  0.16794281206E+03  0.91733882118E+02 0.  0.
          5    1    1    2  502    0 -0.91268671471E+01 -0.12266458414E+02 -0.48123212616E+01  0.16564919012E+02  0.41800000000E+01 0. -1.
         -5    1    1    2    0  502 -0.33952843062E+02 -0.66299921853E+02  0.41252022437E+03  0.41921221726E+03  0.41800000000E+01 0. -1.
        -11    1    3    3    0    0 -0.16637356622E+02  0.25057086583E+02 -0.34569445532E+01  0.30275562572E+02  0.00000000000E+00 0. -1.
         11    1    3    3    0    0  0.59717066831E+02  0.53509293685E+02  0.11190575946E+03  0.13766724949E+03  0.00000000000E+00 0.  1.
</event>
<event>
 7    1  0.4096326E-006  0.1441152E+03  0.7561462E-02  0.1207896E+00
         -1   -1    0    0    0  501 -0.00000000000E+00  0.00000000000E+00  0.49619479350E+02  0.49619479350E+02  0.00000000000E+00 0.  1.
          1   -1    0    0  501    0  0.00000000000E+00 -0.00000000000E+00 -0.63075375803E+03  0.63075375803E+03  0.00000000000E+00 0. -1.
         23    2    1    2    0    0  0.51916949219E+02 -0.12360527086E+03 -0.34436100800E+03  0.38090418781E+03  0.92357262084E+02 0.  0.
          5    1    1    2  502    0  0.15527432174E+02  0.53117273672E+02 -0.17579407444E+03  0.18434634501E+03  0.41800000000E+01 0.  1.
         -5    1    1    2    0  502 -0.67444381392E+02  0.70487997191E+02 -0.60979196236E+02  0.11512270455E+03  0.41800000000E+01 0.  1.
        -11    1    3    3    0    0  0.52096178828E+02 -0.11246962977E+03 -0.34781749197E+03  0.36924305977E+03  0.00000000000E+00 0.  1.
         11    1    3    3    0    0 -0.17922960931E+00 -0.11135641093E+02  0.34564839666E+01  0.11661128043E+02  0.00000000000E+00 0. -1.
</event>
<event>
 7    1  0.4096326E-006  0.1126161E+03  0.7561462E-02  0.1255801E+00
          2   -1    0    0  501    0  0.00000000000E+00  0.00000000000E+00  0.83602116051E+03  0.83602116051E+03  0.00000000000E+00 0. -1.
         -2   -1    0    0    0  501 -0.00000000000E+00 -0.00000000000E+00 -0.16965779241E+02  0.16965779241E+02  0.00000000000E+00 0.  1.
         23    2    1    2    0    0 -0.50658304154E+01  0.42593252433E+02  0.44415809069E+03  0.45545012810E+03  0.91206150426E+02 0.  0.
          5    1    1    2  502    0 -0.92063380603E+01  0.39917209505E+02  0.19160553586E+03  0.19598034097E+03  0.41800000000E+01 0.  1.
         -5    1    1    2    0  502  0.14272168476E+02 -0.82510461938E+02  0.18329175472E+03  0.20155647068E+03  0.41800000000E+01 0.  1.
        -11    1    3    3    0    0 -0.47283712697E+02  0.30616609878E+02  0.27344400158E+03  0.27918586692E+03  0.00000000000E+00 0.  1.
         11    1    3    3    0    0  0.42217882282E+02  0.11976642555E+02  0.17071408911E+03  0.17626426118E+03  0.00000000000E+00 0. -1.
</event>
<event>
 7    1  0.4096326E-006  0.1160682E+03  0.7561462E-02  0.1249728E+00
          2   -1    0    0  501    0  0.00000000000E+00  0.00000000000E+00  0.22214117246E+03  0.22214117246E+03  0.00000000000E+00 0. -1.
         -2   -1    0    0    0  501 -0.00000000000E+00 -0.00000000000E+00 -0.86211123915E+02  0.86211123915E+02  0.00000000000E+00 0.  1.
         23    2    1    2    0    0  0.70881027946E+02  0.37944630220E+02  0.95862517864E+02  0.15435070484E+03  0.90391386033E+02 0.  0.
          5    1    1    2  502    0 -0.69294731847E+02 -0.58111778648E+02 -0.18056526346E+02  0.92316029069E+02  0.41800000000E+01 0.  1.
         -5    1    1    2    0  502 -0.15862960987E+01  0.20167148429E+02  0.58124057025E+02  0.61685562460E+02  0.41800000000E+01 0.  1.
        -11    1    3    3    0    0  0.56896678695E+02  0.67481476013E+02  0.71387870628E+02  0.11352184690E+03  0.00000000000E+00 0. -1.
         11    1    3    3    0    0  0.13984349251E+02 -0.29536845793E+02  0.24474647236E+02  0.40828857940E+02  0.00000000000E+00 0.  1.
</event>
<event>
 7    1  0.4096326E-006  0.1156123E+03  0.7561462E-02  0.1250516E+00
          2   -1    0    0  501    0  0.00000000000E+00  0.00000000000E+00  0.18180642095E+02  0.18180642095E+02  0.00000000000E+00 0. -1.
         -2   -1    0    0    0  501 -0.00000000000E+00 -0.00000000000E+00 -0.80424925887E+03  0.80424925887E+03  0.00000000000E+00 0.  1.
         23    2    1    2    0    0  0.35249891785E+02  0.57179145105E+01 -0.26042595382E+03  0.28092873762E+03  0.99116238734E+02 0.  0.
          5    1    1    2  502    0 -0.29401508423E+02  0.58118655759E+02 -0.23927848627E+03  0.24801994524E+03  0.41800000000E+01 0.  1.
         -5    1    1    2    0  502 -0.58483833621E+01 -0.63836570270E+02 -0.28636417669E+03  0.29348121811E+03  0.41800000000E+01 0.  1.
        -11    1    3    3    0    0  0.68042210226E+02  0.95251592623E+01 -0.20722130191E+03  0.21831431240E+03  0.00000000000E+00 0.  1.
         11    1    3    3    0    0 -0.32792318441E+02 -0.38072447518E+01 -0.53204651903E+02  0.62614425219E+02  0.00000000000E+00 0. -1.
</event>
<event>
 6    1  0.4096326E-006  0.8249584E+02  0.7561462E-02  0.1322114E+00
         -1   -1    0    0    0  501 -0.00000000000E+00  0.00000000000E+00  0.39171078031E+02  0.39171078031E+02  0.00000000000E+00 0. -1.
          1   -1    0    0  501    0  0.00000000000E+00 -0.00000000000E+00 -0.19829838868E+03  0.19829838868E+03  0.00000000000E+00 0.  1.
          5    1    1    2  502    0  0.23084967510E+02  0.75159474888E+02 -0.36203872285E+02  0.86660574420E+02  0.41800000000E+01 0. -1.
         -5    1    1    2    0  502 -0.16656553814E+02 -0.36034238931E+02 -0.45057126677E+02  0.60195715999E+02  0.41800000000E+01 0.  1.
        -11    1    1    2    0    0 -0.11553237738E+02 -0.63858725557E+01 -0.21690927301E+02  0.25391986880E+02  0.00000000000E+00 0.  1.
         11    1    1    2    0    0  0.51248240423E+01 -0.32739363401E+02 -0.56175384389E+02  0.65221189415E+02  0.00000000000E+00 0. -1.
</event>
<event>
 7    1  0.4096326E-006  0.1366559E+03  0.7561462E-02  0.1217901E+00
         -2   -1    0    0    0  501 -0.00000000000E+00  0.00000000000E+00  0.10938217334E+03  0.10938217334E+03  0.00000000000E+00 0.  1.
          2   -1    0    0  501    0  0.00000000000E+00 -0.00000000000E+00 -0.19352788144E+03  0.19352788144E+03  0.00000000000E+00 0. -1.
         23    2    1    2    0    0 -0.83276633525E+01  0.82830887325E+02 -0.88930924461E+02  0.15257431930E+03  0.91868970351E+02 0.  0.
          5    1    1    2  502    0 -0.17262245866E+02 -0.11069297745E+03  0.58354547929E+01  0.11226061341E+03  0.41800000000E+01 0.  1.
         -5    1    1    2    0  502  0.25589909218E+02  0.27862090128E+02 -0.10502384294E+01  0.38075122073E+02  0.41800000000E+01 0.  1.
        -11    1    3    3    0    0 -0.47447788140E+02  0.25871887350E+02 -0.47872047096E+02  0.72196814664E+02  0.00000000000E+00 0.  1.
         11    1    3    3    0    0  0.39120124788E+02  0.56958999975E+02 -0.41058877365E+02  0.80377504639E+02  0.00000000000E+00 0. -1.
</event>
<event>
 7    1  0.4096326E-006  0.2231449E+03  0.7561462E-02  0.1131560E+00
          2   -1    0    0  501    0  0.00000000000E+00  0.00000000000E+00  0.85058425377E+02  0.85058425377E+02  0.00000000000E+00 0. -1.
         -2   -1    0    0    0  501 -0.00000000000E+00 -0.00000000000E+00 -0.63375427452E+03  0.63375427452E+03  0.00000000000E+00 0.  1.
         23    2    1    2    0    0  0.87122807925E+02  0.18410575181E+03 -0.23087747146E+03  0.32114122364E+03  0.91334370223E+02 0.  0.
          5    1    1    2  502    0 -0.84883523408E+02 -0.40310867746E+02 -0.10737450397E+03  0.14274780246E+03  0.41800000000E+01 0. -1.
         -5    1    1    2    0  502 -0.22392845172E+01 -0.14379488406E+03 -0.21044387372E+03  0.25492367380E+03  0.41800000000E+01 0. -1.
        -11    1    3    3    0    0  0.44478464244E+01  0.54134547952E+02 -0.11885002371E+03  0.13067387174E+03  0.00000000000E+00 0.  1.
         11    1    3    3    0    0  0.82674961500E+02  0.12997120386E+03 -0.11202744775E+03  0.19046735190E+03  0.00000000000E+00 0. -1.
</event>
<event>
 7    1  0.4096326E-006  0.6779570E+02  0.7561462E-02  0.1367753E+00
          1   -1    0    0  501    0  0.00000000000E+00  0.00000000000E+00  0.27625390207E+03  0.27625390207E+03  0.00000000000E+00 0. -1.
         -1   -1    0    0    0  501 -0.00000000000E+00 -0.00000000000E+00 -0.56248600033E+02  0.56248600033E+02  0.00000000000E+00 0.  1.
         23    2    1    2    0    0  0.80257510132E+01  0.59928964340E+02  0.97732823682E+02  0.14742700212E+03  0.92342420817E+02 0.  0.
          5    1    1    2  502    0  0.10420412356E+02 -0.22894951242E+02 -0.22771939127E+02  0.34187679033E+02  0.41800000000E+01 0.  1.
         -5    1    1    2    0  502 -0.18446163369E+02 -0.37034013098E+02  0.14504441748E+03  0.15088782095E+03  0.41800000000E+01 0.  1.
        -11    1    3    3    0    0  0.17309637854E+02  0.55659294314E+02  0.11410306510E+03  0.12812919289E+03  0.00000000000E+00 0. -1.
         11    1    3    3    0    0 -0.92838868410E+01  0.42696700261E+01 -0.16370241415E+02  0.19297809228E+02  0.00000000000E+00 0.  1.
</event>
<event>
 7    1  0.4096326E-006  0.1046833E+03  0.7561462E-02  0.1270745E+00
          2   -1    0    0  501    0  0.00000000000E+00  0.00000000000E+00  0.41124881419E+03  0.41124881419E+03  0.00000000000E+00 0. -1.
         -2   -1    0    0    0  501 -0.00000000000E+00 -0.00000000000E+00 -0.35090132101E+02  0.35090132101E+02  0.00000000000E+00 0.  1.
         23    2    1    2    0    0 -0.32246874814E+02  0.40640564132E+02  0.18539310970E+03  0.21235684075E+03  0.89628713605E+02 0.  0.
          5    1    1    2  502    0  0.41108296815E+02  0.25080480812E+02  0.22985350800E+02  0.53523091617E+02  0.41800000000E+01 0. -1.
         -5    1    1    2    0  502 -0.88614220007E+01 -0.65721044944E+02  0.16778022160E+03  0.18045901393E+03  0.41800000000E+01 0. -1.
        -11    1    3    3    0    0 -0.57363622593E+02  0.39094256754E+02  0.16797022023E+03  0.18174966573E+03  0.00000000000E+00 0. -1.
         11    1    3    3    0    0  0.25116747779E+02  0.15463073777E+01  0.17422889467E+02  0.30607175023E+02  0.00000000000E+00 0.  1.
</event>
<event>
 7    1  0.4096326E-006  0.1187785E+03  0.7561462E-02  0.1245126E+00
         -2   -1    0    0    0  501 -0.00000000000E+00  0.00000000000E+00  0.60579942318E+02  0.60579942318E+02  0.00000000000E+00 0.  1.
          2   -1    0    0  501    0  0.00000000000E+00 -0.00000000000E+00 -0.35178563411E+03  0.35178563411E+03  0.00000000000E+00 0. -1.
         23    2    1    2    0    0 -0.58386395589E+02  0.25909617159E+02 -0.20948802920E+03  0.23621852163E+03  0.88508056873E+02 0.  0.
          5    1    1    2  502    0  0.60635846536E+02  0.42648245002E+02 -0.77451159435E+02  0.10729274526E+03  0.41800000000E+01 0. -1.
         -5    1    1    2    0  502 -0.22494509467E+01 -0.68557862160E+02 -0.42665031600E+01  0.68854309544E+02  0.41800000000E+01 0.  1.
        -11    1    3    3    0    0  0.81950391137E+01  0.26771929148E+02 -0.17514925460E+02  0.33025255037E+02  0.00000000000E+00 0.  1.
         11    1    3    3    0    0 -0.66581434703E+02 -0.86231198936E+00 -0.19197310374E+03  0.20319326659E+03  0.00000000000E+00 0. -1.
</event>
<event>
 7    1  0.4096326E-006  0.9812320E+02  0.7561462E-02  0.1284293E+00
          3   -1    0    0  501    0  0.00000000000E+00  0.00000000000E+00  0.37309917236E+03  0.37309917236E+03  0.00000000000E+00 0. -1.
         -3   -1    0    0    0  501 -0.00000000000E+00 -0.00000000000E+00 -0.32871979574E+02  0.32871979574E+02  0.00000000000E+00 0.  1.
         23    2    1    2    0    0 -0.22143486923E+02  0.10347408636E+02  0.14677723426E+03  0.17431211474E+03  0.90795120846E+02 0.  0.
          5    1    1    2  502    0 -0.42380391462E+01 -0.65330926423E+02  0.11237504658E+03  0.13012192135E+03  0.41800000000E+01 0.  1.
         -5    1    1    2    0  502  0.26381526069E+02  0.54983517787E+02  0.81074911945E+02  0.10153711584E+03  0.41800000000E+01 0.  1.
        -11    1    3    3    0    0  0.95674914001E+01 -0.22139707460E+02  0.39454500135E+01  0.24439110334E+02  0.00000000000E+00 0.  1.
         11    1    3    3    0    0 -0.31710978323E+02  0.32487116096E+02  0.14283178425E+03  0.14987300441E+03  0.00000000000E+00 0. -1.
</event>
<event>
 7    1  0.4096326E-006  0.3087560E+03  0.7561462E-02  0.1080944E+00
         -1   -1    0    0    0  501 -0.00000000000E+00  0.00000000000E+00  0.36944684724E+03  0.36944684724E+03  0.00000000000E+00 0.  1.
          1   -1    0    0  501    0  0.00000000000E+00 -0.00000000000E+00 -0.37683017588E+03  0.37683017588E+03  0.00000000000E+00 0. -1.
         23    2    1    2    0    0 -0.30393445188E+03  0.31594141727E+00 -0.18909191906E+03  0.37072236448E+03  0.96452407005E+02 0.  0.
          5    1    1    2  502    0  0.11885665535E+01 -0.43420310744E+01  0.41350853326E+02  0.41804681497E+02  0.41800000000E+01 0.  1.
         -5    1    1    2    0  502  0.30274588532E+03  0.40260896571E+01  0.14035773710E+03  0.33374997714E+03  0.41800000000E+01 0.  1.
        -11    1    3    3    0    0 -0.85618595941E+02  0.24136590391E+02 -0.14420338870E+02  0.90116952566E+02  0.00000000000E+00 0.  1.
         11    1    3    3    0    0 -0.21831585593E+03 -0.23820648973E+02 -0.17467158020E+03  0.28060541192E+03  0.00000000000E+00 0. -1.
</event>
<event>
 7    1  0.4096326E-006  0.7783675E+02  0.7561462E-02  0.1335305E+00
          2   -1    0    0  501    0  0.00000000000E+00  0.00000000000E+00  0.60649569610E+02  0.60649569610E+02  0.00000000000E+00 0. -1.
         -2   -1    0    0    0  501 -0.00000000000E+00 -0.00000000000E+00 -0.23946511349E+03  0.23946511349E+03  0.00000000000E+00 0.  1.
         23    2    1    2    0    0 -0.50347139979E+02  0.67305273197E+01 -0.59465850576E+02  0.11991376947E+03  0.90900991312E+02 0.  0.
          5    1    1    2  502    0  0.63092969392E+02 -0.14127945068E+02 -0.14013086397E+03  0.15438410882E+03  0.41800000000E+01 0. -1.
         -5    1    1    2    0  502 -0.12745829412E+02  0.73974177483E+01  0.20781170663E+02  0.25816804816E+02  0.41800000000E+01 0. -1.
        -11    1    3    3    0    0 -0.40897452657E+02 -0.21209531393E+02  0.75591865139E+01  0.46686048842E+02  0.00000000000E+00 0. -1.
         11    1    3    3    0    0 -0.94496873221E+01  0.27940058712E+02 -0.67025037090E+02  0.73227720627E+02  0.00000000000E+00 0.  1.
</event>
<event>
 7    1  0.4096326E-006  0.2796300E+03  0.7561462E-02  0.1095891E+00
          1   -1    0    0  501    0  0.00000000000E+00  0.00000000000E+00  0.15587121071E+03  0.15587121071E+03  0.00000000000E+00 0. -1.
         -1   -1    0    0    0  501 -0.00000000000E+00 -0.00000000000E+00 -0.53368935655E+03  0.53368935655E+03  0.00000000000E+00 0.  1.
         23    2    1    2    0    0  0.20998956608E+03  0.16456386806E+03 -0.18709744530E+03  0.33856748653E+03  0.91899969315E+02 0.  0.
          5    1    1    2  502    0 -0.18789183382E+03 -0.80452969838E+02 -0.15643191598E+03  0.25741879945E+03  0.41800000000E+01 0.  1.
         -5    1    1    2    0  502 -0.22097732257E+02 -0.84110898223E+02 -0.34288784555E+02  0.93574281280E+02  0.41800000000E+01 0.  1.
        -11    1    3    3    0    0  0.11288954577E+03  0.10278831380E+03 -0.15831213670E+03  0.21993685372E+03  0.00000000000E+00 0.  1.
         11    1    3    3    0    0  0.97100020310E+02  0.61775554266E+02 -0.28785308603E+02  0.11863063281E+03  0.00000000000E+00 0. -1.
</event>
<event>
 7    1  0.4096326E-006  0.7803865E+02  0.7561462E-02  0.1334711E+00
          1   -1    0    0  501    0  0.00000000000E+00  0.00000000000E+00  0.91312032661E+02  0.91312032661E+02  0.00000000000E+00 0. -1.
         -1   -1    0    0    0  501 -0.00000000000E+00 -0.00000000000E+00 -0.27651738959E+03  0.27651738959E+03  0.00000000000E+00 0.  1.
         23    2    1    2    0    0  0.65442640116E+02 -0.11817656320E+02  0.25685170804E+02  0.11377735032E+03  0.88674468148E+02 0.  0.
          5    1    1    2  502    0 -0.23091499774E+02  0.24852704827E+02  0.41696651727E+01  0.34434471197E+02  0.41800000000E+01 0.  1.
         -5    1    1    2    0  502 -0.42351140342E+02 -0.13035048507E+02 -0.21506019290E+03  0.21961760073E+03  0.41800000000E+01 0.  1.
        -11    1    3    3    0    0  0.42124473987E+02  0.12257227558E+02  0.54229376473E+02  0.69753395678E+02  0.00000000000E+00 0. -1.
         11    1    3    3    0    0  0.23318166129E+02 -0.24074883877E+02 -0.28544205669E+02  0.44023954645E+02  0.00000000000E+00 0.  1.
</event>
<event>
 7    1  0.4096326E-006  0.8849697E+02  0.7561462E-02  0.1306533E+00
          2   -1    0    0  501    0  0.00000000000E+00  0.00000000000E+00  0.27273385655E+03  0.27273385655E+03  0.00000000000E+00 0. -1.
         -2   -1    0    0    0  501 -0.00000000000E+00 -0.00000000000E+00 -0.47342189862E+02  0.47342189862E+02  0.00000000000E+00 0.  1.
         23    2    1    2    0    0 -0.23811391181E+02  0.34814793475E+02  0.82200122202E+02  0.12532067337E+03  0.84672066762E+02 0.  0.
          5    1    1    2  502    0  0.60122957263E+02 -0.72334297079E+01  0.13529697942E+03  0.14828970812E+03  0.41800000000E+01 0. -1.
         -5    1    1    2    0  502 -0.36311566082E+02 -0.27581363767E+02  0.78945650672E+01  0.46465664917E+02  0.41800000000E+01 0. -1.
        -11    1    3    3    0    0  0.49909029789E+01  0.40784528981E+02  0.34229234635E+01  0.41231096539E+02  0.00000000000E+00 0.  1.
         11    1    3    3    0    0 -0.28802294160E+02 -0.59697355063E+01  0.78777198739E+02  0.84089576833E+02  0.00000000000E+00 0. -1.
</event>
<event>
 7    1  0.4096326E-006  0.9434976E+02  0.7561462E-02  0.1292647E+00
         -1   -1    0    0    0  501 -0.00000000000E+00  0.00000000000E+00  0.47124142466E+02  0.47124142466E+02  0.00000000000E+00 0.  1.
          1   -1    0    0  501    0  0.00000000000E+00 -0.00000000000E+00 -0.30672637889E+03  0.30672637889E+03  0.00000000000E+00 0. -1.
         23    2    1    2    0    0 -0.84815904274E+01  0.50480572641E+01 -0.18864031425E+03  0.20972786520E+03  0.91121836157E+02 0.  0.
          5    1    1    2  502    0 -0.40377411436E+02  0.32519463315E+02 -0.63219045736E+02  0.81865566585E+02  0.41800000000E+01 0. -1.
         -5    1    1    2    0  502  0.48859001864E+02 -0.37567520579E+02 -0.77428764375E+01  0.62257089565E+02  0.41800000000E+01 0. -1.
        -11    1    3    3    0    0 -0.21121554685E+02 -0.30548279284E+02 -0.33369616013E+02  0.49928435910E+02  0.00000000000E+00 0.  1.
         11    1    3    3    0    0  0.12639964258E+02  0.35596336548E+02 -0.15527069823E+03  0.15979942929E+03  0.00000000000E+00 0. -1.
</event>
<event>
 7    1  0.4096326E-006  0.4075066E+03  0.7561462E-02  0.1041211E+00
          1   -1    0    0  501    0  0.00000000000E+00  0.00000000000E+00  0.42055569355E+03  0.42055569355E+03  0.00000000000E+00 0. -1.
         -1   -1    0    0    0  501 -0.00000000000E+00 -0.00000000000E+00 -0.57777029780E+03  0.57777029780E+03  0.00000000000E+00 0.  1.
         23    2    1    2    0    0 -0.40486195509E+03  0.20809951831E+01  0.18447448959E+03  0.45397538820E+03  0.90251219198E+02 0.  0.
          5    1    1    2  502    0  0.37548643659E+03  0.14387102033E+02 -0.34515159523E+03  0.51023930548E+03  0.41800000000E+01 0. -1.
         -5    1    1    2    0  502  0.29375518499E+02 -0.16468097216E+02  0.34625013940E+01  0.34111297673E+02  0.41800000000E+01 0. -1.
        -11    1    3    3    0    0 -0.22604065289E+03  0.10381955952E+02  0.54490511580E+02  0.23274745460E+03  0.00000000000E+00 0. -1.
         11    1    3    3    0    0 -0.17882130219E+03 -0.83009607686E+01  0.12998397801E+03  0.22122793360E+03  0.00000000000E+00 0.  1.
</event>
<event>
 7    1  0.4096326E-006  0.1024975E+03  0.7561462E-02  0.1275130E+00
          3   -1    0    0  501    0  0.00000000000E+00  0.00000000000E+00  0.17553724090E+02  0.17553724090E+02  0.00000000000E+00 0. -1.
         -3   -1    0    0    0  501 -0.00000000000E+00 -0.00000000000E+00 -0.72008599200E+03  0.72008599200E+03  0.00000000000E+00 0.  1.
         23    2    1    2    0    0 -0.38968279619E+01  0.17261536067E+02 -0.22572465464E+03  0.24438107621E+03  0.91963823334E+02 0.  0.
          5    1    1    2  502    0 -0.12001737264E+02  0.47999625177E+02 -0.11525571137E+03  0.12549644265E+03  0.41800000000E+01 0. -1.
         -5    1    1    2    0  502  0.15898565225E+02 -0.65261161244E+02 -0.36155190190E+03  0.36776219723E+03  0.41800000000E+01 0. -1.
        -11    1    3    3    0    0 -0.10764034191E+01  0.52589917616E+02 -0.91356488301E+02  0.10541757934E+03  0.00000000000E+00 0. -1.
         11    1    3    3    0    0 -0.28204245428E+01 -0.35328381549E+02 -0.13436816634E+03  0.13896349687E+03  0.00000000000E+00 0.  1.
</event>
<event>
 7    1  0.4096326E-006  0.1538331E+03  0.7561462E-02  0.1195840E+00
         -2   -1    0    0    0  501 -0.00000000000E+00  0.00000000000E+00  0.52124183797E+02  0.52124183797E+02  0.00000000000E+00 0.  1.
          2   -1    0    0  501    0  0.00000000000E+00 -0.00000000000E+00 -0.62403363140E+03  0.62403363140E+03  0.00000000000E+00 0. -1.
         23    2    1    2    0    0 -0.54642818559E+02  0.11783114735E+03 -0.38485517550E+03  0.41633583777E+03  0.91389314479E+02 0.  0.
          5    1    1    2  502    0 -0.22746912500E+02 -0.26446884145E+02  0.28785862624E+01  0.35250792447E+02  0.41800000000E+01 0. -1.
         -5    1    1    2    0  502  0.77389731059E+02 -0.91384263202E+02 -0.18993285837E+03  0.22457118498E+03  0.41800000000E+01 0. -1.
        -11    1    3    3    0    0 -0.27182577917E+02  0.12194937189E+03 -0.35085621928E+03  0.37243875799E+03  0.00000000000E+00 0. -1.
         11    1    3    3    0    0 -0.27460240642E+02 -0.41182245420E+01 -0.33998956221E+02  0.43897079784E+02  0.00000000000E+00 0.  1.
</event>
<event>
 7    1  0.4096326E-006  0.1245364E+03  0.7561462E-02  0.1235796E+00
          2   -1    0    0  501    0  0.00000000000E+00  0.00000000000E+00  0.50183419736E+02  0.50183419736E+02  0.00000000000E+00 0. -1.
         -2   -1    0    0    0  501 -0.00000000000E+00 -0.00000000000E+00 -0.37397807526E+03  0.37397807526E+03  0.00000000000E+00 0.  1.
         23    2    1    2    0    0 -0.48998834867E+02  0.59070691984E+02 -0.93224860070E+02  0.15084682537E+03  0.90408283468E+02 0.  0.
          5    1    1    2  502    0  0.88056341986E+02 -0.23635255213E+02 -0.16955816358E+03  0.19256164698E+03  0.41800000000E+01 0. -1.
         -5    1    1    2    0  502 -0.39057507120E+02 -0.35435436771E+02 -0.61011631874E+02  0.80753022640E+02  0.41800000000E+01 0. -1.
        -11    1    3    3    0    0  0.66507848144E+01  0.47625208566E+02 -0.84949387939E+01  0.48831930278E+02  0.00000000000E+00 0.  1.
         11    1    3    3    0    0 -0.55649619681E+02  0.11445483418E+02 -0.84729921276E+02  0.10201489509E+03  0.00000000000E+00 0. -1.
</event>
<event>
 7    1  0.4096326E-006  0.1515952E+03  0.7561462E-02  0.1198526E+00
          1   -1    0    0  501    0  0.00000000000E+00  0.00000000000E+00  0.38142314973E+03  0.38142314973E+03  0.00000000000E+00 0. -1.
         -1   -1    0    0    0  501 -0.00000000000E+00 -0.00000000000E+00 -0.27832972285E+03  0.27832972285E+03  0.00000000000E+00 0.  1.
         23    2    1    2    0    0 -0.11416743378E+03 -0.59027078321E+02  0.33433395961E+03  0.36711233680E+03  0.80460377645E+02 0.  0.
          5    1    1    2  502    0  0.13000230069E+03  0.70080421447E+02 -0.22931232118E+03  0.27278833681E+03  0.41800000000E+01 0.  1.
         -5    1    1    2    0  502 -0.15834866911E+02 -0.11053343126E+02 -0.19282115597E+01  0.19852198976E+02  0.41800000000E+01 0.  1.
        -11    1    3    3    0    0 -0.89936284482E+02 -0.23983353706E+02  0.29422846909E+03  0.30860027308E+03  0.00000000000E+00 0. -1.
         11    1    3    3    0    0 -0.24231149299E+02 -0.35043724614E+02  0.40105490527E+02  0.58512063727E+02  0.00000000000E+00 0.  1.
</event>
<event>
 7    1  0.4096326E-006  0.2818114E+03  0.7561462E-02  0.1094704E+00
          2   -1    0    0  501    0  0.00000000000E+00  0.00000000000E+00  0.50911746578E+03  0.50911746578E+03  0.00000000000E+00 0. -1.
         -2   -1    0    0    0  501 -0.00000000000E+00 -0.00000000000E+00 -0.16348651769E+03  0.16348651769E+03  0.00000000000E+00 0.  1.
         23    2    1    2    0    0  0.22412003012E+03 -0.14295994104E+03  0.20053038430E+03  0.34493042324E+03  0.89984605390E+02 0.  0.
          5    1    1    2  502    0  0.12713536377E+02  0.66814840112E+01 -0.51460425753E+01  0.15818672194E+02  0.41800000000E+01 0. -1.
         -5    1    1    2    0  502 -0.23683356650E+03  0.13627845703E+03  0.15024660637E+03  0.31185488804E+03  0.41800000000E+01 0. -1.
        -11    1    3    3    0    0  0.11828730639E+03 -0.33069631433E+02  0.12288840617E+03  0.17374420205E+03  0.00000000000E+00 0. -1.
         11    1    3    3    0    0  0.10583272374E+03 -0.10989030960E+03  0.77641978132E+02  0.17118622119E+03  0.00000000000E+00 0.  1.
</event>
<event>
 7    1  0.4096326E-006  0.1956444E+03  0.7561462E-02  0.1153467E+00
         -1   -1    0    0    0  501 -0.00000000000E+00  0.00000000000E+00  0.23614238318E+03  0.23614238318E+03  0.00000000000E+00 0.  1.
          1   -1    0    0  501    0  0.00000000000E+00 -0.00000000000E+00 -0.42848090325E+03  0.42848090325E+03  0.00000000000E+00 0. -1.
         23    2    1    2    0    0 -0.12534774446E+03  0.11190519042E+03 -0.35164509151E+03  0.40144895217E+03  0.96292066805E+02 0.  0.
          5    1    1    2  502    0 -0.10898749255E+02  0.17783559309E+02  0.14312173890E+02  0.25638807275E+02  0.41800000000E+01 0.  1.
         -5    1    1    2    0  502  0.13624649372E+03 -0.12968874973E+03  0.14499439756E+03  0.23753552698E+03  0.41800000000E+01 0.  1.
        -11    1    3    3    0    0 -0.45476307620E+02  0.13714094909E+01 -0.15927142332E+03  0.16564226999E+03  0.00000000000E+00 0. -1.
         11    1    3    3    0    0 -0.79871436840E+02  0.11053378093E+03 -0.19237366818E+03  0.23580668218E+03  0.00000000000E+00 0.  1.
</event>
<event>
 7    1  0.4096326E-006  0.1010316E+03  0.7561462E-02  0.1278142E+00
          2   -1    0    0  501    0  0.00000000000E+00  0.00000000000E+00  0.63583555624E+03  0.63583555624E+03  0.00000000000E+00 0. -1.
         -2   -1    0    0    0  501 -0.00000000000E+00 -0.00000000000E+00 -0.35308317611E+02  0.35308317611E+02  0.00000000000E+00 0.  1.
         23    2    1    2    0    0 -0.62735544269E+02  0.39459665399E+02  0.34730100367E+03  0.36660343209E+03  0.91034474591E+02 0.  0.
          5    1    1    2  502    0  0.50151525435E+02 -0.26172399388E+01  0.25996891812E+03  0.26480811210E+03  0.41800000000E+01 0. -1.
         -5    1    1    2    0  502  0.12584018835E+02 -0.36842425460E+02 -0.67426831560E+01  0.39732329657E+02  0.41800000000E+01 0.  1.
        -11    1    3    3    0    0 -0.28151383705E+02 -0.26101476489E+02  0.17278000479E+03  0.17699355224E+03  0.00000000000E+00 0.  1.
         11    1    3    3    0    0 -0.34584160565E+02  0.65561141888E+02  0.17452099887E+03  0.18960987985E+03  0.00000000000E+00 0. -1.
</event>
<event>
 7    1  0.4096326E-006  0.9121916E+02  0.7561462E-02  0.1299926E+00
          3   -1    0    0  501    0  0.00000000000E+00  0.00000000000E+00  0.30490473048E+02  0.30490473048E+02  0.00000000000E+00 0. -1.
         -3   -1    0    0    0  501 -0.00000000000E+00 -0.00000000000E+00 -0.40049059462E+03  0.40049059462E+03  0.00000000000E+00 0.  1.
         23    2    1    2    0    0  0.25352314987E+02 -0.11402227504E+02 -0.16298154734E+03  0.18751135323E+03  0.88457742165E+02 0.  0.
          5    1    1    2  502    0 -0.66406224689E+02 -0.21106144000E+02 -0.15272637505E+03  0.16792282164E+03  0.41800000000E+01 0. -1.
         -5    1    1    2    0  502  0.41053909702E+02  0.32508371504E+02 -0.54292199187E+02  0.75546892803E+02  0.41800000000E+01 0. -1.
        -11    1    3    3    0    0  0.41761525893E+02 -0.12673622978E+02 -0.16523329344E+03  0.17089964021E+03  0.00000000000E+00 0.  1.
         11    1    3    3    0    0 -0.16409210905E+02  0.12713954735E+01  0.22517460939E+01  0.16611713020E+02  0.00000000000E+00 0. -1.
</event>
<event>
 7    1  0.4096326E-006  0.8733203E+02  0.7561462E-02  0.1309444E+00
         -2   -1    0    0    0  501 -0.00000000000E+00  0.00000000000E+00  0.48795421395E+03  0.48795421395E+03  0.00000000000E+00 0.  1.
          2   -1    0    0  501    0  0.00000000000E+00 -0.00000000000E+00 -0.27910917187E+02  0.27910917187E+02  0.00000000000E+00 0. -1.
         23    2    1    2    0    0  0.33587461348E+01  0.34208415030E+02  0.17171278319E+03  0.19969543780E+03  0.95976513458E+02 0.  0.
          5    1    1    2  502    0  0.27298799291E+02 -0.31328147817E+02  0.20464982306E+02  0.46507689570E+02  0.41800000000E+01 0. -1.
         -5    1    1    2    0  502 -0.30657545426E+02 -0.28802672132E+01  0.26786553127E+03  0.26966200376E+03  0.41800000000E+01 0. -1.
        -11    1    3    3    0    0 -0.38317482813E+02  0.44674178994E+02  0.94436629786E+02  0.11127573322E+03  0.00000000000E+00 0.  1.
         11    1    3    3    0    0  0.41676228948E+02 -0.10465763964E+02  0.77276153399E+02  0.88419704585E+02  0.00000000000E+00 0. -1.
</event>
<event>
 7    1  0.4096326E-006  0.2330098E+03  0.7561462E-02  0.1124539E+00
          1   -1    0    0  501    0  0.00000000000E+00  0.00000000000E+00  0.54340719410E+03  0.54340719410E+03  0.00000000000E+00 0. -1.
         -1   -1    0    0    0  501 -0.00000000000E+00 -0.00000000000E+00 -0.10878299970E+03  0.10878299970E+03  0.00000000000E+00 0.  1.
         23    2    1    2    0    0 -0.15894396970E+01  0.21585575593E+03  0.24283965278E+03  0.33751109611E+03  0.91358685124E+02 0.  0.
          5    1    1    2  502    0 -0.21649305037E+02 -0.22331232576E+03  0.17732921005E+03  0.28600735722E+03  0.41800000000E+01 0. -1.
         -5    1    1    2    0  502  0.23238744734E+02  0.74565698295E+01  0.14455331575E+02  0.28671740467E+02  0.41800000000E+01 0. -1.
        -11    1    3    3    0    0 -0.10365038602E+02  0.72614750367E+02  0.14890836939E+03  0.16599409167E+03  0.00000000000E+00 0.  1.
         11    1    3    3    0    0  0.87755989046E+01  0.14324100557E+03  0.93931283388E+02  0.17151700444E+03  0.00000000000E+00 0. -1.
</event>
<event>
 6    1  0.4096326E-006  0.5808207E+02  0.7561462E-02  0.1406061E+00
          3   -1    0    0  501    0  0.00000000000E+00  0.00000000000E+00  0.24396310819E+03  0.24396310819E+03  0.00000000000E+00 0. -1.
         -3   -1    0    0    0  501 -0.00000000000E+00 -0.00000000000E+00 -0.32761125853E+02  0.32761125853E+02  0.00000000000E+00 0.  1.
          5    1    1    2  502    0  0.22092994985E+02 -0.45703689770E+01  0.13761728258E+03  0.13951694365E+03  0.41800000000E+01 0. -1.
         -5    1    1    2    0  502 -0.50224485581E+02 -0.84848888785E+01  0.29586421714E+01  0.51192951220E+02  0.41800000000E+01 0. -1.
        -11    1    1    2    0    0  0.58866676895E+01 -0.90211702613E+01  0.25484463799E+01  0.11069279485E+02  0.00000000000E+00 0.  1.
         11    1    1    2    0    0  0.22244822907E+02  0.22076428117E+02  0.68077611197E+02  0.74945059682E+02  0.00000000000E+00 0. -1.
</event>
<event>
 7    1  0.4096326E-006  0.7915818E+02  0.7561462E-02  0.1331458E+00
         -2   -1    0    0    0  501 -0.00000000000E+00  0.00000000000E+00  0.53347931436E+02  0.53347931436E+02  0.00000000000E+00 0.  1.
          2   -1    0    0  501    0  0.00000000000E+00 -0.00000000000E+00 -0.26303379194E+03  0.26303379194E+03  0.00000000000E+00 0. -1.
         23    2    1    2    0    0  0.42303326767E+02 -0.64090012434E+01 -0.10052774397E+03  0.14493620844E+03  0.95236707507E+02 0.  0.
          5    1    1    2  502    0 -0.46020946599E+02 -0.12640733690E+00  0.13768601584E+02  0.48218153162E+02  0.41800000000E+01 0. -1.
         -5    1    1    2    0  502  0.37176198320E+01  0.65354085803E+01 -0.12292671811E+03  0.12322736177E+03  0.41800000000E+01 0. -1.
        -11    1    3    3    0    0  0.41188873512E+02 -0.47229794031E+02 -0.69983866025E+02  0.93941036024E+02  0.00000000000E+00 0.  1.
         11    1    3    3    0    0  0.11144532551E+01  0.40820792788E+02 -0.30543877946E+02  0.50995172417E+02  0.00000000000E+00 0. -1.
</event>
<event>
 7    1  0.4096326E-006  0.2162658E+03  0.7561462E-02  0.1136698E+00
         -1   -1    0    0    0  501 -0.00000000000E+00  0.00000000000E+00  0.94579699223E+02  0.94579699223E+02  0.00000000000E+00 0.  1.
          1   -1    0    0  501    0  0.00000000000E+00 -0.00000000000E+00 -0.54093341636E+03  0.54093341636E+03  0.00000000000E+00 0. -1.
         23    2    1    2    0    0  0.49007040085E+02 -0.19196148212E+03 -0.24159224828E+03  0.32434515625E+03  0.87075055862E+02 0.  0.
          5    1    1    2  502    0 -0.89880602451E+02  0.10621408252E+03 -0.11975757970E+03  0.18362816864E+03  0.41800000000E+01 0. -1.
         -5    1    1    2    0  502  0.40873562365E+02  0.85747399602E+02 -0.85003889153E+02  0.12753979069E+03  0.41800000000E+01 0. -1.
        -11    1    3    3    0    0  0.12349588424E+02 -0.61752544763E+02 -0.14512711235E+03  0.15820166832E+03  0.00000000000E+00 0. -1.
         11    1    3    3    0    0  0.36657451662E+02 -0.13020893736E+03 -0.96465135930E+02  0.16614348793E+03  0.00000000000E+00 0.  1.
</event>
<event>
 7    1  0.4096326E-006  0.1162099E+03  0.7561462E-02  0.1249484E+00
          1   -1    0    0  501    0  0.00000000000E+00  0.00000000000E+00  0.29227859631E+03  0.29227859631E+03  0.00000000000E+00 0. -1.
         -1   -1    0    0    0  501 -0.00000000000E+00 -0.00000000000E+00 -0.58267401027E+02  0.58267401027E+02  0.00000000000E+00 0.  1.
         23    2    1    2    0    0 -0.20101270172E+02 -0.49099052144E+02  0.16946222558E+03  0.20011818624E+03  0.92277107572E+02 0.  0.
          5    1    1    2  502    0  0.52016203421E+02  0.71732298741E+02  0.66754959116E+02  0.11101758900E+03  0.41800000000E+01 0. -1.
         -5    1    1    2    0  502 -0.31914933249E+02 -0.22633246598E+02 -0.22059894184E+01  0.39410222090E+02  0.41800000000E+01 0. -1.
        -11    1    3    3    0    0  0.27498104408E+02 -0.49657869512E+02  0.72288648216E+02  0.91911361710E+02  0.00000000000E+00 0.  1.
         11    1    3    3    0    0 -0.47599374580E+02  0.55881736890E+00  0.97173577366E+02  0.10820682453E+03  0.00000000000E+00 0. -1.
</event>
<event>
 7    1  0.4096326E-006  0.1383088E+03  0.7561462E-02  0.1215623E+00
         -2   -1    0    0    0  501 -0.00000000000E+00  0.00000000000E+00  0.58568791152E+02  0.58568791152E+02  0.00000000000E+00 0. -1.
          2   -1    0    0  501    0  0.00000000000E+00 -0.00000000000E+00 -0.61206484070E+03  0.61206484070E+03  0.00000000000E+00 0.  1.
         23    2    1    2    0    0 -0.73036290423E+02  0.81129697454E+02 -0.45698562128E+03  0.47859788282E+03  0.91124902489E+02 0.  0.
          5    1    1    2  502    0  0.81612613661E+02 -0.10377785925E+03 -0.53529487448E+02  0.14252487925E+03  0.41800000000E+01 0.  1.
         -5    1    1    2    0  502 -0.85763232379E+01  0.22648161795E+02 -0.42980940819E+02  0.49510869783E+02  0.41800000000E+01 0.  1.
        -11    1    3    3    0    0 -0.51589499517E+02  0.20279498030E+02 -0.87924848454E+02  0.10393995130E+03  0.00000000000E+00 0. -1.
         11    1    3    3    0    0 -0.21446790906E+02  0.60850199424E+02 -0.36906077282E+03  0.37465793152E+03  0.00000000000E+00 0.  1.
</event>
<event>
 7    1  0.4096326E-006  0.1103327E+03  0.7561462E-02  0.1259955E+00
          3   -1    0    0  501    0  0.00000000000E+00  0.00000000000E+00  0.17810356390E+02  0.17810356390E+02  0.00000000000E+00 0. -1.
         -3   -1    0    0    0  501 -0.00000000000E+00 -0.00000000000E+00 -0.90634673030E+03  0.90634673030E+03  0.00000000000E+00 0.  1.
         23    2    1    2    0    0  0.36032085749E+02  0.45909283839E+02 -0.25217941332E+03  0.27300110978E+03  0.86770823977E+02 0.  0.
          5    1    1    2  502    0  0.38241907873E+02  0.10179757115E+02 -0.11900512411E+03  0.12548212198E+03  0.41800000000E+01 0. -1.
         -5    1    1    2    0  502 -0.74273993622E+02 -0.56089040954E+02 -0.51735183649E+03  0.52567385493E+03  0.41800000000E+01 0. -1.
        -11    1    3    3    0    0 -0.41168333003E+01  0.47351241906E+02 -0.20767957057E+03  0.21304903768E+03  0.00000000000E+00 0.  1.
         11    1    3    3    0    0  0.40148919049E+02 -0.14419580667E+01 -0.44499842749E+02  0.59952072096E+02  0.00000000000E+00 0. -1.
</event>
<event>
 7    1  0.4096326E-006  0.1377393E+03  0.7561462E-02  0.1216404E+00
          1   -1    0    0  501    0  0.00000000000E+00  0.00000000000E+00  0.10604507599E+03  0.10604507599E+03  0.00000000000E+00 0. -1.
         -1   -1    0    0    0  501 -0.00000000000E+00 -0.00000000000E+00 -0.30610344344E+03  0.30610344344E+03  0.00000000000E+00 0.  1.
         23    2    1    2    0    0  0.11618002937E+03  0.42482915820E+02 -0.91929586639E+01  0.15257351670E+03  0.88834509897E+02 0.  0.
          5    1    1    2  502    0 -0.76224762645E+02  0.12800900234E+01 -0.18468932467E+03  0.19984862301E+03  0.41800000000E+01 0.  1.
         -5    1    1    2    0  502 -0.39955266724E+02 -0.43763005844E+02 -0.61760841209E+01  0.59726379721E+02  0.41800000000E+01 0.  1.
        -11    1    3    3    0    0  0.65410300623E+02 -0.10606410243E+02 -0.34716342389E+02  0.74807939383E+02  0.00000000000E+00 0.  1.
         11    1    3    3    0    0  0.50769728746E+02  0.53089326064E+02  0.25523383725E+02  0.77765577318E+02  0.00000000000E+00 0. -1.
</event>
<event>
 7    1  0.4096326E-006  0.1900541E+03  0.7561462E-02  0.1158413E+00
         -1   -1    0    0    0  501 -0.00000000000E+00  0.00000000000E+00  0.25107487197E+03  0.25107487197E+03  0.00000000000E+00 0.  1.
          1   -1    0    0  501    0  0.00000000000E+00 -0.00000000000E+00 -0.15112458174E+03  0.15112458174E+03  0.00000000000E+00 0. -1.
         23    2    1    2    0    0 -0.11681209700E+03 -0.10994548464E+03  0.73464622665E+02  0.19821794412E+03  0.90333974720E+02 0.  0.
          5    1    1    2  502    0  0.11938309024E+03  0.13257410691E+03  0.18158699560E+02  0.17937510091E+03  0.41800000000E+01 0. -1.
         -5    1    1    2    0  502 -0.25709932480E+01 -0.22628622262E+02  0.83269680131E+01  0.24606408678E+02  0.41800000000E+01 0.  1.
        -11    1    3    3    0    0 -0.11534301933E+03 -0.12110532136E+03  0.54022505066E+02  0.17575250218E+03  0.00000000000E+00 0.  1.
         11    1    3    3    0    0 -0.14690776706E+01  0.11159836716E+02  0.19442117599E+02  0.22465441938E+02  0.00000000000E+00 0. -1.
</event>
<event>
 7    1  0.4096326E-006  0.1292378E+03  0.7561462E-02  0.1228591E+00
          3   -1    0    0  501    0  0.00000000000E+00  0.00000000000E+00  0.94546256614E+03  0.94546256614E+03  0.00000000000E+00 0. -1.
         -3   -1    0    0    0  501 -0.00000000000E+00 -0.00000000000E+00 -0.26849778457E+02  0.26849778457E+02  0.00000000000E+00 0.  1.
         23    2    1    2    0    0 -0.52356222651E+02  0.96863002888E+02  0.50428330038E+03  0.52572472846E+03  0.99805950176E+02 0.  0.
          5    1    1    2  502    0  0.17751813615E+02 -0.34982887183E+02  0.16995902411E+02  0.42956517329E+02  0.41800000000E+01 0.  1.
         -5    1    1    2    0  502  0.34604409036E+02 -0.61880115705E+02  0.39733358489E+03  0.40363109881E+03  0.41800000000E+01 0.  1.
        -11    1    3    3    0    0  0.12419836125E+02  0.80148226495E+02  0.29977384612E+03  0.31055168549E+03  0.00000000000E+00 0.  1.
         11    1    3    3    0    0 -0.64776058776E+02  0.16714776393E+02  0.20450945425E+03  0.21517304297E+03  0.00000000000E+00 0. -1.
</event>
<event>
 7    1  0.4096326E-006  0.8976614E+02  0.7561462E-02  0.1303419E+00
         -2   -1    0    0    0  501 -0.00000000000E+00  0.00000000000E+00  0.24991628991E+03  0.24991628991E+03  0.00000000000E+00 0.  1.
          2   -1    0    0  501    0  0.00000000000E+00 -0.00000000000E+00 -0.51863120937E+02  0.51863120937E+02  0.00000000000E+00 0. -1.
         23    2    1    2    0    0  0.55046944788E+01 -0.28238142716E+02  0.67370158179E+02  0.11860425183E+03  0.93276663610E+02 0.  0.
          5    1    1    2  502    0 -0.32120690857E+02 -0.35931263963E+02  0.19823370993E+02  0.52280330418E+02  0.41800000000E+01 0.  1.
         -5    1    1    2    0  502  0.26615996379E+02  0.64169406678E+02  0.11085963980E+03  0.13089482860E+03  0.41800000000E+01 0.  1.
        -11    1    3    3    0    0 -0.12847985565E+02 -0.38462400410E+02 -0.71520532505E+01  0.41177406962E+02  0.00000000000E+00 0. -1.
         11    1    3    3    0    0  0.18352680044E+02  0.10224257695E+02  0.74522211429E+02  0.77426844870E+02  0.00000000000E+00 0.  1.
</event>
<event>
 7    1  0.4096326E-006  0.1839444E+03  0.7561462E-02  0.1164039E+00
          4   -1    0    0  501    0  0.00000000000E+00  0.00000000000E+00  0.71081537521E+02  0.71081537521E+02  0.00000000000E+00 0. -1.
         -4   -1    0    0    0  501 -0.00000000000E+00 -0.00000000000E+00 -0.55751716975E+03  0.55751716975E+03  0.00000000000E+00 0.  1.
         23    2    1    2    0    0 -0.47415780639E+02 -0.15619647791E+03 -0.19758823714E+03  0.27402190196E+03  0.96960277108E+02 0.  0.
          5    1    1    2  502    0 -0.39041223078E+02  0.79838195223E+02 -0.10657091099E+03  0.13882790060E+03  0.41800000000E+01 0. -1.
         -5    1    1    2    0  502  0.86457003716E+02  0.76358282682E+02 -0.18227648410E+03  0.21574890470E+03  0.41800000000E+01 0. -1.
        -11    1    3    3    0    0 -0.35957845672E+02 -0.10359243234E+03 -0.57228085313E+02  0.12369079373E+03  0.00000000000E+00 0. -1.
         11    1    3    3    0    0 -0.11457934966E+02 -0.52604045561E+02 -0.14036015183E+03  0.15033110824E+03  0.00000000000E+00 0.  1.
</event>
<event>
 7    1  0.4096326E-006  0.1722495E+03  0.7561462E-02  0.1175522E+00
          1   -1    0    0  501    0  0.00000000000E+00  0.00000000000E+00  0.41317609568E+03  0.41317609568E+03  0.00000000000E+00 0. -1.
         -1   -1    0    0    0  501 -0.00000000000E+00 -0.00000000000E+00 -0.78023012725E+02  0.78023012725E+02  0.00000000000E+00 0.  1.
         23    2    1    2    0    0 -0.12736811018E+03  0.49091419402E+02  0.10340878634E+03  0.19457650637E+03  0.92379850569E+02 0.  0.
          5    1    1    2  502    0  0.50661849771E+01 -0.58776210349E+02  0.50779014062E+02  0.77950559987E+02  0.41800000000E+01 0.  1.
         -5    1    1    2    0  502  0.12230192520E+03  0.96847909465E+01  0.18096528255E+03  0.21867204205E+03  0.41800000000E+01 0.  1.
        -11    1    3    3    0    0 -0.49311047171E+02  0.66341388063E+02  0.36626807581E+02  0.90411736941E+02  0.00000000000E+00 0.  1.
         11    1    3    3    0    0 -0.78057063005E+02 -0.17249968660E+02  0.66781978760E+02  0.10416476943E+03  0.00000000000E+00 0. -1.
</event>
<event>
 7    1  0.4096326E-006  0.1369346E+03  0.7561462E-02  0.1217514E+00
          2   -1    0    0  501    0  0.00000000000E+00  0.00000000000E+00  0.18311670549E+03  0.18311670549E+03  0.00000000000E+00 0. -1.
         -2   -1    0    0    0  501 -0.00000000000E+00 -0.00000000000E+00 -0.13483913843E+03  0.13483913843E+03  0.00000000000E+00 0.  1.
         23    2    1    2    0    0 -0.62963721787E+02  0.74523406646E+02  0.68530865343E+02  0.14795638548E+03  0.87615318869E+02 0.  0.
          5    1    1    2  502    0 -0.18904700279E+02 -0.69284599269E+02  0.25070847051E+02  0.76182433411E+02  0.41800000000E+01 0. -1.
         -5    1    1    2    0  502  0.81868422066E+02 -0.52388073763E+01 -0.45324145343E+02  0.93817025029E+02  0.41800000000E+01 0.  1.
        -11    1    3    3    0    0 -0.10118507411E+01  0.54746637901E+02  0.18106953371E+01  0.54785918091E+02  0.00000000000E+00 0.  1.
         11    1    3    3    0    0 -0.61951871046E+02  0.19776768744E+02  0.66720170006E+02  0.93170467390E+02  0.00000000000E+00 0. -1.
</event>
<event>
 7    1  0.4096326E-006  0.1489178E+03  0.7561462E-02  0.1201809E+00
         -1   -1    0    0    0  501 -0.00000000000E+00  0.00000000000E+00  0.30196061649E+02  0.30196061649E+02  0.00000000000E+00 0.  1.
          1   -1    0    0  501    0  0.00000000000E+00 -0.00000000000E+00 -0.79563695660E+03  0.79563695660E+03  0.00000000000E+00 0. -1.
         23    2    1    2    0    0  0.10041469242E+03  0.23227969777E+02 -0.45623949071E+03  0.47672680252E+03  0.92148371265E+02 0.  0.
          5    1    1    2  502    0 -0.11700716436E+03  0.16976833068E+02 -0.22091597178E+03  0.25059973735E+03  0.41800000000E+01 0.  1.
         -5    1    1    2    0  502  0.16592471946E+02 -0.40204802845E+02 -0.88285432468E+02  0.98506478382E+02  0.41800000000E+01 0.  1.
        -11    1    3    3    0    0  0.56581379472E+02 -0.32252569804E+02 -0.26342784946E+03  0.27135937912E+03  0.00000000000E+00 0.  1.
         11    1    3    3    0    0  0.43833312944E+02  0.55480539581E+02 -0.19281164124E+03  0.20536742340E+03  0.00000000000E+00 0. -1.
</event>
<event>
 7    1  0.4096326E-006  0.1401005E+03  0.7561462E-02  0.1213194E+00
         -2   -1    0    0    0  501 -0.00000000000E+00  0.00000000000E+00  0.19021420298E+02  0.19021420298E+02  0.00000000000E+00 0.  1.
          2   -1    0    0  501    0  0.00000000000E+00 -0.00000000000E+00 -0.14531578818E+04  0.14531578818E+04  0.00000000000E+00 0. -1.
         23    2    1    2    0    0  0.97776005060E+02  0.80633218278E+02 -0.70925860541E+03  0.72575129444E+03  0.87208422622E+02 0.  0.
          5    1    1    2  502    0  0.14553319896E+01 -0.26546244539E+01 -0.36505653804E+03  0.36509302019E+03  0.41800000000E+01 0. -1.
         -5    1    1    2    0  502 -0.99231337049E+02 -0.77978593824E+02 -0.35982131806E+03  0.38133498748E+03  0.41800000000E+01 0. -1.
        -11    1    3    3    0    0 -0.57784887449E+01  0.35221341300E+02 -0.10224426176E+03  0.10829507319E+03  0.00000000000E+00 0.  1.
         11    1    3    3    0    0  0.10355449380E+03  0.45411876978E+02 -0.60701434365E+03  0.61745622124E+03  0.00000000000E+00 0. -1.
</event>
<event>
 7    1  0.4096326E-006  0.1061074E+03  0.7561462E-02  0.1267953E+00
         -2   -1    0    0    0  501 -0.00000000000E+00  0.00000000000E+00  0.54788281628E+02  0.54788281628E+02  0.00000000000E+00 0.  1.
          2   -1    0    0  501    0  0.00000000000E+00 -0.00000000000E+00 -0.44697688004E+03  0.44697688004E+03  0.00000000000E+00 0. -1.
         23    2    1    2    0    0 -0.80041535576E+02 -0.49771231845E+02 -0.21791027671E+03  0.25495053499E+03  0.92903518019E+02 0.  0.
          5    1    1    2  502    0  0.81738243919E+02  0.33793697883E+02 -0.19855466615E+03  0.21740419128E+03  0.41800000000E+01 0. -1.
         -5    1    1    2    0  502 -0.16967083430E+01  0.15977533962E+02  0.24276344446E+02  0.29410435400E+02  0.41800000000E+01 0.  1.
        -11    1    3    3    0    0 -0.33673470742E+02  0.63500511213E+01 -0.15497841163E+03  0.15872156076E+03  0.00000000000E+00 0.  1.
         11    1    3    3    0    0 -0.46368064834E+02 -0.56121282966E+02 -0.62931865084E+02  0.96228974229E+02  0.00000000000E+00 0. -1.
</event>
<event>
 7    1  0.4096326E-006  0.8389088E+02  0.7561462E-02  0.1318359E+00
         -2   -1    0    0    0  501 -0.00000000000E+00  0.00000000000E+00  0.12180114439E+03  0.12180114439E+03  0.00000000000E+00 0.  1.
          2   -1    0    0  501    0  0.00000000000E+00 -0.00000000000E+00 -0.97315419500E+02  0.97315419500E+02  0.00000000000E+00 0. -1.
         23    2    1    2    0    0 -0.10956057116E+02 -0.15141876930E+01 -0.14611939370E+01  0.90885958717E+02  0.90198638861E+02 0.  0.
          5    1    1    2  502    0 -0.16696039781E+02  0.31522790425E+02  0.63282371410E+02  0.72763830244E+02  0.41800000000E+01 0. -1.
         -5    1    1    2    0  502  0.27652096896E+02 -0.30008602732E+02 -0.37335452587E+02  0.55466774925E+02  0.41800000000E+01 0. -1.
        -11    1    3    3    0    0  0.39926867098E+02  0.37282068526E+00 -0.17560163470E+01  0.39967202866E+02  0.00000000000E+00 0. -1.
         11    1    3    3    0    0 -0.50882924214E+02 -0.18870083783E+01  0.29482240999E+00  0.50918755851E+02  0.00000000000E+00 0.  1.
</event>
<event>
 7    1  0.4096326E-006  0.1035669E+03  0.7561462E-02  0.1272969E+00
          1   -1    0    0  501    0  0.00000000000E+00  0.00000000000E+00  0.46642950792E+03  0.46642950792E+03  0.00000000000E+00 0. -1.
         -1   -1    0    0    0  501 -0.00000000000E+00 -0.00000000000E+00 -0.28423264865E+02  0.28423264865E+02  0.00000000000E+00 0.  1.
         23    2    1    2    0    0 -0.19418794295E+02  0.25222255086E+02  0.23492619864E+03  0.25422220794E+03  0.91789762405E+02 0.  0.
          5    1    1    2  502    0 -0.52404972393E+02 -0.99808147982E+00  0.72017053614E+02  0.89169533527E+02  0.41800000000E+01 0. -1.
         -5    1    1    2    0  502  0.71823766688E+02 -0.24224173606E+02  0.13106299080E+03  0.15146103131E+03  0.41800000000E+01 0. -1.
        -11    1    3    3    0    0 -0.33144212296E+02  0.44182302724E+02  0.21913131911E+03  0.22598484396E+03  0.00000000000E+00 0. -1.
         11    1    3    3    0    0  0.13725418001E+02 -0.18960047638E+02  0.15794879528E+02  0.28237363989E+02  0.00000000000E+00 0.  1.
</event>
<event>
 7    1  0.4096326E-006  0.6973899E+02  0.7561462E-02  0.1360983E+00
         -1   -1    0    0    0  501 -0.00000000000E+00  0.00000000000E+00  0.19602658013E+03  0.19602658013E+03  0.00000000000E+00 0.  1.
          1   -1    0    0  501    0  0.00000000000E+00 -0.00000000000E+00 -0.86576482565E+02  0.86576482565E+02  0.00000000000E+00 0. -1.
         23    2    1    2    0    0  0.13644359656E+02  0.39406294890E+02 -0.13275288250E+02  0.10246983961E+03  0.92654250437E+02 0.  0.
          5    1    1    2  502    0  0.99839413749E+01 -0.37714754689E+02  0.14324113667E+03  0.14851793642E+03  0.41800000000E+01 0.  1.
         -5    1    1    2    0  502 -0.23628301031E+02 -0.16915402010E+01 -0.20515750849E+02  0.31615286663E+02  0.41800000000E+01 0.  1.
        -11    1    3    3    0    0  0.14646312218E+02 -0.15468395048E+02 -0.36987038933E+02  0.42682862556E+02  0.00000000000E+00 0. -1.
         11    1    3    3    0    0 -0.10019525621E+01  0.54874689938E+02  0.23711750683E+02  0.59786977053E+02  0.00000000000E+00 0.  1.
</event>
<event>
 7    1  0.4096326E-006  0.1844684E+03  0.7561462E-02  0.1163547E+00
         -2   -1    0    0    0  501 -0.00000000000E+00  0.00000000000E+00  0.12907427515E+03  0.12907427515E+03  0.00000000000E+00 0. -1.
          2   -1    0    0  501    0  0.00000000000E+00 -0.00000000000E+00 -0.34930047838E+03  0.34930047838E+03  0.00000000000E+00 0.  1.
         23    2    1    2    0    0  0.18088251537E+03  0.12545774197E+01 -0.80493623232E+02  0.21781517411E+03  0.90797402838E+02 0.  0.
          5    1    1    2  502    0 -0.11130710936E+03  0.16244954190E+02 -0.15045236836E+03  0.18790039562E+03  0.41800000000E+01 0.  1.
         -5    1    1    2    0  502 -0.69575406006E+02 -0.17499531610E+02  0.10719788353E+02  0.72659183796E+02  0.41800000000E+01 0.  1.
        -11    1    3    3    0    0  0.78797273086E+02  0.18594319598E+02 -0.80637108594E+02  0.11426767806E+03  0.00000000000E+00 0.  1.
         11    1    3    3    0    0  0.10208524228E+03 -0.17339742178E+02  0.14348536144E+00  0.10354749605E+03  0.00000000000E+00 0. -1.
</event>
<event>
 7    1  0.4096326E-006  0.1087340E+03  0.7561462E-02  0.1262932E+00
          2   -1    0    0  501    0  0.00000000000E+00  0.00000000000E+00  0.26467006122E+03  0.26467006122E+03  0.00000000000E+00 0. -1.
         -2   -1    0    0    0  501 -0.00000000000E+00 -0.00000000000E+00 -0.10163758444E+03  0.10163758444E+03  0.00000000000E+00 0.  1.
         23    2    1    2    0    0  0.63185948927E+01  0.65843032688E+02  0.19123314094E+03  0.22200027554E+03  0.91316912734E+02 0.  0.
          5    1    1    2  502    0  0.44058195400E+02 -0.58180512950E+02 -0.50169709941E+02  0.88659849224E+02  0.41800000000E+01 0. -1.
         -5    1    1    2    0  502 -0.50376790292E+02 -0.76625197387E+01  0.21969045786E+02  0.55647520894E+02  0.41800000000E+01 0. -1.
        -11    1    3    3    0    0 -0.25722941833E+02  0.76950169789E+01  0.94354504047E+01  0.28458930886E+02  0.00000000000E+00 0.  1.
         11    1    3    3    0    0  0.32041536725E+02  0.58148015709E+02  0.18179769054E+03  0.19354134466E+03  0.00000000000E+00 0. -1.
</event>
<event>
 7    1  0.4096326E-006  0.9378939E+02  0.7561462E-02  0.1293926E+00
          1   -1    0    0  501    0  0.00000000000E+00  0.00000000000E+00  0.63080033980E+03  0.63080033980E+03  0.00000000000E+00 0. -1.
         -1   -1    0    0    0  501 -0.00000000000E+00 -0.00000000000E+00 -0.26521783053E+02  0.26521783053E+02  0.00000000000E+00 0.  1.
         23    2    1    2    0    0  0.23890596273E+02  0.65916687943E+02  0.30766798195E+03  0.32784130029E+03  0.88907596535E+02 0.  0.
          5    1    1    2  502    0 -0.74744638364E+01 -0.27011106569E+01 -0.11446541261E+02  0.14548515912E+02  0.41800000000E+01 0. -1.
         -5    1    1    2    0  502 -0.16416132436E+02 -0.63215577286E+02  0.30805711606E+03  0.31493230665E+03  0.41800000000E+01 0. -1.
        -11    1    3    3    0    0  0.37288388579E+02  0.83265261514E+02  0.24326490255E+03  0.25981020094E+03  0.00000000000E+00 0.  1.
         11    1    3    3    0    0 -0.13397792306E+02 -0.17348573571E+02  0.64403079396E+02  0.68031099354E+02  0.00000000000E+00 0. -1.
</event>
<event>
 7    1  0.4096326E-006  0.1670325E+03  0.7561462E-02  0.1180978E+00
          4   -1    0    0  501    0  0.00000000000E+00  0.00000000000E+00  0.26079683587E+03  0.26079683587E+03  0.00000000000E+00 0. -1.
         -4   -1    0    0    0  501 -0.00000000000E+00 -0.00000000000E+00 -0.16744307023E+03  0.16744307023E+03  0.00000000000E+00 0.  1.
         23    2    1    2    0    0  0.28244582768E+01  0.10704479553E+03  0.16604525623E+03  0.21682257774E+03  0.89299704860E+02 0.  0.
          5    1    1    2  502    0  0.50563349745E+02  0.22761270357E+02 -0.36139662788E+02  0.66319494812E+02  0.41800000000E+01 0. -1.
         -5    1    1    2    0  502 -0.53387808022E+02 -0.12980606589E+03 -0.36551827799E+02  0.14509783355E+03  0.41800000000E+01 0.  1.
        -11    1    3    3    0    0  0.38881407322E+02  0.19790736988E+02  0.38855949750E+02  0.58422786110E+02  0.00000000000E+00 0.  1.
         11    1    3    3    0    0 -0.36056949046E+02  0.87254058542E+02  0.12718930648E+03  0.15839979163E+03  0.00000000000E+00 0. -1.
</event>
<event>
 7    1  0.4096326E-006  0.7965644E+02  0.7561462E-02  0.1330029E+00
          1   -1    0    0  501    0  0.00000000000E+00  0.00000000000E+00  0.30085920628E+03  0.30085920628E+03  0.00000000000E+00 0. -1.
         -1   -1    0    0    0  501 -0.00000000000E+00 -0.00000000000E+00 -0.40197905411E+02  0.40197905411E+02  0.00000000000E+00 0.  1.
         23    2    1    2    0    0  0.62416452158E+01 -0.86497680820E+01  0.13508657137E+03  0.16348773612E+03  0.91466285994E+02 0.  0.
          5    1    1    2  502    0 -0.56449902818E+00 -0.51188023731E+02  0.18285080171E+02  0.54519253383E+02  0.41800000000E+01 0.  1.
         -5    1    1    2    0  502 -0.56771461876E+01  0.59837791813E+02  0.10728964933E+03  0.12305012219E+03  0.41800000000E+01 0.  1.
        -11    1    3    3    0    0  0.25992897214E+02 -0.10120805129E+02  0.14026852579E+03  0.14301510665E+03  0.00000000000E+00 0. -1.
         11    1    3    3    0    0 -0.19751251998E+02  0.14710370475E+01 -0.51819544269E+01  0.20472629464E+02  0.00000000000E+00 0.  1.
</event>
<event>
 7    1  0.4096326E-006  0.1199422E+03  0.7561462E-02  0.1243192E+00
         -3   -1    0    0    0  501 -0.00000000000E+00  0.00000000000E+00  0.78836559472E+03  0.78836559472E+03  0.00000000000E+00 0.  1.
          3   -1    0    0  501    0  0.00000000000E+00 -0.00000000000E+00 -0.29601409024E+02  0.29601409024E+02  0.00000000000E+00 0. -1.
         23    2    1    2    0    0 -0.77460581769E+02 -0.38591082885E+02  0.17795498749E+03  0.21757088505E+03  0.90441688622E+02 0.  0.
          5    1    1    2  502    0  0.36889860431E+02 -0.34858792131E+02  0.36958223067E+03  0.37307438242E+03  0.41800000000E+01 0. -1.
         -5    1    1    2    0  502  0.40570721338E+02  0.73449875017E+02  0.21122696754E+03  0.22732173628E+03  0.41800000000E+01 0. -1.
        -11    1    3    3    0    0 -0.17335572333E+02  0.16105631833E+02  0.10728340892E+03  0.10986192823E+03  0.00000000000E+00 0.  1.
         11    1    3    3    0    0 -0.60125009435E+02 -0.54696714719E+02  0.70671578568E+02  0.10770895681E+03  0.00000000000E+00 0. -1.
</event>
<event>
 7    1  0.4096326E-006  0.1504661E+03  0.7561462E-02  0.1199901E+00
          1   -1    0    0  501    0  0.00000000000E+00  0.00000000000E+00  0.24469929173E+03  0.24469929173E+03  0.00000000000E+00 0. -1.
         -1   -1    0    0    0  501 -0.00000000000E+00 -0.00000000000E+00 -0.19401188674E+03  0.19401188674E+03  0.00000000000E+00 0.  1.
         23    2    1    2    0    0 -0.59963449812E+01 -0.19375751320E+02  0.10256392716E+03  0.13421125582E+03  0.84154180778E+02 0.  0.
          5    1    1    2  502    0 -0.27901012983E+02  0.11382386796E+03  0.77613618420E+02  0.14062604882E+03  0.41800000000E+01 0. -1.
         -5    1    1    2    0  502  0.33897357964E+02 -0.94448116637E+02 -0.12949014059E+03  0.16387387383E+03  0.41800000000E+01 0.  1.
        -11    1    3    3    0    0  0.20842619458E+02 -0.42801047591E+02  0.76372956071E+02  0.89995404770E+02  0.00000000000E+00 0. -1.
         11    1    3    3    0    0 -0.26838964439E+02  0.23425296271E+02  0.26190971086E+02  0.44215851049E+02  0.00000000000E+00 0.  1.
</event>
<event>
 7    1  0.4096326E-006  0.1724979E+03  0.7561462E-02  0.1175268E+00
         -1   -1    0    0    0  501 -0.00000000000E+00  0.00000000000E+00  0.28563977761E+02  0.28563977761E+02  0.00000000000E+00 0.  1.
          1   -1    0    0  501    0  0.00000000000E+00 -0.00000000000E+00 -0.11255753242E+04  0.11255753242E+04  0.00000000000E+00 0. -1.
         23    2    1    2    0    0  0.70607129443E+02 -0.11897676818E+03 -0.62447680308E+03  0.64612622655E+03  0.91471224734E+02 0.  0.
          5    1    1    2  502    0 -0.38239906805E+02 -0.17777157902E+02 -0.15611930251E+03  0.16176843584E+03  0.41800000000E+01 0. -1.
         -5    1    1    2    0  502 -0.32367222638E+02  0.13675392608E+03 -0.31641524089E+03  0.34624463962E+03  0.41800000000E+01 0. -1.
        -11    1    3    3    0    0  0.46290160651E+02 -0.62562053585E+01 -0.24891558329E+03  0.25326051150E+03  0.00000000000E+00 0. -1.
         11    1    3    3    0    0  0.24316968792E+02 -0.11272056282E+03 -0.37556121979E+03  0.39286571505E+03  0.00000000000E+00 0.  1.
</event>
<event>
 7    1  0.4096326E-006  0.1127380E+03  0.7561462E-02  0.1255582E+00
         -1   -1    0    0    0  501 -0.00000000000E+00  0.00000000000E+00  0.56592064866E+02  0.56592064866E+02  0.00000000000E+00 0.  1.
          1   -1    0    0  501    0  0.00000000000E+00 -0.00000000000E+00 -0.36195097404E+03  0.36195097404E+03  0.00000000000E+00 0. -1.
         23    2    1    2    0    0 -0.39557331928E+00  0.40684604821E+02 -0.26184846169E+03  0.27998915101E+03  0.90409702171E+02 0.  0.
          5    1    1    2  502    0 -0.45534461693E+02  0.23960758257E+02 -0.23137900351E+02  0.56571547359E+02  0.41800000000E+01 0. -1.
         -5    1    1    2    0  502  0.45930035012E+02 -0.64645363078E+02 -0.20372547138E+02  0.81982340541E+02  0.41800000000E+01 0. -1.
        -11    1    3    3    0    0  0.11244132661E+02 -0.25169572130E+02 -0.12058291556E+03  0.12369388589E+03  0.00000000000E+00 0.  1.
         11    1    3    3    0    0 -0.11639705980E+02  0.65854176950E+02 -0.14126554613E+03  0.15629526512E+03  0.00000000000E+00 0. -1.
</event>
<event>
 7    1  0.4096326E-006  0.1115560E+03  0.7561462E-02  0.1257715E+00
          2   -1    0    0  501    0  0.00000000000E+00  0.00000000000E+00  0.17838516140E+03  0.17838516140E+03  0.00000000000E+00 0. -1.
         -2   -1    0    0    0  501 -0.00000000000E+00 -0.00000000000E+00 -0.84976708420E+02  0.84976708420E+02  0.00000000000E+00 0.  1.
         23    2    1    2    0    0 -0.18610728961E+02  0.51491705802E+02  0.70944914216E+02  0.12498126603E+03  0.87117053471E+02 0.  0.
          5    1    1    2  502    0 -0.43075337904E+02 -0.59912482933E+02  0.16248718627E+02  0.75673533047E+02  0.41800000000E+01 0.  1.
         -5    1    1    2    0  502  0.61686066865E+02  0.84207771312E+01  0.62148201389E+01  0.62707070751E+02  0.41800000000E+01 0.  1.
        -11    1    3    3    0    0 -0.30167157412E+02 -0.37211441279E+01  0.60368656316E+02  0.67589044714E+02  0.00000000000E+00 0. -1.
         11    1    3    3    0    0  0.11556428451E+02  0.55212849930E+02  0.10576257900E+02  0.57392221312E+02  0.00000000000E+00 0.  1.
</event>
<event>
 7    1  0.4096326E-006  0.8293333E+02  0.7561462E-02  0.1320927E+00
          1   -1    0    0  501    0  0.00000000000E+00  0.00000000000E+00  0.47883005252E+03  0.47883005252E+03  0.00000000000E+00 0. -1.
         -1   -1    0    0    0  501 -0.00000000000E+00 -0.00000000000E+00 -0.31726679079E+02  0.31726679079E+02  0.00000000000E+00 0.  1.
         23    2    1    2    0    0  0.98684330801E+01 -0.46883195959E+02  0.26413252277E+03  0.28379345401E+03  0.92072335258E+02 0.  0.
          5    1    1    2  502    0  0.52154155121E+01  0.52998349925E+02  0.11718480442E+02  0.54688397651E+02  0.41800000000E+01 0.  1.
         -5    1    1    2    0  502 -0.15083848592E+02 -0.61151539661E+01  0.17125237023E+03  0.17207487994E+03  0.41800000000E+01 0.  1.
        -11    1    3    3    0    0  0.56330718902E+00  0.24073370640E+02  0.27385310684E+02  0.36466419214E+02  0.00000000000E+00 0.  1.
         11    1    3    3    0    0  0.93051258911E+01 -0.70956566599E+02  0.23674721209E+03  0.24732703480E+03  0.00000000000E+00 0. -1.
</event>
<event>
 7    1  0.4096326E-006  0.1320644E+03  0.7561462E-02  0.1224424E+00
         -1   -1    0    0    0  501 -0.00000000000E+00  0.00000000000E+00  0.13918577944E+03  0.13918577944E+03  0.00000000000E+00 0.  1.
          1   -1    0    0  501    0  0.00000000000E+00 -0.00000000000E+00 -0.19682058539E+03  0.19682058539E+03  0.00000000000E+00 0. -1.
         23    2    1    2    0    0  0.54479092527E+02  0.82427531464E+02 -0.10492939618E+03  0.17033627889E+03  0.90785462796E+02 0.  0.
          5    1    1    2  502    0 -0.28877141629E+02  0.26273802272E+02  0.36133827155E+02  0.53360358501E+02  0.41800000000E+01 0. -1.
         -5    1    1    2    0  502 -0.25601950898E+02 -0.10870133374E+03  0.11160763088E+02  0.11230972744E+03  0.41800000000E+01 0. -1.
        -11    1    3    3    0    0  0.26618877742E+02  0.55151030981E+00  0.82699379094E+01  0.27879395418E+02  0.00000000000E+00 0.  1.
         11    1    3    3    0    0  0.27860214785E+02  0.81876021154E+02 -0.11319933409E+03  0.14245688347E+03  0.00000000000E+00 0. -1.
</event>
<event>
 7    1  0.4096326E-006  0.1826612E+03  0.7561462E-02  0.1165252E+00
         -2   -1    0    0    0  501 -0.00000000000E+00  0.00000000000E+00  0.58846497601E+02  0.58846497601E+02  0.00000000000E+00 0.  1.
          2   -1    0    0  501    0  0.00000000000E+00 -0.00000000000E+00 -0.63535683665E+03  0.63535683665E+03  0.00000000000E+00 0. -1.
         23    2    1    2    0    0 -0.53024351780E+01 -0.14957497464E+03 -0.37329733100E+03  0.41252229175E+03  0.91776658297E+02 0.  0.
          5    1    1    2  502    0  0.59066565781E+02  0.11336625136E+03 -0.11402876941E+03  0.17134993082E+03  0.41800000000E+01 0.  1.
         -5    1    1    2    0  502 -0.53764130603E+02  0.36208723273E+02 -0.89184238645E+02  0.11033111167E+03  0.41800000000E+01 0.  1.
        -11    1    3    3    0    0  0.27470240430E+02 -0.10217309222E+02 -0.38378642579E+02  0.48290037515E+02  0.00000000000E+00 0.  1.
         11    1    3    3    0    0 -0.32772675608E+02 -0.13935766541E+03 -0.33491868842E+03  0.36423225424E+03  0.00000000000E+00 0. -1.
</event>
<event>
 7    1  0.4096326E-006  0.9534850E+02  0.7561462E-02  0.1290393E+00
         -1   -1    0    0    0  501 -0.00000000000E+00  0.00000000000E+00  0.22771899695E+03  0.22771899695E+03  0.00000000000E+00 0.  1.
          1   -1    0    0  501    0  0.00000000000E+00 -0.00000000000E+00 -0.67682231484E+02  0.67682231484E+02  0.00000000000E+00 0. -1.
         23    2    1    2    0    0  0.52477780431E+02  0.36776952481E+02  0.43480838494E+02  0.11281086752E+03  0.82031986696E+02 0.  0.
          5    1    1    2  502    0 -0.14741225833E+02  0.15889899397E+02 -0.21009141217E+02  0.30473743724E+02  0.41800000000E+01 0.  1.
         -5    1    1    2    0  502 -0.37736554598E+02 -0.52666851878E+02  0.13756506819E+03  0.15211661719E+03  0.41800000000E+01 0.  1.
        -11    1    3    3    0    0  0.23272808141E+02 -0.25736421106E+02  0.99558002162E+01  0.36098544680E+02  0.00000000000E+00 0.  1.
         11    1    3    3    0    0  0.29204972290E+02  0.62513373587E+02  0.33525038278E+02  0.76712322838E+02  0.00000000000E+00 0. -1.
</event>
<event>
 7    1  0.4096326E-006  0.1061349E+03  0.7561462E-02  0.1267900E+00
         -2   -1    0    0    0  501 -0.00000000000E+00  0.00000000000E+00  0.44557725587E+02  0.44557725587E+02  0.00000000000E+00 0.  1.
          2   -1    0    0  501    0  0.00000000000E+00 -0.00000000000E+00 -0.39986395265E+03  0.39986395265E+03  0.00000000000E+00 0. -1.
         23    2    1    2    0    0  0.75785945497E+02  0.13729067861E+02 -0.21215926716E+03  0.23930962812E+03  0.79533305153E+02 0.  0.
          5    1    1    2  502    0 -0.73919004320E+02  0.26616952750E+02 -0.14444987973E+03  0.16448623507E+03  0.41800000000E+01 0. -1.
         -5    1    1    2    0  502 -0.18669411772E+01 -0.40346020611E+02  0.13029198258E+01  0.40625815052E+02  0.41800000000E+01 0. -1.
        -11    1    3    3    0    0  0.15225222906E+02 -0.18842147917E+02 -0.10782253409E+02  0.26515862030E+02  0.00000000000E+00 0.  1.
         11    1    3    3    0    0  0.60560722591E+02  0.32571215778E+02 -0.20137701375E+03  0.21279376609E+03  0.00000000000E+00 0. -1.
</event>
<event>
 7    1  0.4096326E-006  0.1425129E+03  0.7561462E-02  0.1209987E+00
         -2   -1    0    0    0  501 -0.00000000000E+00  0.00000000000E+00  0.20981562806E+02  0.20981562806E+02  0.00000000000E+00 0.  1.
          2   -1    0    0  501    0  0.00000000000E+00 -0.00000000000E+00 -0.13340797891E+04  0.13340797891E+04  0.00000000000E+00 0. -1.
         23    2    1    2    0    0  0.27885969174E+02 -0.17077607242E+02 -0.31473402573E+03  0.32808537060E+03  0.86678898818E+02 0.  0.
          5    1    1    2  502    0  0.79983308214E+02  0.25778883007E+02 -0.76606450760E+03  0.77067125456E+03  0.41800000000E+01 0. -1.
         -5    1    1    2    0  502 -0.10786927739E+03 -0.87012757643E+01 -0.23229969297E+03  0.25630472676E+03  0.41800000000E+01 0.  1.
        -11    1    3    3    0    0  0.55165326730E+02 -0.29561023120E+02 -0.20738047328E+03  0.21661885435E+03  0.00000000000E+00 0.  1.
         11    1    3    3    0    0 -0.27279357556E+02  0.12483415878E+02 -0.10735355245E+03  0.11146651625E+03  0.00000000000E+00 0. -1.
</event>
<event>
 7    1  0.4096326E-006  0.1361867E+03  0.7561462E-02  0.1218554E+00
          2   -1    0    0  501    0  0.00000000000E+00  0.00000000000E+00  0.16918127380E+03  0.16918127380E+03  0.00000000000E+00 0. -1.
         -2   -1    0    0    0  501 -0.00000000000E+00 -0.00000000000E+00 -0.17784544903E+03  0.17784544903E+03  0.00000000000E+00 0.  1.
         23    2    1    2    0    0 -0.57596002744E+02 -0.88413048808E+02  0.78770338992E+02  0.16147341836E+03  0.93459787078E+02 0.  0.
          5    1    1    2  502    0  0.86488259784E+02  0.94667491217E+02 -0.50054398604E+02  0.13771371825E+03  0.41800000000E+01 0.  1.
         -5    1    1    2    0  502 -0.28892257040E+02 -0.62544424087E+01 -0.37380115617E+02  0.47839586226E+02  0.41800000000E+01 0.  1.
        -11    1    3    3    0    0 -0.31174654834E+02 -0.80983662325E+02  0.95732557863E+02  0.12920888244E+03  0.00000000000E+00 0. -1.
         11    1    3    3    0    0 -0.26421347910E+02 -0.74293864827E+01 -0.16962218871E+02  0.32264535917E+02  0.00000000000E+00 0.  1.
</event>
<event>
 6    1  0.4096326E-006  0.8794262E+02  0.7561462E-02  0.1307912E+00
          1   -1    0    0  501    0  0.00000000000E+00  0.00000000000E+00  0.27778257368E+02  0.27778257368E+02  0.00000000000E+00 0. -1.
         -1   -1    0    0    0  501 -0.00000000000E+00 -0.00000000000E+00 -0.30454735446E+03  0.30454735446E+03  0.00000000000E+00 0.  1.
          5    1    1    2  502    0  0.13760710487E+02  0.67664008024E+02 -0.14743170627E+03  0.16285378580E+03  0.41800000000E+01 0.  1.
         -5    1    1    2    0  502  0.20389597114E+02 -0.54100709124E+02 -0.72595404041E+02  0.92898802393E+02  0.41800000000E+01 0.  1.
        -11    1    1    2    0    0 -0.19674415184E+02  0.92378396190E+01 -0.37735117116E+02  0.43547208377E+02  0.00000000000E+00 0.  1.
         11    1    1    2    0    0 -0.14475892417E+02 -0.22801138519E+02 -0.19006869659E+02  0.33025815255E+02  0.00000000000E+00 0. -1.
</event>
<event>
 7    1  0.4096326E-006  0.1267969E+03  0.7561462E-02  0.1232288E+00
         -1   -1    0    0    0  501 -0.00000000000E+00  0.00000000000E+00  0.47553141262E+03  0.47553141262E+03  0.00000000000E+00 0.  1.
          1   -1    0    0  501    0  0.00000000000E+00 -0.00000000000E+00 -0.81941871786E+02  0.81941871786E+02  0.00000000000E+00 0. -1.
         23    2    1    2    0    0 -0.81990024554E+02 -0.61380606914E+02  0.52071979133E+01  0.13678642544E+03  0.90517778603E+02 0.  0.
          5    1    1    2  502    0 -0.17811759516E+02  0.30880354003E+02  0.21729733153E+03  0.22024181649E+03  0.41800000000E+01 0.  1.
         -5    1    1    2    0  502  0.99801784069E+02  0.30500252912E+02  0.17108501139E+03  0.20044504248E+03  0.41800000000E+01 0.  1.
        -11    1    3    3    0    0 -0.25359765882E+02 -0.49173156203E+02  0.40845370204E+02  0.68771078832E+02  0.00000000000E+00 0.  1.
         11    1    3    3    0    0 -0.56630258671E+02 -0.12207450711E+02 -0.35638172291E+02  0.68015346609E+02  0.00000000000E+00 0. -1.
</event>
<event>
 7    1  0.4096326E-006  0.1224873E+03  0.7561462E-02  0.1239049E+00
         -1   -1    0    0    0  501 -0.00000000000E+00  0.00000000000E+00  0.30027324347E+03  0.30027324347E+03  0.00000000000E+00 0.  1.
          1   -1    0    0  501    0  0.00000000000E+00 -0.00000000000E+00 -0.59424743871E+02  0.59424743871E+02  0.00000000000E+00 0. -1.
         23    2    1    2    0    0 -0.36186718289E+02 -0.38429371197E+02  0.46046552709E+02  0.12225039541E+03  0.10019270937E+03 0.  0.
          5    1    1    2  502    0  0.82227282660E+02  0.17920813864E+02  0.10793209002E+03  0.13692804694E+03  0.41800000000E+01 0. -1.
         -5    1    1    2    0  502 -0.46040564371E+02  0.20508557333E+02  0.86869856874E+02  0.10051954499E+03  0.41800000000E+01 0. -1.
        -11    1    3    3    0    0 -0.65625080514E+02 -0.53286068821E+01  0.13319889887E+02  0.67174881543E+02  0.00000000000E+00 0.  1.
         11    1    3    3    0    0  0.29438362224E+02 -0.33100764315E+02  0.32726662822E+02  0.55075513871E+02  0.00000000000E+00 0. -1.
</event>
<event>
 7    1  0.4096326E-006  0.1106180E+03  0.7561462E-02  0.1259430E+00
          2   -1    0    0  501    0  0.00000000000E+00  0.00000000000E+00  0.28501657803E+03  0.28501657803E+03  0.00000000000E+00 0. -1.
         -2   -1    0    0    0  501 -0.00000000000E+00 -0.00000000000E+00 -0.49670085213E+02  0.49670085213E+02  0.00000000000E+00 0.  1.
         23    2    1    2    0    0 -0.19204300948E+02 -0.31811592018E+02  0.14297163921E+03  0.17482020207E+03  0.93490271544E+02 0.  0.
          5    1    1    2  502    0 -0.42368070920E+02  0.45703771685E+02  0.24527910108E+02  0.67104239464E+02  0.41800000000E+01 0. -1.
         -5    1    1    2    0  502  0.61572371867E+02 -0.13892179667E+02  0.67846943499E+02  0.92762221704E+02  0.41800000000E+01 0. -1.
        -11    1    3    3    0    0 -0.46215226442E+02 -0.45828597386E+02  0.12062975732E+03  0.13706803363E+03  0.00000000000E+00 0. -1.
         11    1    3    3    0    0  0.27010925494E+02  0.14017005368E+02  0.22341881891E+02  0.37752168441E+02  0.00000000000E+00 0.  1.
</event>
<event>
 7    1  0.4096326E-006  0.1540028E+03  0.7561462E-02  0.1195639E+00
         -1   -1    0    0    0  501 -0.00000000000E+00  0.00000000000E+00  0.17999286464E+03  0.17999286464E+03  0.00000000000E+00 0.  1.
          1   -1    0    0  501    0  0.00000000000E+00 -0.00000000000E+00 -0.14875318122E+03  0.14875318122E+03  0.00000000000E+00 0. -1.
         23    2    1    2    0    0  0.71156618677E+02 -0.93937983062E+02 -0.33602458126E+02  0.14506346643E+03  0.77631662715E+02 0.  0.
          5    1    1    2  502    0  0.15495763582E+01 -0.27809810679E+02  0.21209095914E+02  0.35257409241E+02  0.41800000000E+01 0.  1.
         -5    1    1    2    0  502 -0.72706195035E+02  0.12174779374E+03  0.43633045628E+02  0.14842517020E+03  0.41800000000E+01 0.  1.
        -11    1    3    3    0    0  0.32878821290E+02  0.37138568895E+01  0.46638666538E+01  0.33414985778E+02  0.00000000000E+00 0.  1.
         11    1    3    3    0    0  0.38277797387E+02 -0.97651839951E+02 -0.38266324780E+02  0.11164848065E+03  0.00000000000E+00 0. -1.
</event>
<event>
 7    1  0.4096326E-006  0.1378331E+03  0.7561462E-02  0.1216275E+00
          2   -1    0    0  501    0  0.00000000000E+00  0.00000000000E+00  0.26962012901E+03  0.26962012901E+03  0.00000000000E+00 0. -1.
         -2   -1    0    0    0  501 -0.00000000000E+00 -0.00000000000E+00 -0.79164272213E+02  0.79164272213E+02  0.00000000000E+00 0.  1.
         23    2    1    2    0    0  0.74754235897E+02 -0.46609130863E+02  0.13710205361E+03  0.18675237404E+03  0.91207835406E+02 0.  0.
          5    1    1    2  502    0 -0.87511433514E+02 -0.12801577514E+02  0.14327608910E+02  0.89693278230E+02  0.41800000000E+01 0. -1.
         -5    1    1    2    0  502  0.12757197617E+02  0.59410708376E+02  0.39026194275E+02  0.72338748955E+02  0.41800000000E+01 0. -1.
        -11    1    3    3    0    0  0.43481435360E+02  0.23516485196E+02  0.45058579627E+02  0.66887486834E+02  0.00000000000E+00 0. -1.
         11    1    3    3    0    0  0.31272800538E+02 -0.70125616059E+02  0.92043473985E+02  0.11986488720E+03  0.00000000000E+00 0.  1.
</event>
<event>
 7    1  0.4096326E-006  0.1425987E+03  0.7561462E-02  0.1209874E+00
         -1   -1    0    0    0  501 -0.00000000000E+00  0.00000000000E+00  0.97151567705E+02  0.97151567705E+02  0.00000000000E+00 0.  1.
          1   -1    0    0  501    0  0.00000000000E+00 -0.00000000000E+00 -0.42776641055E+03  0.42776641055E+03  0.00000000000E+00 0. -1.
         23    2    1    2    0    0  0.11892576709E+03  0.62410555393E+02 -0.29718269430E+03  0.33835791945E+03  0.90167135692E+02 0.  0.
          5    1    1    2  502    0  0.77982875214E+01 -0.76368728959E+01  0.31750565322E+02  0.33833502836E+02  0.41800000000E+01 0.  1.
         -5    1    1    2    0  502 -0.12672405461E+03 -0.54773682497E+02 -0.65182713869E+02  0.15272655597E+03  0.41800000000E+01 0.  1.
        -11    1    3    3    0    0  0.57859430896E+02  0.20749629837E+02 -0.46702811760E+02  0.77197237699E+02  0.00000000000E+00 0.  1.
         11    1    3    3    0    0  0.61066336196E+02  0.41660925556E+02 -0.25047988254E+03  0.26116068175E+03  0.00000000000E+00 0. -1.
</event>
<event>
 7    1  0.4096326E-006  0.7125480E+02  0.7561462E-02  0.1355877E+00
          1   -1    0    0  501    0  0.00000000000E+00  0.00000000000E+00  0.16679624633E+03  0.16679624633E+03  0.00000000000E+00 0. -1.
         -1   -1    0    0    0  501 -0.00000000000E+00 -0.00000000000E+00 -0.94045582210E+02  0.94045582210E+02  0.00000000000E+00 0.  1.
         23    2    1    2    0    0  0.34414456911E+02  0.47232821285E+00  0.86232705607E+02  0.13040618036E+03  0.91570270401E+02 0.  0.
          5    1    1    2  502    0  0.86694419149E+01  0.13347840023E+02  0.49846235375E+02  0.52492319795E+02  0.41800000000E+01 0.  1.
         -5    1    1    2    0  502 -0.43083898826E+02 -0.13820168236E+02 -0.63328276866E+02  0.77943328380E+02  0.41800000000E+01 0.  1.
        -11    1    3    3    0    0  0.57486020171E+02  0.16936373801E+01  0.90189756700E+02  0.10696589707E+03  0.00000000000E+00 0. -1.
         11    1    3    3    0    0 -0.23071563259E+02 -0.12213091673E+01 -0.39570510930E+01  0.23440283289E+02  0.00000000000E+00 0.  1.
</event>
<event>
 7    1  0.4096326E-006  0.9508468E+02  0.7561462E-02  0.1290985E+00
         -2   -1    0    0    0  501 -0.00000000000E+00  0.00000000000E+00  0.28897850455E+02  0.28897850455E+02  0.00000000000E+00 0.  1.
          2   -1    0    0  501    0  0.00000000000E+00 -0.00000000000E+00 -0.58291102215E+03  0.58291102215E+03  0.00000000000E+00 0. -1.
         23    2    1    2    0    0 -0.53474811356E+02 -0.44627105910E+02 -0.21297666748E+03  0.24193754565E+03  0.91233661927E+02 0.  0.
          5    1    1    2  502    0  0.70182633417E+02  0.45284504654E+02 -0.10993707834E+03  0.13813009082E+03  0.41800000000E+01 0. -1.
         -5    1    1    2    0  502 -0.16707822061E+02 -0.65739874364E+00 -0.23109942587E+03  0.23174123614E+03  0.41800000000E+01 0. -1.
        -11    1    3    3    0    0 -0.10139726864E+00 -0.35085642940E+02 -0.16760664402E+03  0.17123959747E+03  0.00000000000E+00 0. -1.
         11    1    3    3    0    0 -0.53373414087E+02 -0.95414629700E+01 -0.45370023462E+02  0.70697948173E+02  0.00000000000E+00 0.  1.
</event>
<event>
 7    1  0.4096326E-006  0.1522328E+03  0.7561462E-02  0.1197756E+00
         -2   -1    0    0    0  501 -0.00000000000E+00  0.00000000000E+00  0.10588420324E+04  0.10588420324E+04  0.00000000000E+00 0.  1.
          2   -1    0    0  501    0  0.00000000000E+00 -0.00000000000E+00 -0.23475801537E+02  0.23475801537E+02  0.00000000000E+00 0. -1.
         23    2    1    2    0    0 -0.98370168419E+01 -0.11433203605E+03  0.44023000976E+03  0.46344244907E+03  0.88362100160E+02 0.  0.
          5    1    1    2  502    0  0.62573012567E+02  0.62576279588E+02  0.23344742000E+03  0.24969249683E+03  0.41800000000E+01 0. -1.
         -5    1    1    2    0  502 -0.52735995725E+02  0.51755756461E+02  0.36168880111E+03  0.36918288804E+03  0.41800000000E+01 0. -1.
        -11    1    3    3    0    0 -0.33150524098E+02 -0.95188849382E+01  0.71286963004E+02  0.79192155626E+02  0.00000000000E+00 0.  1.
         11    1    3    3    0    0  0.23313507256E+02 -0.10481315111E+03  0.36894304675E+03  0.38425029345E+03  0.00000000000E+00 0. -1.
</event>
<event>
 7    1  0.4096326E-006  0.9220201E+02  0.7561462E-02  0.1297605E+00
          3   -1    0    0  501    0  0.00000000000E+00  0.00000000000E+00  0.26894940057E+03  0.26894940057E+03  0.00000000000E+00 0. -1.
         -3   -1    0    0    0  501 -0.00000000000E+00 -0.00000000000E+00 -0.46334515871E+02  0.46334515871E+02  0.00000000000E+00 0.  1.
         23    2    1    2    0    0 -0.58117996621E+01  0.33047868003E+02  0.10452400135E+03  0.14001839999E+03  0.86913444781E+02 0.  0.
          5    1    1    2  502    0  0.36468047669E+01  0.29782091109E+02 -0.10505034538E+02  0.32064002970E+02  0.41800000000E+01 0.  1.
         -5    1    1    2    0  502  0.21649948952E+01 -0.62829959112E+02  0.12859591789E+03  0.14320151348E+03  0.41800000000E+01 0.  1.
        -11    1    3    3    0    0  0.16076994239E+02  0.56665808426E+02  0.52874484464E+02  0.79152982861E+02  0.00000000000E+00 0. -1.
         11    1    3    3    0    0 -0.21888793901E+02 -0.23617940424E+02  0.51649516882E+02  0.60865417130E+02  0.00000000000E+00 0.  1.
</event>
<event>
 7    1  0.4096326E-006  0.1115869E+03  0.7561462E-02  0.1257659E+00
         -1   -1    0    0    0  501 -0.00000000000E+00  0.00000000000E+00  0.11069969510E+03  0.11069969510E+03  0.00000000000E+00 0.  1.
          1   -1    0    0  501    0  0.00000000000E+00 -0.00000000000E+00 -0.16823608720E+03  0.16823608720E+03  0.00000000000E+00 0. -1.
         23    2    1    2    0    0  0.64359679735E+02 -0.50097806896E+02 -0.17313146331E+02  0.12428376230E+03  0.92166967533E+02 0.  0.
          5    1    1    2  502    0  0.23275945437E+02 -0.16714434329E+02  0.13537912131E+02  0.31967005112E+02  0.41800000000E+01 0. -1.
         -5    1    1    2    0  502 -0.87635625173E+02  0.66812241225E+02 -0.53761157902E+02  0.12268501488E+03  0.41800000000E+01 0. -1.
        -11    1    3    3    0    0  0.37086080180E+02 -0.40764246237E+02 -0.54315931921E+02  0.77377784763E+02  0.00000000000E+00 0. -1.
         11    1    3    3    0    0  0.27273599555E+02 -0.93335606587E+01  0.37002785590E+02  0.46905977537E+02  0.00000000000E+00 0.  1.
</event>
<event>
 7    1  0.4096326E-006  0.1287769E+03  0.7561462E-02  0.1229282E+00
          2   -1    0    0  501    0  0.00000000000E+00  0.00000000000E+00  0.33482028727E+03  0.33482028727E+03  0.00000000000E+00 0. -1.
         -2   -1    0    0    0  501 -0.00000000000E+00 -0.00000000000E+00 -0.51405871582E+02  0.51405871582E+02  0.00000000000E+00 0.  1.
         23    2    1    2    0    0 -0.20861925785E+02 -0.78883766363E+02  0.12411838308E+03  0.16785794805E+03  0.78185990822E+02 0.  0.
          5    1    1    2  502    0  0.62992587151E+02  0.10075956967E+02  0.44096463970E+02  0.77663128185E+02  0.41800000000E+01 0. -1.
         -5    1    1    2    0  502 -0.42130661366E+02  0.68807809395E+02  0.11519956863E+03  0.14070508262E+03  0.41800000000E+01 0. -1.
        -11    1    3    3    0    0  0.20350624476E+02 -0.66881589698E+02  0.81384155171E+02  0.10728781697E+03  0.00000000000E+00 0. -1.
         11    1    3    3    0    0 -0.41212550261E+02 -0.12002176665E+02  0.42734227912E+02  0.60570131079E+02  0.00000000000E+00 0.  1.
</event>
<event>
 6    1  0.4096326E-006  0.9414383E+02  0.7561462E-02  0.1293116E+00
         -2   -1    0    0    0  501 -0.00000000000E+00  0.00000000000E+00  0.35605750884E+02  0.35605750884E+02  0.00000000000E+00 0.  1.
          2   -1    0    0  501    0  0.00000000000E+00 -0.00000000000E+00 -0.32420363436E+03  0.32420363436E+03  0.00000000000E+00 0. -1.
          5    1    1    2  502    0  0.10445689122E+02  0.85114030729E+02 -0.11134278586E+03  0.14059942749E+03  0.41800000000E+01 0. -1.
         -5    1    1    2    0  502 -0.80254301331E+01 -0.44130819497E+02 -0.17932729376E+02  0.48487028587E+02  0.41800000000E+01 0.  1.
        -11    1    1    2    0    0 -0.20904376957E+02 -0.16093523081E+02 -0.43972144163E+02  0.51279078809E+02  0.00000000000E+00 0. -1.
         11    1    1    2    0    0  0.18484117968E+02 -0.24889688151E+02 -0.11535022408E+03  0.11944385036E+03  0.00000000000E+00 0.  1.
</event>
<event>
 7    1  0.4096326E-006  0.2584394E+03  0.7561462E-02  0.1108085E+00
         -2   -1    0    0    0  501 -0.00000000000E+00  0.00000000000E+00  0.48072368607E+02  0.48072368607E+02  0.00000000000E+00 0.  1.
          2   -1    0    0  501    0  0.00000000000E+00 -0.00000000000E+00 -0.15006550937E+04  0.15006550937E+04  0.00000000000E+00 0. -1.
         23    2    1    2    0    0 -0.78327232855E+01  0.24338748933E+03 -0.79413968127E+03  0.83563995113E+03  0.91309764261E+02 0.  0.
          5    1    1    2  502    0  0.41855975209E+02 -0.23118134019E+03 -0.59836765993E+03  0.64285150973E+03  0.41800000000E+01 0. -1.
         -5    1    1    2    0  502 -0.34023251923E+02 -0.12206149136E+02 -0.60075383868E+02  0.70236001417E+02  0.41800000000E+01 0. -1.
        -11    1    3    3    0    0 -0.16507402917E+02  0.70399918686E+02 -0.12462100636E+03  0.14407997130E+03  0.00000000000E+00 0.  1.
         11    1    3    3    0    0  0.86746796315E+01  0.17298757064E+03 -0.66951867491E+03  0.69155997984E+03  0.00000000000E+00 0. -1.
</event>
<event>
 7    1  0.4096326E-006  0.8256345E+02  0.7561462E-02  0.1321930E+00
          1   -1    0    0  501    0  0.00000000000E+00  0.00000000000E+00  0.13132781482E+03  0.13132781482E+03  0.00000000000E+00 0. -1.
         -1   -1    0    0    0  501 -0.00000000000E+00 -0.00000000000E+00 -0.98009990350E+02  0.98009990350E+02  0.00000000000E+00 0.  1.
         23    2    1    2    0    0 -0.24269890766E+02 -0.80144305464E+01  0.44604282537E+02  0.10117193247E+03  0.87137587781E+02 0.  0.
          5    1    1    2  502    0  0.67780460512E+01  0.38596465665E+02  0.46130413816E+02  0.60672205736E+02  0.41800000000E+01 0. -1.
         -5    1    1    2    0  502  0.17491844715E+02 -0.30582035119E+02 -0.57416871882E+02  0.67493666964E+02  0.41800000000E+01 0. -1.
        -11    1    3    3    0    0  0.26872042413E+02 -0.24644281821E+02  0.12524201323E+02  0.38552599247E+02  0.00000000000E+00 0. -1.
         11    1    3    3    0    0 -0.51141933178E+02  0.16629851275E+02  0.32080081214E+02  0.62619333223E+02  0.00000000000E+00 0.  1.
</event>
<event>
 7    1  0.4096326E-006  0.9159183E+02  0.7561462E-02  0.1299042E+00
          1   -1    0    0  501    0  0.00000000000E+00  0.00000000000E+00  0.33574252155E+02  0.33574252155E+02  0.00000000000E+00 0. -1.
         -1   -1    0    0    0  501 -0.00000000000E+00 -0.00000000000E+00 -0.46323820592E+03  0.46323820592E+03  0.00000000000E+00 0.  1.
         23    2    1    2    0    0 -0.25303677985E+02 -0.35907813722E+02 -0.13559526215E+03  0.17426326890E+03  0.10025948617E+03 0.  0.
          5    1    1    2  502    0 -0.23161310378E+02  0.35112467926E+02 -0.25936938586E+03  0.26279132867E+03  0.41800000000E+01 0. -1.
         -5    1    1    2    0  502  0.48464988363E+02  0.79534579641E+00 -0.34699305767E+02  0.59757860510E+02  0.41800000000E+01 0. -1.
        -11    1    3    3    0    0  0.15319951596E+02 -0.47587198564E+02 -0.11859899638E+03  0.12870495066E+03  0.00000000000E+00 0.  1.
         11    1    3    3    0    0 -0.40623629581E+02  0.11679384842E+02 -0.16996265769E+02  0.45558318238E+02  0.00000000000E+00 0. -1.
</event>
<event>
 7    1  0.4096326E-006  0.1139780E+03  0.7561462E-02  0.1253376E+00
         -2   -1    0    0    0  501 -0.00000000000E+00  0.00000000000E+00  0.20626260212E+03  0.20626260212E+03  0.00000000000E+00 0.  1.
          2   -1    0    0  501    0  0.00000000000E+00 -0.00000000000E+00 -0.86771876060E+02  0.86771876060E+02  0.00000000000E+00 0. -1.
         23    2    1    2    0    0  0.73265882268E+01 -0.82134934890E+02  0.33461766969E+02  0.12026639427E+03  0.80898018010E+02 0.  0.
          5    1    1    2  502    0 -0.31339497552E+02  0.94002377084E+02  0.10120584251E+03  0.14169935061E+03  0.41800000000E+01 0.  1.
         -5    1    1    2    0  502  0.24012909325E+02 -0.11867442194E+02 -0.15176883421E+02  0.31068733300E+02  0.41800000000E+01 0.  1.
        -11    1    3    3    0    0  0.32734383543E+02 -0.58141294640E+02  0.48228455608E+02  0.82328208645E+02  0.00000000000E+00 0.  1.
         11    1    3    3    0    0 -0.25407795316E+02 -0.23993640250E+02 -0.14766688638E+02  0.37938185627E+02  0.00000000000E+00 0. -1.
</event>
<event>
 7    1  0.4096326E-006  0.1029517E+03  0.7561462E-02  0.1274209E+00
         -1   -1    0    0    0  501 -0.00000000000E+00  0.00000000000E+00  0.10521674770E+03  0.10521674770E+03  0.00000000000E+00 0.  1.
          1   -1    0    0  501    0  0.00000000000E+00 -0.00000000000E+00 -0.23720968766E+03  0.23720968766E+03  0.00000000000E+00 0. -1.
         23    2    1    2    0    0 -0.42288840127E+02  0.71835174866E+02 -0.14632605204E+03  0.19142516526E+03  0.91014515556E+02 0.  0.
          5    1    1    2  502    0 -0.49848671618E+01 -0.32310358926E+02  0.63840674507E+02  0.71846449572E+02  0.41800000000E+01 0.  1.
         -5    1    1    2    0  502  0.47273707289E+02 -0.39524815939E+02 -0.49507562426E+02  0.79154820531E+02  0.41800000000E+01 0.  1.
        -11    1    3    3    0    0 -0.16104966487E+02  0.81647784733E+02 -0.65520140220E+02  0.10591798465E+03  0.00000000000E+00 0.  1.
         11    1    3    3    0    0 -0.26183873640E+02 -0.98126098674E+01 -0.80805911819E+02  0.85507180611E+02  0.00000000000E+00 0. -1.
</event>
<event>
 7    1  0.4096326E-006  0.1045679E+03  0.7561462E-02  0.1270973E+00
          1   -1    0    0  501    0  0.00000000000E+00  0.00000000000E+00  0.65992811488E+03  0.65992811488E+03  0.00000000000E+00 0. -1.
         -1   -1    0    0    0  501 -0.00000000000E+00 -0.00000000000E+00 -0.19731096162E+02  0.19731096162E+02  0.00000000000E+00 0.  1.
         23    2    1    2    0    0  0.18853467178E+02 -0.52954327499E+01  0.35718587930E+03  0.36961665531E+03  0.93011959899E+02 0.  0.
          5    1    1    2  502    0 -0.32815931465E+02 -0.48402073647E+02  0.77765871299E+02  0.97389163822E+02  0.41800000000E+01 0. -1.
         -5    1    1    2    0  502  0.13962464286E+02  0.53697506397E+02  0.20524526812E+03  0.21265339191E+03  0.41800000000E+01 0. -1.
        -11    1    3    3    0    0 -0.23573398504E+02 -0.35623183144E+02  0.14950492150E+03  0.15548774179E+03  0.00000000000E+00 0. -1.
         11    1    3    3    0    0  0.42426865683E+02  0.30327750394E+02  0.20768095780E+03  0.21412891352E+03  0.00000000000E+00 0.  1.
</event>
<event>
 7    1  0.4096326E-006  0.3414703E+03  0.7561462E-02  0.1066171E+00
          1   -1    0    0  501    0  0.00000000000E+00  0.00000000000E+00  0.51841333438E+03  0.51841333438E+03  0.00000000000E+00 0. -1.
         -1   -1    0    0    0  501 -0.00000000000E+00 -0.00000000000E+00 -0.33559958032E+03  0.33559958032E+03  0.00000000000E+00 0.  1.
         23    2    1    2    0    0  0.14178761797E+03 -0.30940134688E+03  0.31094774240E+03  0.46943689568E+03  0.88597846807E+02 0.  0.
          5    1    1    2  502    0 -0.99833362589E+02  0.19206934842E+03 -0.14232012832E+03  0.25909424196E+03  0.41800000000E+01 0. -1.
         -5    1    1    2    0  502 -0.41954255377E+02  0.11733199846E+03  0.14186139983E+02  0.12548177706E+03  0.41800000000E+01 0. -1.
        -11    1    3    3    0    0  0.37830181940E+02 -0.11841418682E+03  0.16886139162E+03  0.20968359947E+03  0.00000000000E+00 0. -1.
         11    1    3    3    0    0  0.10395743603E+03 -0.19098716006E+03  0.14208635078E+03  0.25975329621E+03  0.00000000000E+00 0.  1.
</event>
<event>
 7    1  0.4096326E-006  0.1071102E+03  0.7561462E-02  0.1266017E+00
          1   -1    0    0  501    0  0.00000000000E+00  0.00000000000E+00  0.35320900499E+03  0.35320900499E+03  0.00000000000E+00 0. -1.
         -1   -1    0    0    0  501 -0.00000000000E+00 -0.00000000000E+00 -0.42120901873E+02  0.42120901873E+02  0.00000000000E+00 0.  1.
         23    2    1    2    0    0 -0.30049798408E+02  0.43901237161E+02  0.17098861935E+03  0.20012449683E+03  0.89344262694E+02 0.  0.
          5    1    1    2  502    0  0.63690696512E+02 -0.50360700375E+02  0.42618020356E+02  0.91795822473E+02  0.41800000000E+01 0.  1.
         -5    1    1    2    0  502 -0.33640898104E+02  0.64594632142E+01  0.97481463406E+02  0.10340958755E+03  0.41800000000E+01 0.  1.
        -11    1    3    3    0    0  0.76892998933E+01  0.57711401555E+02  0.67689797937E+02  0.89284040831E+02  0.00000000000E+00 0. -1.
         11    1    3    3    0    0 -0.37739098301E+02 -0.13810164394E+02  0.10329882141E+03  0.11084045600E+03  0.00000000000E+00 0.  1.
</event>
<event>
 7    1  0.4096326E-006  0.1130514E+03  0.7561462E-02  0.1255021E+00
          1   -1    0    0  501    0  0.00000000000E+00  0.00000000000E+00  0.23525489384E+03  0.23525489384E+03  0.00000000000E+00 0. -1.
         -1   -1    0    0    0  501 -0.00000000000E+00 -0.00000000000E+00 -0.57030493798E+02  0.57030493798E+02  0.00000000000E+00 0.  1.
         23    2    1    2    0    0 -0.41529059536E+02  0.80594995803E+01  0.85658858142E+02  0.13102357617E+03  0.89666711853E+02 0.  0.
          5    1    1    2  502    0  0.31638493980E+02  0.57243809318E+02  0.40358976911E+02  0.76968613238E+02  0.41800000000E+01 0.  1.
         -5    1    1    2    0  502  0.98905655552E+01 -0.65303308898E+02  0.52206564990E+02  0.84293198231E+02  0.41800000000E+01 0.  1.
        -11    1    3    3    0    0 -0.62563656674E+02  0.25002221284E+02  0.41109436223E+02  0.78925965006E+02  0.00000000000E+00 0.  1.
         11    1    3    3    0    0  0.21034597139E+02 -0.16942721704E+02  0.44549421919E+02  0.52097611162E+02  0.00000000000E+00 0. -1.
</event>
<event>
 7    1  0.4096326E-006  0.7944990E+02  0.7561462E-02  0.1330620E+00
         -3   -1    0    0    0  501 -0.00000000000E+00  0.00000000000E+00  0.69142433673E+02  0.69142433673E+02  0.00000000000E+00 0.  1.
          3   -1    0    0  501    0  0.00000000000E+00 -0.00000000000E+00 -0.21874140561E+03  0.21874140561E+03  0.00000000000E+00 0. -1.
         23    2    1    2    0    0  0.43205265304E+02  0.10281034284E+02 -0.95099084804E+02  0.14439144960E+03  0.99159770936E+02 0.  0.
          5    1    1    2  502    0 -0.22131164940E+02  0.75585701058E+01 -0.92968748677E+02  0.95956141410E+02  0.41800000000E+01 0.  1.
         -5    1    1    2    0  502 -0.21074100364E+02 -0.17839604390E+02  0.38468861545E+02  0.47536248269E+02  0.41800000000E+01 0.  1.
        -11    1    3    3    0    0  0.71469697197E+02 -0.10362085629E+02 -0.74605062901E+02  0.10383258567E+03  0.00000000000E+00 0.  1.
         11    1    3    3    0    0 -0.28264431893E+02  0.20643119913E+02 -0.20494021903E+02  0.40558863935E+02  0.00000000000E+00 0. -1.
</event>
<event>
 7    1  0.4096326E-006  0.1236610E+03  0.7561462E-02  0.1237177E+00
         -1   -1    0    0    0  501 -0.00000000000E+00  0.00000000000E+00  0.33459512550E+02  0.33459512550E+02  0.00000000000E+00 0.  1.
          1   -1    0    0  501    0  0.00000000000E+00 -0.00000000000E+00 -0.55320887101E+03  0.55320887101E+03  0.00000000000E+00 0. -1.
         23    2    1    2    0    0  0.65961734684E+02  0.39088897253E+02 -0.29589756449E+03  0.31902058610E+03  0.91322907066E+02 0.  0.
          5    1    1    2  502    0  0.17248437747E+02  0.19558324429E+02 -0.11724530757E+03  0.12018307371E+03  0.41800000000E+01 0.  1.
         -5    1    1    2    0  502 -0.83210172431E+02 -0.58647221682E+02 -0.10660648639E+03  0.14746472374E+03  0.41800000000E+01 0.  1.
        -11    1    3    3    0    0  0.29042780320E+02 -0.29332782277E+02 -0.11195398669E+03  0.11932137420E+03  0.00000000000E+00 0.  1.
         11    1    3    3    0    0  0.36918954364E+02  0.68421679530E+02 -0.18394357780E+03  0.19969921190E+03  0.00000000000E+00 0. -1.
</event>
<event>
 7    1  0.4096326E-006  0.1281588E+03  0.7561462E-02  0.1230214E+00
          2   -1    0    0  501    0  0.00000000000E+00  0.00000000000E+00  0.22326750085E+03  0.22326750085E+03  0.00000000000E+00 0. -1.
         -2   -1    0    0    0  501 -0.00000000000E+00 -0.00000000000E+00 -0.10789943697E+03  0.10789943697E+03  0.00000000000E+00 0.  1.
         23    2    1    2    0    0  0.82513266487E+02 -0.30220670095E+02  0.12219163456E+03  0.17814533604E+03  0.95306018431E+02 0.  0.
          5    1    1    2  502    0 -0.82651103513E+02 -0.32245032251E+02 -0.14338149297E+02  0.89966671284E+02  0.41800000000E+01 0.  1.
         -5    1    1    2    0  502  0.13783702599E+00  0.62465702346E+02  0.75145786234E+01  0.63054930502E+02  0.41800000000E+01 0.  1.
        -11    1    3    3    0    0  0.38085661953E+02 -0.44176385756E+02  0.13458578835E+02  0.59859870106E+02  0.00000000000E+00 0.  1.
         11    1    3    3    0    0  0.44427604533E+02  0.13955715660E+02  0.10873305572E+03  0.11828546593E+03  0.00000000000E+00 0. -1.
</event>
<event>
 7    1  0.4096326E-006  0.1408553E+03  0.7561462E-02  0.1212183E+00
          1   -1    0    0  501    0  0.00000000000E+00  0.00000000000E+00  0.48435385261E+02  0.48435385261E+02  0.00000000000E+00 0. -1.
         -1   -1    0    0    0  501 -0.00000000000E+00 -0.00000000000E+00 -0.54860973302E+03  0.54860973302E+03  0.00000000000E+00 0.  1.
         23    2    1    2    0    0 -0.87182177867E+02  0.55678703695E+02 -0.11875317901E+03  0.18252260076E+03  0.92256880942E+02 0.  0.
          5    1    1    2  502    0  0.93813258688E+02 -0.82319003308E+02 -0.24155000498E+03  0.27192135465E+03  0.41800000000E+01 0.  1.
         -5    1    1    2    0  502 -0.66310808214E+01  0.26640299613E+02 -0.13987116378E+03  0.14260116287E+03  0.41800000000E+01 0.  1.
        -11    1    3    3    0    0 -0.56663717015E+02 -0.91605559090E+01 -0.20581879156E+02  0.60977916987E+02  0.00000000000E+00 0. -1.
         11    1    3    3    0    0 -0.30518460852E+02  0.64839259604E+02 -0.98171299855E+02  0.12154468378E+03  0.00000000000E+00 0.  1.
</event>
<event>
 7    1  0.4096326E-006  0.1132907E+03  0.7561462E-02  0.1254595E+00
          2   -1    0    0  501    0  0.00000000000E+00  0.00000000000E+00  0.18933875034E+03  0.18933875034E+03  0.00000000000E+00 0. -1.
         -2   -1    0    0    0  501 -0.00000000000E+00 -0.00000000000E+00 -0.81772137746E+02  0.81772137746E+02  0.00000000000E+00 0.  1.
         23    2    1    2    0    0 -0.49003116732E+02  0.23993122750E+02  0.76291014979E+02  0.13110196543E+03  0.91599295768E+02 0.  0.
          5    1    1    2  502    0  0.37058170125E+02  0.48438499669E+02  0.29177097065E+01  0.61201157286E+02  0.41800000000E+01 0.  1.
         -5    1    1    2    0  502  0.11944946607E+02 -0.72431622418E+02  0.28357887907E+02  0.78807765367E+02  0.41800000000E+01 0.  1.
        -11    1    3    3    0    0 -0.53149572310E+02  0.45532412777E+02  0.82614518474E+02  0.10827389488E+03  0.00000000000E+00 0. -1.
         11    1    3    3    0    0  0.41464555776E+01 -0.21539290027E+02 -0.63235034944E+01  0.22828070553E+02  0.00000000000E+00 0.  1.
</event>
<event>
 7    1  0.4096326E-006  0.1494254E+03  0.7561462E-02  0.1201181E+00
         -2   -1    0    0    0  501 -0.00000000000E+00  0.00000000000E+00  0.17832285444E+03  0.17832285444E+03  0.00000000000E+00 0.  1.
          2   -1    0    0  501    0  0.00000000000E+00 -0.00000000000E+00 -0.18931773234E+03  0.18931773234E+03  0.00000000000E+00 0. -1.
         23    2    1    2    0    0 -0.79213942475E+02  0.92404391818E+02 -0.90298213698E+02  0.17594313975E+03  0.89380091282E+02 0.  0.
          5    1    1    2  502    0 -0.18514317158E+01  0.26320454271E+02 -0.14535079458E+01  0.26754050119E+02  0.41800000000E+01 0.  1.
         -5    1    1    2    0  502  0.81065374191E+02 -0.11872484609E+03  0.80756843744E+02  0.16494339691E+03  0.41800000000E+01 0.  1.
        -11    1    3    3    0    0 -0.15415083932E+02  0.48442687211E+02  0.72705259538E+01  0.51353474123E+02  0.00000000000E+00 0.  1.
         11    1    3    3    0    0 -0.63798858543E+02  0.43961704608E+02 -0.97568739651E+02  0.12458966563E+03  0.00000000000E+00 0. -1.
</event>
<event>
 7    1  0.4096326E-006  0.1325302E+03  0.7561462E-02  0.1223749E+00
         -2   -1    0    0    0  501 -0.00000000000E+00  0.00000000000E+00  0.21169282428E+02  0.21169282428E+02  0.00000000000E+00 0.  1.
          2   -1    0    0  501    0  0.00000000000E+00 -0.00000000000E+00 -0.99226551735E+03  0.99226551735E+03  0.00000000000E+00 0. -1.
         23    2    1    2    0    0  0.92451294816E+02 -0.34385564770E+02 -0.47204778512E+03  0.48957366160E+03  0.84401716353E+02 0.  0.
          5    1    1    2  502    0 -0.97656461614E+02  0.58906628241E+02 -0.47620759100E+03  0.48969165550E+03  0.41800000000E+01 0. -1.
         -5    1    1    2    0  502  0.52051667981E+01 -0.24521063471E+02 -0.22840858810E+02  0.34169482676E+02  0.41800000000E+01 0. -1.
        -11    1    3    3    0    0  0.91681510523E+02 -0.55457893591E+00 -0.28179019087E+03  0.29633008386E+03  0.00000000000E+00 0.  1.
         11    1    3    3    0    0  0.76978429310E+00 -0.33830985834E+02 -0.19025759424E+03  0.19324357774E+03  0.00000000000E+00 0. -1.
</event>
<event>
 7    1  0.4096326E-006  0.2877587E+03  0.7561462E-02  0.1091525E+00
          1   -1    0    0  501    0  0.00000000000E+00  0.00000000000E+00  0.31906096868E+03  0.31906096868E+03  0.00000000000E+00 0. -1.
         -1   -1    0    0    0  501 -0.00000000000E+00 -0.00000000000E+00 -0.28348013025E+03  0.28348013025E+03  0.00000000000E+00 0.  1.
         23    2    1    2    0    0 -0.15802452622E+03  0.23008527828E+03  0.43202852948E+02  0.29657288573E+03  0.90432316555E+02 0.  0.
          5    1    1    2  502    0  0.75140562799E+02 -0.62957578273E+02 -0.56302247986E+02  0.11312460549E+03  0.41800000000E+01 0. -1.
         -5    1    1    2    0  502  0.82883963422E+02 -0.16712770001E+03  0.48680233472E+02  0.19284360771E+03  0.41800000000E+01 0. -1.
        -11    1    3    3    0    0 -0.14025583175E+03  0.13709962395E+03  0.10493209319E+02  0.19641311735E+03  0.00000000000E+00 0.  1.
         11    1    3    3    0    0 -0.17768694474E+02  0.92985654335E+02  0.32709643630E+02  0.10015976838E+03  0.00000000000E+00 0. -1.
</event>
<event>
 7    1  0.4096326E-006  0.9678710E+02  0.7561462E-02  0.1287201E+00
          2   -1    0    0  501    0  0.00000000000E+00  0.00000000000E+00  0.70033262845E+03  0.70033262845E+03  0.00000000000E+00 0. -1.
         -2   -1    0    0    0  501 -0.00000000000E+00 -0.00000000000E+00 -0.21773839059E+02  0.21773839059E+02  0.00000000000E+00 0.  1.
         23    2    1    2    0    0  0.53061645015E+02  0.36139996270E+02  0.36606848032E+03  0.37943988578E+03  0.76464744369E+02 0.  0.
          5    1    1    2  502    0 -0.52497509163E+02  0.56620417441E+01  0.29041534863E+03  0.29520602011E+03  0.41800000000E+01 0. -1.
         -5    1    1    2    0  502 -0.56413585149E+00 -0.41802038014E+02  0.22074960432E+02  0.47460561622E+02  0.41800000000E+01 0. -1.
        -11    1    3    3    0    0  0.27190886844E+02 -0.21987223121E+02  0.10249512430E+03  0.10829604247E+03  0.00000000000E+00 0. -1.
         11    1    3    3    0    0  0.25870758171E+02  0.58127219392E+02  0.26357335602E+03  0.27114384331E+03  0.00000000000E+00 0.  1.
</event>
<event>
 7    1  0.4096326E-006  0.3958147E+03  0.7561462E-02  0.1045239E+00
          1   -1    0    0  501    0  0.00000000000E+00  0.00000000000E+00  0.33618981497E+03  0.33618981497E+03  0.00000000000E+00 0. -1.
         -1   -1    0    0    0  501 -0.00000000000E+00 -0.00000000000E+00 -0.49150132684E+03  0.49150132684E+03  0.00000000000E+00 0.  1.
         23    2    1    2    0    0 -0.31034007037E+03  0.23784718270E+03 -0.49269595169E+02  0.40369274430E+03  0.87510554778E+02 0.  0.
          5    1    1    2  502    0  0.30718261592E+02 -0.29233384321E+02  0.27174834079E+02  0.50538563111E+02  0.41800000000E+01 0. -1.
         -5    1    1    2    0  502  0.27962180878E+03 -0.20861379838E+03 -0.13321675078E+03  0.37345983439E+03  0.41800000000E+01 0. -1.
        -11    1    3    3    0    0 -0.26420918316E+03  0.15782010836E+03 -0.46758235181E+02  0.31128766701E+03  0.00000000000E+00 0.  1.
         11    1    3    3    0    0 -0.46130887205E+02  0.80027074333E+02 -0.25113599874E+01  0.92405077294E+02  0.00000000000E+00 0. -1.
</event>
<event>
 7    1  0.4096326E-006  0.1143686E+03  0.7561462E-02  0.1252687E+00
         -1   -1    0    0    0  501 -0.00000000000E+00  0.00000000000E+00  0.15931978308E+03  0.15931978308E+03  0.00000000000E+00 0.  1.
          1   -1    0    0  501    0  0.00000000000E+00 -0.00000000000E+00 -0.11652594327E+03  0.11652594327E+03  0.00000000000E+00 0. -1.
         23    2    1    2    0    0  0.68969363758E+02  0.27893783296E+02 -0.15642187335E+02  0.11901199945E+03  0.91566051050E+02 0.  0.
          5    1    1    2  502    0 -0.12509229434E+02  0.28806235351E+02  0.69085349120E+02  0.76003538596E+02  0.41800000000E+01 0. -1.
         -5    1    1    2    0  502 -0.56460134324E+02 -0.56700018647E+02 -0.10649321973E+02  0.80830188302E+02  0.41800000000E+01 0. -1.
        -11    1    3    3    0    0 -0.47549212931E+01 -0.25475609839E+02 -0.10150109202E+02  0.27832367667E+02  0.00000000000E+00 0.  1.
         11    1    3    3    0    0  0.73724285051E+02  0.53369393135E+02 -0.54920781335E+01  0.91179631783E+02  0.00000000000E+00 0. -1.
</event>
<event>
 7    1  0.4096326E-006  0.7232371E+02  0.7561462E-02  0.1352365E+00
          2   -1    0    0  501    0  0.00000000000E+00  0.00000000000E+00  0.37824986226E+03  0.37824986226E+03  0.00000000000E+00 0. -1.
         -2   -1    0    0    0  501 -0.00000000000E+00 -0.00000000000E+00 -0.35735508105E+02  0.35735508105E+02  0.00000000000E+00 0.  1.
         23    2    1    2    0    0 -0.11195799822E+02  0.10785787574E+02  0.18992054901E+03  0.21317235672E+03  0.95556054674E+02 0.  0.
          5    1    1    2  502    0  0.19273744556E+02  0.15981371720E+02  0.16711466074E+03  0.16903154648E+03  0.41800000000E+01 0. -1.
         -5    1    1    2    0  502 -0.80779447338E+01 -0.26767159295E+02 -0.14520855598E+02  0.31781467164E+02  0.41800000000E+01 0.  1.
        -11    1    3    3    0    0  0.31528355784E+02  0.30565598061E+02  0.55662213484E+02  0.70898342810E+02  0.00000000000E+00 0.  1.
         11    1    3    3    0    0 -0.42724155606E+02 -0.19779810486E+02  0.13425833552E+03  0.14227401391E+03  0.00000000000E+00 0. -1.
</event>
<event>
 7    1  0.4096326E-006  0.1283412E+03  0.7561462E-02  0.1229938E+00
         -1   -1    0    0    0  501 -0.00000000000E+00  0.00000000000E+00  0.27809433234E+02  0.27809433234E+02  0.00000000000E+00 0.  1.
          1   -1    0    0  501    0  0.00000000000E+00 -0.00000000000E+00 -0.76591516973E+03  0.76591516973E+03  0.00000000000E+00 0. -1.
         23    2    1    2    0    0  0.88182657868E+02 -0.29541739798E+02 -0.43802152295E+03  0.45557322843E+03  0.83876196604E+02 0.  0.
          5    1    1    2  502    0 -0.26737058063E+02  0.65402373188E+02 -0.80003853810E+02  0.10681961298E+03  0.41800000000E+01 0.  1.
         -5    1    1    2    0  502 -0.61445599805E+02 -0.35860633390E+02 -0.22008035973E+03  0.23133176155E+03  0.41800000000E+01 0.  1.
        -11    1    3    3    0    0  0.50347447924E+02 -0.50561058189E+02 -0.35333229797E+03  0.36046497598E+03  0.00000000000E+00 0. -1.
         11    1    3    3    0    0  0.37835209944E+02  0.21019318390E+02 -0.84689224981E+02  0.95108252454E+02  0.00000000000E+00 0.  1.
</event>
<event>
 7    1  0.4096326E-006  0.1054271E+03  0.7561462E-02  0.1269280E+00
         -2   -1    0    0    0  501 -0.00000000000E+00  0.00000000000E+00  0.30649049261E+03  0.30649049261E+03  0.00000000000E+00 0.  1.
          2   -1    0    0  501    0  0.00000000000E+00 -0.00000000000E+00 -0.47296182420E+02  0.47296182420E+02  0.00000000000E+00 0. -1.
         23    2    1    2    0    0  0.42261590177E+02 -0.17498186454E+02  0.75201073943E+02  0.12664636812E+03  0.91059719426E+02 0.  0.
          5    1    1    2  502    0 -0.30035387844E+02  0.69211896187E+02  0.78582171176E+02  0.10901853569E+03  0.41800000000E+01 0. -1.
         -5    1    1    2    0  502 -0.12226202332E+02 -0.51713709733E+02  0.10541106508E+03  0.11812177123E+03  0.41800000000E+01 0. -1.
        -11    1    3    3    0    0 -0.12343356761E+02  0.14226629655E+02  0.58307184704E+02  0.61273838101E+02  0.00000000000E+00 0.  1.
         11    1    3    3    0    0  0.54604946938E+02 -0.31724816109E+02  0.16893889239E+02  0.65372530017E+02  0.00000000000E+00 0. -1.
</event>
<event>
 7    1  0.4096326E-006  0.7427966E+02  0.7561462E-02  0.1346116E+00
         -1   -1    0    0    0  501 -0.00000000000E+00  0.00000000000E+00  0.18200390194E+03  0.18200390194E+03  0.00000000000E+00 0.  1.
          1   -1    0    0  501    0  0.00000000000E+00 -0.00000000000E+00 -0.82261114051E+02  0.82261114051E+02  0.00000000000E+00 0. -1.
         23    2    1    2    0    0 -0.43673838444E+02  0.33312656520E+02  0.25508756705E+02  0.10878486143E+03  0.90367649957E+02 0.  0.
          5    1    1    2  502    0  0.28047244249E+02 -0.18597446189E+01  0.10489207595E+03  0.10867348599E+03  0.41800000000E+01 0.  1.
         -5    1    1    2    0  502  0.15626594195E+02 -0.31452911902E+02 -0.30658044770E+02  0.46806668567E+02  0.41800000000E+01 0.  1.
        -11    1    3    3    0    0 -0.55630705894E+02  0.72538880293E+01 -0.15998378435E+02  0.58338173114E+02  0.00000000000E+00 0. -1.
         11    1    3    3    0    0  0.11956867449E+02  0.26058768491E+02  0.41507135140E+02  0.50446688316E+02  0.00000000000E+00 0.  1.
</event>
<event>
 7    1  0.4096326E-006  0.2037004E+03  0.7561462E-02  0.1146654E+00
         -2   -1    0    0    0  501 -0.00000000000E+00  0.00000000000E+00  0.68935404075E+02  0.68935404075E+02  0.00000000000E+00 0.  1.
          2   -1    0    0  501    0  0.00000000000E+00 -0.00000000000E+00 -0.83551476291E+03  0.83551476291E+03  0.00000000000E+00 0. -1.
         23    2    1    2    0    0  0.11050656142E+03 -0.16279176831E+03 -0.52663654446E+03  0.56988787140E+03  0.93344930610E+02 0.  0.
          5    1    1    2  502    0 -0.80979827030E+02  0.88778461846E+02 -0.22246050613E+03  0.25287446858E+03  0.41800000000E+01 0. -1.
         -5    1    1    2    0  502 -0.29526734393E+02  0.74013306462E+02 -0.17482308246E+02  0.81687826994E+02  0.41800000000E+01 0. -1.
        -11    1    3    3    0    0  0.11711845363E+03 -0.13463721939E+03 -0.37220522993E+03  0.41277190579E+03  0.00000000000E+00 0.  1.
         11    1    3    3    0    0 -0.66118922072E+01 -0.28154548920E+02 -0.15443131453E+03  0.15711596561E+03  0.00000000000E+00 0. -1.
</event>
<event>
 7    1  0.4096326E-006  0.5733624E+02  0.7561462E-02  0.1409363E+00
          1   -1    0    0  501    0  0.00000000000E+00  0.00000000000E+00  0.94927166930E+02  0.94927166930E+02  0.00000000000E+00 0.  1.
         -1   -1    0    0    0  501 -0.00000000000E+00 -0.00000000000E+00 -0.14402590414E+03  0.14402590414E+03  0.00000000000E+00 0. -1.
         23    2    1    2    0    0 -0.34619891691E+02  0.63599847481E+00  0.52924985976E+01  0.98221776905E+02  0.91763639435E+02 0.  0.
          5    1    1    2  502    0  0.36859384850E+02  0.23574712396E+02  0.29732354653E+02  0.53064739981E+02  0.41800000000E+01 0.  1.
         -5    1    1    2    0  502 -0.22394931590E+01 -0.24210710871E+02 -0.84123590457E+02  0.87666554181E+02  0.41800000000E+01 0.  1.
        -11    1    3    3    0    0 -0.27881695506E+02 -0.13057135841E+02  0.45657562883E+02  0.55068055977E+02  0.00000000000E+00 0.  1.
         11    1    3    3    0    0 -0.67381961847E+01  0.13693134316E+02 -0.40365064285E+02  0.43153720928E+02  0.00000000000E+00 0. -1.
</event>
<event>
 7    1  0.4096326E-006  0.2281266E+03  0.7561462E-02  0.1127965E+00
          2   -1    0    0  501    0  0.00000000000E+00  0.00000000000E+00  0.35980644060E+03  0.35980644060E+03  0.00000000000E+00 0. -1.
         -2   -1    0    0    0  501 -0.00000000000E+00 -0.00000000000E+00 -0.27507962581E+03  0.27507962581E+03  0.00000000000E+00 0.  1.
         23    2    1    2    0    0  0.18300961112E+03 -0.88232463336E+02  0.25718058076E+03  0.34049617854E+03  0.92294697186E+02 0.  0.
          5    1    1    2  502    0  0.13937632112E+02 -0.10493288763E+02 -0.17100855446E+02  0.24784639496E+02  0.41800000000E+01 0. -1.
         -5    1    1    2    0  502 -0.19694724323E+03  0.98725752099E+02 -0.15535291053E+03  0.26960524838E+03  0.41800000000E+01 0. -1.
        -11    1    3    3    0    0  0.17310291647E+03 -0.52503497988E+02  0.23743069074E+03  0.29848713523E+03  0.00000000000E+00 0. -1.
         11    1    3    3    0    0  0.99066946457E+01 -0.35728965348E+02  0.19749890022E+02  0.42009043306E+02  0.00000000000E+00 0.  1.
</event>
<event>
 7    1  0.6478859E-006  0.4282239E+03  0.7561462E-02  0.1034422E+00
          4   -1    0    0  501    0  0.00000000000E+00  0.00000000000E+00  0.14427834727E+04  0.14427834727E+04  0.00000000000E+00 0. -1.
         -4   -1    0    0    0  501 -0.00000000000E+00 -0.00000000000E+00 -0.13812898724E+03  0.13812898724E+03  0.00000000000E+00 0.  1.
         23    2    1    2    0    0  0.32718704800E+03 -0.25883369960E+03  0.84538660909E+03  0.94796617984E+03  0.99574649735E+02 0.  0.
          5    1    1    2  502    0 -0.32938423746E+03  0.23725781992E+03  0.40093167514E+03  0.57056895248E+03  0.41800000000E+01 0. -1.
         -5    1    1    2    0  502  0.21971894631E+01  0.21575879677E+02  0.58336201202E+02  0.62377327581E+02  0.41800000000E+01 0. -1.
        -11    1    3    3    0    0  0.14225929275E+03 -0.17453499102E+03  0.46724547753E+03  0.51866993911E+03  0.00000000000E+00 0. -1.
         11    1    3    3    0    0  0.18492775525E+03 -0.84298708576E+02  0.37814113156E+03  0.42929624073E+03  0.00000000000E+00 0.  1.
</event>
<event>
 7    1  0.4096326E-006  0.1729996E+03  0.7561462E-02  0.1174755E+00
         -2   -1    0    0    0  501 -0.00000000000E+00  0.00000000000E+00  0.33690729395E+02  0.33690729395E+02  0.00000000000E+00 0.  1.
          2   -1    0    0  501    0  0.00000000000E+00 -0.00000000000E+00 -0.99796692575E+03  0.99796692575E+03  0.00000000000E+00 0. -1.
         23    2    1    2    0    0  0.62150087313E+02  0.13019906802E+03 -0.54333214871E+03  0.56942819642E+03  0.90687465425E+02 0.  0.
          5    1    1    2  502    0 -0.72652058412E+02 -0.31275310817E+02 -0.10872013935E+03  0.13451396864E+03  0.41800000000E+01 0. -1.
         -5    1    1    2    0  502  0.10501971099E+02 -0.98923757200E+02 -0.31222390829E+03  0.32771549009E+03  0.41800000000E+01 0. -1.
        -11    1    3    3    0    0  0.81967759309E+02  0.11888564152E+03 -0.42349530132E+03  0.44743801757E+03  0.00000000000E+00 0.  1.
         11    1    3    3    0    0 -0.19817671996E+02  0.11313426495E+02 -0.11983684739E+03  0.12199017885E+03  0.00000000000E+00 0. -1.
</event>
<event>
 7    1  0.4096326E-006  0.6639814E+02  0.7561462E-02  0.1372788E+00
          2   -1    0    0  501    0  0.00000000000E+00  0.00000000000E+00  0.21011907131E+03  0.21011907131E+03  0.00000000000E+00 0. -1.
         -2   -1    0    0    0  501 -0.00000000000E+00 -0.00000000000E+00 -0.49857637259E+02  0.49857637259E+02  0.00000000000E+00 0.  1.
         23    2    1    2    0    0 -0.18759206345E+02 -0.61565150532E+01  0.92060790611E+02  0.11615752690E+03  0.68026255132E+02 0.  0.
          5    1    1    2  502    0 -0.11245833715E+02  0.24070585844E+02 -0.29531497529E+02  0.39943004709E+02  0.41800000000E+01 0.  1.
         -5    1    1    2    0  502  0.30005040060E+02 -0.17914070791E+02  0.97732140968E+02  0.10387617696E+03  0.41800000000E+01 0.  1.
        -11    1    3    3    0    0  0.25035124940E+02 -0.95176853057E+01  0.38286303638E+02  0.46724563781E+02  0.00000000000E+00 0.  1.
         11    1    3    3    0    0 -0.43794331285E+02  0.33611702526E+01  0.53774486974E+02  0.69432963118E+02  0.00000000000E+00 0. -1.
</event>
<event>
 7    1  0.4096326E-006  0.1146744E+03  0.7561462E-02  0.1252150E+00
         -1   -1    0    0    0  501 -0.00000000000E+00  0.00000000000E+00  0.28442882906E+02  0.28442882906E+02  0.00000000000E+00 0.  1.
          1   -1    0    0  501    0  0.00000000000E+00 -0.00000000000E+00 -0.55382137414E+03  0.55382137414E+03  0.00000000000E+00 0. -1.
         23    2    1    2    0    0 -0.47713461469E+02  0.39002883250E+02 -0.26066354250E+03  0.28311821298E+03  0.91720449330E+02 0.  0.
          5    1    1    2  502    0  0.70426188983E+02 -0.64670169887E+02 -0.23444995911E+03  0.25323178058E+03  0.41800000000E+01 0. -1.
         -5    1    1    2    0  502 -0.22712727514E+02  0.25667286637E+02 -0.30264989617E+02  0.45914263481E+02  0.41800000000E+01 0. -1.
        -11    1    3    3    0    0 -0.57396576986E+02 -0.15553599025E+01 -0.85016047447E+02  0.10258905652E+03  0.00000000000E+00 0.  1.
         11    1    3    3    0    0  0.96831155177E+01  0.40558243152E+02 -0.17564749506E+03  0.18052915646E+03  0.00000000000E+00 0. -1.
</event>
<event>
 7    1  0.4096326E-006  0.1139957E+03  0.7561462E-02  0.1253344E+00
         -1   -1    0    0    0  501 -0.00000000000E+00  0.00000000000E+00  0.10659555048E+03  0.10659555048E+03  0.00000000000E+00 0.  1.
          1   -1    0    0  501    0  0.00000000000E+00 -0.00000000000E+00 -0.56346168236E+03  0.56346168236E+03  0.00000000000E+00 0. -1.
         23    2    1    2    0    0  0.43785790848E+02 -0.67760065340E+02 -0.47164948626E+03  0.48699575276E+03  0.90570433314E+02 0.  0.
          5    1    1    2  502    0  0.21921199406E+02  0.15176882859E+01 -0.59603016545E+02  0.63661875109E+02  0.41800000000E+01 0. -1.
         -5    1    1    2    0  502 -0.65706990255E+02  0.66242377054E+02  0.74386370922E+02  0.11939960496E+03  0.41800000000E+01 0.  1.
        -11    1    3    3    0    0 -0.58892665330E+01 -0.61931959925E+02 -0.34965847889E+03  0.35514969095E+03  0.00000000000E+00 0. -1.
         11    1    3    3    0    0  0.49675057381E+02 -0.58281054143E+01 -0.12199100736E+03  0.13184606181E+03  0.00000000000E+00 0.  1.
</event>
<event>
 7    1  0.4096326E-006  0.8865382E+02  0.7561462E-02  0.1306145E+00
          1   -1    0    0  501    0  0.00000000000E+00  0.00000000000E+00  0.20178103094E+03  0.20178103094E+03  0.00000000000E+00 0. -1.
         -1   -1    0    0    0  501 -0.00000000000E+00 -0.00000000000E+00 -0.63504469860E+02  0.63504469860E+02  0.00000000000E+00 0.  1.
         23    2    1    2    0    0 -0.20700087695E+02  0.11604235279E+02  0.87971770113E+02  0.12838740143E+03  0.90449657837E+02 0.  0.
          5    1    1    2  502    0  0.43172538746E+01 -0.56743820373E+02 -0.11813870149E+02  0.58271260150E+02  0.41800000000E+01 0.  1.
         -5    1    1    2    0  502  0.16382833820E+02  0.45139585094E+02  0.62118661117E+02  0.78626839218E+02  0.41800000000E+01 0.  1.
        -11    1    3    3    0    0  0.52805909089E+01  0.36011916889E+02  0.33344162503E+01  0.36549434060E+02  0.00000000000E+00 0.  1.
         11    1    3    3    0    0 -0.25980678604E+02 -0.24407681610E+02  0.84637353863E+02  0.91837967373E+02  0.00000000000E+00 0. -1.
</event>
<event>
 7    1  0.4096326E-006  0.1119310E+03  0.7561462E-02  0.1257035E+00
         -2   -1    0    0    0  501 -0.00000000000E+00  0.00000000000E+00  0.15767519669E+03  0.15767519669E+03  0.00000000000E+00 0.  1.
          2   -1    0    0  501    0  0.00000000000E+00 -0.00000000000E+00 -0.12751469051E+03  0.12751469051E+03  0.00000000000E+00 0. -1.
         23    2    1    2    0    0 -0.30844258759E+02 -0.68138078929E+02 -0.39636719572E+02  0.12359407264E+03  0.90056977273E+02 0.  0.
          5    1    1    2  502    0 -0.44301747039E+02  0.47446952287E+01  0.81769642761E+01  0.45491670318E+02  0.41800000000E+01 0.  1.
         -5    1    1    2    0  502  0.75146005798E+02  0.63393383700E+02  0.61620261472E+02  0.11610414423E+03  0.41800000000E+01 0.  1.
        -11    1    3    3    0    0 -0.10537570654E+02 -0.10212134602E+01  0.25672390233E+02  0.27769675772E+02  0.00000000000E+00 0.  1.
         11    1    3    3    0    0 -0.20306688105E+02 -0.67116865469E+02 -0.65309109805E+02  0.95824396871E+02  0.00000000000E+00 0. -1.
</event>
<event>
 7    1  0.4096326E-006  0.1114069E+03  0.7561462E-02  0.1257986E+00
         -3   -1    0    0    0  501 -0.00000000000E+00  0.00000000000E+00  0.20182352291E+03  0.20182352291E+03  0.00000000000E+00 0.  1.
          3   -1    0    0  501    0  0.00000000000E+00 -0.00000000000E+00 -0.99203921357E+02  0.99203921357E+02  0.00000000000E+00 0. -1.
         23    2    1    2    0    0  0.36869211587E+02 -0.29009760299E+02 -0.35303707992E+02  0.10900669490E+03  0.91843360019E+02 0.  0.
          5    1    1    2  502    0  0.60220323388E+01  0.64881996340E+02  0.33244962170E+02  0.73270991751E+02  0.41800000000E+01 0.  1.
         -5    1    1    2    0  502 -0.42891243926E+02 -0.35872236041E+02  0.10467834737E+03  0.11874975761E+03  0.41800000000E+01 0.  1.
        -11    1    3    3    0    0 -0.27186926323E+02 -0.25534153092E+02 -0.36616304211E+01  0.37477052637E+02  0.00000000000E+00 0. -1.
         11    1    3    3    0    0  0.64056137910E+02 -0.34756072066E+01 -0.31642077571E+02  0.71529642264E+02  0.00000000000E+00 0.  1.
</event>
<event>
 7    1  0.4096326E-006  0.1219105E+03  0.7561462E-02  0.1239978E+00
          2   -1    0    0  501    0  0.00000000000E+00  0.00000000000E+00  0.40158024236E+03  0.40158024236E+03  0.00000000000E+00 0. -1.
         -2   -1    0    0    0  501 -0.00000000000E+00 -0.00000000000E+00 -0.26658380396E+03  0.26658380396E+03  0.00000000000E+00 0.  1.
         23    2    1    2    0    0  0.95243959990E+02 -0.29022950493E+02  0.30750543054E+03  0.33512933448E+03  0.88534385676E+02 0.  0.
          5    1    1    2  502    0 -0.44476606819E+02 -0.11780747674E+02  0.68901676722E+02  0.82957025170E+02  0.41800000000E+01 0. -1.
         -5    1    1    2    0  502 -0.50767353171E+02  0.40803698167E+02 -0.24141066886E+03  0.25007768668E+03  0.41800000000E+01 0.  1.
        -11    1    3    3    0    0 -0.77977567947E+01 -0.28253469757E+02  0.53190476852E+02  0.60731296644E+02  0.00000000000E+00 0.  1.
         11    1    3    3    0    0  0.10304171678E+03 -0.76948073602E+00  0.25431495369E+03  0.27439803784E+03  0.00000000000E+00 0. -1.
</event>
<event>
 7    1  0.4096326E-006  0.1260186E+03  0.7561462E-02  0.1233486E+00
          1   -1    0    0  501    0  0.00000000000E+00  0.00000000000E+00  0.57675254334E+02  0.57675254334E+02  0.00000000000E+00 0. -1.
         -1   -1    0    0    0  501 -0.00000000000E+00 -0.00000000000E+00 -0.33456984866E+03  0.33456984866E+03  0.00000000000E+00 0.  1.
         23    2    1    2    0    0 -0.53743235819E+02 -0.61850760454E+02 -0.86254778090E+02  0.14995569058E+03  0.91285105194E+02 0.  0.
          5    1    1    2  502    0 -0.35558332265E+02  0.30352809472E+02 -0.29802775785E+02  0.55600052885E+02  0.41800000000E+01 0. -1.
         -5    1    1    2    0  502  0.89301568084E+02  0.31497950982E+02 -0.16083704045E+03  0.18668935952E+03  0.41800000000E+01 0. -1.
        -11    1    3    3    0    0 -0.61911480992E+02 -0.16279734530E+02 -0.81175703492E+02  0.10338063684E+03  0.00000000000E+00 0.  1.
         11    1    3    3    0    0  0.81682451726E+01 -0.45571025924E+02 -0.50790745972E+01  0.46575053749E+02  0.00000000000E+00 0. -1.
</event>
<event>
 7    1  0.4096326E-006  0.1243503E+03  0.7561462E-02  0.1236088E+00
          2   -1    0    0  501    0  0.00000000000E+00  0.00000000000E+00  0.12446734917E+04  0.12446734917E+04  0.00000000000E+00 0. -1.
         -2   -1    0    0    0  501 -0.00000000000E+00 -0.00000000000E+00 -0.22048172079E+02  0.22048172079E+02  0.00000000000E+00 0.  1.
         23    2    1    2    0    0 -0.42956233674E+02  0.11616917769E+03  0.49284786701E+03  0.51601337774E+03  0.89611774512E+02 0.  0.
          5    1    1    2  502    0  0.82264860580E+01 -0.19362447190E+02  0.48098915630E+03  0.48146715393E+03  0.41800000000E+01 0. -1.
         -5    1    1    2    0  502  0.34729747616E+02 -0.96806730502E+02  0.24878829632E+03  0.26924113212E+03  0.41800000000E+01 0. -1.
        -11    1    3    3    0    0 -0.39559761973E+02  0.95449727425E+02  0.48086166192E+03  0.49183692738E+03  0.00000000000E+00 0. -1.
         11    1    3    3    0    0 -0.33964717006E+01  0.20719450268E+02  0.11986205094E+02  0.24176450359E+02  0.00000000000E+00 0.  1.
</event>
<event>
 7    1  0.4096326E-006  0.1474300E+03  0.7561462E-02  0.1203667E+00
         -2   -1    0    0    0  501 -0.00000000000E+00  0.00000000000E+00  0.31654155296E+03  0.31654155296E+03  0.00000000000E+00 0.  1.
          2   -1    0    0  501    0  0.00000000000E+00 -0.00000000000E+00 -0.95427616356E+02  0.95427616356E+02  0.00000000000E+00 0. -1.
         23    2    1    2    0    0 -0.37975867112E+02 -0.12820391915E+03  0.82845373528E+02  0.18252402327E+03  0.92591855947E+02 0.  0.
          5    1    1    2  502    0 -0.15844276281E+02  0.69191206880E+02  0.16338554391E+01  0.71123878438E+02  0.41800000000E+01 0.  1.
         -5    1    1    2    0  502  0.53820143393E+02  0.59012712274E+02  0.13663470764E+03  0.15832126760E+03  0.41800000000E+01 0.  1.
        -11    1    3    3    0    0 -0.45627631173E+02 -0.61200683146E+02  0.86023253604E+02  0.11501045389E+03  0.00000000000E+00 0.  1.
         11    1    3    3    0    0  0.76517640606E+01 -0.67003236008E+02 -0.31778800760E+01  0.67513569381E+02  0.00000000000E+00 0. -1.
</event>
<event>
 7    1  0.4096326E-006  0.5164108E+02  0.7561462E-02  0.1436686E+00
         -2   -1    0    0    0  501 -0.00000000000E+00  0.00000000000E+00  0.85117685704E+02  0.85117685704E+02  0.00000000000E+00 0.  1.
          2   -1    0    0  501    0  0.00000000000E+00 -0.00000000000E+00 -0.22696434846E+03  0.22696434846E+03  0.00000000000E+00 0. -1.
         23    2    1    2    0    0  0.23356395112E+02  0.21584078789E+02 -0.16877140298E+03  0.19321951190E+03  0.88535866560E+02 0.  0.
          5    1    1    2  502    0 -0.23640507623E+02 -0.21033702709E+02 -0.40354104261E+02  0.51451106704E+02  0.41800000000E+01 0. -1.
         -5    1    1    2    0  502  0.28411251076E+00 -0.55037607985E+00  0.67278844478E+02  0.67411415562E+02  0.41800000000E+01 0.  1.
        -11    1    3    3    0    0 -0.14627126230E+02 -0.10016881546E+02 -0.38388287287E+00  0.17732402649E+02  0.00000000000E+00 0.  1.
         11    1    3    3    0    0  0.37983521343E+02  0.31600960334E+02 -0.16838752010E+03  0.17548710925E+03  0.00000000000E+00 0. -1.
</event>
<event>
 7    1  0.4096326E-006  0.8600735E+02  0.7561462E-02  0.1312819E+00
          2   -1    0    0  501    0  0.00000000000E+00  0.00000000000E+00  0.54362987405E+02  0.54362987405E+02  0.00000000000E+00 0. -1.
         -2   -1    0    0    0  501 -0.00000000000E+00 -0.00000000000E+00 -0.22557410359E+03  0.22557410359E+03  0.00000000000E+00 0.  1.
         23    2    1    2    0    0  0.18944864543E+02  0.10203745376E+02 -0.46906435440E+02  0.10227997497E+03  0.88306031970E+02 0.  0.
          5    1    1    2  502    0  0.36131225855E+00 -0.42843337836E+02 -0.13190846361E+03  0.13875517041E+03  0.41800000000E+01 0. -1.
         -5    1    1    2    0  502 -0.19306176801E+02  0.32639592459E+02  0.76037828656E+01  0.38901945613E+02  0.41800000000E+01 0. -1.
        -11    1    3    3    0    0  0.53713584495E+02  0.14871231962E+02 -0.26754086299E+02  0.61823004077E+02  0.00000000000E+00 0.  1.
         11    1    3    3    0    0 -0.34768719952E+02 -0.46674865858E+01 -0.20152349141E+02  0.40456970895E+02  0.00000000000E+00 0. -1.
</event>
<event>
 7    1  0.4096326E-006  0.1237662E+03  0.7561462E-02  0.1237010E+00
          2   -1    0    0  501    0  0.00000000000E+00  0.00000000000E+00  0.58297474750E+03  0.58297474750E+03  0.00000000000E+00 0. -1.
         -2   -1    0    0    0  501 -0.00000000000E+00 -0.00000000000E+00 -0.34648450116E+02  0.34648450116E+02  0.00000000000E+00 0.  1.
         23    2    1    2    0    0  0.12958731193E+02 -0.89549221663E+02  0.27588521624E+03  0.30447896025E+03  0.91694017671E+02 0.  0.
          5    1    1    2  502    0  0.22043275400E+02 -0.25553304822E+02  0.60649304254E+02  0.69531919895E+02  0.41800000000E+01 0. -1.
         -5    1    1    2    0  502 -0.35002006594E+02  0.11510252648E+03  0.21179177688E+03  0.24361231747E+03  0.41800000000E+01 0. -1.
        -11    1    3    3    0    0 -0.36174272316E+01 -0.51718253713E+02  0.25091349637E+03  0.25621367296E+03  0.00000000000E+00 0. -1.
         11    1    3    3    0    0  0.16576158425E+02 -0.37830967949E+02  0.24971719872E+02  0.48265287293E+02  0.00000000000E+00 0.  1.
</event>
<event>
 7    1  0.4096326E-006  0.8390618E+02  0.7561462E-02  0.1318318E+00
          2   -1    0    0  501    0  0.00000000000E+00  0.00000000000E+00  0.41645305738E+03  0.41645305738E+03  0.00000000000E+00 0. -1.
         -2   -1    0    0    0  501 -0.00000000000E+00 -0.00000000000E+00 -0.42090856413E+02  0.42090856413E+02  0.00000000000E+00 0.  1.
         23    2    1    2    0    0 -0.60622186344E+02 -0.41927792822E+02  0.20874487880E+03  0.23829594485E+03  0.88190382810E+02 0.  0.
          5    1    1    2  502    0  0.61439310477E+02  0.13257945617E+02  0.12258305484E+02  0.64173985751E+02  0.41800000000E+01 0.  1.
         -5    1    1    2    0  502 -0.81712413227E+00  0.28669847205E+02  0.15335901668E+03  0.15607398318E+03  0.41800000000E+01 0.  1.
        -11    1    3    3    0    0 -0.34099011078E+02 -0.12751127717E+02  0.13058201674E+02  0.38676225844E+02  0.00000000000E+00 0.  1.
         11    1    3    3    0    0 -0.26523175266E+02 -0.29176665105E+02  0.19568667713E+03  0.19961971901E+03  0.00000000000E+00 0. -1.
</event>
<event>
 7    1  0.4096326E-006  0.5669563E+02  0.7561462E-02  0.1412246E+00
         -2   -1    0    0    0  501 -0.00000000000E+00  0.00000000000E+00  0.64696702006E+02  0.64696702006E+02  0.00000000000E+00 0.  1.
          2   -1    0    0  501    0  0.00000000000E+00 -0.00000000000E+00 -0.19968429475E+03  0.19968429475E+03  0.00000000000E+00 0. -1.
         23    2    1    2    0    0 -0.20711281453E+02 -0.29403355727E+02 -0.72354514208E+02  0.11996800030E+03  0.88677115778E+02 0.  0.
          5    1    1    2  502    0  0.49903392274E+01  0.16751206909E+02 -0.10007415982E+03  0.10167505240E+03  0.41800000000E+01 0.  1.
         -5    1    1    2    0  502  0.15720942225E+02  0.12652148818E+02  0.37441081280E+02  0.42737944050E+02  0.41800000000E+01 0.  1.
        -11    1    3    3    0    0  0.20432793577E+02 -0.26641476692E+02 -0.71195441921E+02  0.78715044839E+02  0.00000000000E+00 0. -1.
         11    1    3    3    0    0 -0.41144075030E+02 -0.27618790352E+01 -0.11590722875E+01  0.41252955463E+02  0.00000000000E+00 0.  1.
</event>
<event>
 7    1  0.4096326E-006  0.1079852E+03  0.7561462E-02  0.1264347E+00
          2   -1    0    0  501    0  0.00000000000E+00  0.00000000000E+00  0.24611721275E+03  0.24611721275E+03  0.00000000000E+00 0. -1.
         -2   -1    0    0    0  501 -0.00000000000E+00 -0.00000000000E+00 -0.64697812809E+02  0.64697812809E+02  0.00000000000E+00 0.  1.
         23    2    1    2    0    0 -0.12662326158E+02  0.10139213602E+02  0.15774241906E+03  0.18247592131E+03  0.90286504690E+02 0.  0.
          5    1    1    2  502    0  0.20505588889E+01 -0.67476336574E+02  0.14288550973E+02  0.69129558643E+02  0.41800000000E+01 0.  1.
         -5    1    1    2    0  502  0.10611767269E+02  0.57337122972E+02  0.93884299077E+01  0.59209545610E+02  0.41800000000E+01 0.  1.
        -11    1    3    3    0    0 -0.46593437075E+02 -0.13511246908E+02  0.66676698504E+02  0.82457772798E+02  0.00000000000E+00 0.  1.
         11    1    3    3    0    0  0.33931110917E+02  0.23650460510E+02  0.91065720557E+02  0.10001814851E+03  0.00000000000E+00 0. -1.
</event>
<event>
 7    1  0.4096326E-006  0.2962789E+03  0.7561462E-02  0.1087116E+00
         -1   -1    0    0    0  501 -0.00000000000E+00  0.00000000000E+00  0.13675919602E+03  0.13675919602E+03  0.00000000000E+00 0.  1.
          1   -1    0    0  501    0  0.00000000000E+00 -0.00000000000E+00 -0.68896536093E+03  0.68896536093E+03  0.00000000000E+00 0. -1.
         23    2    1    2    0    0 -0.26571843979E+03 -0.94071414413E+02 -0.19611183193E+03  0.35465480198E+03  0.88681777682E+02 0.  0.
          5    1    1    2  502    0  0.10949037049E+03  0.95062105722E+02 -0.22172486543E+03  0.26496100378E+03  0.41800000000E+01 0.  1.
         -5    1    1    2    0  502  0.15622806930E+03 -0.99069130868E+00 -0.13436946755E+03  0.20610875119E+03  0.41800000000E+01 0.  1.
        -11    1    3    3    0    0 -0.15273297990E+03 -0.15344057992E+02 -0.13328134177E+03  0.20328974231E+03  0.00000000000E+00 0. -1.
         11    1    3    3    0    0 -0.11298545989E+03 -0.78727356422E+02 -0.62830490156E+02  0.15136505967E+03  0.00000000000E+00 0.  1.
</event>
<event>
 7    1  0.4096326E-006  0.1407502E+03  0.7561462E-02  0.1212323E+00
          1   -1    0    0  501    0  0.00000000000E+00  0.00000000000E+00  0.11219738763E+04  0.11219738763E+04  0.00000000000E+00 0. -1.
         -1   -1    0    0    0  501 -0.00000000000E+00 -0.00000000000E+00 -0.23343503091E+02  0.23343503091E+02  0.00000000000E+00 0.  1.
         23    2    1    2    0    0 -0.10711268778E+03  0.14990001203E+02  0.57272877118E+03  0.59403013276E+03  0.11469841006E+03 0.  0.
          5    1    1    2  502    0  0.41440581085E+02 -0.51339745912E+02  0.39364380883E+03  0.39915662578E+03  0.41800000000E+01 0.  1.
         -5    1    1    2    0  502  0.65672106699E+02  0.36349744708E+02  0.13225779318E+03  0.15213062084E+03  0.41800000000E+01 0.  1.
        -11    1    3    3    0    0 -0.48008922411E+02  0.51766142027E+02  0.15218873551E+03  0.16776770043E+03  0.00000000000E+00 0.  1.
         11    1    3    3    0    0 -0.59103765372E+02 -0.36776140824E+02  0.42054003567E+03  0.42626243233E+03  0.00000000000E+00 0. -1.
</event>
<event>
 7    1  0.4096326E-006  0.1107173E+03  0.7561462E-02  0.1259247E+00
          1   -1    0    0  501    0  0.00000000000E+00  0.00000000000E+00  0.63550208705E+03  0.63550208705E+03  0.00000000000E+00 0. -1.
         -1   -1    0    0    0  501 -0.00000000000E+00 -0.00000000000E+00 -0.24530732130E+02  0.24530732130E+02  0.00000000000E+00 0.  1.
         23    2    1    2    0    0 -0.43089352260E+02  0.77865336895E+01  0.38650029778E+03  0.39935766164E+03  0.90480602006E+02 0.  0.
          5    1    1    2  502    0  0.35952503108E+02  0.55840588790E+02  0.13576545547E+03  0.15119684234E+03  0.41800000000E+01 0.  1.
         -5    1    1    2    0  502  0.71368491522E+01 -0.63627122480E+02  0.88705601679E+02  0.10947831520E+03  0.41800000000E+01 0.  1.
        -11    1    3    3    0    0 -0.18961496169E+02  0.43599827467E+02  0.28670074658E+03  0.29061624418E+03  0.00000000000E+00 0. -1.
         11    1    3    3    0    0 -0.24127856091E+02 -0.35813293778E+02  0.99799551198E+02  0.10874141745E+03  0.00000000000E+00 0.  1.
</event>
<event>
 6    1  0.4096326E-006  0.9942124E+02  0.7561462E-02  0.1281518E+00
         -1   -1    0    0    0  501 -0.00000000000E+00  0.00000000000E+00  0.10834134673E+03  0.10834134673E+03  0.00000000000E+00 0.  1.
          1   -1    0    0  501    0  0.00000000000E+00 -0.00000000000E+00 -0.10677627551E+03  0.10677627551E+03  0.00000000000E+00 0. -1.
          5    1    1    2  502    0  0.74827998013E+02  0.18518893268E+02  0.19221370113E+02  0.79555717353E+02  0.41800000000E+01 0.  1.
         -5    1    1    2    0  502 -0.51733452277E+02  0.19889767329E+02  0.18220539858E+02  0.58492849150E+02  0.41800000000E+01 0.  1.
        -11    1    1    2    0    0 -0.25238773477E+02  0.22565141665E+01 -0.23367735631E+02  0.34469386582E+02  0.00000000000E+00 0. -1.
         11    1    1    2    0    0  0.21442277405E+01 -0.40665174764E+02 -0.12509103120E+02  0.42599669154E+02  0.00000000000E+00 0.  1.
</event>
<event>
 7    1  0.4096326E-006  0.8165099E+02  0.7561462E-02  0.1324430E+00
          1   -1    0    0  501    0  0.00000000000E+00  0.00000000000E+00  0.47661932941E+03  0.47661932941E+03  0.00000000000E+00 0. -1.
         -1   -1    0    0    0  501 -0.00000000000E+00 -0.00000000000E+00 -0.25384880615E+02  0.25384880615E+02  0.00000000000E+00 0.  1.
         23    2    1    2    0    0 -0.15317300002E+02 -0.12744814905E+02  0.21343158335E+03  0.23257132654E+03  0.90218241898E+02 0.  0.
          5    1    1    2  502    0 -0.31172351130E+02  0.11351554369E+02  0.21478146292E+03  0.21736863269E+03  0.41800000000E+01 0.  1.
         -5    1    1    2    0  502  0.46489651132E+02  0.13932605361E+01  0.23021402531E+02  0.52064250804E+02  0.41800000000E+01 0.  1.
        -11    1    3    3    0    0  0.23432817572E+02 -0.32186593406E+02  0.52419037646E+02  0.65824229902E+02  0.00000000000E+00 0.  1.
         11    1    3    3    0    0 -0.38750117575E+02  0.19441778500E+02  0.16101254570E+03  0.16674709664E+03  0.00000000000E+00 0. -1.
</event>
<event>
 7    1  0.4096326E-006  0.1072199E+03  0.7561462E-02  0.1265807E+00
         -1   -1    0    0    0  501 -0.00000000000E+00  0.00000000000E+00  0.85115327331E+02  0.85115327331E+02  0.00000000000E+00 0.  1.
          1   -1    0    0  501    0  0.00000000000E+00 -0.00000000000E+00 -0.51928275087E+03  0.51928275087E+03  0.00000000000E+00 0. -1.
         23    2    1    2    0    0  0.72904560857E+02  0.89538724372E+01 -0.45426420729E+03  0.47051977672E+03  0.98171500128E+02 0.  0.
          5    1    1    2  502    0  0.11433154098E+02  0.32348559267E+01 -0.31671518675E+02  0.34084289646E+02  0.41800000000E+01 0. -1.
         -5    1    1    2    0  502 -0.84337714954E+02 -0.12188728364E+02  0.51768302422E+02  0.99794011837E+02  0.41800000000E+01 0.  1.
        -11    1    3    3    0    0  0.85186107517E+02  0.31524281585E+02 -0.40380427916E+03  0.41389412791E+03  0.00000000000E+00 0. -1.
         11    1    3    3    0    0 -0.12281546661E+02 -0.22570409148E+02 -0.50459928121E+02  0.56625648813E+02  0.00000000000E+00 0.  1.
</event>
<event>
 7    1  0.4096326E-006  0.1333588E+03  0.7561462E-02  0.1222555E+00
         -2   -1    0    0    0  501 -0.00000000000E+00  0.00000000000E+00  0.16928903863E+02  0.16928903863E+02  0.00000000000E+00 0. -1.
          2   -1    0    0  501    0  0.00000000000E+00 -0.00000000000E+00 -0.10937993795E+04  0.10937993795E+04  0.00000000000E+00 0.  1.
         23    2    1    2    0    0 -0.74099217623E+02 -0.23085640953E+02 -0.57773315235E+03  0.59033973166E+03  0.93283238483E+02 0.  0.
          5    1    1    2  502    0  0.10225802148E+03 -0.90798381400E+01 -0.38372089454E+03  0.39723839659E+03  0.41800000000E+01 0.  1.
         -5    1    1    2    0  502 -0.28158803852E+02  0.32165479093E+02 -0.11541642869E+03  0.12315015506E+03  0.41800000000E+01 0.  1.
        -11    1    3    3    0    0 -0.48203410490E+02 -0.59349050046E+02 -0.34361847729E+03  0.35202206814E+03  0.00000000000E+00 0.  1.
         11    1    3    3    0    0 -0.25895807133E+02  0.36263409093E+02 -0.23411467507E+03  0.23831766352E+03  0.00000000000E+00 0. -1.
</event>
<event>
 7    1  0.4096326E-006  0.1777411E+03  0.7561462E-02  0.1170007E+00
         -1   -1    0    0    0  501 -0.00000000000E+00  0.00000000000E+00  0.42310051371E+03  0.42310051371E+03  0.00000000000E+00 0.  1.
          1   -1    0    0  501    0  0.00000000000E+00 -0.00000000000E+00 -0.12234701590E+03  0.12234701590E+03  0.00000000000E+00 0. -1.
         23    2    1    2    0    0  0.21380485459E+02 -0.16897795602E+03  0.18840441366E+02  0.19312187116E+03  0.89052906248E+02 0.  0.
          5    1    1    2  502    0 -0.21172113629E+02  0.16854265194E+03  0.17008659848E+03  0.24042006427E+03  0.41800000000E+01 0.  1.
         -5    1    1    2    0  502 -0.20837183044E+00  0.43530407596E+00  0.11182645797E+03  0.11190559419E+03  0.41800000000E+01 0.  1.
        -11    1    3    3    0    0 -0.22048744306E+02 -0.66331067876E+02  0.38718882785E+02  0.79906880650E+02  0.00000000000E+00 0.  1.
         11    1    3    3    0    0  0.43429229765E+02 -0.10264688814E+03 -0.19878441419E+02  0.11321499051E+03  0.00000000000E+00 0. -1.
</event>
<event>
 7    1  0.4096326E-006  0.1292468E+03  0.7561462E-02  0.1228578E+00
         -1   -1    0    0    0  501 -0.00000000000E+00  0.00000000000E+00  0.14816865145E+02  0.14816865145E+02  0.00000000000E+00 0.  1.
          1   -1    0    0  501    0  0.00000000000E+00 -0.00000000000E+00 -0.11696112832E+04  0.11696112832E+04  0.00000000000E+00 0. -1.
         23    2    1    2    0    0  0.46612277106E+02 -0.51601701097E+02 -0.46384164531E+03  0.47741614465E+03  0.89116010441E+02 0.  0.
          5    1    1    2  502    0 -0.57011010823E+02  0.90833806355E+02 -0.54480489604E+03  0.55527550179E+03  0.41800000000E+01 0. -1.
         -5    1    1    2    0  502  0.10398733718E+02 -0.39232105259E+02 -0.14614787668E+03  0.15173650188E+03  0.41800000000E+01 0.  1.
        -11    1    3    3    0    0  0.54429633337E+02  0.36631042966E+01 -0.28094743923E+03  0.28619480590E+03  0.00000000000E+00 0. -1.
         11    1    3    3    0    0 -0.78173562316E+01 -0.55264805393E+02 -0.18289420608E+03  0.19122133875E+03  0.00000000000E+00 0.  1.
</event>
<event>
 7    1  0.4096326E-006  0.1373455E+03  0.7561462E-02  0.1216946E+00
         -1   -1    0    0    0  501 -0.00000000000E+00  0.00000000000E+00  0.96188431679E+02  0.96188431679E+02  0.00000000000E+00 0.  1.
          1   -1    0    0  501    0  0.00000000000E+00 -0.00000000000E+00 -0.23811959672E+03  0.23811959672E+03  0.00000000000E+00 0. -1.
         23    2    1    2    0    0 -0.69699600983E+02 -0.59870373105E+02 -0.68562662719E+01  0.12855210085E+03  0.89644510668E+02 0.  0.
          5    1    1    2  502    0 -0.11334046276E+01 -0.32244730037E+02 -0.79830525350E+01  0.33499384308E+02  0.41800000000E+01 0. -1.
         -5    1    1    2    0  502  0.70833005610E+02  0.92115103142E+02 -0.12709184624E+03  0.17225654325E+03  0.41800000000E+01 0. -1.
        -11    1    3    3    0    0 -0.87303343160E+02 -0.32132471589E+02  0.61196021157E+01  0.93229925385E+02  0.00000000000E+00 0.  1.
         11    1    3    3    0    0  0.17603742177E+02 -0.27737901516E+02 -0.12975868388E+02  0.35322175465E+02  0.00000000000E+00 0. -1.
</event>
<event>
 7    1  0.4096326E-006  0.1733314E+03  0.7561462E-02  0.1174418E+00
         -2   -1    0    0    0  501 -0.00000000000E+00  0.00000000000E+00  0.14172705784E+03  0.14172705784E+03  0.00000000000E+00 0. -1.
          2   -1    0    0  501    0  0.00000000000E+00 -0.00000000000E+00 -0.23454705929E+03  0.23454705929E+03  0.00000000000E+00 0.  1.
         23    2    1    2    0    0 -0.41725854833E+02 -0.13881530714E+03 -0.28369082575E+02  0.17425408695E+03  0.92460507854E+02 0.  0.
          5    1    1    2  502    0  0.16809677323E+02  0.15402069555E+03 -0.32163066266E+02  0.15829363582E+03  0.41800000000E+01 0. -1.
         -5    1    1    2    0  502  0.24916177510E+02 -0.15205388404E+02 -0.32287852614E+02  0.43726394370E+02  0.41800000000E+01 0. -1.
        -11    1    3    3    0    0  0.11359242390E+02  0.21443364524E+01 -0.20365251225E+02  0.23417387215E+02  0.00000000000E+00 0. -1.
         11    1    3    3    0    0 -0.53085097223E+02 -0.14095964359E+03 -0.80038313496E+01  0.15083669973E+03  0.00000000000E+00 0.  1.
</event>
<event>
 7    1  0.4096326E-006  0.9834049E+02  0.7561462E-02  0.1283825E+00
          2   -1    0    0  501    0  0.00000000000E+00  0.00000000000E+00  0.82110580860E+03  0.82110580860E+03  0.00000000000E+00 0. -1.
         -2   -1    0    0    0  501 -0.00000000000E+00 -0.00000000000E+00 -0.19621854753E+02  0.19621854753E+02  0.00000000000E+00 0.  1.
         23    2    1    2    0    0  0.30499493676E+02  0.60482949040E+02  0.48041525511E+03  0.48962040566E+03  0.65885643814E+02 0.  0.
          5    1    1    2  502    0 -0.55480853159E+02 -0.30621167315E+02  0.60834710937E+02  0.87943819622E+02  0.41800000000E+01 0.  1.
         -5    1    1    2    0  502  0.24981359483E+02 -0.29861781726E+02  0.26023398780E+03  0.26316343807E+03  0.41800000000E+01 0.  1.
        -11    1    3    3    0    0  0.88105216352E+00  0.64163802579E+02  0.34995221212E+03  0.35578690333E+03  0.00000000000E+00 0.  1.
         11    1    3    3    0    0  0.29618441512E+02 -0.36808535385E+01  0.13046304299E+03  0.13383350233E+03  0.00000000000E+00 0. -1.
</event>
<event>
 7    1  0.4096326E-006  0.5082609E+02  0.7561462E-02  0.1440936E+00
         -2   -1    0    0    0  501 -0.00000000000E+00  0.00000000000E+00  0.23699658759E+02  0.23699658759E+02  0.00000000000E+00 0.  1.
          2   -1    0    0  501    0  0.00000000000E+00 -0.00000000000E+00 -0.71889696182E+03  0.71889696182E+03  0.00000000000E+00 0. -1.
         23    2    1    2    0    0 -0.63220405425E+01  0.12259590430E+02 -0.26999357187E+03  0.28341713896E+03  0.85079257482E+02 0.  0.
          5    1    1    2  502    0  0.34202969500E+01 -0.11635455942E+02 -0.44170958248E+03  0.44189581343E+03  0.41800000000E+01 0. -1.
         -5    1    1    2    0  502  0.29017435925E+01 -0.62413448793E+00  0.16505851283E+02  0.17283668196E+02  0.41800000000E+01 0.  1.
        -11    1    3    3    0    0 -0.42389368834E+02 -0.67563534911E+01 -0.10444657186E+03  0.11292295283E+03  0.00000000000E+00 0. -1.
         11    1    3    3    0    0  0.36067328292E+02  0.19015943921E+02 -0.16554700000E+03  0.17049418613E+03  0.00000000000E+00 0.  1.
</event>
<event>
 7    1  0.4096326E-006  0.1095985E+03  0.7561462E-02  0.1261315E+00
          1   -1    0    0  501    0  0.00000000000E+00  0.00000000000E+00  0.51591443471E+03  0.51591443471E+03  0.00000000000E+00 0. -1.
         -1   -1    0    0    0  501 -0.00000000000E+00 -0.00000000000E+00 -0.26150146480E+02  0.26150146480E+02  0.00000000000E+00 0.  1.
         23    2    1    2    0    0  0.31621841644E+02  0.11161423358E+02  0.26976008386E+03  0.28677459056E+03  0.91349026860E+02 0.  0.
          5    1    1    2  502    0 -0.27248996632E+02  0.55814574533E+02  0.10484948013E+03  0.12193711671E+03  0.41800000000E+01 0.  1.
         -5    1    1    2    0  502 -0.43728450126E+01 -0.66975997891E+02  0.11515472423E+03  0.13335287391E+03  0.41800000000E+01 0.  1.
        -11    1    3    3    0    0 -0.85228950884E+01  0.39595550205E+02  0.68399713265E+02  0.79491937399E+02  0.00000000000E+00 0.  1.
         11    1    3    3    0    0  0.40144736733E+02 -0.28434126846E+02  0.20136037059E+03  0.20728265316E+03  0.00000000000E+00 0. -1.
</event>
<event>
 7    1  0.4096326E-006  0.1264651E+03  0.7561462E-02  0.1232797E+00
         -4   -1    0    0    0  501 -0.00000000000E+00  0.00000000000E+00  0.81970369128E+03  0.81970369128E+03  0.00000000000E+00 0.  1.
          4   -1    0    0  501    0  0.00000000000E+00 -0.00000000000E+00 -0.23224228356E+02  0.23224228356E+02  0.00000000000E+00 0. -1.
         23    2    1    2    0    0  0.69025379356E+02 -0.41643127559E+02  0.26476491046E+03  0.29077633223E+03  0.89172666797E+02 0.  0.
          5    1    1    2  502    0 -0.55886904317E+02 -0.34252873518E+02  0.16877387083E+03  0.18110410623E+03  0.41800000000E+01 0. -1.
         -5    1    1    2    0  502 -0.13138475039E+02  0.75896001077E+02  0.36294068163E+03  0.37104748118E+03  0.41800000000E+01 0. -1.
        -11    1    3    3    0    0  0.65065504649E+02  0.31507939095E+01  0.21023643190E+03  0.22009726190E+03  0.00000000000E+00 0. -1.
         11    1    3    3    0    0  0.39598747072E+01 -0.44793921469E+02  0.54528478563E+02  0.70679070329E+02  0.00000000000E+00 0.  1.
</event>
<event>
 6    1  0.4096326E-006  0.1946255E+03  0.7561462E-02  0.1154354E+00
         -1   -1    0    0    0  501 -0.00000000000E+00  0.00000000000E+00  0.13442702959E+03  0.13442702959E+03  0.00000000000E+00 0.  1.
          1   -1    0    0  501    0  0.00000000000E+00 -0.00000000000E+00 -0.48962964170E+03  0.48962964170E+03  0.00000000000E+00 0. -1.
          5    1    1    2  502    0  0.14912124500E+02  0.19883306579E+01 -0.21201734916E+02  0.26330797166E+02  0.41800000000E+01 0. -1.
         -5    1    1    2    0  502 -0.12743056260E+03  0.10041254395E+03  0.38940390350E+02  0.16689833333E+03  0.41800000000E+01 0.  1.
        -11    1    1    2    0    0 -0.35746534144E+02 -0.12066759773E+02 -0.37916796282E+02  0.53489296453E+02  0.00000000000E+00 0.  1.
         11    1    1    2    0    0  0.14826497224E+03 -0.90334114838E+02 -0.33502447126E+03  0.37733824434E+03  0.00000000000E+00 0. -1.
</event>
<event>
 7    1  0.4096326E-006  0.1408670E+03  0.7561462E-02  0.1212167E+00
          2   -1    0    0  501    0  0.00000000000E+00  0.00000000000E+00  0.15944772141E+03  0.15944772141E+03  0.00000000000E+00 0. -1.
         -2   -1    0    0    0  501 -0.00000000000E+00 -0.00000000000E+00 -0.17349907084E+03  0.17349907084E+03  0.00000000000E+00 0.  1.
         23    2    1    2    0    0 -0.99718400830E+02 -0.87593910902E+01  0.68834814900E+02  0.15259678771E+03  0.92342089435E+02 0.  0.
          5    1    1    2  502    0  0.96369872084E+02  0.47450919854E+02 -0.24752782948E+02  0.11031280390E+03  0.41800000000E+01 0.  1.
         -5    1    1    2    0  502  0.33485287454E+01 -0.38691528764E+02 -0.58133381377E+02  0.70037200637E+02  0.41800000000E+01 0.  1.
        -11    1    3    3    0    0 -0.39903125309E+02  0.41113937002E+02  0.20059445518E+02  0.60704172671E+02  0.00000000000E+00 0. -1.
         11    1    3    3    0    0 -0.59815275521E+02 -0.49873328092E+02  0.48775369383E+02  0.91892615041E+02  0.00000000000E+00 0.  1.
</event>
<event>
 7    1  0.4096326E-006  0.9797631E+02  0.7561462E-02  0.1284610E+00
          1   -1    0    0  501    0  0.00000000000E+00  0.00000000000E+00  0.46516114646E+02  0.46516114646E+02  0.00000000000E+00 0. -1.
         -1   -1    0    0    0  501 -0.00000000000E+00 -0.00000000000E+00 -0.29644352412E+03  0.29644352412E+03  0.00000000000E+00 0.  1.
         23    2    1    2    0    0  0.36653469437E+01  0.43140403803E+02 -0.67345185456E+02  0.11744170045E+03  0.85922347454E+02 0.  0.
          5    1    1    2  502    0 -0.44136871637E+02 -0.20240740152E+01 -0.12855413246E+02  0.46204917090E+02  0.41800000000E+01 0.  1.
         -5    1    1    2    0  502  0.40471524693E+02 -0.41116329788E+02 -0.16972681077E+03  0.17931302122E+03  0.41800000000E+01 0.  1.
        -11    1    3    3    0    0  0.12165167143E+02  0.67157747365E+02 -0.36374672589E+02  0.77338678090E+02  0.00000000000E+00 0.  1.
         11    1    3    3    0    0 -0.84998201989E+01 -0.24017343562E+02 -0.30970512867E+02  0.40103022360E+02  0.00000000000E+00 0. -1.
</event>
<event>
 7    1  0.4096326E-006  0.1186711E+03  0.7561462E-02  0.1245306E+00
         -1   -1    0    0    0  501 -0.00000000000E+00  0.00000000000E+00  0.33544524834E+03  0.33544524834E+03  0.00000000000E+00 0.  1.
          1   -1    0    0  501    0  0.00000000000E+00 -0.00000000000E+00 -0.58237002806E+02  0.58237002806E+02  0.00000000000E+00 0. -1.
         23    2    1    2    0    0  0.79176530216E+02 -0.17591218124E+02  0.77252332824E+02  0.14426398474E+03  0.90916447761E+02 0.  0.
          5    1    1    2  502    0  0.14789983963E+02 -0.96025131019E+01  0.12448103374E+03  0.12579329093E+03  0.41800000000E+01 0. -1.
         -5    1    1    2    0  502 -0.93966514179E+02  0.27193731226E+02  0.75474878971E+02  0.12362497547E+03  0.41800000000E+01 0. -1.
        -11    1    3    3    0    0  0.52272966858E+02 -0.54577415875E+02  0.54551006468E+02  0.93203914587E+02  0.00000000000E+00 0.  1.
         11    1    3    3    0    0  0.26903563358E+02  0.36986197751E+02  0.22701326356E+02  0.51060070150E+02  0.00000000000E+00 0. -1.
</event>
<event>
 6    1  0.4096326E-006  0.1553101E+03  0.7561462E-02  0.1194096E+00
         -2   -1    0    0    0  501 -0.00000000000E+00  0.00000000000E+00  0.59977217945E+02  0.59977217945E+02  0.00000000000E+00 0.  1.
          2   -1    0    0  501    0  0.00000000000E+00 -0.00000000000E+00 -0.61523122720E+03  0.61523122720E+03  0.00000000000E+00 0. -1.
          5    1    1    2  502    0 -0.20986477648E+02  0.76063346386E+02 -0.46167725478E+02  0.91515005236E+02  0.41800000000E+01 0. -1.
         -5    1    1    2    0  502 -0.61465372466E+02  0.25990646833E+02 -0.22452313877E+03  0.23426826072E+03  0.41800000000E+01 0. -1.
        -11    1    1    2    0    0 -0.17055053301E+02 -0.49186813834E+02 -0.20494976311E+03  0.21145832426E+03  0.00000000000E+00 0. -1.
         11    1    1    2    0    0  0.99506903415E+02 -0.52867179385E+02 -0.79613381891E+02  0.13796685493E+03  0.00000000000E+00 0.  1.
</event>
<event>
 7    1  0.4096326E-006  0.2234541E+03  0.7561462E-02  0.1131334E+00
         -1   -1    0    0    0  501 -0.00000000000E+00  0.00000000000E+00  0.32989287276E+03  0.32989287276E+03  0.00000000000E+00 0.  1.
          1   -1    0    0  501    0  0.00000000000E+00 -0.00000000000E+00 -0.18881512520E+03  0.18881512520E+03  0.00000000000E+00 0. -1.
         23    2    1    2    0    0  0.74971784560E+02  0.20520268014E+03  0.14866560167E+02  0.23709364890E+03  0.90903659555E+02 0.  0.
          5    1    1    2  502    0 -0.72465745690E+02 -0.11115639772E+03  0.11580807442E+02  0.13326145937E+03  0.41800000000E+01 0.  1.
         -5    1    1    2    0  502 -0.25060388700E+01 -0.94046282426E+02  0.11463037995E+03  0.14835288968E+03  0.41800000000E+01 0.  1.
        -11    1    3    3    0    0  0.65203023469E+01  0.49046888447E+02  0.41434350332E+02  0.64536168126E+02  0.00000000000E+00 0.  1.
         11    1    3    3    0    0  0.68451482213E+02  0.15615579170E+03 -0.26567790164E+02  0.17255748078E+03  0.00000000000E+00 0. -1.
</event>
<event>
 7    1  0.4096326E-006  0.9616299E+02  0.7561462E-02  0.1288578E+00
         -3   -1    0    0    0  501 -0.00000000000E+00  0.00000000000E+00  0.42080567627E+03  0.42080567627E+03  0.00000000000E+00 0.  1.
          3   -1    0    0  501    0  0.00000000000E+00 -0.00000000000E+00 -0.30855428746E+02  0.30855428746E+02  0.00000000000E+00 0. -1.
         23    2    1    2    0    0  0.28378166764E+02 -0.82262831091E+00  0.11179652946E+03  0.14535673007E+03  0.88454044073E+02 0.  0.
          5    1    1    2  502    0 -0.25117764919E+02 -0.60409100975E+02  0.16480644322E+03  0.17736628124E+03  0.41800000000E+01 0. -1.
         -5    1    1    2    0  502 -0.32604018452E+01  0.61231729286E+02  0.11334727485E+03  0.12893809370E+03  0.41800000000E+01 0. -1.
        -11    1    3    3    0    0 -0.85252511592E+01 -0.21414508901E+02  0.98341800577E+02  0.10100678611E+03  0.00000000000E+00 0.  1.
         11    1    3    3    0    0  0.36903417923E+02  0.20591880590E+02  0.13454728878E+02  0.44349943966E+02  0.00000000000E+00 0. -1.
</event>
<event>
 7    1  0.4096326E-006  0.1027852E+03  0.7561462E-02  0.1274546E+00
          2   -1    0    0  501    0  0.00000000000E+00  0.00000000000E+00  0.88027331077E+02  0.88027331077E+02  0.00000000000E+00 0.  1.
         -2   -1    0    0    0  501 -0.00000000000E+00 -0.00000000000E+00 -0.14855745533E+03  0.14855745533E+03  0.00000000000E+00 0. -1.
         23    2    1    2    0    0 -0.19478086853E+02  0.23922434102E+02 -0.49145505155E+01  0.96255099185E+02  0.91045112947E+02 0.  0.
          5    1    1    2  502    0  0.19261810344E+02  0.48352357260E+02 -0.59894270970E+01  0.52557715203E+02  0.41800000000E+01 0. -1.
         -5    1    1    2    0  502  0.21627650817E+00 -0.72274791362E+02 -0.49626146645E+02  0.87771972023E+02  0.41800000000E+01 0. -1.
        -11    1    3    3    0    0  0.21245653856E+02  0.32989075741E+02  0.23537016337E+02  0.45756399160E+02  0.00000000000E+00 0.  1.
         11    1    3    3    0    0 -0.40723740709E+02 -0.90666416387E+01 -0.28451566852E+02  0.50498700026E+02  0.00000000000E+00 0. -1.
</event>
<event>
 7    1  0.4096326E-006  0.1657573E+03  0.7561462E-02  0.1182346E+00
         -2   -1    0    0    0  501 -0.00000000000E+00  0.00000000000E+00  0.11462056943E+03  0.11462056943E+03  0.00000000000E+00 0.  1.
          2   -1    0    0  501    0  0.00000000000E+00 -0.00000000000E+00 -0.27101995843E+03  0.27101995843E+03  0.00000000000E+00 0. -1.
         23    2    1    2    0    0 -0.12020297171E+03 -0.37760298027E+02 -0.12005259926E+03  0.20441408599E+03  0.10722824931E+03 0.  0.
          5    1    1    2  502    0  0.54721409113E+02 -0.44204216064E+02 -0.28253442324E+02  0.75922162353E+02  0.41800000000E+01 0.  1.
         -5    1    1    2    0  502  0.65481562598E+02  0.81964514091E+02 -0.80933474219E+01  0.10530427951E+03  0.41800000000E+01 0.  1.
        -11    1    3    3    0    0 -0.65003667421E+02  0.27497245584E+02 -0.88741767090E+02  0.11338728553E+03  0.00000000000E+00 0. -1.
         11    1    3    3    0    0 -0.55199304290E+02 -0.65257543611E+02 -0.31310832167E+02  0.91026800467E+02  0.00000000000E+00 0.  1.
</event>
<event>
 7    1  0.4096326E-006  0.1472012E+03  0.7561462E-02  0.1203955E+00
         -2   -1    0    0    0  501 -0.00000000000E+00  0.00000000000E+00  0.23700286067E+02  0.23700286067E+02  0.00000000000E+00 0. -1.
          2   -1    0    0  501    0  0.00000000000E+00 -0.00000000000E+00 -0.11378966862E+04  0.11378966862E+04  0.00000000000E+00 0.  1.
         23    2    1    2    0    0 -0.43826270770E+02 -0.10900079874E+03 -0.64626674728E+03  0.66319069991E+03  0.91429096389E+02 0.  0.
          5    1    1    2  502    0  0.68290722366E+02  0.52957733886E+02 -0.38882434300E+03  0.39833401368E+03  0.41800000000E+01 0.  1.
         -5    1    1    2    0  502 -0.24464451597E+02  0.56043064859E+02 -0.79105309827E+02  0.10007225866E+03  0.41800000000E+01 0.  1.
        -11    1    3    3    0    0  0.26960373711E+02 -0.35068908792E+02 -0.14572210959E+03  0.15228796189E+03  0.00000000000E+00 0. -1.
         11    1    3    3    0    0 -0.70786644480E+02 -0.73931889953E+02 -0.50054463769E+03  0.51090273802E+03  0.00000000000E+00 0.  1.
</event>
<event>
 7    1  0.4096326E-006  0.1267294E+03  0.7561462E-02  0.1232391E+00
         -2   -1    0    0    0  501 -0.00000000000E+00  0.00000000000E+00  0.18628942301E+03  0.18628942301E+03  0.00000000000E+00 0.  1.
          2   -1    0    0  501    0  0.00000000000E+00 -0.00000000000E+00 -0.12375544832E+03  0.12375544832E+03  0.00000000000E+00 0. -1.
         23    2    1    2    0    0 -0.85725062285E+02 -0.46746047237E+02 -0.13124457585E+02  0.13424464709E+03  0.91188785769E+02 0.  0.
          5    1    1    2  502    0  0.10004778915E+03  0.20295410441E+02  0.90203645357E+01  0.10256852916E+03  0.41800000000E+01 0. -1.
         -5    1    1    2    0  502 -0.14322726862E+02  0.26450636796E+02  0.66638067738E+02  0.73231695074E+02  0.41800000000E+01 0. -1.
        -11    1    3    3    0    0 -0.31273124069E+01  0.16559383040E+02  0.18937988189E+02  0.25350357910E+02  0.00000000000E+00 0.  1.
         11    1    3    3    0    0 -0.82597749878E+02 -0.63305430277E+02 -0.32062445774E+02  0.10889428918E+03  0.00000000000E+00 0. -1.
</event>
<event>
 6    1  0.4096326E-006  0.7954417E+02  0.7561462E-02  0.1330350E+00
         -1   -1    0    0    0  501 -0.00000000000E+00  0.00000000000E+00  0.70090030710E+02  0.70090030710E+02  0.00000000000E+00 0.  1.
          1   -1    0    0  501    0  0.00000000000E+00 -0.00000000000E+00 -0.11247341835E+03  0.11247341835E+03  0.00000000000E+00 0. -1.
          5    1    1    2  502    0  0.61164452949E+02 -0.65575124817E+01  0.17511291920E+02  0.64095311990E+02  0.41800000000E+01 0. -1.
         -5    1    1    2    0  502 -0.47316050662E+02  0.23602162868E+01 -0.43567694437E+02  0.64498028418E+02  0.41800000000E+01 0. -1.
        -11    1    1    2    0    0  0.17172559897E+02 -0.43120952325E+01 -0.12285047296E+02  0.21550252104E+02  0.00000000000E+00 0. -1.
         11    1    1    2    0    0 -0.31020962183E+02  0.85093914274E+01 -0.40419378270E+01  0.32419856548E+02  0.00000000000E+00 0.  1.
</event>
<event>
 7    1  0.4096326E-006  0.1379419E+03  0.7561462E-02  0.1216125E+00
         -2   -1    0    0    0  501 -0.00000000000E+00  0.00000000000E+00  0.29168970019E+02  0.29168970019E+02  0.00000000000E+00 0.  1.
          2   -1    0    0  501    0  0.00000000000E+00 -0.00000000000E+00 -0.68741982260E+03  0.68741982260E+03  0.00000000000E+00 0. -1.
         23    2    1    2    0    0 -0.82712457124E+02  0.37262142041E+02 -0.30392843049E+03  0.33003806065E+03  0.91229451535E+02 0.  0.
          5    1    1    2  502    0  0.37563917662E+02 -0.81732072701E+02 -0.18615503708E+03  0.20679059420E+03  0.41800000000E+01 0. -1.
         -5    1    1    2    0  502  0.45148539462E+02  0.44469930660E+02 -0.16816738501E+03  0.17976013777E+03  0.41800000000E+01 0. -1.
        -11    1    3    3    0    0 -0.92078270831E+02  0.89580305183E+01 -0.26702246634E+03  0.28259450066E+03  0.00000000000E+00 0. -1.
         11    1    3    3    0    0  0.93658137069E+01  0.28304111523E+02 -0.36905964143E+02  0.47443559993E+02  0.00000000000E+00 0.  1.
</event>
<event>
 7    1  0.4096326E-006  0.9325247E+02  0.7561462E-02  0.1295161E+00
         -2   -1    0    0    0  501 -0.00000000000E+00  0.00000000000E+00  0.52700283418E+02  0.52700283418E+02  0.00000000000E+00 0.  1.
          2   -1    0    0  501    0  0.00000000000E+00 -0.00000000000E+00 -0.29905183792E+03  0.29905183792E+03  0.00000000000E+00 0. -1.
         23    2    1    2    0    0  0.37157014220E+02 -0.17879750120E+02 -0.17674920680E+03  0.20278050315E+03  0.90439599634E+02 0.  0.
          5    1    1    2  502    0 -0.34346741137E+02 -0.39943937693E+02  0.65184054647E+01  0.53246397014E+02  0.41800000000E+01 0. -1.
         -5    1    1    2    0  502 -0.28102730822E+01  0.57823687813E+02 -0.76120753168E+02  0.95725221180E+02  0.41800000000E+01 0. -1.
        -11    1    3    3    0    0  0.15542314631E+02 -0.41071454081E+02 -0.31326662697E+02  0.53942447851E+02  0.00000000000E+00 0.  1.
         11    1    3    3    0    0  0.21614699589E+02  0.23191703961E+02 -0.14542254410E+03  0.14883805530E+03  0.00000000000E+00 0. -1.
</event>
<event>
 7    1  0.4096326E-006  0.1282779E+03  0.7561462E-02  0.1230034E+00
          1   -1    0    0  501    0  0.00000000000E+00  0.00000000000E+00  0.36021468412E+03  0.36021468412E+03  0.00000000000E+00 0. -1.
         -1   -1    0    0    0  501 -0.00000000000E+00 -0.00000000000E+00 -0.11728839978E+03  0.11728839978E+03  0.00000000000E+00 0.  1.
         23    2    1    2    0    0  0.68861108831E+02 -0.61427483889E+02  0.28870879605E+03  0.31545538589E+03  0.87430792535E+02 0.  0.
          5    1    1    2  502    0  0.30587809461E+02  0.16140815389E+02 -0.39275940861E+02  0.52499637518E+02  0.41800000000E+01 0.  1.
         -5    1    1    2    0  502 -0.99448918292E+02  0.45286668500E+02 -0.65065708419E+01  0.10954806049E+03  0.41800000000E+01 0.  1.
        -11    1    3    3    0    0  0.40120973425E+02 -0.71435641071E+02  0.26348089573E+03  0.27592558007E+03  0.00000000000E+00 0. -1.
         11    1    3    3    0    0  0.28740135406E+02  0.10008157182E+02  0.25227900320E+02  0.39529805816E+02  0.00000000000E+00 0.  1.
</event>
<event>
 7    1  0.4096326E-006  0.1380006E+03  0.7561462E-02  0.1216045E+00
         -2   -1    0    0    0  501 -0.00000000000E+00  0.00000000000E+00  0.47814235495E+02  0.47814235495E+02  0.00000000000E+00 0.  1.
          2   -1    0    0  501    0  0.00000000000E+00 -0.00000000000E+00 -0.85952202941E+03  0.85952202941E+03  0.00000000000E+00 0. -1.
         23    2    1    2    0    0 -0.93972625018E+01 -0.12710930145E+03 -0.61600429578E+03  0.63552062347E+03  0.90443835516E+02 0.  0.
          5    1    1    2  502    0 -0.98590854100E+01  0.18589236511E+02 -0.15147016396E+03  0.15298184287E+03  0.41800000000E+01 0. -1.
         -5    1    1    2    0  502  0.19256347912E+02  0.10852006494E+03 -0.44233334185E+02  0.11883379857E+03  0.41800000000E+01 0.  1.
        -11    1    3    3    0    0 -0.96990237732E+01  0.58283676610E+01 -0.99827046457E+01  0.15089576660E+02  0.00000000000E+00 0.  1.
         11    1    3    3    0    0  0.30176127140E+00 -0.13293766911E+03 -0.60602159113E+03  0.62043104681E+03  0.00000000000E+00 0. -1.
</event>
<event>
 7    1  0.4096326E-006  0.2799873E+03  0.7561462E-02  0.1095696E+00
          2   -1    0    0  501    0  0.00000000000E+00  0.00000000000E+00  0.29417159724E+03  0.29417159724E+03  0.00000000000E+00 0. -1.
         -2   -1    0    0    0  501 -0.00000000000E+00 -0.00000000000E+00 -0.27770991470E+03  0.27770991470E+03  0.00000000000E+00 0.  1.
         23    2    1    2    0    0  0.14458409360E+03 -0.21730372004E+03  0.50864050385E+02  0.28040709016E+03  0.88969195359E+02 0.  0.
          5    1    1    2  502    0 -0.67855626215E+02  0.13855190510E+02 -0.25156059408E+02  0.73801436558E+02  0.41800000000E+01 0. -1.
         -5    1    1    2    0  502 -0.76728467387E+02  0.20344852953E+03 -0.92463084423E+01  0.21767298522E+03  0.41800000000E+01 0. -1.
        -11    1    3    3    0    0  0.27064350430E+02 -0.11231475227E+03  0.40714404796E+02  0.12249385862E+03  0.00000000000E+00 0. -1.
         11    1    3    3    0    0  0.11751974317E+03 -0.10498896777E+03  0.10149645589E+02  0.15791323153E+03  0.00000000000E+00 0.  1.
</event>
<event>
 7    1  0.4096326E-006  0.9491525E+02  0.7561462E-02  0.1291367E+00
          1   -1    0    0  501    0  0.00000000000E+00  0.00000000000E+00  0.49870918264E+03  0.49870918264E+03  0.00000000000E+00 0. -1.
         -1   -1    0    0    0  501 -0.00000000000E+00 -0.00000000000E+00 -0.27119812378E+02  0.27119812378E+02  0.00000000000E+00 0.  1.
         23    2    1    2    0    0  0.57493844618E+01 -0.34022571213E+02  0.25706177280E+03  0.27511014419E+03  0.91729197259E+02 0.  0.
          5    1    1    2  502    0 -0.34411335580E+02  0.72256797540E+02  0.11420302515E+03  0.13951698162E+03  0.41800000000E+01 0. -1.
         -5    1    1    2    0  502  0.28661951118E+02 -0.38234226327E+02  0.10032457232E+03  0.11120186921E+03  0.41800000000E+01 0. -1.
        -11    1    3    3    0    0  0.17926771910E+02  0.67609120498E+01  0.54437795341E+01  0.19917676031E+02  0.00000000000E+00 0.  1.
         11    1    3    3    0    0 -0.12177387448E+02 -0.40783483263E+02  0.25161799326E+03  0.25519246816E+03  0.00000000000E+00 0. -1.
</event>
<event>
 7    1  0.4096326E-006  0.8812941E+02  0.7561462E-02  0.1307446E+00
         -1   -1    0    0    0  501 -0.00000000000E+00  0.00000000000E+00  0.80070945798E+02  0.80070945798E+02  0.00000000000E+00 0.  1.
          1   -1    0    0  501    0  0.00000000000E+00 -0.00000000000E+00 -0.14239443266E+03  0.14239443266E+03  0.00000000000E+00 0. -1.
         23    2    1    2    0    0 -0.45354512678E+01  0.21579991031E+02 -0.25761761252E+02  0.90288993898E+02  0.83678956406E+02 0.  0.
          5    1    1    2  502    0  0.34974795115E+02 -0.41500280289E+02  0.25505603553E+02  0.60112542535E+02  0.41800000000E+01 0. -1.
         -5    1    1    2    0  502 -0.30439343847E+02  0.19920289258E+02 -0.62067329165E+02  0.72063842027E+02  0.41800000000E+01 0. -1.
        -11    1    3    3    0    0  0.38859789682E+02  0.12967931332E+02 -0.45286942580E+01  0.41216011074E+02  0.00000000000E+00 0.  1.
         11    1    3    3    0    0 -0.43395240950E+02  0.86120596991E+01 -0.21233066994E+02  0.49072982825E+02  0.00000000000E+00 0. -1.
</event>
<event>
 7    1  0.4096326E-006  0.9348237E+02  0.7561462E-02  0.1294631E+00
         -2   -1    0    0    0  501 -0.00000000000E+00  0.00000000000E+00  0.61867657240E+02  0.61867657240E+02  0.00000000000E+00 0.  1.
          2   -1    0    0  501    0  0.00000000000E+00 -0.00000000000E+00 -0.21660213563E+03  0.21660213563E+03  0.00000000000E+00 0. -1.
         23    2    1    2    0    0 -0.71952670453E+01 -0.13876715321E+02 -0.11349978774E+03  0.14583594694E+03  0.90230740360E+02 0.  0.
          5    1    1    2  502    0 -0.79469330311E+01 -0.41892170668E+02  0.20906425022E+02  0.47672410418E+02  0.41800000000E+01 0. -1.
         -5    1    1    2    0  502  0.15142200076E+02  0.55768885989E+02 -0.62141115663E+02  0.84961435507E+02  0.41800000000E+01 0. -1.
        -11    1    3    3    0    0  0.15750447760E+02  0.31564620793E+02 -0.23342899718E+02  0.42300033779E+02  0.00000000000E+00 0.  1.
         11    1    3    3    0    0 -0.22945714805E+02 -0.45441336113E+02 -0.90156888025E+02  0.10353591316E+03  0.00000000000E+00 0. -1.
</event>
<event>
 7    1  0.4096326E-006  0.1158019E+03  0.7561462E-02  0.1250188E+00
          2   -1    0    0  501    0  0.00000000000E+00  0.00000000000E+00  0.62290880573E+02  0.62290880573E+02  0.00000000000E+00 0. -1.
         -2   -1    0    0    0  501 -0.00000000000E+00 -0.00000000000E+00 -0.26833098882E+03  0.26833098882E+03  0.00000000000E+00 0.  1.
         23    2    1    2    0    0  0.48621127019E+02 -0.52925336013E+02 -0.28306775293E+02  0.10169330153E+03  0.66144908069E+02 0.  0.
          5    1    1    2  502    0 -0.29638908312E+02 -0.39117793453E+02 -0.48920446704E+02  0.69421532368E+02  0.41800000000E+01 0.  1.
         -5    1    1    2    0  502 -0.18982218707E+02  0.92043129467E+02 -0.12881288625E+03  0.15950703550E+03  0.41800000000E+01 0.  1.
        -11    1    3    3    0    0  0.45036448744E+02 -0.11216248807E+02 -0.36488908249E+02  0.59038346674E+02  0.00000000000E+00 0.  1.
         11    1    3    3    0    0  0.35846782747E+01 -0.41709087206E+02  0.81821329563E+01  0.42654954854E+02  0.00000000000E+00 0. -1.
</event>
<event>
 7    1  0.4096326E-006  0.9134460E+02  0.7561462E-02  0.1299628E+00
         -1   -1    0    0    0  501 -0.00000000000E+00  0.00000000000E+00  0.82459953173E+02  0.82459953173E+02  0.00000000000E+00 0.  1.
          1   -1    0    0  501    0  0.00000000000E+00 -0.00000000000E+00 -0.16757582588E+03  0.16757582588E+03  0.00000000000E+00 0. -1.
         23    2    1    2    0    0 -0.10988349651E+02 -0.33604795980E+02 -0.69442456130E+02  0.11910114999E+03  0.90071100104E+02 0.  0.
          5    1    1    2  502    0 -0.10695375407E+02 -0.41627216065E+02  0.16441736628E+02  0.46206268793E+02  0.41800000000E+01 0.  1.
         -5    1    1    2    0  502  0.21683725058E+02  0.75232012045E+02 -0.32115153200E+02  0.84728360269E+02  0.41800000000E+01 0.  1.
        -11    1    3    3    0    0 -0.22492518805E+02  0.30362239622E+01 -0.76725518983E+02  0.80012107342E+02  0.00000000000E+00 0. -1.
         11    1    3    3    0    0  0.11504169155E+02 -0.36641019943E+02  0.72830628526E+01  0.39089042645E+02  0.00000000000E+00 0.  1.
</event>
<event>
 7    1  0.4096326E-006  0.1057413E+03  0.7561462E-02  0.1268666E+00
         -1   -1    0    0    0  501 -0.00000000000E+00  0.00000000000E+00  0.22931605235E+03  0.22931605235E+03  0.00000000000E+00 0.  1.
          1   -1    0    0  501    0  0.00000000000E+00 -0.00000000000E+00 -0.70699153319E+02  0.70699153319E+02  0.00000000000E+00 0. -1.
         23    2    1    2    0    0  0.49865920511E+02  0.43223433632E+02  0.71907596879E+02  0.13412150819E+03  0.91994571730E+02 0.  0.
          5    1    1    2  502    0  0.40047814407E+02 -0.15581349117E+02  0.46660175117E+02  0.63570828381E+02  0.41800000000E+01 0.  1.
         -5    1    1    2    0  502 -0.89913734918E+02 -0.27642084515E+02  0.40049127033E+02  0.10232286909E+03  0.41800000000E+01 0.  1.
        -11    1    3    3    0    0  0.32633114829E+02  0.60703212113E+01 -0.16218761472E+02  0.36943432525E+02  0.00000000000E+00 0. -1.
         11    1    3    3    0    0  0.17232805682E+02  0.37153112421E+02  0.88126358351E+02  0.97178075668E+02  0.00000000000E+00 0.  1.
</event>
<event>
 7    1  0.4096326E-006  0.1307430E+03  0.7561462E-02  0.1226357E+00
          1   -1    0    0  501    0  0.00000000000E+00  0.00000000000E+00  0.79739600797E+03  0.79739600797E+03  0.00000000000E+00 0. -1.
         -1   -1    0    0    0  501 -0.00000000000E+00 -0.00000000000E+00 -0.25253675248E+02  0.25253675248E+02  0.00000000000E+00 0.  1.
         23    2    1    2    0    0 -0.77667183871E+02  0.45791112379E+02  0.38109069358E+03  0.40229499988E+03  0.92098494950E+02 0.  0.
          5    1    1    2  502    0  0.65726818052E+01 -0.73031909910E+02  0.14167011089E+03  0.15957679258E+03  0.41800000000E+01 0. -1.
         -5    1    1    2    0  502  0.71094502066E+02  0.27240797531E+02  0.24938152825E+03  0.26077789075E+03  0.41800000000E+01 0. -1.
        -11    1    3    3    0    0 -0.19980291839E+02 -0.17208714181E+02  0.25843187729E+02  0.36921839847E+02  0.00000000000E+00 0.  1.
         11    1    3    3    0    0 -0.57686892032E+02  0.62999826560E+02  0.35524750586E+03  0.36537316004E+03  0.00000000000E+00 0. -1.
</event>
<event>
 7    1  0.4096326E-006  0.1398633E+03  0.7561462E-02  0.1213513E+00
         -2   -1    0    0    0  501 -0.00000000000E+00  0.00000000000E+00  0.22632334604E+03  0.22632334604E+03  0.00000000000E+00 0. -1.
          2   -1    0    0  501    0  0.00000000000E+00 -0.00000000000E+00 -0.17344548391E+03  0.17344548391E+03  0.00000000000E+00 0.  1.
         23    2    1    2    0    0 -0.12832700215E+03 -0.17797433041E+02 -0.79275891838E+02  0.17639230658E+03  0.89693983565E+02 0.  0.
          5    1    1    2  502    0  0.56064195670E+02  0.43512992829E+02  0.66609426326E+00  0.71094941188E+02  0.41800000000E+01 0.  1.
         -5    1    1    2    0  502  0.72262806485E+02 -0.25715559788E+02  0.13148765971E+03  0.15228158218E+03  0.41800000000E+01 0.  1.
        -11    1    3    3    0    0 -0.17065621900E+02 -0.11096440358E+02  0.18959997883E+02  0.27818122855E+02  0.00000000000E+00 0. -1.
         11    1    3    3    0    0 -0.11126138025E+03 -0.67009926822E+01 -0.98235889721E+02  0.14857418372E+03  0.00000000000E+00 0.  1.
</event>
<event>
 7    1  0.4096326E-006  0.1041253E+03  0.7561462E-02  0.1271853E+00
          1   -1    0    0  501    0  0.00000000000E+00  0.00000000000E+00  0.36021615907E+02  0.36021615907E+02  0.00000000000E+00 0. -1.
         -1   -1    0    0    0  501 -0.00000000000E+00 -0.00000000000E+00 -0.42544634784E+03  0.42544634784E+03  0.00000000000E+00 0.  1.
         23    2    1    2    0    0 -0.40524466380E+02 -0.38623159837E+02 -0.15445196302E+03  0.18944985903E+03  0.94349665362E+02 0.  0.
          5    1    1    2  502    0  0.71431773354E+02  0.59280160859E+02 -0.20119562594E+03  0.22161630810E+03  0.41800000000E+01 0. -1.
         -5    1    1    2    0  502 -0.30907306974E+02 -0.20657001022E+02 -0.33777142970E+02  0.50401796623E+02  0.41800000000E+01 0. -1.
        -11    1    3    3    0    0 -0.29424767539E+02  0.75950971899E+01 -0.27937342293E+01  0.30517329454E+02  0.00000000000E+00 0. -1.
         11    1    3    3    0    0 -0.11099698841E+02 -0.46218257027E+02 -0.15165822879E+03  0.15893252958E+03  0.00000000000E+00 0.  1.
</event>
<event>
 7    1  0.4096326E-006  0.1380757E+03  0.7561462E-02  0.1215942E+00
          2   -1    0    0  501    0  0.00000000000E+00  0.00000000000E+00  0.54014553808E+03  0.54014553808E+03  0.00000000000E+00 0. -1.
         -2   -1    0    0    0  501 -0.00000000000E+00 -0.00000000000E+00 -0.45018506034E+02  0.45018506034E+02  0.00000000000E+00 0.  1.
         23    2    1    2    0    0 -0.69982601224E+02 -0.63132896504E+02  0.33861783413E+03  0.36374535876E+03  0.93623294802E+02 0.  0.
          5    1    1    2  502    0  0.14298019622E+02 -0.33557312468E+02  0.73922712435E+02  0.82538272328E+02  0.41800000000E+01 0.  1.
         -5    1    1    2    0  502  0.55684581602E+02  0.96690208972E+02  0.82586485477E+02  0.13888041303E+03  0.41800000000E+01 0.  1.
        -11    1    3    3    0    0 -0.42373161953E+02  0.14970389127E+02  0.75159591586E+02  0.87570323809E+02  0.00000000000E+00 0.  1.
         11    1    3    3    0    0 -0.27609439271E+02 -0.78103285631E+02  0.26345824255E+03  0.27617503495E+03  0.00000000000E+00 0. -1.
</event>
<event>
 7    1  0.4096326E-006  0.2174594E+03  0.7561462E-02  0.1135791E+00
         -1   -1    0    0    0  501 -0.00000000000E+00  0.00000000000E+00  0.93116258632E+02  0.93116258632E+02  0.00000000000E+00 0.  1.
          1   -1    0    0  501    0  0.00000000000E+00 -0.00000000000E+00 -0.60181434233E+03  0.60181434233E+03  0.00000000000E+00 0. -1.
         23    2    1    2    0    0  0.20205530030E+03  0.52614410112E+02 -0.22492095722E+03  0.32106976369E+03  0.94349009697E+02 0.  0.
          5    1    1    2  502    0 -0.17201319761E+03 -0.81830484261E+01 -0.14549000319E+03  0.22547797201E+03  0.41800000000E+01 0. -1.
         -5    1    1    2    0  502 -0.30042102694E+02 -0.44431361686E+02 -0.13828712329E+03  0.14838286526E+03  0.41800000000E+01 0. -1.
        -11    1    3    3    0    0  0.12274487508E+03  0.34682754061E+02 -0.68509353373E+02  0.14478511418E+03  0.00000000000E+00 0.  1.
         11    1    3    3    0    0  0.79310425220E+02  0.17931656051E+02 -0.15641160384E+03  0.17628464951E+03  0.00000000000E+00 0. -1.
</event>
<event>
 7    1  0.4096326E-006  0.3362968E+03  0.7561462E-02  0.1068384E+00
          2   -1    0    0  501    0  0.00000000000E+00  0.00000000000E+00  0.56818678206E+03  0.56818678206E+03  0.00000000000E+00 0. -1.
         -2   -1    0    0    0  501 -0.00000000000E+00 -0.00000000000E+00 -0.23231158760E+03  0.23231158760E+03  0.00000000000E+00 0.  1.
         23    2    1    2    0    0 -0.26479319923E+03  0.18162247067E+03  0.30841576934E+03  0.45477102756E+03  0.92705126695E+02 0.  0.
          5    1    1    2  502    0  0.16974581581E+02  0.17454171840E+02 -0.77226065227E+01  0.25882341200E+02  0.41800000000E+01 0.  1.
         -5    1    1    2    0  502  0.24781861765E+03 -0.19907664251E+03  0.35182031645E+02  0.31984500090E+03  0.41800000000E+01 0.  1.
        -11    1    3    3    0    0 -0.19807013328E+03  0.92369164406E+02  0.16886932821E+03  0.27618959111E+03  0.00000000000E+00 0. -1.
         11    1    3    3    0    0 -0.66723065954E+02  0.89253306267E+02  0.13954644113E+03  0.17858143645E+03  0.00000000000E+00 0.  1.
</event>
<event>
 7    1  0.4096326E-006  0.9393477E+02  0.7561462E-02  0.1293593E+00
         -1   -1    0    0    0  501 -0.00000000000E+00  0.00000000000E+00  0.28517292878E+02  0.28517292878E+02  0.00000000000E+00 0.  1.
          1   -1    0    0  501    0  0.00000000000E+00 -0.00000000000E+00 -0.43639943178E+03  0.43639943178E+03  0.00000000000E+00 0. -1.
         23    2    1    2    0    0  0.13705000606E+01 -0.24975434263E+02 -0.20350581155E+03  0.22399583087E+03  0.90187949987E+02 0.  0.
          5    1    1    2  502    0  0.25979963180E+01  0.61432406953E+02 -0.42432982593E+02  0.74824599034E+02  0.41800000000E+01 0. -1.
         -5    1    1    2    0  502 -0.39684963786E+01 -0.36456972690E+02 -0.16194334476E+03  0.16609629476E+03  0.41800000000E+01 0. -1.
        -11    1    3    3    0    0 -0.12042945961E+02  0.30218628858E+02 -0.44298898539E+02  0.54959898920E+02  0.00000000000E+00 0.  1.
         11    1    3    3    0    0  0.13413446021E+02 -0.55194063120E+02 -0.15920691301E+03  0.16903593195E+03  0.00000000000E+00 0. -1.
</event>
<event>
 7    1  0.4096326E-006  0.1299130E+03  0.7561462E-02  0.1227585E+00
         -2   -1    0    0    0  501 -0.00000000000E+00  0.00000000000E+00  0.10066247406E+03  0.10066247406E+03  0.00000000000E+00 0. -1.
          2   -1    0    0  501    0  0.00000000000E+00 -0.00000000000E+00 -0.19521530272E+03  0.19521530272E+03  0.00000000000E+00 0.  1.
         23    2    1    2    0    0  0.82552394481E+02 -0.27969688353E+02 -0.60595522093E+02  0.13967952087E+03  0.90781881189E+02 0.  0.
          5    1    1    2  502    0 -0.73392203752E+02  0.63509754783E+02 -0.57026791231E+02  0.11264737832E+03  0.41800000000E+01 0. -1.
         -5    1    1    2    0  502 -0.91601907289E+01 -0.35540066431E+02  0.23069484669E+02  0.43550877591E+02  0.41800000000E+01 0. -1.
        -11    1    3    3    0    0 -0.15035214233E+01  0.25874503500E+02 -0.10154700059E+02  0.27836458851E+02  0.00000000000E+00 0.  1.
         11    1    3    3    0    0  0.84055915904E+02 -0.53844191853E+02 -0.50440822034E+02  0.11184306202E+03  0.00000000000E+00 0. -1.
</event>
<event>
 7    1  0.4096326E-006  0.9989115E+02  0.7561462E-02  0.1280525E+00
          1   -1    0    0  501    0  0.00000000000E+00  0.00000000000E+00  0.14353255677E+03  0.14353255677E+03  0.00000000000E+00 0. -1.
         -1   -1    0    0    0  501 -0.00000000000E+00 -0.00000000000E+00 -0.11228371796E+03  0.11228371796E+03  0.00000000000E+00 0.  1.
         23    2    1    2    0    0  0.30987462797E+02  0.57567003972E+02  0.18763740217E+02  0.11412133143E+03  0.91637424366E+02 0.  0.
          5    1    1    2  502    0 -0.59778838276E+02 -0.11096622923E+02  0.46954004879E+02  0.76933708607E+02  0.41800000000E+01 0. -1.
         -5    1    1    2    0  502  0.28791375479E+02 -0.46470381050E+02 -0.34468906288E+02  0.64761234682E+02  0.41800000000E+01 0. -1.
        -11    1    3    3    0    0  0.21204891672E+02  0.67089331894E+02  0.45716440788E+02  0.83908395546E+02  0.00000000000E+00 0. -1.
         11    1    3    3    0    0  0.97825711249E+01 -0.95223279216E+01 -0.26952700571E+02  0.30212935888E+02  0.00000000000E+00 0.  1.
</event>
<event>
 7    1  0.4096326E-006  0.1176351E+03  0.7561462E-02  0.1247050E+00
         -1   -1    0    0    0  501 -0.00000000000E+00  0.00000000000E+00  0.19340782510E+03  0.19340782510E+03  0.00000000000E+00 0.  1.
          1   -1    0    0  501    0  0.00000000000E+00 -0.00000000000E+00 -0.88235859473E+02  0.88235859473E+02  0.00000000000E+00 0. -1.
         23    2    1    2    0    0  0.64768346840E+02 -0.28630945238E+02  0.32654441024E+02  0.12064292333E+03  0.92052879662E+02 0.  0.
          5    1    1    2  502    0  0.27139367224E+02 -0.12086005467E+01 -0.14342012435E+02  0.31002769058E+02  0.41800000000E+01 0. -1.
         -5    1    1    2    0  502 -0.91907714064E+02  0.29839545785E+02  0.86859537038E+02  0.12999799218E+03  0.41800000000E+01 0. -1.
        -11    1    3    3    0    0  0.71985741613E+02 -0.50566448091E+02  0.10419583160E+02  0.88586005562E+02  0.00000000000E+00 0. -1.
         11    1    3    3    0    0 -0.72173947731E+01  0.21935502853E+02  0.22234857864E+02  0.32056917771E+02  0.00000000000E+00 0.  1.
</event>
<event>
 7    1  0.4096326E-006  0.1067682E+03  0.7561462E-02  0.1266674E+00
         -2   -1    0    0    0  501 -0.00000000000E+00  0.00000000000E+00  0.77331195885E+02  0.77331195885E+02  0.00000000000E+00 0.  1.
          2   -1    0    0  501    0  0.00000000000E+00 -0.00000000000E+00 -0.16111447295E+03  0.16111447295E+03  0.00000000000E+00 0. -1.
         23    2    1    2    0    0 -0.22891423006E+02 -0.71973454912E+01 -0.60323156559E+02  0.10892585997E+03  0.87465082889E+02 0.  0.
          5    1    1    2  502    0  0.30948967286E+01  0.65460573355E+02 -0.10598979321E+02  0.66516733327E+02  0.41800000000E+01 0. -1.
         -5    1    1    2    0  502  0.19796526278E+02 -0.58263227864E+02 -0.12861141182E+02  0.63003075531E+02  0.41800000000E+01 0. -1.
        -11    1    3    3    0    0 -0.48736657700E+02  0.16171411846E+02 -0.18711677368E+02  0.54652568419E+02  0.00000000000E+00 0.  1.
         11    1    3    3    0    0  0.25845234694E+02 -0.23368757337E+02 -0.41611479191E+02  0.54273291556E+02  0.00000000000E+00 0. -1.
</event>
<event>
 7    1  0.4096326E-006  0.6855009E+02  0.7561462E-02  0.1365094E+00
          1   -1    0    0  501    0  0.00000000000E+00  0.00000000000E+00  0.56999528749E+03  0.56999528749E+03  0.00000000000E+00 0. -1.
         -1   -1    0    0    0  501 -0.00000000000E+00 -0.00000000000E+00 -0.23649657219E+02  0.23649657219E+02  0.00000000000E+00 0.  1.
         23    2    1    2    0    0  0.15100943838E+02  0.98149075029E+01  0.36722757014E+03  0.37876248616E+03  0.90997591946E+02 0.  0.
          5    1    1    2  502    0  0.63746702759E+01  0.13129323186E+02  0.18238071869E+03  0.18301151466E+03  0.41800000000E+01 0. -1.
         -5    1    1    2    0  502 -0.21475614114E+02 -0.22944230689E+02 -0.32626585551E+01  0.31870943888E+02  0.41800000000E+01 0.  1.
        -11    1    3    3    0    0  0.50324180074E+01  0.49254211297E+02  0.15668402945E+03  0.16432038110E+03  0.00000000000E+00 0.  1.
         11    1    3    3    0    0  0.10068525831E+02 -0.39439303794E+02  0.21054354069E+03  0.21444210506E+03  0.00000000000E+00 0. -1.
</event>
<event>
 7    1  0.4096326E-006  0.8420589E+02  0.7561462E-02  0.1317522E+00
         -1   -1    0    0    0  501 -0.00000000000E+00  0.00000000000E+00  0.24157934341E+02  0.24157934341E+02  0.00000000000E+00 0.  1.
          1   -1    0    0  501    0  0.00000000000E+00 -0.00000000000E+00 -0.66354528762E+03  0.66354528762E+03  0.00000000000E+00 0. -1.
         23    2    1    2    0    0 -0.44422753616E+02  0.19671900937E+02 -0.38976915822E+03  0.40430071165E+03  0.95805553140E+02 0.  0.
          5    1    1    2  502    0 -0.75213101843E+01 -0.33920099099E+02 -0.21803039226E+03  0.22082089480E+03  0.41800000000E+01 0. -1.
         -5    1    1    2    0  502  0.51944063801E+02  0.14248198162E+02 -0.31587802794E+02  0.62581615514E+02  0.41800000000E+01 0. -1.
        -11    1    3    3    0    0  0.96332690469E+01 -0.13037687439E+02 -0.94392451176E+01  0.18758478475E+02  0.00000000000E+00 0.  1.
         11    1    3    3    0    0 -0.54056022663E+02  0.32709588377E+02 -0.38032991310E+03  0.38554223317E+03  0.00000000000E+00 0. -1.
</event>
<event>
 7    1  0.4096326E-006  0.1832194E+03  0.7561462E-02  0.1164723E+00
         -2   -1    0    0    0  501 -0.00000000000E+00  0.00000000000E+00  0.40851583553E+03  0.40851583553E+03  0.00000000000E+00 0.  1.
          2   -1    0    0  501    0  0.00000000000E+00 -0.00000000000E+00 -0.16266278318E+03  0.16266278318E+03  0.00000000000E+00 0. -1.
         23    2    1    2    0    0  0.12053987756E+03 -0.12851628993E+03 -0.51017618422E+02  0.20399208893E+03  0.89239431310E+02 0.  0.
          5    1    1    2  502    0 -0.57076042727E+02  0.79143549205E+02  0.54612788699E+02  0.11189908455E+03  0.41800000000E+01 0. -1.
         -5    1    1    2    0  502 -0.63463834828E+02  0.49372740723E+02  0.24225788208E+03  0.25528744522E+03  0.41800000000E+01 0. -1.
        -11    1    3    3    0    0  0.68094540375E+02 -0.25601125656E+02 -0.50367321480E+02  0.88482490566E+02  0.00000000000E+00 0. -1.
         11    1    3    3    0    0  0.52445337181E+02 -0.10291516427E+03 -0.65029694161E+00  0.11550959837E+03  0.00000000000E+00 0.  1.
</event>
<event>
 7    1  0.4096326E-006  0.9628838E+02  0.7561462E-02  0.1288300E+00
          1   -1    0    0  501    0  0.00000000000E+00  0.00000000000E+00  0.24193459823E+03  0.24193459823E+03  0.00000000000E+00 0. -1.
         -1   -1    0    0    0  501 -0.00000000000E+00 -0.00000000000E+00 -0.53288829715E+02  0.53288829715E+02  0.00000000000E+00 0.  1.
         23    2    1    2    0    0 -0.29765022734E+01  0.34178379198E+02  0.11456099052E+03  0.14585041456E+03  0.83493123719E+02 0.  0.
          5    1    1    2  502    0 -0.54677555631E+02 -0.42810392701E+02  0.28200728155E+02  0.75067424903E+02  0.41800000000E+01 0. -1.
         -5    1    1    2    0  502  0.57654057905E+02  0.86320135036E+01  0.45884049840E+02  0.74305588482E+02  0.41800000000E+01 0. -1.
        -11    1    3    3    0    0 -0.20117493005E+02 -0.59055372204E+01  0.96349493737E+02  0.98604329712E+02  0.00000000000E+00 0. -1.
         11    1    3    3    0    0  0.17140990731E+02  0.40083916418E+02  0.18211496788E+02  0.47246084853E+02  0.00000000000E+00 0.  1.
</event>
<event>
 7    1  0.4096326E-006  0.1608120E+03  0.7561462E-02  0.1187783E+00
         -1   -1    0    0    0  501 -0.00000000000E+00  0.00000000000E+00  0.84102929150E+02  0.84102929150E+02  0.00000000000E+00 0.  1.
          1   -1    0    0  501    0  0.00000000000E+00 -0.00000000000E+00 -0.41525913014E+03  0.41525913014E+03  0.00000000000E+00 0. -1.
         23    2    1    2    0    0  0.80908223039E+02  0.10705374757E+03 -0.25015496257E+03  0.29882477148E+03  0.93338595075E+02 0.  0.
          5    1    1    2  502    0 -0.45318701183E+02  0.13225735426E+01  0.18466557740E+02  0.49132677848E+02  0.41800000000E+01 0.  1.
         -5    1    1    2    0  502 -0.35589521856E+02 -0.10837632111E+03 -0.99467796165E+02  0.15140460996E+03  0.41800000000E+01 0.  1.
        -11    1    3    3    0    0  0.14764225162E+02  0.93206962584E+02 -0.12538864323E+03  0.15693257173E+03  0.00000000000E+00 0.  1.
         11    1    3    3    0    0  0.66143997878E+02  0.13846784985E+02 -0.12476631934E+03  0.14189219975E+03  0.00000000000E+00 0. -1.
</event>
<event>
 7    1  0.4096326E-006  0.8605129E+02  0.7561462E-02  0.1312706E+00
         -3   -1    0    0    0  501 -0.00000000000E+00  0.00000000000E+00  0.84458725923E+02  0.84458725923E+02  0.00000000000E+00 0.  1.
          3   -1    0    0  501    0  0.00000000000E+00 -0.00000000000E+00 -0.24154502648E+03  0.24154502648E+03  0.00000000000E+00 0. -1.
         23    2    1    2    0    0  0.81251463753E+02 -0.11347507211E+02 -0.12113915203E+03  0.17215229485E+03  0.90725697485E+02 0.  0.
          5    1    1    2  502    0 -0.59000543136E+02 -0.84357959550E+01  0.40180877919E+02  0.72001403417E+02  0.41800000000E+01 0. -1.
         -5    1    1    2    0  502 -0.22250920618E+02  0.19783303166E+02 -0.76128026444E+02  0.81850054140E+02  0.41800000000E+01 0. -1.
        -11    1    3    3    0    0  0.28057244972E+02 -0.85291414207E+00  0.10354338911E+02  0.29919037288E+02  0.00000000000E+00 0.  1.
         11    1    3    3    0    0  0.53194218782E+02 -0.10494593069E+02 -0.13149349094E+03  0.14223325756E+03  0.00000000000E+00 0. -1.
</event>
<event>
 7    1  0.4096326E-006  0.1128478E+03  0.7561462E-02  0.1255385E+00
          1   -1    0    0  501    0  0.00000000000E+00  0.00000000000E+00  0.23938484826E+03  0.23938484826E+03  0.00000000000E+00 0. -1.
         -1   -1    0    0    0  501 -0.00000000000E+00 -0.00000000000E+00 -0.54785754137E+02  0.54785754137E+02  0.00000000000E+00 0.  1.
         23    2    1    2    0    0 -0.40064074890E+02 -0.10158652766E+02  0.82528151350E+02  0.12751575784E+03  0.87983205264E+02 0.  0.
          5    1    1    2  502    0  0.76776106430E+02  0.35006651033E+02  0.50116522273E+02  0.98230210932E+02  0.41800000000E+01 0.  1.
         -5    1    1    2    0  502 -0.36712031540E+02 -0.24847998267E+02  0.51954420499E+02  0.68424633627E+02  0.41800000000E+01 0.  1.
        -11    1    3    3    0    0 -0.64458928706E+02  0.97563694560E+01  0.49296480422E+02  0.81732999559E+02  0.00000000000E+00 0. -1.
         11    1    3    3    0    0  0.24394853816E+02 -0.19915022222E+02  0.33231670928E+02  0.45782758278E+02  0.00000000000E+00 0.  1.
</event>
<event>
 7    1  0.4096326E-006  0.1887029E+03  0.7561462E-02  0.1159636E+00
         -1   -1    0    0    0  501 -0.00000000000E+00  0.00000000000E+00  0.49861533297E+03  0.49861533297E+03  0.00000000000E+00 0.  1.
          1   -1    0    0  501    0  0.00000000000E+00 -0.00000000000E+00 -0.86511918875E+02  0.86511918875E+02  0.00000000000E+00 0. -1.
         23    2    1    2    0    0 -0.14604450807E+03  0.50147160039E+02  0.76609377688E+02  0.19519479579E+03  0.91587529465E+02 0.  0.
          5    1    1    2  502    0 -0.17532986893E+01  0.30137048348E+02  0.51317355319E+02  0.59684663829E+02  0.41800000000E+01 0.  1.
         -5    1    1    2    0  502  0.14779780676E+03 -0.80284208387E+02  0.28417668109E+03  0.33024779224E+03  0.41800000000E+01 0.  1.
        -11    1    3    3    0    0 -0.72902310548E+02 -0.21793006001E+02  0.42061993372E+02  0.86941896000E+02  0.00000000000E+00 0.  1.
         11    1    3    3    0    0 -0.73142197525E+02  0.71940166040E+02  0.34547384316E+02  0.10825289978E+03  0.00000000000E+00 0. -1.
</event>
<event>
 7    1  0.4096326E-006  0.1314914E+03  0.7561462E-02  0.1225259E+00
          1   -1    0    0  501    0  0.00000000000E+00  0.00000000000E+00  0.37672761540E+02  0.37672761540E+02  0.00000000000E+00 0.  1.
         -1   -1    0    0    0  501 -0.00000000000E+00 -0.00000000000E+00 -0.51775913875E+03  0.51775913875E+03  0.00000000000E+00 0. -1.
         23    2    1    2    0    0  0.75308993885E+02  0.38223909455E+02 -0.16186677669E+03  0.20323277456E+03  0.89275951104E+02 0.  0.
          5    1    1    2  502    0 -0.63152797741E+02  0.35821704253E+02 -0.19184250459E+03  0.20516454208E+03  0.41800000000E+01 0. -1.
         -5    1    1    2    0  502 -0.12156196144E+02 -0.74045613708E+02 -0.12637709593E+03  0.14703458365E+03  0.41800000000E+01 0. -1.
        -11    1    3    3    0    0  0.71494994373E+02 -0.50404073644E+01 -0.13300018728E+03  0.15108272484E+03  0.00000000000E+00 0. -1.
         11    1    3    3    0    0  0.38139995114E+01  0.43264316820E+02 -0.28866589405E+02  0.52150049722E+02  0.00000000000E+00 0.  1.
</event>
<event>
 7    1  0.4096326E-006  0.9521025E+02  0.7561462E-02  0.1290703E+00
          2   -1    0    0  501    0  0.00000000000E+00  0.00000000000E+00  0.12837000529E+03  0.12837000529E+03  0.00000000000E+00 0. -1.
         -2   -1    0    0    0  501 -0.00000000000E+00 -0.00000000000E+00 -0.15740715930E+03  0.15740715930E+03  0.00000000000E+00 0.  1.
         23    2    1    2    0    0 -0.80940718310E+02  0.23311259027E+02  0.24230919402E+02  0.12584320793E+03  0.90302607105E+02 0.  0.
          5    1    1    2  502    0 -0.91073480623E+01 -0.57762870267E+01 -0.66191481520E+02  0.67194448479E+02  0.41800000000E+01 0. -1.
         -5    1    1    2    0  502  0.90048066373E+02 -0.17534972000E+02  0.12923408101E+02  0.92739508180E+02  0.41800000000E+01 0. -1.
        -11    1    3    3    0    0 -0.84103894037E+01  0.10356375383E+02  0.46896688305E+02  0.48757445944E+02  0.00000000000E+00 0. -1.
         11    1    3    3    0    0 -0.72530328907E+02  0.12954883645E+02 -0.22665768903E+02  0.77085761990E+02  0.00000000000E+00 0.  1.
</event>
<event>
 7    1  0.4096326E-006  0.1149236E+03  0.7561462E-02  0.1251714E+00
          2   -1    0    0  501    0  0.00000000000E+00  0.00000000000E+00  0.16347841529E+03  0.16347841529E+03  0.00000000000E+00 0. -1.
         -2   -1    0    0    0  501 -0.00000000000E+00 -0.00000000000E+00 -0.13007125956E+03  0.13007125956E+03  0.00000000000E+00 0.  1.
         23    2    1    2    0    0  0.81246932910E+02 -0.29481365933E+02  0.66697958528E+02  0.14260327063E+03  0.91743447062E+02 0.  0.
          5    1    1    2  502    0 -0.70280810498E+01 -0.15071308642E+02  0.36073127822E+02  0.39940971674E+02  0.41800000000E+01 0. -1.
         -5    1    1    2    0  502 -0.74218851860E+02  0.44552674574E+02 -0.69363930622E+02  0.11100543255E+03  0.41800000000E+01 0.  1.
        -11    1    3    3    0    0  0.14679361514E+02  0.32134374924E+02  0.17951291024E+02  0.39627648879E+02  0.00000000000E+00 0.  1.
         11    1    3    3    0    0  0.66567571396E+02 -0.61615740857E+02  0.48746667504E+02  0.10297562175E+03  0.00000000000E+00 0. -1.
</event>
<event>
 7    1  0.4096326E-006  0.3864031E+03  0.7561462E-02  0.1048592E+00
          1   -1    0    0  501    0  0.00000000000E+00  0.00000000000E+00  0.15039410318E+04  0.15039410318E+04  0.00000000000E+00 0. -1.
         -1   -1    0    0    0  501 -0.00000000000E+00 -0.00000000000E+00 -0.10528958394E+03  0.10528958394E+03  0.00000000000E+00 0.  1.
         23    2    1    2    0    0 -0.36106275541E+03 -0.87300233252E+02  0.87644453723E+03  0.95628932347E+03  0.91359724597E+02 0.  0.
          5    1    1    2  502    0  0.30229198535E+03  0.11739937369E+03  0.45376333150E+03  0.55774697737E+03  0.41800000000E+01 0. -1.
         -5    1    1    2    0  502  0.58770770061E+02 -0.30099140434E+02  0.68443579174E+02  0.95194314949E+02  0.41800000000E+01 0. -1.
        -11    1    3    3    0    0 -0.21802173628E+03 -0.66619372799E+01  0.48434267062E+03  0.53119269713E+03  0.00000000000E+00 0.  1.
         11    1    3    3    0    0 -0.14304101913E+03 -0.80638295972E+02  0.39210186660E+03  0.42509662634E+03  0.00000000000E+00 0. -1.
</event>
<event>
 7    1  0.4096326E-006  0.9626569E+02  0.7561462E-02  0.1288351E+00
         -1   -1    0    0    0  501 -0.00000000000E+00  0.00000000000E+00  0.51532074542E+02  0.51532074542E+02  0.00000000000E+00 0.  1.
          1   -1    0    0  501    0  0.00000000000E+00 -0.00000000000E+00 -0.30551290717E+03  0.30551290717E+03  0.00000000000E+00 0. -1.
         23    2    1    2    0    0 -0.55400043626E+02  0.21040711191E+02 -0.13728833355E+03  0.17599780328E+03  0.92818445748E+02 0.  0.
          5    1    1    2  502    0  0.38937118292E+02  0.23095623429E+02  0.93580019926E+01  0.46417147734E+02  0.41800000000E+01 0. -1.
         -5    1    1    2    0  502  0.16462925333E+02 -0.44136334619E+02 -0.12605050108E+03  0.13463003070E+03  0.41800000000E+01 0. -1.
        -11    1    3    3    0    0 -0.38026436983E+02  0.51913009628E+02 -0.12091399780E+03  0.13697140338E+03  0.00000000000E+00 0. -1.
         11    1    3    3    0    0 -0.17373606643E+02 -0.30872298437E+02 -0.16374335743E+02  0.39026399906E+02  0.00000000000E+00 0.  1.
</event>
<event>
 7    1  0.4096326E-006  0.1194697E+03  0.7561462E-02  0.1243974E+00
          4   -1    0    0  501    0  0.00000000000E+00  0.00000000000E+00  0.20583209748E+03  0.20583209748E+03  0.00000000000E+00 0. -1.
         -4   -1    0    0    0  501 -0.00000000000E+00 -0.00000000000E+00 -0.74685696131E+02  0.74685696131E+02  0.00000000000E+00 0.  1.
         23    2    1    2    0    0 -0.74433966120E+01 -0.56135764375E+02  0.80816842742E+02  0.13427698881E+03  0.91062173583E+02 0.  0.
          5    1    1    2  502    0 -0.55847978736E+02  0.31096364542E+02  0.44086532367E+02  0.77762943313E+02  0.41800000000E+01 0. -1.
         -5    1    1    2    0  502  0.63291375348E+02  0.25039399833E+02  0.62430262419E+01  0.68477861489E+02  0.41800000000E+01 0. -1.
        -11    1    3    3    0    0  0.20585476755E+02 -0.71721898979E+02  0.62562718142E+02  0.97374978037E+02  0.00000000000E+00 0.  1.
         11    1    3    3    0    0 -0.28028873367E+02  0.15586134604E+02  0.18254124600E+02  0.36902010772E+02  0.00000000000E+00 0. -1.
</event>
<event>
 7    1  0.4096326E-006  0.1151698E+03  0.7561462E-02  0.1251285E+00
         -2   -1    0    0    0  501 -0.00000000000E+00  0.00000000000E+00  0.30520969408E+02  0.30520969408E+02  0.00000000000E+00 0.  1.
          2   -1    0    0  501    0  0.00000000000E+00 -0.00000000000E+00 -0.58375579278E+03  0.58375579278E+03  0.00000000000E+00 0. -1.
         23    2    1    2    0    0  0.67233880370E+02 -0.51767856762E+00 -0.34179769904E+03  0.35957290100E+03  0.89142253734E+02 0.  0.
          5    1    1    2  502    0  0.21001739837E+02 -0.21202949811E+02 -0.12721513102E+03  0.13073561152E+03  0.41800000000E+01 0.  1.
         -5    1    1    2    0  502 -0.88235620207E+02  0.21720628378E+02 -0.84221993299E+02  0.12396824967E+03  0.41800000000E+01 0.  1.
        -11    1    3    3    0    0  0.47080717441E+02  0.41421802903E+02 -0.15831296806E+03  0.17028022659E+03  0.00000000000E+00 0.  1.
         11    1    3    3    0    0  0.20153162929E+02 -0.41939481471E+02 -0.18348473098E+03  0.18929267441E+03  0.00000000000E+00 0. -1.
</event>
<event>
 7    1  0.4096326E-006  0.8930662E+02  0.7561462E-02  0.1304540E+00
         -1   -1    0    0    0  501 -0.00000000000E+00  0.00000000000E+00  0.71046479681E+02  0.71046479681E+02  0.00000000000E+00 0.  1.
          1   -1    0    0  501    0  0.00000000000E+00 -0.00000000000E+00 -0.28487067128E+03  0.28487067128E+03  0.00000000000E+00 0. -1.
         23    2    1    2    0    0 -0.21685449598E+02  0.82116392197E+01 -0.22168091068E+03  0.24064713230E+03  0.90724453053E+02 0.  0.
          5    1    1    2  502    0 -0.88277087486E+01 -0.39936214047E+02  0.42475898017E+02  0.59114329452E+02  0.41800000000E+01 0. -1.
         -5    1    1    2    0  502  0.30513158347E+02  0.31724574827E+02 -0.34619178933E+02  0.56155689207E+02  0.41800000000E+01 0.  1.
        -11    1    3    3    0    0  0.30978308541E+02  0.23001228528E+02 -0.81509559191E+02  0.90180487653E+02  0.00000000000E+00 0.  1.
         11    1    3    3    0    0 -0.52663758139E+02 -0.14789589308E+02 -0.14017135149E+03  0.15046664465E+03  0.00000000000E+00 0. -1.
</event>
<event>
 7    1  0.4096326E-006  0.1652620E+03  0.7561462E-02  0.1182881E+00
          1   -1    0    0  501    0  0.00000000000E+00  0.00000000000E+00  0.14673872606E+04  0.14673872606E+04  0.00000000000E+00 0. -1.
         -1   -1    0    0    0  501 -0.00000000000E+00 -0.00000000000E+00 -0.27364030703E+02  0.27364030703E+02  0.00000000000E+00 0.  1.
         23    2    1    2    0    0  0.12140507359E+03  0.80606851602E+02  0.10013227311E+04  0.10158532652E+04  0.89855373752E+02 0.  0.
          5    1    1    2  502    0 -0.35609434456E+02 -0.61789601679E+02  0.33683924224E+03  0.34433143077E+03  0.41800000000E+01 0.  1.
         -5    1    1    2    0  502 -0.85795639132E+02 -0.18817249924E+02  0.10186125649E+03  0.13456659527E+03  0.41800000000E+01 0.  1.
        -11    1    3    3    0    0  0.27586408559E+02  0.71803346224E+02  0.43754936392E+03  0.44425913196E+03  0.00000000000E+00 0.  1.
         11    1    3    3    0    0  0.93818665028E+02  0.88035053783E+01  0.56377336720E+03  0.57159413326E+03  0.00000000000E+00 0. -1.
</event>
<event>
 7    1  0.4096326E-006  0.1074895E+03  0.7561462E-02  0.1265291E+00
         -2   -1    0    0    0  501 -0.00000000000E+00  0.00000000000E+00  0.10299933475E+03  0.10299933475E+03  0.00000000000E+00 0.  1.
          2   -1    0    0  501    0  0.00000000000E+00 -0.00000000000E+00 -0.16118313767E+03  0.16118313767E+03  0.00000000000E+00 0. -1.
         23    2    1    2    0    0  0.10670435323E+02 -0.26304133516E+02 -0.89847505984E+02  0.13206220280E+03  0.92531537584E+02 0.  0.
          5    1    1    2  502    0 -0.47686157994E+02 -0.26029041579E+02  0.39651657997E+02  0.67388478627E+02  0.41800000000E+01 0.  1.
         -5    1    1    2    0  502  0.37015722672E+02  0.52333175096E+02 -0.79879549342E+01  0.64731790988E+02  0.41800000000E+01 0.  1.
        -11    1    3    3    0    0  0.50169265322E+02 -0.26534863993E+02 -0.59702953159E+02  0.82374127042E+02  0.00000000000E+00 0. -1.
         11    1    3    3    0    0 -0.39498829999E+02  0.23073047674E+00 -0.30144552825E+02  0.49688075761E+02  0.00000000000E+00 0.  1.
</event>
<event>
 7    1  0.4096326E-006  0.1197642E+03  0.7561462E-02  0.1243486E+00
         -2   -1    0    0    0  501 -0.00000000000E+00  0.00000000000E+00  0.34123287570E+02  0.34123287570E+02  0.00000000000E+00 0.  1.
          2   -1    0    0  501    0  0.00000000000E+00 -0.00000000000E+00 -0.70971664515E+03  0.70971664515E+03  0.00000000000E+00 0. -1.
         23    2    1    2    0    0 -0.12790263447E+02 -0.50617118513E+02 -0.54765032069E+03  0.55744679293E+03  0.90002053687E+02 0.  0.
          5    1    1    2  502    0 -0.11803184894E+01 -0.41780519180E+02 -0.39655519950E+02  0.57767097877E+02  0.41800000000E+01 0.  1.
         -5    1    1    2    0  502  0.13970581937E+02  0.92397637693E+02 -0.88287516938E+02  0.12862604191E+03  0.41800000000E+01 0.  1.
        -11    1    3    3    0    0 -0.19774280483E+02 -0.75546873206E+02 -0.40247926657E+03  0.40998525857E+03  0.00000000000E+00 0.  1.
         11    1    3    3    0    0  0.69840170356E+01  0.24929754694E+02 -0.14517105412E+03  0.14746153436E+03  0.00000000000E+00 0. -1.
</event>
<event>
 7    1  0.4096326E-006  0.1035391E+03  0.7561462E-02  0.1273025E+00
         -2   -1    0    0    0  501 -0.00000000000E+00  0.00000000000E+00  0.35729429894E+02  0.35729429894E+02  0.00000000000E+00 0.  1.
          2   -1    0    0  501    0  0.00000000000E+00 -0.00000000000E+00 -0.35201771212E+03  0.35201771212E+03  0.00000000000E+00 0. -1.
         23    2    1    2    0    0  0.38296094326E+01 -0.23876098262E+02 -0.16996046326E+03  0.19372501676E+03  0.89766859542E+02 0.  0.
          5    1    1    2  502    0  0.42900203439E+02  0.49747598228E+02 -0.11344738174E+03  0.13116032864E+03  0.41800000000E+01 0. -1.
         -5    1    1    2    0  502 -0.46729812872E+02 -0.25871499966E+02 -0.32880437230E+02  0.62861796617E+02  0.41800000000E+01 0. -1.
        -11    1    3    3    0    0  0.21639415939E+01  0.31851791451E+02 -0.95567650796E+02  0.10075909458E+03  0.00000000000E+00 0. -1.
         11    1    3    3    0    0  0.16656678387E+01 -0.55727889713E+02 -0.74392812460E+02  0.92965922181E+02  0.00000000000E+00 0.  1.
</event>
<event>
 7    1  0.4096326E-006  0.1507190E+03  0.7561462E-02  0.1199592E+00
          2   -1    0    0  501    0  0.00000000000E+00  0.00000000000E+00  0.98295991908E+03  0.98295991908E+03  0.00000000000E+00 0. -1.
         -2   -1    0    0    0  501 -0.00000000000E+00 -0.00000000000E+00 -0.32573953353E+02  0.32573953353E+02  0.00000000000E+00 0.  1.
         23    2    1    2    0    0  0.55615177014E+02 -0.97466314271E+02  0.52234685496E+03  0.54201939475E+03  0.91356757118E+02 0.  0.
          5    1    1    2  502    0 -0.17698520104E+01 -0.23672135913E+02  0.25176193952E+03  0.25291312537E+03  0.41800000000E+01 0. -1.
         -5    1    1    2    0  502 -0.53845325003E+02  0.12113845018E+03  0.17627717126E+03  0.22060135232E+03  0.41800000000E+01 0.  1.
        -11    1    3    3    0    0 -0.25582678211E+02 -0.19917521116E+02  0.11698747786E+03  0.12139708006E+03  0.00000000000E+00 0.  1.
         11    1    3    3    0    0  0.81197855225E+02 -0.77548793155E+02  0.40535937709E+03  0.42062231469E+03  0.00000000000E+00 0. -1.
</event>
<event>
 7    1  0.4096326E-006  0.1062638E+03  0.7561462E-02  0.1267649E+00
         -1   -1    0    0    0  501 -0.00000000000E+00  0.00000000000E+00  0.32547416023E+03  0.32547416023E+03  0.00000000000E+00 0.  1.
          1   -1    0    0  501    0  0.00000000000E+00 -0.00000000000E+00 -0.53534449462E+02  0.53534449462E+02  0.00000000000E+00 0. -1.
         23    2    1    2    0    0  0.25814360996E+02  0.29521992478E+02  0.30188885732E+02  0.10400103825E+03  0.91470857989E+02 0.  0.
          5    1    1    2  502    0 -0.67344966557E+02 -0.14864206987E+02  0.72827007878E+02  0.10038692468E+03  0.41800000000E+01 0. -1.
         -5    1    1    2    0  502  0.41530605561E+02 -0.14657785492E+02  0.16892381716E+03  0.17462064676E+03  0.41800000000E+01 0. -1.
        -11    1    3    3    0    0 -0.22371682016E+02  0.43592130108E+02  0.10699783927E+02  0.50152281500E+02  0.00000000000E+00 0.  1.
         11    1    3    3    0    0  0.48186043012E+02 -0.14070137630E+02  0.19489101804E+02  0.53848756747E+02  0.00000000000E+00 0. -1.
</event>
<event>
 7    1  0.4096326E-006  0.5302393E+02  0.7561462E-02  0.1429682E+00
          1   -1    0    0  501    0  0.00000000000E+00  0.00000000000E+00  0.20782521766E+03  0.20782521766E+03  0.00000000000E+00 0.  1.
         -1   -1    0    0    0  501 -0.00000000000E+00 -0.00000000000E+00 -0.74287634108E+02  0.74287634108E+02  0.00000000000E+00 0. -1.
         23    2    1    2    0    0  0.48948690463E+02  0.18245171740E+02  0.97597062362E+02  0.14186529942E+03  0.88722691619E+02 0.  0.
          5    1    1    2  502    0 -0.41284603529E+02 -0.14713031758E+02 -0.42529919311E+02  0.61214036206E+02  0.41800000000E+01 0.  1.
         -5    1    1    2    0  502 -0.76640869340E+01 -0.35321399820E+01  0.78470440503E+02  0.79033516145E+02  0.41800000000E+01 0.  1.
        -11    1    3    3    0    0  0.31319902411E+02  0.14802926016E+02  0.11300800081E+03  0.11819843973E+03  0.00000000000E+00 0.  1.
         11    1    3    3    0    0  0.17628788052E+02  0.34422457236E+01 -0.15410938452E+02  0.23666859694E+02  0.00000000000E+00 0. -1.
</event>
<event>
 7    1  0.4096326E-006  0.1224390E+03  0.7561462E-02  0.1239127E+00
          1   -1    0    0  501    0  0.00000000000E+00  0.00000000000E+00  0.53233772082E+03  0.53233772082E+03  0.00000000000E+00 0. -1.
         -1   -1    0    0    0  501 -0.00000000000E+00 -0.00000000000E+00 -0.29614648928E+02  0.29614648928E+02  0.00000000000E+00 0.  1.
         23    2    1    2    0    0  0.58714366193E+02 -0.20154383420E+02  0.23990428702E+03  0.26433714853E+03  0.92013505485E+02 0.  0.
          5    1    1    2  502    0 -0.97366533558E+02  0.23745214985E+02  0.19764096646E+03  0.22163822124E+03  0.41800000000E+01 0. -1.
         -5    1    1    2    0  502  0.38652167365E+02 -0.35908315650E+01  0.65177818417E+02  0.75976999987E+02  0.41800000000E+01 0. -1.
        -11    1    3    3    0    0  0.60387734657E+02 -0.48302860804E+02  0.20717228629E+03  0.22113389850E+03  0.00000000000E+00 0. -1.
         11    1    3    3    0    0 -0.16733684638E+01  0.28148477384E+02  0.32732000730E+02  0.43203250027E+02  0.00000000000E+00 0.  1.
</event>
<event>
 7    1  0.4096326E-006  0.9076035E+02  0.7561462E-02  0.1301021E+00
         -1   -1    0    0    0  501 -0.00000000000E+00  0.00000000000E+00  0.32524248620E+02  0.32524248620E+02  0.00000000000E+00 0.  1.
          1   -1    0    0  501    0  0.00000000000E+00 -0.00000000000E+00 -0.49591845765E+03  0.49591845765E+03  0.00000000000E+00 0. -1.
         23    2    1    2    0    0 -0.35816612978E+02 -0.55120811179E+02 -0.19610874120E+03  0.22610311079E+03  0.91339174209E+02 0.  0.
          5    1    1    2  502    0  0.84737165413E+01 -0.77519610769E+01 -0.21667532582E+03  0.21701973641E+03  0.41800000000E+01 0.  1.
         -5    1    1    2    0  502  0.27342896437E+02  0.62872772256E+02 -0.50610142009E+02  0.85319859065E+02  0.41800000000E+01 0.  1.
        -11    1    3    3    0    0 -0.30132282900E+01 -0.65985948331E+02 -0.73971726001E+02  0.99171776073E+02  0.00000000000E+00 0.  1.
         11    1    3    3    0    0 -0.32803384688E+02  0.10865137152E+02 -0.12213701519E+03  0.12693133472E+03  0.00000000000E+00 0. -1.
</event>
<event>
 7    1  0.4096326E-006  0.1464090E+03  0.7561462E-02  0.1204956E+00
          2   -1    0    0  501    0  0.00000000000E+00  0.00000000000E+00  0.69290090458E+02  0.69290090458E+02  0.00000000000E+00 0. -1.
         -2   -1    0    0    0  501 -0.00000000000E+00 -0.00000000000E+00 -0.37859972121E+03  0.37859972121E+03  0.00000000000E+00 0.  1.
         23    2    1    2    0    0 -0.18870127424E+02 -0.11703353297E+03 -0.12021753467E+03  0.19201938735E+03  0.91467261507E+02 0.  0.
          5    1    1    2  502    0  0.48042117643E+02  0.12900385595E+03 -0.16994576250E+03  0.21874431309E+03  0.41800000000E+01 0. -1.
         -5    1    1    2    0  502 -0.29171990219E+02 -0.11970322983E+02 -0.19146333585E+02  0.37126111235E+02  0.41800000000E+01 0. -1.
        -11    1    3    3    0    0 -0.28360836944E+02 -0.97960980210E+02 -0.40880958780E+02  0.10987239647E+03  0.00000000000E+00 0. -1.
         11    1    3    3    0    0  0.94907095198E+01 -0.19072552756E+02 -0.79336575890E+02  0.82146990875E+02  0.00000000000E+00 0.  1.
</event>
<event>
 7    1  0.4096326E-006  0.1089748E+03  0.7561462E-02  0.1262480E+00
         -2   -1    0    0    0  501 -0.00000000000E+00  0.00000000000E+00  0.28623105188E+02  0.28623105188E+02  0.00000000000E+00 0. -1.
          2   -1    0    0  501    0  0.00000000000E+00 -0.00000000000E+00 -0.52092539285E+03  0.52092539285E+03  0.00000000000E+00 0.  1.
         23    2    1    2    0    0  0.68663752339E+01 -0.39893864361E+02 -0.30358849799E+03  0.31954976587E+03  0.91144990192E+02 0.  0.
          5    1    1    2  502    0  0.24486080448E+02  0.71031751523E+02 -0.68145599067E+02  0.10152030798E+03  0.41800000000E+01 0. -1.
         -5    1    1    2    0  502 -0.31352455682E+02 -0.31137887163E+02 -0.12056819061E+03  0.12847842418E+03  0.41800000000E+01 0. -1.
        -11    1    3    3    0    0 -0.38428484212E+02 -0.72864762317E+00 -0.14581269553E+03  0.15079330723E+03  0.00000000000E+00 0.  1.
         11    1    3    3    0    0  0.45294859446E+02 -0.39165216738E+02 -0.15777580245E+03  0.16875645865E+03  0.00000000000E+00 0. -1.
</event>
<event>
 7    1  0.4096326E-006  0.1311586E+03  0.7561462E-02  0.1225747E+00
         -1   -1    0    0    0  501 -0.00000000000E+00  0.00000000000E+00  0.13936209435E+03  0.13936209435E+03  0.00000000000E+00 0.  1.
          1   -1    0    0  501    0  0.00000000000E+00 -0.00000000000E+00 -0.12698377211E+03  0.12698377211E+03  0.00000000000E+00 0. -1.
         23    2    1    2    0    0  0.70238448717E+02  0.25787175931E+02 -0.13289326105E+02  0.11834447783E+03  0.90721503091E+02 0.  0.
          5    1    1    2  502    0 -0.30195361111E+02 -0.75160590014E+02  0.60073025651E+01  0.81329171937E+02  0.41800000000E+01 0.  1.
         -5    1    1    2    0  502 -0.40043087606E+02  0.49373414083E+02  0.19660345774E+02  0.66672216696E+02  0.41800000000E+01 0.  1.
        -11    1    3    3    0    0 -0.41451025423E+01 -0.26345183811E+02 -0.10467060419E+01  0.26689814137E+02  0.00000000000E+00 0. -1.
         11    1    3    3    0    0  0.74383551260E+02  0.52132359741E+02 -0.12242620063E+02  0.91654663690E+02  0.00000000000E+00 0.  1.
</event>
<event>
 7    1  0.4096326E-006  0.7332828E+02  0.7561462E-02  0.1349127E+00
          4   -1    0    0  501    0  0.00000000000E+00  0.00000000000E+00  0.21985262926E+03  0.21985262926E+03  0.00000000000E+00 0. -1.
         -4   -1    0    0    0  501 -0.00000000000E+00 -0.00000000000E+00 -0.87686818676E+02  0.87686818676E+02  0.00000000000E+00 0.  1.
         23    2    1    2    0    0  0.22287406044E+01  0.68469818542E+02  0.11848387577E+03  0.16425966927E+03  0.90828006668E+02 0.  0.
          5    1    1    2  502    0  0.42483365150E+01  0.27068385217E+01 -0.48204204971E+02  0.48646614628E+02  0.41800000000E+01 0. -1.
         -5    1    1    2    0  502 -0.64770771195E+01 -0.71176657063E+02  0.61886139786E+02  0.94633164040E+02  0.41800000000E+01 0. -1.
        -11    1    3    3    0    0  0.11811230221E+01  0.52721084392E+02  0.13283966189E+03  0.14292404823E+03  0.00000000000E+00 0. -1.
         11    1    3    3    0    0  0.10476175823E+01  0.15748734150E+02 -0.14355786122E+02  0.21335621039E+02  0.00000000000E+00 0.  1.
</event>
<event>
 7    1  0.4096326E-006  0.8310900E+02  0.7561462E-02  0.1320453E+00
         -3   -1    0    0    0  501 -0.00000000000E+00  0.00000000000E+00  0.39612178189E+02  0.39612178189E+02  0.00000000000E+00 0.  1.
          3   -1    0    0  501    0  0.00000000000E+00 -0.00000000000E+00 -0.34976944262E+03  0.34976944262E+03  0.00000000000E+00 0. -1.
         23    2    1    2    0    0 -0.41554541305E+02  0.59060963581E+01 -0.16538028194E+03  0.19349581688E+03  0.91259693282E+02 0.  0.
          5    1    1    2  502    0 -0.40968573757E+02 -0.52124015881E+01 -0.19623827015E+02  0.45914705190E+02  0.41800000000E+01 0. -1.
         -5    1    1    2    0  502  0.82523115062E+02 -0.69369476994E+00 -0.12515315548E+03  0.14997109874E+03  0.41800000000E+01 0. -1.
        -11    1    3    3    0    0 -0.12497313856E+02  0.41084262443E+00  0.97689021357E+01  0.15867674506E+02  0.00000000000E+00 0.  1.
         11    1    3    3    0    0 -0.29057227449E+02  0.54952537336E+01 -0.17514918408E+03  0.17762814237E+03  0.00000000000E+00 0. -1.
</event>
<event>
 7    1  0.4096326E-006  0.1004448E+03  0.7561462E-02  0.1279363E+00
         -1   -1    0    0    0  501 -0.00000000000E+00  0.00000000000E+00  0.10608444013E+03  0.10608444013E+03  0.00000000000E+00 0.  1.
          1   -1    0    0  501    0  0.00000000000E+00 -0.00000000000E+00 -0.13732803281E+03  0.13732803281E+03  0.00000000000E+00 0. -1.
         23    2    1    2    0    0 -0.17220901556E+02 -0.51001790040E+02 -0.10906757545E+02  0.10572415577E+03  0.90337687133E+02 0.  0.
          5    1    1    2  502    0  0.39855117995E+02  0.81039342323E+02 -0.35220239467E+02  0.97024445902E+02  0.41800000000E+01 0. -1.
         -5    1    1    2    0  502 -0.22634216438E+02 -0.30037552283E+02  0.14883404331E+02  0.40663871255E+02  0.41800000000E+01 0. -1.
        -11    1    3    3    0    0 -0.25338146463E+02 -0.48715684712E+01  0.32750925550E+02  0.41693848107E+02  0.00000000000E+00 0.  1.
         11    1    3    3    0    0  0.81172449061E+01 -0.46130221569E+02 -0.43657683095E+02  0.64030307668E+02  0.00000000000E+00 0. -1.
</event>
<event>
 7    1  0.4096326E-006  0.1405893E+03  0.7561462E-02  0.1212538E+00
         -1   -1    0    0    0  501 -0.00000000000E+00  0.00000000000E+00  0.13266918183E+03  0.13266918183E+03  0.00000000000E+00 0.  1.
          1   -1    0    0  501    0  0.00000000000E+00 -0.00000000000E+00 -0.15486458561E+03  0.15486458561E+03  0.00000000000E+00 0. -1.
         23    2    1    2    0    0  0.79243439390E+02  0.46417236375E+02  0.76658928039E+01  0.12951363268E+03  0.90999629766E+02 0.  0.
          5    1    1    2  502    0  0.15542740677E+02  0.29535745080E+02 -0.61752719346E+01  0.34198587816E+02  0.41800000000E+01 0.  1.
         -5    1    1    2    0  502 -0.94786180067E+02 -0.75952981455E+02 -0.23686024645E+02  0.12382154694E+03  0.41800000000E+01 0.  1.
        -11    1    3    3    0    0  0.63687229202E+02 -0.12645270921E+02 -0.10541728561E+02  0.65780651267E+02  0.00000000000E+00 0.  1.
         11    1    3    3    0    0  0.15556210188E+02  0.59062507296E+02  0.18207621365E+02  0.63732981409E+02  0.00000000000E+00 0. -1.
</event>
<event>
 7    1  0.4096326E-006  0.1267605E+03  0.7561462E-02  0.1232343E+00
         -4   -1    0    0    0  501 -0.00000000000E+00  0.00000000000E+00  0.51942904651E+03  0.51942904651E+03  0.00000000000E+00 0. -1.
          4   -1    0    0  501    0  0.00000000000E+00 -0.00000000000E+00 -0.48119440157E+02  0.48119440157E+02  0.00000000000E+00 0.  1.
         23    2    1    2    0    0  0.88737670663E+02  0.72547659148E+02  0.23448058984E+03  0.27621855846E+03  0.90432339245E+02 0.  0.
          5    1    1    2  502    0 -0.76521715275E+02 -0.38521856680E+02  0.23993417468E+03  0.25480460539E+03  0.41800000000E+01 0.  1.
         -5    1    1    2    0  502 -0.12215955388E+02 -0.34025802468E+02 -0.31051581665E+01  0.36525322817E+02  0.41800000000E+01 0.  1.
        -11    1    3    3    0    0  0.78229310661E+02  0.24212171987E+02  0.81887763770E+02  0.11580872236E+03  0.00000000000E+00 0.  1.
         11    1    3    3    0    0  0.10508360002E+02  0.48335487161E+02  0.15259282607E+03  0.16040983610E+03  0.00000000000E+00 0. -1.
</event>
<event>
 7    1  0.4096326E-006  0.1019022E+03  0.7561462E-02  0.1276346E+00
         -3   -1    0    0    0  501 -0.00000000000E+00  0.00000000000E+00  0.16832823972E+03  0.16832823972E+03  0.00000000000E+00 0.  1.
          3   -1    0    0  501    0  0.00000000000E+00 -0.00000000000E+00 -0.81543671854E+02  0.81543671854E+02  0.00000000000E+00 0. -1.
         23    2    1    2    0    0 -0.73995889964E+01  0.50337150038E+01 -0.95905587192E+01  0.91708408122E+02  0.90765417972E+02 0.  0.
          5    1    1    2  502    0  0.55841474579E+02 -0.29952244755E+02  0.24931850131E+02  0.68223726078E+02  0.41800000000E+01 0. -1.
         -5    1    1    2    0  502 -0.48441885582E+02  0.24918529752E+02  0.71443276459E+02  0.89939777379E+02  0.41800000000E+01 0. -1.
        -11    1    3    3    0    0 -0.43796224881E+02  0.17541141148E+02  0.10443483288E+02  0.48320464502E+02  0.00000000000E+00 0.  1.
         11    1    3    3    0    0  0.36396635884E+02 -0.12507426144E+02 -0.20034042007E+02  0.43387943620E+02  0.00000000000E+00 0. -1.
</event>
<event>
 7    1  0.4096326E-006  0.1515791E+03  0.7561462E-02  0.1198546E+00
         -2   -1    0    0    0  501 -0.00000000000E+00  0.00000000000E+00  0.10116764203E+03  0.10116764203E+03  0.00000000000E+00 0.  1.
          2   -1    0    0  501    0  0.00000000000E+00 -0.00000000000E+00 -0.29584633112E+03  0.29584633112E+03  0.00000000000E+00 0. -1.
         23    2    1    2    0    0  0.44889789757E+02  0.12713165194E+03 -0.10480451338E+03  0.19759842204E+03  0.99416297553E+02 0.  0.
          5    1    1    2  502    0 -0.92818752780E+01 -0.48444816838E+01 -0.69444780293E+02  0.70353906227E+02  0.41800000000E+01 0. -1.
         -5    1    1    2    0  502 -0.35607914479E+02 -0.12228717026E+03 -0.20429395414E+02  0.12906164488E+03  0.41800000000E+01 0.  1.
        -11    1    3    3    0    0  0.18309651361E+02 -0.12591344427E+02 -0.24231962504E+01  0.22353012493E+02  0.00000000000E+00 0.  1.
         11    1    3    3    0    0  0.26580138396E+02  0.13972299637E+03 -0.10238131713E+03  0.17524540955E+03  0.00000000000E+00 0. -1.
</event>
<event>
 7    1  0.4096326E-006  0.1340885E+03  0.7561462E-02  0.1221512E+00
          1   -1    0    0  501    0  0.00000000000E+00  0.00000000000E+00  0.28006786848E+03  0.28006786848E+03  0.00000000000E+00 0. -1.
         -1   -1    0    0    0  501 -0.00000000000E+00 -0.00000000000E+00 -0.75257491422E+02  0.75257491422E+02  0.00000000000E+00 0.  1.
         23    2    1    2    0    0  0.91407672319E+02 -0.26374622597E+02  0.10193609236E+03  0.16749105509E+03  0.92797108438E+02 0.  0.
          5    1    1    2  502    0 -0.73457774977E+02 -0.30506134914E+02  0.14232623963E+02  0.80911735594E+02  0.41800000000E+01 0. -1.
         -5    1    1    2    0  502 -0.17949897342E+02  0.56880757510E+02  0.88641660736E+02  0.10692256921E+03  0.41800000000E+01 0. -1.
        -11    1    3    3    0    0  0.39307963833E+01 -0.40009064831E+02  0.13636828251E+02  0.42451613792E+02  0.00000000000E+00 0.  1.
         11    1    3    3    0    0  0.87476875936E+02  0.13634442234E+02  0.88299264106E+02  0.12503944130E+03  0.00000000000E+00 0. -1.
</event>
<event>
 7    1  0.4096326E-006  0.8723615E+02  0.7561462E-02  0.1309686E+00
         -1   -1    0    0    0  501 -0.00000000000E+00  0.00000000000E+00  0.90035044068E+03  0.90035044068E+03  0.00000000000E+00 0.  1.
          1   -1    0    0  501    0  0.00000000000E+00 -0.00000000000E+00 -0.14406504901E+02  0.14406504901E+02  0.00000000000E+00 0. -1.
         23    2    1    2    0    0 -0.15803334573E+02 -0.77027984068E+01  0.25676638583E+03  0.27302350742E+03  0.91125080114E+02 0.  0.
          5    1    1    2  502    0 -0.13027359503E+02 -0.31141490827E+02  0.53214089126E+03  0.53322687957E+03  0.41800000000E+01 0. -1.
         -5    1    1    2    0  502  0.28830694076E+02  0.38844289234E+02  0.97036658692E+02  0.10850655859E+03  0.41800000000E+01 0. -1.
        -11    1    3    3    0    0  0.37299309517E+02 -0.10431458567E+02  0.89840933839E+02  0.97833773368E+02  0.00000000000E+00 0. -1.
         11    1    3    3    0    0 -0.53102644090E+02  0.27286601602E+01  0.16692545199E+03  0.17518973405E+03  0.00000000000E+00 0.  1.
</event>
<event>
 7    1  0.4096326E-006  0.1442515E+03  0.7561462E-02  0.1207720E+00
          1   -1    0    0  501    0  0.00000000000E+00  0.00000000000E+00  0.13732654541E+03  0.13732654541E+03  0.00000000000E+00 0. -1.
         -1   -1    0    0    0  501 -0.00000000000E+00 -0.00000000000E+00 -0.18714342304E+03  0.18714342304E+03  0.00000000000E+00 0.  1.
         23    2    1    2    0    0  0.38670705362E+02  0.10456602434E+03  0.12817270542E+02  0.14558460120E+03  0.92742206056E+02 0.  0.
          5    1    1    2  502    0 -0.51907111349E+02 -0.12196978689E+03 -0.24700426865E+02  0.13490204079E+03  0.41800000000E+01 0. -1.
         -5    1    1    2    0  502  0.13236405986E+02  0.17403762549E+02 -0.37933721305E+02  0.43983326458E+02  0.41800000000E+01 0. -1.
        -11    1    3    3    0    0 -0.15646098892E+02  0.63845034917E+02  0.34606722445E+02  0.74287375324E+02  0.00000000000E+00 0. -1.
         11    1    3    3    0    0  0.54316804254E+02  0.40720989422E+02 -0.21789451903E+02  0.71297225880E+02  0.00000000000E+00 0.  1.
</event>
<event>
 7    1  0.4096326E-006  0.9933319E+02  0.7561462E-02  0.1281704E+00
          1   -1    0    0  501    0  0.00000000000E+00  0.00000000000E+00  0.40137000299E+02  0.40137000299E+02  0.00000000000E+00 0.  1.
         -1   -1    0    0    0  501 -0.00000000000E+00 -0.00000000000E+00 -0.37926486289E+03  0.37926486289E+03  0.00000000000E+00 0. -1.
         23    2    1    2    0    0  0.22132819076E+02 -0.25878038458E+02 -0.65229572714E+02  0.11641682620E+03  0.90213334448E+02 0.  0.
          5    1    1    2  502    0  0.24821054199E+02 -0.39872402572E+02 -0.12372881459E+03  0.13240915822E+03  0.41800000000E+01 0.  1.
         -5    1    1    2    0  502 -0.46953873275E+02  0.65750441031E+02 -0.15016947528E+03  0.17057587877E+03  0.41800000000E+01 0.  1.
        -11    1    3    3    0    0 -0.18682634146E+01  0.19333613803E+02  0.12680183386E+02  0.23196251455E+02  0.00000000000E+00 0.  1.
         11    1    3    3    0    0  0.24001082491E+02 -0.45211652261E+02 -0.77909756100E+02  0.93220574749E+02  0.00000000000E+00 0. -1.
</event>
<event>
 7    1  0.4096326E-006  0.1097559E+03  0.7561462E-02  0.1261023E+00
         -2   -1    0    0    0  501 -0.00000000000E+00  0.00000000000E+00  0.64293262411E+02  0.64293262411E+02  0.00000000000E+00 0.  1.
          2   -1    0    0  501    0  0.00000000000E+00 -0.00000000000E+00 -0.24685074529E+03  0.24685074529E+03  0.00000000000E+00 0. -1.
         23    2    1    2    0    0  0.54828506474E+02  0.24211809131E+02 -0.11513881804E+03  0.15691899591E+03  0.88171690665E+02 0.  0.
          5    1    1    2  502    0 -0.82571832470E+02 -0.76561672050E+01 -0.42370260958E+01  0.83139336080E+02  0.41800000000E+01 0. -1.
         -5    1    1    2    0  502  0.27743325996E+02 -0.16555641926E+02 -0.63181638743E+02  0.71085675710E+02  0.41800000000E+01 0. -1.
        -11    1    3    3    0    0 -0.10211968503E+02  0.36335197746E+02 -0.59558437913E+02  0.70510555399E+02  0.00000000000E+00 0.  1.
         11    1    3    3    0    0  0.65040474978E+02 -0.12123388616E+02 -0.55580380127E+02  0.86408440513E+02  0.00000000000E+00 0. -1.
</event>
<event>
 7    1  0.4096326E-006  0.1392135E+03  0.7561462E-02  0.1214391E+00
         -2   -1    0    0    0  501 -0.00000000000E+00  0.00000000000E+00  0.38778804972E+02  0.38778804972E+02  0.00000000000E+00 0.  1.
          2   -1    0    0  501    0  0.00000000000E+00 -0.00000000000E+00 -0.75842179220E+03  0.75842179220E+03  0.00000000000E+00 0. -1.
         23    2    1    2    0    0  0.94579916101E+01 -0.10913376694E+03 -0.50949307343E+03  0.52922421969E+03  0.92170766184E+02 0.  0.
          5    1    1    2  502    0  0.35400362709E+02  0.45591576380E+02 -0.17950356419E+02  0.60592616814E+02  0.41800000000E+01 0.  1.
         -5    1    1    2    0  502 -0.44858354319E+02  0.63542190559E+02 -0.19219955738E+03  0.20738376068E+03  0.41800000000E+01 0.  1.
        -11    1    3    3    0    0 -0.36761322934E+02 -0.79956994368E+02 -0.29238602084E+03  0.30534259610E+03  0.00000000000E+00 0. -1.
         11    1    3    3    0    0  0.46219314544E+02 -0.29176772572E+02 -0.21710705259E+03  0.22388162358E+03  0.00000000000E+00 0.  1.
</event>
<event>
 7    1  0.4096326E-006  0.1730173E+03  0.7561462E-02  0.1174737E+00
         -1   -1    0    0    0  501 -0.00000000000E+00  0.00000000000E+00  0.13262905416E+03  0.13262905416E+03  0.00000000000E+00 0.  1.
          1   -1    0    0  501    0  0.00000000000E+00 -0.00000000000E+00 -0.29002015142E+03  0.29002015142E+03  0.00000000000E+00 0. -1.
         23    2    1    2    0    0  0.15075212692E+03  0.28617908669E+02 -0.13273317905E+03  0.22314691038E+03  0.92904565667E+02 0.  0.
          5    1    1    2  502    0  0.19236946531E+02 -0.35697977785E+01  0.12587943702E+02  0.23637518792E+02  0.41800000000E+01 0.  1.
         -5    1    1    2    0  502 -0.16998907345E+03 -0.25048110890E+02 -0.37245861902E+02  0.17586477641E+03  0.41800000000E+01 0.  1.
        -11    1    3    3    0    0  0.42492827388E+02  0.14889173303E+02  0.73004850089E+01  0.45613867874E+02  0.00000000000E+00 0.  1.
         11    1    3    3    0    0  0.10825929953E+03  0.13728735366E+02 -0.14003366406E+03  0.17753304250E+03  0.00000000000E+00 0. -1.
</event>
<event>
 7    1  0.4096326E-006  0.1256597E+03  0.7561462E-02  0.1234042E+00
         -1   -1    0    0    0  501 -0.00000000000E+00  0.00000000000E+00  0.11599627541E+04  0.11599627541E+04  0.00000000000E+00 0.  1.
          1   -1    0    0  501    0  0.00000000000E+00 -0.00000000000E+00 -0.16354685233E+02  0.16354685233E+02  0.00000000000E+00 0. -1.
         23    2    1    2    0    0 -0.48917797567E+02  0.34588465002E+01  0.27064482523E+03  0.29021075173E+03  0.92567512957E+02 0.  0.
          5    1    1    2  502    0 -0.43575521240E+02  0.25872108808E+02  0.40434348368E+03  0.40752830240E+03  0.41800000000E+01 0. -1.
         -5    1    1    2    0  502  0.92493318807E+02 -0.29330955308E+02  0.46861975995E+03  0.47857838520E+03  0.41800000000E+01 0.  1.
        -11    1    3    3    0    0 -0.69059632342E+02 -0.20508421763E+02  0.20907841152E+03  0.22114160700E+03  0.00000000000E+00 0. -1.
         11    1    3    3    0    0  0.20141834775E+02  0.23967268263E+02  0.61566413713E+02  0.69069144729E+02  0.00000000000E+00 0.  1.
</event>
<event>
 7    1  0.4096326E-006  0.9578626E+02  0.7561462E-02  0.1289415E+00
         -2   -1    0    0    0  501 -0.00000000000E+00  0.00000000000E+00  0.41046753024E+03  0.41046753024E+03  0.00000000000E+00 0.  1.
          2   -1    0    0  501    0  0.00000000000E+00 -0.00000000000E+00 -0.52258665799E+02  0.52258665799E+02  0.00000000000E+00 0. -1.
         23    2    1    2    0    0 -0.64272785867E+02  0.24131991172E+02  0.52416912047E+02  0.12528065862E+03  0.90743411627E+02 0.  0.
          5    1    1    2  502    0  0.87398370159E+00 -0.42902395342E+02  0.26957241803E+02  0.50848251289E+02  0.41800000000E+01 0. -1.
         -5    1    1    2    0  502  0.63398802165E+02  0.18770404170E+02  0.27883471060E+03  0.28659728614E+03  0.41800000000E+01 0. -1.
        -11    1    3    3    0    0 -0.46389987851E+01  0.22054430725E+02 -0.20909942414E+02  0.30743193004E+02  0.00000000000E+00 0. -1.
         11    1    3    3    0    0 -0.59633787082E+02  0.20775604471E+01  0.73326854462E+02  0.94537465612E+02  0.00000000000E+00 0.  1.
</event>
<event>
 7    1  0.4096326E-006  0.1144493E+03  0.7561462E-02  0.1252545E+00
          2   -1    0    0  501    0  0.00000000000E+00  0.00000000000E+00  0.79464204115E+02  0.79464204115E+02  0.00000000000E+00 0. -1.
         -2   -1    0    0    0  501 -0.00000000000E+00 -0.00000000000E+00 -0.20459805932E+03  0.20459805932E+03  0.00000000000E+00 0.  1.
         23    2    1    2    0    0 -0.51391255545E+02 -0.42937632437E+02 -0.21300060565E+02  0.10822868849E+03  0.82310722308E+02 0.  0.
          5    1    1    2  502    0  0.42979724419E+02  0.84933797066E+02 -0.52287850997E+02  0.10868531804E+03  0.41800000000E+01 0. -1.
         -5    1    1    2    0  502  0.84115311266E+01 -0.41996164629E+02 -0.51545943647E+02  0.67148256908E+02  0.41800000000E+01 0. -1.
        -11    1    3    3    0    0 -0.31843173714E+02  0.10622211509E+02 -0.36128623081E+02  0.49316290364E+02  0.00000000000E+00 0.  1.
         11    1    3    3    0    0 -0.19548081831E+02 -0.53559843947E+02  0.14828562516E+02  0.58912398128E+02  0.00000000000E+00 0. -1.
</event>
<event>
 7    1  0.4096326E-006  0.1778890E+03  0.7561462E-02  0.1169862E+00
         -2   -1    0    0    0  501 -0.00000000000E+00  0.00000000000E+00  0.47968250115E+02  0.47968250115E+02  0.00000000000E+00 0.  1.
          2   -1    0    0  501    0  0.00000000000E+00 -0.00000000000E+00 -0.85755165871E+03  0.85755165871E+03  0.00000000000E+00 0. -1.
         23    2    1    2    0    0  0.11313060883E+03  0.84330551511E+02 -0.57022028114E+03  0.59394709444E+03  0.87816885643E+02 0.  0.
          5    1    1    2  502    0  0.29211455683E+02 -0.12223113852E+02 -0.79447493688E+02  0.85627625850E+02  0.41800000000E+01 0. -1.
         -5    1    1    2    0  502 -0.14234206452E+03 -0.72107437659E+02 -0.15991563377E+03  0.22594518853E+03  0.41800000000E+01 0.  1.
        -11    1    3    3    0    0  0.12429481929E+03  0.61221688867E+02 -0.44292107809E+03  0.46408660690E+03  0.00000000000E+00 0. -1.
         11    1    3    3    0    0 -0.11164210456E+02  0.23108862644E+02 -0.12729920305E+03  0.12986048754E+03  0.00000000000E+00 0.  1.
</event>
<event>
 7    1  0.4096326E-006  0.1184906E+03  0.7561462E-02  0.1245608E+00
         -4   -1    0    0    0  501 -0.00000000000E+00  0.00000000000E+00  0.73410373471E+03  0.73410373471E+03  0.00000000000E+00 0.  1.
          4   -1    0    0  501    0  0.00000000000E+00 -0.00000000000E+00 -0.26673347313E+02  0.26673347313E+02  0.00000000000E+00 0. -1.
         23    2    1    2    0    0  0.72216003758E+02  0.12152761499E+02  0.18445514347E+03  0.21808644379E+03  0.90416570375E+02 0.  0.
          5    1    1    2  502    0 -0.68908749760E+02 -0.48519372017E+02  0.47402902785E+03  0.48148056752E+03  0.41800000000E+01 0.  1.
         -5    1    1    2    0  502 -0.33072539985E+01  0.36366610517E+02  0.48946216076E+02  0.61210070721E+02  0.41800000000E+01 0.  1.
        -11    1    3    3    0    0  0.87314764256E+02  0.30131929013E+02  0.15478991064E+03  0.18025459117E+03  0.00000000000E+00 0.  1.
         11    1    3    3    0    0 -0.15098760497E+02 -0.17979167514E+02  0.29665232836E+02  0.37831852615E+02  0.00000000000E+00 0. -1.
</event>
<event>
 7    1  0.4096326E-006  0.1512029E+03  0.7561462E-02  0.1199003E+00
         -1   -1    0    0    0  501 -0.00000000000E+00  0.00000000000E+00  0.73723670783E+02  0.73723670783E+02  0.00000000000E+00 0.  1.
          1   -1    0    0  501    0  0.00000000000E+00 -0.00000000000E+00 -0.37391819340E+03  0.37391819340E+03  0.00000000000E+00 0. -1.
         23    2    1    2    0    0  0.90450610137E+02 -0.59031747278E+02 -0.22705447416E+03  0.26691009854E+03  0.89561188072E+02 0.  0.
          5    1    1    2  502    0 -0.93571862910E+01  0.78309806646E+02 -0.18934978213E+02  0.81215691539E+02  0.41800000000E+01 0. -1.
         -5    1    1    2    0  502 -0.81093423846E+02 -0.19278059368E+02 -0.54205070248E+02  0.99516074102E+02  0.41800000000E+01 0. -1.
        -11    1    3    3    0    0  0.31387561839E+02 -0.72839607000E+02 -0.13780691675E+03  0.15900167826E+03  0.00000000000E+00 0.  1.
         11    1    3    3    0    0  0.59063048298E+02  0.13807859723E+02 -0.89247557405E+02  0.10790842028E+03  0.00000000000E+00 0. -1.
</event>
<event>
 7    1  0.4096326E-006  0.1125205E+03  0.7561462E-02  0.1255972E+00
          1   -1    0    0  501    0  0.00000000000E+00  0.00000000000E+00  0.53711820163E+02  0.53711820163E+02  0.00000000000E+00 0. -1.
         -1   -1    0    0    0  501 -0.00000000000E+00 -0.00000000000E+00 -0.34928939252E+03  0.34928939252E+03  0.00000000000E+00 0.  1.
         23    2    1    2    0    0  0.75922548795E+02 -0.71809789566E+01 -0.84664562930E+02  0.14619079244E+03  0.91585259199E+02 0.  0.
          5    1    1    2  502    0 -0.10856462544E+03 -0.37050806923E+01 -0.18044638893E+03  0.21066176017E+03  0.41800000000E+01 0.  1.
         -5    1    1    2    0  502  0.32642076646E+02  0.10886059649E+02 -0.30466620493E+02  0.46148660075E+02  0.41800000000E+01 0.  1.
        -11    1    3    3    0    0  0.62833159567E+02  0.59693246231E+01 -0.38059787859E+01  0.63230722376E+02  0.00000000000E+00 0. -1.
         11    1    3    3    0    0  0.13089389228E+02 -0.13150303580E+02 -0.80858584144E+02  0.82960070060E+02  0.00000000000E+00 0.  1.
</event>
<event>
 7    1  0.4096326E-006  0.1543059E+03  0.7561462E-02  0.1195280E+00
         -1   -1    0    0    0  501 -0.00000000000E+00  0.00000000000E+00  0.15912915159E+03  0.15912915159E+03  0.00000000000E+00 0.  1.
          1   -1    0    0  501    0  0.00000000000E+00 -0.00000000000E+00 -0.21271976421E+03  0.21271976421E+03  0.00000000000E+00 0. -1.
         23    2    1    2    0    0 -0.62024789824E+01 -0.14751744397E+03 -0.25455424420E+02  0.17630187026E+03  0.92922030765E+02 0.  0.
          5    1    1    2  502    0 -0.24774039018E+02  0.33134771052E+02  0.40909934218E+02  0.58333191064E+02  0.41800000000E+01 0. -1.
         -5    1    1    2    0  502  0.30976518000E+02  0.11438267292E+03 -0.69045122415E+02  0.13721385448E+03  0.41800000000E+01 0. -1.
        -11    1    3    3    0    0 -0.10775744800E+02 -0.72601888374E+02  0.33673963045E+02  0.80753245499E+02  0.00000000000E+00 0.  1.
         11    1    3    3    0    0  0.45732658175E+01 -0.74915555600E+02 -0.59129387465E+02  0.95548624758E+02  0.00000000000E+00 0. -1.
</event>
<event>
 6    1  0.4096326E-006  0.1466831E+03  0.7561462E-02  0.1204609E+00
          4   -1    0    0  501    0  0.00000000000E+00  0.00000000000E+00  0.47560211421E+02  0.47560211421E+02  0.00000000000E+00 0. -1.
         -4   -1    0    0    0  501 -0.00000000000E+00 -0.00000000000E+00 -0.53833720320E+03  0.53833720320E+03  0.00000000000E+00 0.  1.
          5    1    1    2  502    0 -0.67536506108E+02  0.19715416077E+02 -0.94009212207E+02  0.11749502827E+03  0.41800000000E+01 0. -1.
         -5    1    1    2    0  502  0.46040567634E+02  0.44611450305E+02 -0.18253217906E+03  0.19350809843E+03  0.41800000000E+01 0. -1.
        -11    1    1    2    0    0  0.34653727160E+02  0.40323187408E+02 -0.26143867194E+02  0.59248139555E+02  0.00000000000E+00 0. -1.
         11    1    1    2    0    0 -0.13157788686E+02 -0.10465005379E+03 -0.18809173332E+03  0.21564614837E+03  0.00000000000E+00 0.  1.
</event>
<event>
 7    1  0.4096326E-006  0.1044706E+03  0.7561462E-02  0.1271166E+00
          1   -1    0    0  501    0  0.00000000000E+00  0.00000000000E+00  0.52678585806E+02  0.52678585806E+02  0.00000000000E+00 0. -1.
         -1   -1    0    0    0  501 -0.00000000000E+00 -0.00000000000E+00 -0.43195193845E+03  0.43195193845E+03  0.00000000000E+00 0.  1.
         23    2    1    2    0    0  0.66219079105E+02  0.72093198505E+02 -0.10994467505E+03  0.17195391020E+03  0.88870242227E+02 0.  0.
          5    1    1    2  502    0 -0.69295944225E+02 -0.43649794576E+02 -0.60627937844E+02  0.10198260489E+03  0.41800000000E+01 0. -1.
         -5    1    1    2    0  502  0.30768651200E+01 -0.28443403929E+02 -0.20870073975E+03  0.21069400917E+03  0.41800000000E+01 0. -1.
        -11    1    3    3    0    0  0.24095762283E+02  0.22651283209E+02 -0.10113689634E+03  0.10640657025E+03  0.00000000000E+00 0.  1.
         11    1    3    3    0    0  0.42123316821E+02  0.49441915296E+02 -0.88077787017E+01  0.65547339945E+02  0.00000000000E+00 0. -1.
</event>
<event>
 7    1  0.4096326E-006  0.1006998E+03  0.7561462E-02  0.1278831E+00
          2   -1    0    0  501    0  0.00000000000E+00  0.00000000000E+00  0.22896467712E+03  0.22896467712E+03  0.00000000000E+00 0. -1.
         -2   -1    0    0    0  501 -0.00000000000E+00 -0.00000000000E+00 -0.79828189815E+02  0.79828189815E+02  0.00000000000E+00 0.  1.
         23    2    1    2    0    0 -0.76621669351E+02 -0.43228132294E+01  0.61923062826E+02  0.13807807683E+03  0.96651552827E+02 0.  0.
          5    1    1    2  502    0  0.85007786706E+02  0.11469566252E+02  0.11325324700E+03  0.14213249138E+03  0.41800000000E+01 0. -1.
         -5    1    1    2    0  502 -0.83861173551E+01 -0.71467530224E+01 -0.26039822520E+02  0.28582298717E+02  0.41800000000E+01 0. -1.
        -11    1    3    3    0    0 -0.56901166798E+02  0.29868741494E+02 -0.44920142315E+00  0.64265747356E+02  0.00000000000E+00 0.  1.
         11    1    3    3    0    0 -0.19720502554E+02 -0.34191554723E+02  0.62372264249E+02  0.73812329477E+02  0.00000000000E+00 0. -1.
</event>
<event>
 7    1  0.4096326E-006  0.8918606E+02  0.7561462E-02  0.1304835E+00
          1   -1    0    0  501    0  0.00000000000E+00  0.00000000000E+00  0.10012148670E+03  0.10012148670E+03  0.00000000000E+00 0. -1.
         -1   -1    0    0    0  501 -0.00000000000E+00 -0.00000000000E+00 -0.16485413340E+03  0.16485413340E+03  0.00000000000E+00 0.  1.
         23    2    1    2    0    0  0.26342620137E+02 -0.34844933675E+02  0.27801345663E+02  0.10336397599E+03  0.89460011588E+02 0.  0.
          5    1    1    2  502    0  0.66598367851E+01  0.62160475998E+02 -0.35412779976E+01  0.62755806521E+02  0.41800000000E+01 0. -1.
         -5    1    1    2    0  502 -0.33002456922E+02 -0.27315542323E+02 -0.88992714363E+02  0.98855837587E+02  0.41800000000E+01 0. -1.
        -11    1    3    3    0    0  0.42823579798E+02 -0.36284649112E+02 -0.14475632389E+02  0.57965323090E+02  0.00000000000E+00 0. -1.
         11    1    3    3    0    0 -0.16480959661E+02  0.14397154371E+01  0.42276978052E+02  0.45398652899E+02  0.00000000000E+00 0.  1.
</event>
<event>
 7    1  0.4096326E-006  0.1144697E+03  0.7561462E-02  0.1252510E+00
         -2   -1    0    0    0  501 -0.00000000000E+00  0.00000000000E+00  0.57866912703E+02  0.57866912703E+02  0.00000000000E+00 0.  1.
          2   -1    0    0  501    0  0.00000000000E+00 -0.00000000000E+00 -0.25229057452E+03  0.25229057452E+03  0.00000000000E+00 0. -1.
         23    2    1    2    0    0 -0.49145574742E+01  0.44823347766E+02 -0.10941282397E+03  0.15233448618E+03  0.95923637597E+02 0.  0.
          5    1    1    2  502    0  0.61063272595E+02 -0.23794819828E+02 -0.18597650311E+02  0.68251459382E+02  0.41800000000E+01 0.  1.
         -5    1    1    2    0  502 -0.56148715121E+02 -0.21028527938E+02 -0.66413187535E+02  0.89571541661E+02  0.41800000000E+01 0.  1.
        -11    1    3    3    0    0 -0.31399421073E+02 -0.17146213513E+02 -0.55498088101E+02  0.66029948239E+02  0.00000000000E+00 0.  1.
         11    1    3    3    0    0  0.26484863599E+02  0.61969561279E+02 -0.53914735865E+02  0.86304537936E+02  0.00000000000E+00 0. -1.
</event>
<event>
 7    1  0.4096326E-006  0.1477055E+03  0.7561462E-02  0.1203321E+00
          1   -1    0    0  501    0  0.00000000000E+00  0.00000000000E+00  0.44489340953E+03  0.44489340953E+03  0.00000000000E+00 0. -1.
         -1   -1    0    0    0  501 -0.00000000000E+00 -0.00000000000E+00 -0.77416612397E+02  0.77416612397E+02  0.00000000000E+00 0.  1.
         23    2    1    2    0    0 -0.10381807532E+03 -0.68614829267E+02  0.29774114772E+03  0.33258024482E+03  0.80458937579E+02 0.  0.
          5    1    1    2  502    0  0.11986686651E+03  0.64764773502E+02  0.20761341072E+02  0.13788055431E+03  0.41800000000E+01 0.  1.
         -5    1    1    2    0  502 -0.16048791185E+02  0.38500557651E+01  0.48974308336E+02  0.51849222799E+02  0.41800000000E+01 0.  1.
        -11    1    3    3    0    0 -0.47664979437E+01 -0.38149775247E+02  0.43642120997E+02  0.58161495675E+02  0.00000000000E+00 0.  1.
         11    1    3    3    0    0 -0.99051577378E+02 -0.30465054020E+02  0.25409902673E+03  0.27441874914E+03  0.00000000000E+00 0. -1.
</event>
<event>
 7    1  0.4096326E-006  0.1045828E+03  0.7561462E-02  0.1270944E+00
         -2   -1    0    0    0  501 -0.00000000000E+00  0.00000000000E+00  0.98313216970E+02  0.98313216970E+02  0.00000000000E+00 0.  1.
          2   -1    0    0  501    0  0.00000000000E+00 -0.00000000000E+00 -0.16805788628E+03  0.16805788628E+03  0.00000000000E+00 0. -1.
         23    2    1    2    0    0 -0.27019102954E+02 -0.60072828515E+02 -0.55566096681E+01  0.11466314698E+03  0.93690899844E+02 0.  0.
          5    1    1    2  502    0  0.16612721976E+02  0.85299195133E+02 -0.58873509584E+01  0.87201310329E+02  0.41800000000E+01 0. -1.
         -5    1    1    2    0  502  0.10406380978E+02 -0.25226366619E+02 -0.58300708680E+02  0.64506645940E+02  0.41800000000E+01 0.  1.
        -11    1    3    3    0    0 -0.26709232602E+02  0.68975050920E+01 -0.32364825312E+02  0.42525763957E+02  0.00000000000E+00 0. -1.
         11    1    3    3    0    0 -0.30987035223E+00 -0.66970333607E+02  0.26808215643E+02  0.72137383020E+02  0.00000000000E+00 0.  1.
</event>
<event>
 7    1  0.4096326E-006  0.1594757E+03  0.7561462E-02  0.1189290E+00
         -2   -1    0    0    0  501 -0.00000000000E+00  0.00000000000E+00  0.66793790903E+02  0.66793790903E+02  0.00000000000E+00 0.  1.
          2   -1    0    0  501    0  0.00000000000E+00 -0.00000000000E+00 -0.55219902499E+03  0.55219902499E+03  0.00000000000E+00 0. -1.
         23    2    1    2    0    0 -0.44473440500E+02  0.13516936615E+03 -0.31996650514E+03  0.36746695613E+03  0.11137663571E+03 0.  0.
          5    1    1    2  502    0  0.49065966133E+02 -0.12108752478E+03 -0.58029151131E+02  0.14301927307E+03  0.41800000000E+01 0. -1.
         -5    1    1    2    0  502 -0.45925256330E+01 -0.14081841377E+02 -0.10740957782E+03  0.10850658669E+03  0.41800000000E+01 0. -1.
        -11    1    3    3    0    0  0.19175658934E+02  0.96460182422E+02 -0.23330918127E+03  0.25319053449E+03  0.00000000000E+00 0. -1.
         11    1    3    3    0    0 -0.63649099435E+02  0.38709183731E+02 -0.86657323862E+02  0.11427642164E+03  0.00000000000E+00 0.  1.
</event>
<event>
 7    1  0.4096326E-006  0.6717313E+02  0.7561462E-02  0.1369979E+00
         -2   -1    0    0    0  501 -0.00000000000E+00  0.00000000000E+00  0.90680389715E+02  0.90680389715E+02  0.00000000000E+00 0.  1.
          2   -1    0    0  501    0  0.00000000000E+00 -0.00000000000E+00 -0.14036521412E+03  0.14036521412E+03  0.00000000000E+00 0. -1.
         23    2    1    2    0    0  0.15179046490E+02 -0.19275580529E+02 -0.46173071052E+01  0.95836375539E+02  0.92527508852E+02 0.  0.
          5    1    1    2  502    0 -0.57919473565E+02 -0.73808267957E+01 -0.58657524978E+02  0.82869292617E+02  0.41800000000E+01 0.  1.
         -5    1    1    2    0  502  0.42740427076E+02  0.26656407325E+02  0.13590007680E+02  0.52339935678E+02  0.41800000000E+01 0.  1.
        -11    1    3    3    0    0  0.85585427584E+01 -0.60719911580E+01  0.43891594265E+02  0.45128591579E+02  0.00000000000E+00 0.  1.
         11    1    3    3    0    0  0.66205037313E+01 -0.13203589371E+02 -0.48508901370E+02  0.50707783960E+02  0.00000000000E+00 0. -1.
</event>
<event>
 7    1  0.4096326E-006  0.2029840E+03  0.7561462E-02  0.1147246E+00
          2   -1    0    0  501    0  0.00000000000E+00  0.00000000000E+00  0.32976583854E+03  0.32976583854E+03  0.00000000000E+00 0. -1.
         -2   -1    0    0    0  501 -0.00000000000E+00 -0.00000000000E+00 -0.17889675725E+03  0.17889675725E+03  0.00000000000E+00 0.  1.
         23    2    1    2    0    0  0.16426844580E+03 -0.98965745687E+02  0.18045030443E+03  0.27779509976E+03  0.88484258367E+02 0.  0.
          5    1    1    2  502    0 -0.52828964032E+02 -0.11905665245E+02 -0.48068793000E+02  0.72530859405E+02  0.41800000000E+01 0. -1.
         -5    1    1    2    0  502 -0.11143948176E+03  0.11087141093E+03  0.18487569857E+02  0.15833663662E+03  0.41800000000E+01 0. -1.
        -11    1    3    3    0    0  0.14086076320E+03 -0.70416866020E+02  0.18221177204E+03  0.24083483863E+03  0.00000000000E+00 0. -1.
         11    1    3    3    0    0  0.23407682597E+02 -0.28548879667E+02 -0.17614676058E+01  0.36960261132E+02  0.00000000000E+00 0.  1.
</event>
<event>
 7    1  0.4096326E-006  0.9943860E+02  0.7561462E-02  0.1281481E+00
         -1   -1    0    0    0  501 -0.00000000000E+00  0.00000000000E+00  0.71845716037E+02  0.71845716037E+02  0.00000000000E+00 0.  1.
          1   -1    0    0  501    0  0.00000000000E+00 -0.00000000000E+00 -0.22108037410E+03  0.22108037410E+03  0.00000000000E+00 0. -1.
         23    2    1    2    0    0  0.30943043298E+02  0.30424690522E+02 -0.10123617882E+03  0.14429666520E+03  0.93218184735E+02 0.  0.
          5    1    1    2  502    0 -0.17832441197E+02  0.48868728398E+02  0.47509431143E+01  0.52404126124E+02  0.41800000000E+01 0. -1.
         -5    1    1    2    0  502 -0.13110602101E+02 -0.79293418920E+02 -0.52749422354E+02  0.96225298805E+02  0.41800000000E+01 0.  1.
        -11    1    3    3    0    0  0.19593499588E+02 -0.11539027909E+02  0.10020401958E+02  0.24848799701E+02  0.00000000000E+00 0.  1.
         11    1    3    3    0    0  0.11349543711E+02  0.41963718431E+02 -0.11125658078E+03  0.11944786550E+03  0.00000000000E+00 0. -1.
</event>
<event>
 7    1  0.4096326E-006  0.1052270E+03  0.7561462E-02  0.1269673E+00
          1   -1    0    0  501    0  0.00000000000E+00  0.00000000000E+00  0.11999355245E+03  0.11999355245E+03  0.00000000000E+00 0. -1.
         -1   -1    0    0    0  501 -0.00000000000E+00 -0.00000000000E+00 -0.12182994710E+03  0.12182994710E+03  0.00000000000E+00 0.  1.
         23    2    1    2    0    0  0.12275516157E+02  0.49988270797E+02  0.15661286013E+02  0.10542921106E+03  0.90667122768E+02 0.  0.
          5    1    1    2  502    0 -0.54969156852E+02 -0.14215369418E+02 -0.46453801117E+02  0.73478656567E+02  0.41800000000E+01 0. -1.
         -5    1    1    2    0  502  0.42693640695E+02 -0.35772901379E+02  0.28956120456E+02  0.62915631927E+02  0.41800000000E+01 0. -1.
        -11    1    3    3    0    0 -0.34027627726E+02  0.75449615766E+01 -0.11908777210E+02  0.36832388851E+02  0.00000000000E+00 0.  1.
         11    1    3    3    0    0  0.46303143883E+02  0.42443309220E+02  0.27570063223E+02  0.68596822209E+02  0.00000000000E+00 0. -1.
</event>
<event>
 7    1  0.4096326E-006  0.1036298E+03  0.7561462E-02  0.1272843E+00
         -2   -1    0    0    0  501 -0.00000000000E+00  0.00000000000E+00  0.14924536292E+03  0.14924536292E+03  0.00000000000E+00 0. -1.
          2   -1    0    0  501    0  0.00000000000E+00 -0.00000000000E+00 -0.98176716931E+02  0.98176716931E+02  0.00000000000E+00 0.  1.
         23    2    1    2    0    0  0.72412292512E+01 -0.33520282686E+02 -0.18259576211E+02  0.10035246548E+03  0.92526539175E+02 0.  0.
          5    1    1    2  502    0 -0.21868501876E+02 -0.36859403000E+02 -0.52772901079E+01  0.43383973477E+02  0.41800000000E+01 0. -1.
         -5    1    1    2    0  502  0.14627272624E+02  0.70379685685E+02  0.74605512312E+02  0.10368564090E+03  0.41800000000E+01 0. -1.
        -11    1    3    3    0    0 -0.28240110084E+02 -0.46506802698E+02 -0.28200410883E+02  0.61283355723E+02  0.00000000000E+00 0.  1.
         11    1    3    3    0    0  0.35481339336E+02  0.12986520012E+02  0.99408346715E+01  0.39069109755E+02  0.00000000000E+00 0. -1.
</event>
<event>
 7    1  0.4096326E-006  0.1265157E+03  0.7561462E-02  0.1232719E+00
          2   -1    0    0  501    0  0.00000000000E+00  0.00000000000E+00  0.13619225609E+03  0.13619225609E+03  0.00000000000E+00 0. -1.
         -2   -1    0    0    0  501 -0.00000000000E+00 -0.00000000000E+00 -0.13752318434E+03  0.13752318434E+03  0.00000000000E+00 0.  1.
         23    2    1    2    0    0  0.64610251448E+02  0.53701569759E+02  0.39614634165E+01  0.12293873205E+03  0.89665464144E+02 0.  0.
          5    1    1    2  502    0 -0.78641029846E+02 -0.45608221884E+01  0.34276492461E+02  0.86009086786E+02  0.41800000000E+01 0. -1.
         -5    1    1    2    0  502  0.14030778398E+02 -0.49140747571E+02 -0.39568884130E+02  0.64767621583E+02  0.41800000000E+01 0. -1.
        -11    1    3    3    0    0  0.78643003916E+02  0.12860545120E+02  0.29584618845E+01  0.79742511764E+02  0.00000000000E+00 0.  1.
         11    1    3    3    0    0 -0.14032752467E+02  0.40841024639E+02  0.10030015320E+01  0.43196220291E+02  0.00000000000E+00 0. -1.
</event>
<event>
 7    1  0.4096326E-006  0.2002901E+03  0.7561462E-02  0.1149494E+00
          1   -1    0    0  501    0  0.00000000000E+00  0.00000000000E+00  0.32878835716E+03  0.32878835716E+03  0.00000000000E+00 0. -1.
         -1   -1    0    0    0  501 -0.00000000000E+00 -0.00000000000E+00 -0.15038906401E+03  0.15038906401E+03  0.00000000000E+00 0.  1.
         23    2    1    2    0    0  0.44601589303E+02 -0.18117014899E+03  0.14090635464E+03  0.25143134702E+03  0.92472681545E+02 0.  0.
          5    1    1    2  502    0 -0.30703176328E+02  0.33893931445E+02  0.62603546841E+02  0.77641226823E+02  0.41800000000E+01 0.  1.
         -5    1    1    2    0  502 -0.13898412975E+02  0.14727621755E+03 -0.25110608329E+02  0.15010484732E+03  0.41800000000E+01 0.  1.
        -11    1    3    3    0    0 -0.26684232505E+02 -0.34724692274E+02  0.17824839970E+02  0.47281893340E+02  0.00000000000E+00 0.  1.
         11    1    3    3    0    0  0.71285821808E+02 -0.14644545672E+03  0.12308151467E+03  0.20414945368E+03  0.00000000000E+00 0. -1.
</event>
<event>
 7    1  0.4096326E-006  0.1361638E+03  0.7561462E-02  0.1218586E+00
          3   -1    0    0  501    0  0.00000000000E+00  0.00000000000E+00  0.29378154095E+02  0.29378154095E+02  0.00000000000E+00 0. -1.
         -3   -1    0    0    0  501 -0.00000000000E+00 -0.00000000000E+00 -0.77529106944E+03  0.77529106944E+03  0.00000000000E+00 0.  1.
         23    2    1    2    0    0 -0.53825792361E+02  0.85268381686E+02 -0.26458634396E+03  0.29720947353E+03  0.90330642131E+02 0.  0.
          5    1    1    2  502    0 -0.31170942841E+02 -0.52840858848E+00 -0.44972297593E+02  0.54880660018E+02  0.41800000000E+01 0. -1.
         -5    1    1    2    0  502  0.84996735202E+02 -0.84739973097E+02 -0.43635427380E+03  0.45257908999E+03  0.41800000000E+01 0. -1.
        -11    1    3    3    0    0  0.15230682481E+02  0.24194620624E+02 -0.17584406588E+02  0.33564336893E+02  0.00000000000E+00 0.  1.
         11    1    3    3    0    0 -0.69056474841E+02  0.61073761061E+02 -0.24700193737E+03  0.26364513663E+03  0.00000000000E+00 0. -1.
</event>
<event>
 7    1  0.4096326E-006  0.9198131E+02  0.7561462E-02  0.1298123E+00
          1   -1    0    0  501    0  0.00000000000E+00  0.00000000000E+00  0.52550885983E+03  0.52550885983E+03  0.00000000000E+00 0. -1.
         -1   -1    0    0    0  501 -0.00000000000E+00 -0.00000000000E+00 -0.34664794406E+02  0.34664794406E+02  0.00000000000E+00 0.  1.
         23    2    1    2    0    0  0.71844083118E+02  0.26538119465E+02  0.24905804265E+03  0.27737905985E+03  0.95096741098E+02 0.  0.
          5    1    1    2  502    0 -0.34598895398E+02  0.54924551943E+01 -0.75980313997E+00  0.35288813067E+02  0.41800000000E+01 0.  1.
         -5    1    1    2    0  502 -0.37245187720E+02 -0.32030574660E+02  0.24254582591E+03  0.24750578132E+03  0.41800000000E+01 0.  1.
        -11    1    3    3    0    0  0.17411977191E+02 -0.20882543076E+02  0.16208021997E+03  0.16434492770E+03  0.00000000000E+00 0. -1.
         11    1    3    3    0    0  0.54432105926E+02  0.47420662541E+02  0.86977822680E+02  0.11303413214E+03  0.00000000000E+00 0.  1.
</event>
<event>
 7    1  0.4096326E-006  0.8470593E+02  0.7561462E-02  0.1316203E+00
         -2   -1    0    0    0  501 -0.00000000000E+00  0.00000000000E+00  0.15526208033E+03  0.15526208033E+03  0.00000000000E+00 0. -1.
          2   -1    0    0  501    0  0.00000000000E+00 -0.00000000000E+00 -0.12793156978E+03  0.12793156978E+03  0.00000000000E+00 0.  1.
         23    2    1    2    0    0  0.25519302205E+02 -0.98623041478E+01 -0.74552732076E+02  0.11955782449E+03  0.89372611622E+02 0.  0.
          5    1    1    2  502    0 -0.12993891578E+01 -0.31764281460E+02 -0.16284397806E+02  0.35962647299E+02  0.41800000000E+01 0.  1.
         -5    1    1    2    0  502 -0.24219913047E+02  0.41626585608E+02  0.11816764043E+03  0.12767317832E+03  0.41800000000E+01 0.  1.
        -11    1    3    3    0    0 -0.25943498044E+02  0.16938112205E+02 -0.44472253580E+02  0.54200978537E+02  0.00000000000E+00 0.  1.
         11    1    3    3    0    0  0.51462800248E+02 -0.26800416353E+02 -0.30080478496E+02  0.65356845951E+02  0.00000000000E+00 0. -1.
</event>
<event>
 7    1  0.4096326E-006  0.1575609E+03  0.7561462E-02  0.1191478E+00
          1   -1    0    0  501    0  0.00000000000E+00  0.00000000000E+00  0.17653783339E+03  0.17653783339E+03  0.00000000000E+00 0. -1.
         -1   -1    0    0    0  501 -0.00000000000E+00 -0.00000000000E+00 -0.15273815640E+03  0.15273815640E+03  0.00000000000E+00 0.  1.
         23    2    1    2    0    0  0.11940255783E+03 -0.25905455494E+02  0.26312460590E+02  0.15439737407E+03  0.90653957972E+02 0.  0.
          5    1    1    2  502    0 -0.13191566743E+03 -0.21545932237E+01  0.23901765540E+02  0.13414601143E+03  0.41800000000E+01 0.  1.
         -5    1    1    2    0  502  0.12513109603E+02  0.28060048718E+02 -0.26414549136E+02  0.40732604288E+02  0.41800000000E+01 0.  1.
        -11    1    3    3    0    0  0.53539541806E+02 -0.57928082887E+02  0.12301533897E+02  0.79834034471E+02  0.00000000000E+00 0. -1.
         11    1    3    3    0    0  0.65863016024E+02  0.32022627393E+02  0.14010926693E+02  0.74563339596E+02  0.00000000000E+00 0.  1.
</event>
<event>
 7    1  0.4096326E-006  0.1243242E+03  0.7561462E-02  0.1236129E+00
          1   -1    0    0  501    0  0.00000000000E+00  0.00000000000E+00  0.10760364237E+03  0.10760364237E+03  0.00000000000E+00 0. -1.
         -1   -1    0    0    0  501 -0.00000000000E+00 -0.00000000000E+00 -0.17227258179E+03  0.17227258179E+03  0.00000000000E+00 0.  1.
         23    2    1    2    0    0  0.81008095151E+02 -0.35278335792E+01  0.39516040143E+01  0.11576967352E+03  0.82536325590E+02 0.  0.
          5    1    1    2  502    0  0.68236899528E+01  0.47100989406E+02 -0.38782384893E+02  0.61535450966E+02  0.41800000000E+01 0. -1.
         -5    1    1    2    0  502 -0.87831785104E+02 -0.43573155827E+02 -0.29838158543E+02  0.10257109967E+03  0.41800000000E+01 0. -1.
        -11    1    3    3    0    0  0.39883345950E+02 -0.33307738082E+02 -0.24628871327E+02  0.57503634695E+02  0.00000000000E+00 0.  1.
         11    1    3    3    0    0  0.41124749201E+02  0.29779904503E+02  0.28580475342E+02  0.58266038820E+02  0.00000000000E+00 0. -1.
</event>
<event>
 7    1  0.4096326E-006  0.1174110E+03  0.7561462E-02  0.1247430E+00
         -1   -1    0    0    0  501 -0.00000000000E+00  0.00000000000E+00  0.10530004580E+03  0.10530004580E+03  0.00000000000E+00 0.  1.
          1   -1    0    0  501    0  0.00000000000E+00 -0.00000000000E+00 -0.18542483207E+03  0.18542483207E+03  0.00000000000E+00 0. -1.
         23    2    1    2    0    0 -0.46773895111E+02  0.69337846538E+02 -0.62355604469E+02  0.13920230263E+03  0.92160324560E+02 0.  0.
          5    1    1    2  502    0  0.89905825853E+02 -0.46814384240E+02 -0.15544172138E+02  0.10263399915E+03  0.41800000000E+01 0.  1.
         -5    1    1    2    0  502 -0.43131930742E+02 -0.22523462298E+02 -0.22250096636E+01  0.48888576083E+02  0.41800000000E+01 0.  1.
        -11    1    3    3    0    0 -0.15389507793E+02  0.13458023641E+02  0.24086499425E+02  0.31592954990E+02  0.00000000000E+00 0.  1.
         11    1    3    3    0    0 -0.31384387318E+02  0.55879822897E+02 -0.86442103894E+02  0.10760934764E+03  0.00000000000E+00 0. -1.
</event>
<event>
 7    1  0.4096326E-006  0.8639627E+02  0.7561462E-02  0.1311821E+00
          1   -1    0    0  501    0  0.00000000000E+00  0.00000000000E+00  0.49533474249E+02  0.49533474249E+02  0.00000000000E+00 0. -1.
         -1   -1    0    0    0  501 -0.00000000000E+00 -0.00000000000E+00 -0.26779638059E+03  0.26779638059E+03  0.00000000000E+00 0.  1.
         23    2    1    2    0    0 -0.13364482645E+02 -0.35108096398E+02 -0.89326591419E+02  0.13379926394E+03  0.92259499603E+02 0.  0.
          5    1    1    2  502    0  0.21171432028E+02 -0.12389547396E+02 -0.13275199581E+03  0.13506404115E+03  0.41800000000E+01 0. -1.
         -5    1    1    2    0  502 -0.78069493830E+01  0.47497643794E+02  0.38156808879E+01  0.48466549756E+02  0.41800000000E+01 0. -1.
        -11    1    3    3    0    0  0.75474088297E+01 -0.63713256389E+02 -0.58874395646E+02  0.87077763422E+02  0.00000000000E+00 0.  1.
         11    1    3    3    0    0 -0.20911891475E+02  0.28605159992E+02 -0.30452195773E+02  0.46721500517E+02  0.00000000000E+00 0. -1.
</event>
<event>
 7    1  0.4096326E-006  0.9575031E+02  0.7561462E-02  0.1289495E+00
          2   -1    0    0  501    0  0.00000000000E+00  0.00000000000E+00  0.28254363599E+02  0.28254363599E+02  0.00000000000E+00 0. -1.
         -2   -1    0    0    0  501 -0.00000000000E+00 -0.00000000000E+00 -0.54192581355E+03  0.54192581355E+03  0.00000000000E+00 0.  1.
         23    2    1    2    0    0  0.10266815272E+02  0.39126698298E+02 -0.12706847494E+03  0.16183598770E+03  0.91696148102E+02 0.  0.
          5    1    1    2  502    0  0.38642077697E+02 -0.45203587569E+02 -0.31931700582E+03  0.32483441490E+03  0.41800000000E+01 0. -1.
         -5    1    1    2    0  502 -0.48908892968E+02  0.60768892709E+01 -0.67285969198E+02  0.83509774551E+02  0.41800000000E+01 0. -1.
        -11    1    3    3    0    0 -0.29435247625E+02  0.29279731018E+02 -0.17819779639E+02  0.45180537819E+02  0.00000000000E+00 0.  1.
         11    1    3    3    0    0  0.39702062896E+02  0.98469672797E+01 -0.10924869530E+03  0.11665544988E+03  0.00000000000E+00 0. -1.
</event>
<event>
 7    1  0.4096326E-006  0.1663466E+03  0.7561462E-02  0.1181712E+00
          2   -1    0    0  501    0  0.00000000000E+00  0.00000000000E+00  0.55477402322E+03  0.55477402322E+03  0.00000000000E+00 0. -1.
         -2   -1    0    0    0  501 -0.00000000000E+00 -0.00000000000E+00 -0.61181271209E+02  0.61181271209E+02  0.00000000000E+00 0.  1.
         23    2    1    2    0    0 -0.14711842559E+03  0.15154385446E+02  0.23244922436E+03  0.29081306680E+03  0.93091951163E+02 0.  0.
          5    1    1    2  502    0  0.65879587141E+02  0.43292500663E+02  0.55803900793E+02  0.96674238343E+02  0.41800000000E+01 0.  1.
         -5    1    1    2    0  502  0.81238838449E+02 -0.58446886110E+02  0.20533962685E+03  0.22846798928E+03  0.41800000000E+01 0.  1.
        -11    1    3    3    0    0 -0.14031303354E+03  0.38204666736E+01  0.23813294326E+03  0.27642294046E+03  0.00000000000E+00 0. -1.
         11    1    3    3    0    0 -0.68053920465E+01  0.11333918772E+02 -0.56837188982E+01  0.14390126343E+02  0.00000000000E+00 0.  1.
</event>
<event>
 7    1  0.4096326E-006  0.1743964E+03  0.7561462E-02  0.1173339E+00
          2   -1    0    0  501    0  0.00000000000E+00  0.00000000000E+00  0.78850213667E+02  0.78850213667E+02  0.00000000000E+00 0. -1.
         -2   -1    0    0    0  501 -0.00000000000E+00 -0.00000000000E+00 -0.42448093565E+03  0.42448093565E+03  0.00000000000E+00 0.  1.
         23    2    1    2    0    0 -0.62196676255E+02 -0.12731658494E+03 -0.10922532838E+03  0.20065457311E+03  0.90852330799E+02 0.  0.
          5    1    1    2  502    0  0.48550594592E+02 -0.80695873697E+01 -0.90646047581E+02  0.10323011585E+03  0.41800000000E+01 0.  1.
         -5    1    1    2    0  502  0.13646081663E+02  0.13538617231E+03 -0.14575934602E+03  0.19944646036E+03  0.41800000000E+01 0.  1.
        -11    1    3    3    0    0  0.14145329322E+02 -0.59469569255E+02 -0.65384648028E+02  0.89509062148E+02  0.00000000000E+00 0. -1.
         11    1    3    3    0    0 -0.76342005577E+02 -0.67847015687E+02 -0.43840680357E+02  0.11114551096E+03  0.00000000000E+00 0.  1.
</event>
<event>
 7    1  0.4096326E-006  0.1050730E+03  0.7561462E-02  0.1269976E+00
         -1   -1    0    0    0  501 -0.00000000000E+00  0.00000000000E+00  0.80071436489E+02  0.80071436489E+02  0.00000000000E+00 0.  1.
          1   -1    0    0  501    0  0.00000000000E+00 -0.00000000000E+00 -0.16822412327E+03  0.16822412327E+03  0.00000000000E+00 0. -1.
         23    2    1    2    0    0  0.31670073276E+02 -0.10491186984E+02 -0.65609371600E+02  0.11688317127E+03  0.90796627356E+02 0.  0.
          5    1    1    2  502    0 -0.45197524067E+02  0.61514840974E+02 -0.15351676856E+02  0.77974599865E+02  0.41800000000E+01 0.  1.
         -5    1    1    2    0  502  0.13527450791E+02 -0.51023653990E+02 -0.71916383296E+01  0.53437788627E+02  0.41800000000E+01 0.  1.
        -11    1    3    3    0    0  0.90167142183E+01 -0.41430268547E+02 -0.66104807070E+02  0.78534156931E+02  0.00000000000E+00 0. -1.
         11    1    3    3    0    0  0.22653359058E+02  0.30939081563E+02  0.49543547017E+00  0.38349014341E+02  0.00000000000E+00 0.  1.
</event>
<event>
 7    1  0.4096326E-006  0.9177005E+02  0.7561462E-02  0.1298621E+00
         -1   -1    0    0    0  501 -0.00000000000E+00  0.00000000000E+00  0.35608908658E+03  0.35608908658E+03  0.00000000000E+00 0.  1.
          1   -1    0    0  501    0  0.00000000000E+00 -0.00000000000E+00 -0.37146811584E+02  0.37146811584E+02  0.00000000000E+00 0. -1.
         23    2    1    2    0    0  0.29349462534E+01  0.39608304221E+02  0.13232163595E+03  0.16509768904E+03  0.90392477081E+02 0.  0.
          5    1    1    2  502    0  0.36735456306E+02 -0.17912369049E+02  0.55447261639E+01  0.41455555758E+02  0.41800000000E+01 0.  1.
         -5    1    1    2    0  502 -0.39670402560E+02 -0.21695935172E+02  0.18107591288E+03  0.18668265336E+03  0.41800000000E+01 0.  1.
        -11    1    3    3    0    0  0.29188208500E+02 -0.17614081823E+02  0.61667920731E+02  0.70463748418E+02  0.00000000000E+00 0.  1.
         11    1    3    3    0    0 -0.26253262247E+02  0.57222386043E+02  0.70653715220E+02  0.94633940621E+02  0.00000000000E+00 0. -1.
</event>
<event>
 7    1  0.4096326E-006  0.1078847E+03  0.7561462E-02  0.1264538E+00
          1   -1    0    0  501    0  0.00000000000E+00  0.00000000000E+00  0.81072799730E+02  0.81072799730E+02  0.00000000000E+00 0. -1.
         -1   -1    0    0    0  501 -0.00000000000E+00 -0.00000000000E+00 -0.26924383427E+03  0.26924383427E+03  0.00000000000E+00 0.  1.
         23    2    1    2    0    0  0.80155285293E+02  0.25001560368E+02 -0.26538476420E+02  0.12935966309E+03  0.94761194176E+02 0.  0.
          5    1    1    2  502    0 -0.10429458254E+03 -0.21848531550E+02 -0.73722213527E+02  0.12964241376E+03  0.41800000000E+01 0.  1.
         -5    1    1    2    0  502  0.24139297244E+02 -0.31530288183E+01 -0.87910344590E+02  0.91314557154E+02  0.41800000000E+01 0.  1.
        -11    1    3    3    0    0  0.56338400903E+02  0.21747739830E+02 -0.61979417274E+02  0.86535702283E+02  0.00000000000E+00 0.  1.
         11    1    3    3    0    0  0.23816884389E+02  0.32538205383E+01  0.35440940855E+02  0.42823960802E+02  0.00000000000E+00 0. -1.
</event>
<event>
 7    1  0.4096326E-006  0.3296706E+03  0.7561462E-02  0.1071283E+00
          1   -1    0    0  501    0  0.00000000000E+00  0.00000000000E+00  0.94619956268E+03  0.94619956268E+03  0.00000000000E+00 0. -1.
         -1   -1    0    0    0  501 -0.00000000000E+00 -0.00000000000E+00 -0.11869071291E+03  0.11869071291E+03  0.00000000000E+00 0.  1.
         23    2    1    2    0    0 -0.31484503863E+03 -0.37799524167E+02  0.38061676713E+03  0.50282460547E+03  0.86065429046E+02 0.  0.
          5    1    1    2  502    0  0.29090820011E+03  0.67242393141E+02  0.36403776077E+03  0.47083976467E+03  0.41800000000E+01 0. -1.
         -5    1    1    2    0  502  0.23936838513E+02 -0.29442868974E+02  0.82854321874E+02  0.91225905447E+02  0.41800000000E+01 0. -1.
        -11    1    3    3    0    0 -0.12705347558E+03  0.13816495822E+02  0.10534215877E+03  0.16562141054E+03  0.00000000000E+00 0.  1.
         11    1    3    3    0    0 -0.18779156305E+03 -0.51616019989E+02  0.27527460835E+03  0.33720319494E+03  0.00000000000E+00 0. -1.
</event>
<event>
 7    1  0.4096326E-006  0.6193957E+02  0.7561462E-02  0.1389868E+00
         -1   -1    0    0    0  501 -0.00000000000E+00  0.00000000000E+00  0.62804487111E+03  0.62804487111E+03  0.00000000000E+00 0.  1.
          1   -1    0    0  501    0  0.00000000000E+00 -0.00000000000E+00 -0.19114673496E+02  0.19114673496E+02  0.00000000000E+00 0. -1.
         23    2    1    2    0    0  0.36225173391E-01  0.23037712916E+00  0.20854998645E+03  0.22769415127E+03  0.91386406470E+02 0.  0.
          5    1    1    2  502    0 -0.21341563119E+02 -0.86706256384E+01  0.56965640309E+01  0.24094922849E+02  0.41800000000E+01 0.  1.
         -5    1    1    2    0  502  0.21305337946E+02  0.84402485092E+01  0.39468364714E+03  0.39537047049E+03  0.41800000000E+01 0.  1.
        -11    1    3    3    0    0  0.26469618312E+02  0.28208405864E+02  0.16543800342E+03  0.16990022905E+03  0.00000000000E+00 0.  1.
         11    1    3    3    0    0 -0.26433393138E+02 -0.27978028734E+02  0.43111983023E+02  0.57793922214E+02  0.00000000000E+00 0. -1.
</event>
<event>
 7    1  0.4096326E-006  0.1416526E+03  0.7561462E-02  0.1211122E+00
         -1   -1    0    0    0  501 -0.00000000000E+00  0.00000000000E+00  0.58717833908E+02  0.58717833908E+02  0.00000000000E+00 0.  1.
          1   -1    0    0  501    0  0.00000000000E+00 -0.00000000000E+00 -0.36239785859E+03  0.36239785859E+03  0.00000000000E+00 0. -1.
         23    2    1    2    0    0 -0.63760655977E+02 -0.65317798012E+02 -0.18804976965E+03  0.22786276379E+03  0.90702189999E+02 0.  0.
          5    1    1    2  502    0 -0.14762225000E+02  0.74022184453E+02 -0.52498012128E+02  0.92036518598E+02  0.41800000000E+01 0.  1.
         -5    1    1    2    0  502  0.78522880978E+02 -0.87043864414E+01 -0.63132242902E+02  0.10121641010E+03  0.41800000000E+01 0.  1.
        -11    1    3    3    0    0 -0.60247955176E+02 -0.87445269198E+02 -0.15205711902E+03  0.18546659713E+03  0.00000000000E+00 0.  1.
         11    1    3    3    0    0 -0.35127008016E+01  0.22127471186E+02 -0.35992650633E+02  0.42396166662E+02  0.00000000000E+00 0. -1.
</event>
<event>
 7    1  0.4096326E-006  0.6238965E+02  0.7561462E-02  0.1388069E+00
          1   -1    0    0  501    0  0.00000000000E+00  0.00000000000E+00  0.15782957444E+02  0.15782957444E+02  0.00000000000E+00 0. -1.
         -1   -1    0    0    0  501 -0.00000000000E+00 -0.00000000000E+00 -0.88852491061E+03  0.88852491061E+03  0.00000000000E+00 0.  1.
         23    2    1    2    0    0 -0.96578601544E+01  0.41882918793E+02 -0.21623768330E+03  0.23461277827E+03  0.80230710454E+02 0.  0.
          5    1    1    2  502    0  0.23781958197E+01 -0.30314937527E+02 -0.29643978569E+02  0.42671877367E+02  0.41800000000E+01 0. -1.
         -5    1    1    2    0  502  0.72796643347E+01 -0.11567981266E+02 -0.62686029130E+03  0.62702321242E+03  0.41800000000E+01 0. -1.
        -11    1    3    3    0    0  0.15775238015E+02 -0.12256350437E+02 -0.15888206399E+02  0.25524720626E+02  0.00000000000E+00 0. -1.
         11    1    3    3    0    0 -0.25433098169E+02  0.54139269230E+02 -0.20034947690E+03  0.20908805764E+03  0.00000000000E+00 0.  1.
</event>
<event>
 7    1  0.4096326E-006  0.8801724E+02  0.7561462E-02  0.1307726E+00
          2   -1    0    0  501    0  0.00000000000E+00  0.00000000000E+00  0.36024187375E+02  0.36024187375E+02  0.00000000000E+00 0. -1.
         -2   -1    0    0    0  501 -0.00000000000E+00 -0.00000000000E+00 -0.34336567525E+03  0.34336567525E+03  0.00000000000E+00 0.  1.
         23    2    1    2    0    0  0.27547502684E+02 -0.15853236512E+02 -0.45266096924E+02  0.87258071261E+02  0.67488972858E+02 0.  0.
          5    1    1    2  502    0 -0.58989833211E+02  0.35568730723E+02 -0.77312705145E+02  0.10363233957E+03  0.41800000000E+01 0. -1.
         -5    1    1    2    0  502  0.31442330528E+02 -0.19715494211E+02 -0.18476268581E+03  0.18849945180E+03  0.41800000000E+01 0. -1.
        -11    1    3    3    0    0 -0.10203076292E+02  0.16871817435E+02  0.18324664216E+00  0.19717874346E+02  0.00000000000E+00 0. -1.
         11    1    3    3    0    0  0.37750578976E+02 -0.32725053947E+02 -0.45449343566E+02  0.67540196916E+02  0.00000000000E+00 0.  1.
</event>
<event>
 7    1  0.4096326E-006  0.3352884E+03  0.7561462E-02  0.1068821E+00
          2   -1    0    0  501    0  0.00000000000E+00  0.00000000000E+00  0.14616127870E+03  0.14616127870E+03  0.00000000000E+00 0. -1.
         -2   -1    0    0    0  501 -0.00000000000E+00 -0.00000000000E+00 -0.12509376226E+04  0.12509376226E+04  0.00000000000E+00 0.  1.
         23    2    1    2    0    0  0.20227872232E+03  0.22349151584E+03 -0.10425628239E+03  0.33108780816E+03  0.88795411669E+02 0.  0.
          5    1    1    2  502    0 -0.65678967827E+02  0.27845291211E+02 -0.11471135137E+03  0.13514900514E+03  0.41800000000E+01 0. -1.
         -5    1    1    2    0  502 -0.13659975450E+03 -0.25133680705E+03 -0.88580871012E+03  0.93086208797E+03  0.41800000000E+01 0.  1.
        -11    1    3    3    0    0  0.17716526929E+03  0.13989250013E+03 -0.61935991977E+02  0.23408013870E+03  0.00000000000E+00 0. -1.
         11    1    3    3    0    0  0.25113453037E+02  0.83599015716E+02 -0.42320290413E+02  0.97007669453E+02  0.00000000000E+00 0.  1.
</event>
<event>
 7    1  0.4096326E-006  0.1215773E+03  0.7561462E-02  0.1240517E+00
          2   -1    0    0  501    0  0.00000000000E+00  0.00000000000E+00  0.45906194041E+02  0.45906194041E+02  0.00000000000E+00 0. -1.
         -2   -1    0    0    0  501 -0.00000000000E+00 -0.00000000000E+00 -0.33125037555E+03  0.33125037555E+03  0.00000000000E+00 0.  1.
         23    2    1    2    0    0 -0.21740771325E+02  0.34631554617E+02 -0.11918028170E+03  0.16518586675E+03  0.10681959238E+03 0.  0.
          5    1    1    2  502    0  0.73701825627E+02 -0.18645989518E+02 -0.84114332981E+02  0.11345627104E+03  0.41800000000E+01 0.  1.
         -5    1    1    2    0  502 -0.51961054302E+02 -0.15985565099E+02 -0.82049566828E+02  0.98514431798E+02  0.41800000000E+01 0.  1.
        -11    1    3    3    0    0 -0.62050951740E+02  0.45951431542E+01 -0.80573953697E+02  0.10180175817E+03  0.00000000000E+00 0.  1.
         11    1    3    3    0    0  0.40310180415E+02  0.30036411463E+02 -0.38606328003E+02  0.63384108580E+02  0.00000000000E+00 0. -1.
</event>
<event>
 7    1  0.4096326E-006  0.1023198E+03  0.7561462E-02  0.1275492E+00
          1   -1    0    0  501    0  0.00000000000E+00  0.00000000000E+00  0.18581396715E+02  0.18581396715E+02  0.00000000000E+00 0. -1.
         -1   -1    0    0    0  501 -0.00000000000E+00 -0.00000000000E+00 -0.77100253303E+03  0.77100253303E+03  0.00000000000E+00 0.  1.
         23    2    1    2    0    0  0.34148648704E+02  0.37773011549E+01 -0.20506787291E+03  0.22707041641E+03  0.91256469886E+02 0.  0.
          5    1    1    2  502    0 -0.69273494181E+02 -0.29135736511E+02 -0.22547470629E+03  0.23770575027E+03  0.41800000000E+01 0.  1.
         -5    1    1    2    0  502  0.35124845477E+02  0.25358435356E+02 -0.32187855712E+03  0.32480776306E+03  0.41800000000E+01 0.  1.
        -11    1    3    3    0    0  0.55541018708E+01  0.39614450040E+02 -0.43380470350E+02  0.59008625703E+02  0.00000000000E+00 0. -1.
         11    1    3    3    0    0  0.28594546833E+02 -0.35837148885E+02 -0.16168740256E+03  0.16806179071E+03  0.00000000000E+00 0.  1.
</event>
<event>
 7    1  0.4096326E-006  0.1103902E+03  0.7561462E-02  0.1259849E+00
          1   -1    0    0  501    0  0.00000000000E+00  0.00000000000E+00  0.29713471691E+02  0.29713471691E+02  0.00000000000E+00 0. -1.
         -1   -1    0    0    0  501 -0.00000000000E+00 -0.00000000000E+00 -0.83960924720E+03  0.83960924720E+03  0.00000000000E+00 0.  1.
         23    2    1    2    0    0 -0.70640087026E+02  0.48007246304E+02 -0.17716258479E+03  0.21871288201E+03  0.95676672789E+02 0.  0.
          5    1    1    2  502    0 -0.93485247972E+01  0.24547329140E+02 -0.29056830092E+03  0.29178309783E+03  0.41800000000E+01 0. -1.
         -5    1    1    2    0  502  0.79988611824E+02 -0.72554575445E+02 -0.34216488980E+03  0.35882673905E+03  0.41800000000E+01 0. -1.
        -11    1    3    3    0    0 -0.29212458360E+02  0.26454720542E+02 -0.16611386333E+03  0.17072502907E+03  0.00000000000E+00 0.  1.
         11    1    3    3    0    0 -0.41427628666E+02  0.21552525762E+02 -0.11048721460E+02  0.47987852937E+02  0.00000000000E+00 0. -1.
</event>
<event>
 7    1  0.4096326E-006  0.1042629E+03  0.7561462E-02  0.1271579E+00
          4   -1    0    0  501    0  0.00000000000E+00  0.00000000000E+00  0.19265168484E+03  0.19265168484E+03  0.00000000000E+00 0. -1.
         -4   -1    0    0    0  501 -0.00000000000E+00 -0.00000000000E+00 -0.63420494574E+02  0.63420494574E+02  0.00000000000E+00 0.  1.
         23    2    1    2    0    0 -0.14281110056E+02  0.14939204361E+02  0.75329317416E+02  0.11830335316E+03  0.88848451733E+02 0.  0.
          5    1    1    2  502    0  0.69227840498E+02  0.92465529745E+00  0.27022832282E+02  0.74438261344E+02  0.41800000000E+01 0. -1.
         -5    1    1    2    0  502 -0.54946730442E+02 -0.15863859658E+02  0.26879040564E+02  0.63330564905E+02  0.41800000000E+01 0. -1.
        -11    1    3    3    0    0 -0.34639041327E+02 -0.21007275300E+02  0.11219406565E+02  0.42036221086E+02  0.00000000000E+00 0.  1.
         11    1    3    3    0    0  0.20357931271E+02  0.35946479660E+02  0.64109910851E+02  0.76267132074E+02  0.00000000000E+00 0. -1.
</event>
<event>
 7    1  0.4096326E-006  0.1038397E+03  0.7561462E-02  0.1272423E+00
         -1   -1    0    0    0  501 -0.00000000000E+00  0.00000000000E+00  0.83947254151E+02  0.83947254151E+02  0.00000000000E+00 0.  1.
          1   -1    0    0  501    0  0.00000000000E+00 -0.00000000000E+00 -0.16721447422E+03  0.16721447422E+03  0.00000000000E+00 0. -1.
         23    2    1    2    0    0 -0.20479680610E+01  0.21189605711E+02 -0.80195694768E+02  0.12424295450E+03  0.92475773688E+02 0.  0.
          5    1    1    2  502    0  0.55616826417E+02 -0.41059969689E+02  0.29132444516E+01  0.69318914337E+02  0.41800000000E+01 0. -1.
         -5    1    1    2    0  502 -0.53568858356E+02  0.19870363978E+02 -0.59847697561E+01  0.57599859542E+02  0.41800000000E+01 0. -1.
        -11    1    3    3    0    0  0.36586390140E+02  0.21620004092E+02 -0.73684894734E+02  0.85061461499E+02  0.00000000000E+00 0.  1.
         11    1    3    3    0    0 -0.38634358201E+02 -0.43039838106E+00 -0.65108000342E+01  0.39181492997E+02  0.00000000000E+00 0. -1.
</event>
<event>
 7    1  0.4096326E-006  0.8288888E+02  0.7561462E-02  0.1321047E+00
          3   -1    0    0  501    0  0.00000000000E+00  0.00000000000E+00  0.10685831761E+03  0.10685831761E+03  0.00000000000E+00 0. -1.
         -3   -1    0    0    0  501 -0.00000000000E+00 -0.00000000000E+00 -0.12267114442E+03  0.12267114442E+03  0.00000000000E+00 0.  1.
         23    2    1    2    0    0  0.51978492509E+02  0.31675009377E+01 -0.27128427119E+01  0.93399284773E+02  0.77487225623E+02 0.  0.
          5    1    1    2  502    0  0.13177302441E+02 -0.45866569481E+01 -0.56086566184E+02  0.57946993260E+02  0.41800000000E+01 0. -1.
         -5    1    1    2    0  502 -0.65155794951E+02  0.14191560105E+01  0.42986582093E+02  0.78183183994E+02  0.41800000000E+01 0. -1.
        -11    1    3    3    0    0 -0.15873477883E+02 -0.69075360670E+01  0.14607121516E+02  0.22650592787E+02  0.00000000000E+00 0. -1.
         11    1    3    3    0    0  0.67851970393E+02  0.10075037005E+02 -0.17319964228E+02  0.70748691986E+02  0.00000000000E+00 0.  1.
</event>
<event>
 7    1  0.4096326E-006  0.1017854E+03  0.7561462E-02  0.1276586E+00
          1   -1    0    0  501    0  0.00000000000E+00  0.00000000000E+00  0.17967780168E+03  0.17967780168E+03  0.00000000000E+00 0. -1.
         -1   -1    0    0    0  501 -0.00000000000E+00 -0.00000000000E+00 -0.76573123597E+02  0.76573123597E+02  0.00000000000E+00 0.  1.
         23    2    1    2    0    0  0.20224628185E+02  0.30787268346E+02  0.72385614089E+02  0.12228206610E+03  0.91412991886E+02 0.  0.
          5    1    1    2  502    0 -0.46664831737E+02 -0.62863466515E+02  0.44282926963E+02  0.90043722511E+02  0.41800000000E+01 0.  1.
         -5    1    1    2    0  502  0.26440203552E+02  0.32076198169E+02 -0.13563862966E+02  0.43925136669E+02  0.41800000000E+01 0.  1.
        -11    1    3    3    0    0  0.47863069216E+02  0.28386665319E+02  0.13609802939E+02  0.57287894871E+02  0.00000000000E+00 0.  1.
         11    1    3    3    0    0 -0.27638441031E+02  0.24006030267E+01  0.58775811151E+02  0.64994171231E+02  0.00000000000E+00 0. -1.
</event>
<event>
 7    1  0.4096326E-006  0.1431264E+03  0.7561462E-02  0.1209183E+00
         -3   -1    0    0    0  501 -0.00000000000E+00  0.00000000000E+00  0.82224878538E+03  0.82224878538E+03  0.00000000000E+00 0.  1.
          3   -1    0    0  501    0  0.00000000000E+00 -0.00000000000E+00 -0.57970853940E+02  0.57970853940E+02  0.00000000000E+00 0. -1.
         23    2    1    2    0    0  0.12822118740E+03 -0.29257329466E+02  0.93011066204E+02  0.18484631691E+03  0.90666632306E+02 0.  0.
          5    1    1    2  502    0 -0.25297892118E+02 -0.83588599103E+01  0.42427780301E+03  0.42513407345E+03  0.41800000000E+01 0.  1.
         -5    1    1    2    0  502 -0.10292329528E+03  0.37616189376E+02  0.24698906223E+03  0.27023924896E+03  0.41800000000E+01 0.  1.
        -11    1    3    3    0    0  0.67434576065E+02  0.21129700315E+02  0.76573098750E+02  0.10419849201E+03  0.00000000000E+00 0. -1.
         11    1    3    3    0    0  0.60786611337E+02 -0.50387029781E+02  0.16437967454E+02  0.80647824906E+02  0.00000000000E+00 0.  1.
</event>
<event>
 7    1  0.4096326E-006  0.1429086E+03  0.7561462E-02  0.1209468E+00
          2   -1    0    0  501    0  0.00000000000E+00  0.00000000000E+00  0.26959559679E+03  0.26959559679E+03  0.00000000000E+00 0. -1.
         -2   -1    0    0    0  501 -0.00000000000E+00 -0.00000000000E+00 -0.86386130991E+02  0.86386130991E+02  0.00000000000E+00 0.  1.
         23    2    1    2    0    0  0.96811644133E+02  0.24140519181E+02  0.11269493127E+03  0.18112661275E+03  0.10075437065E+03 0.  0.
          5    1    1    2  502    0 -0.69100518035E+02 -0.74902432840E+02  0.46538440126E+02  0.11210956626E+03  0.41800000000E+01 0.  1.
         -5    1    1    2    0  502 -0.27711126098E+02  0.50761913659E+02  0.23976094408E+02  0.62745548774E+02  0.41800000000E+01 0.  1.
        -11    1    3    3    0    0 -0.77127266430E+01  0.19772829793E+02 -0.68199412492E+01  0.22292656839E+02  0.00000000000E+00 0.  1.
         11    1    3    3    0    0  0.10452437078E+03  0.43676893882E+01  0.11951487252E+03  0.15883395591E+03  0.00000000000E+00 0. -1.
</event>
<event>
 7    1  0.4096326E-006  0.1630009E+03  0.7561462E-02  0.1185350E+00
          2   -1    0    0  501    0  0.00000000000E+00  0.00000000000E+00  0.10901350962E+04  0.10901350962E+04  0.00000000000E+00 0. -1.
         -2   -1    0    0    0  501 -0.00000000000E+00 -0.00000000000E+00 -0.37107087020E+02  0.37107087020E+02  0.00000000000E+00 0.  1.
         23    2    1    2    0    0 -0.40846036168E+02  0.13431715826E+03  0.79008867256E+03  0.80771310278E+03  0.91928495127E+02 0.  0.
          5    1    1    2  502    0  0.30374529016E+02  0.37186873247E+01  0.10509301999E+03  0.10953746345E+03  0.41800000000E+01 0. -1.
         -5    1    1    2    0  502  0.10471507152E+02 -0.13803584559E+03  0.15784631659E+03  0.20999161696E+03  0.41800000000E+01 0.  1.
        -11    1    3    3    0    0  0.13663139244E+02  0.23827452567E+01  0.19008986718E+02  0.23530839870E+02  0.00000000000E+00 0.  1.
         11    1    3    3    0    0 -0.54509175413E+02  0.13193441301E+03  0.77107968584E+03  0.78418226291E+03  0.00000000000E+00 0. -1.
</event>
<event>
 7    1  0.4096326E-006  0.1331570E+03  0.7561462E-02  0.1222845E+00
          1   -1    0    0  501    0  0.00000000000E+00  0.00000000000E+00  0.23494496707E+02  0.23494496707E+02  0.00000000000E+00 0. -1.
         -1   -1    0    0    0  501 -0.00000000000E+00 -0.00000000000E+00 -0.86392408719E+03  0.86392408719E+03  0.00000000000E+00 0.  1.
         23    2    1    2    0    0 -0.88714718702E+02  0.14128248757E+02 -0.32565743320E+03  0.35010372049E+03  0.91923569199E+02 0.  0.
          5    1    1    2  502    0  0.64747430579E+02  0.52152657483E+02 -0.26653026071E+03  0.27922747308E+03  0.41800000000E+01 0. -1.
         -5    1    1    2    0  502  0.23967288123E+02 -0.66280906240E+02 -0.24824189657E+03  0.25808739033E+03  0.41800000000E+01 0. -1.
        -11    1    3    3    0    0 -0.84715591128E+01  0.29561111221E+02 -0.28538882076E+02  0.41953479005E+02  0.00000000000E+00 0. -1.
         11    1    3    3    0    0 -0.80243159589E+02 -0.15432862465E+02 -0.29711855113E+03  0.30815024149E+03  0.00000000000E+00 0.  1.
</event>
<event>
 7    1  0.4096326E-006  0.1053482E+03  0.7561462E-02  0.1269435E+00
          1   -1    0    0  501    0  0.00000000000E+00  0.00000000000E+00  0.86597372760E+03  0.86597372760E+03  0.00000000000E+00 0. -1.
         -1   -1    0    0    0  501 -0.00000000000E+00 -0.00000000000E+00 -0.22171209781E+02  0.22171209781E+02  0.00000000000E+00 0.  1.
         23    2    1    2    0    0  0.82921956687E+02 -0.10423577233E+02  0.32008838962E+03  0.34325162966E+03  0.91544536869E+02 0.  0.
          5    1    1    2  502    0 -0.52547818883E+02 -0.13290189128E+02  0.65847366520E+02  0.85388819374E+02  0.41800000000E+01 0.  1.
         -5    1    1    2    0  502 -0.30374137804E+02  0.23713766361E+02  0.45786676167E+03  0.45950448834E+03  0.41800000000E+01 0.  1.
        -11    1    3    3    0    0  0.82634488307E+02 -0.37322193133E+02  0.28476272750E+03  0.29884982137E+03  0.00000000000E+00 0. -1.
         11    1    3    3    0    0  0.28746838024E+00  0.26898615899E+02  0.35325662123E+02  0.44401808294E+02  0.00000000000E+00 0.  1.
</event>
<event>
 7    1  0.4096326E-006  0.6114252E+02  0.7561462E-02  0.1393099E+00
          2   -1    0    0  501    0  0.00000000000E+00  0.00000000000E+00  0.13687782950E+03  0.13687782950E+03  0.00000000000E+00 0. -1.
         -2   -1    0    0    0  501 -0.00000000000E+00 -0.00000000000E+00 -0.91716391718E+02  0.91716391718E+02  0.00000000000E+00 0.  1.
         23    2    1    2    0    0 -0.17012671664E+02  0.15856486708E+02  0.36295521966E+02  0.10105207398E+03  0.91396376148E+02 0.  0.
          5    1    1    2  502    0  0.11981791323E+02 -0.21293724436E+01 -0.57773928047E+02  0.59189498328E+02  0.41800000000E+01 0.  1.
         -5    1    1    2    0  502  0.50308803420E+01 -0.13727114265E+02  0.66639843867E+02  0.68352648914E+02  0.41800000000E+01 0.  1.
        -11    1    3    3    0    0  0.37915441841E+02  0.54161068950E+01  0.17012839035E+02  0.41908849136E+02  0.00000000000E+00 0. -1.
         11    1    3    3    0    0 -0.54928113505E+02  0.10440379813E+02  0.19282682931E+02  0.59143224844E+02  0.00000000000E+00 0.  1.
</event>
<event>
 7    1  0.4096326E-006  0.1165105E+03  0.7561462E-02  0.1248967E+00
         -2   -1    0    0    0  501 -0.00000000000E+00  0.00000000000E+00  0.30267857187E+02  0.30267857187E+02  0.00000000000E+00 0.  1.
          2   -1    0    0  501    0  0.00000000000E+00 -0.00000000000E+00 -0.50335856840E+03  0.50335856840E+03  0.00000000000E+00 0. -1.
         23    2    1    2    0    0  0.22285214107E+01  0.45337041442E+02 -0.29029033778E+03  0.30751933900E+03  0.90770314614E+02 0.  0.
          5    1    1    2  502    0  0.42103415479E+02  0.24855679300E+02 -0.80688540778E+02  0.94438421214E+02  0.41800000000E+01 0.  1.
         -5    1    1    2    0  502 -0.44331936890E+02 -0.70192720742E+02 -0.10211183266E+03  0.13166866538E+03  0.41800000000E+01 0.  1.
        -11    1    3    3    0    0 -0.42485408851E+02  0.34718743312E+02 -0.17527987323E+03  0.18366664112E+03  0.00000000000E+00 0. -1.
         11    1    3    3    0    0  0.44713930262E+02  0.10618298130E+02 -0.11501046455E+03  0.12385269788E+03  0.00000000000E+00 0.  1.
</event>
<event>
 7    1  0.4096326E-006  0.1517662E+03  0.7561462E-02  0.1198319E+00
          2   -1    0    0  501    0  0.00000000000E+00  0.00000000000E+00  0.86989408574E+02  0.86989408574E+02  0.00000000000E+00 0. -1.
         -2   -1    0    0    0  501 -0.00000000000E+00 -0.00000000000E+00 -0.28435074847E+03  0.28435074847E+03  0.00000000000E+00 0.  1.
         23    2    1    2    0    0  0.25342584054E+02 -0.11168477513E+03 -0.83142999612E+02  0.16686615285E+03  0.88407120873E+02 0.  0.
          5    1    1    2  502    0 -0.66615979999E+02  0.91079848355E+02 -0.11052388218E+03  0.15800705206E+03  0.41800000000E+01 0.  1.
         -5    1    1    2    0  502  0.41273395945E+02  0.20604926775E+02 -0.36944581060E+01  0.46466952137E+02  0.41800000000E+01 0.  1.
        -11    1    3    3    0    0  0.20580456664E+01 -0.11966258625E+03 -0.73393632542E+02  0.14039229109E+03  0.00000000000E+00 0. -1.
         11    1    3    3    0    0  0.23284538388E+02  0.79778111222E+01 -0.97493670699E+01  0.26473861760E+02  0.00000000000E+00 0.  1.
</event>
<event>
 7    1  0.4096326E-006  0.2497710E+03  0.7561462E-02  0.1113450E+00
         -1   -1    0    0    0  501 -0.00000000000E+00  0.00000000000E+00  0.58887102751E+02  0.58887102751E+02  0.00000000000E+00 0.  1.
          1   -1    0    0  501    0  0.00000000000E+00 -0.00000000000E+00 -0.13276606237E+04  0.13276606237E+04  0.00000000000E+00 0. -1.
         23    2    1    2    0    0  0.20110199817E+03 -0.14201850088E+03 -0.43329874727E+03  0.50658050603E+03  0.90910595885E+02 0.  0.
          5    1    1    2  502    0 -0.17214313680E+03  0.12053110058E+03 -0.49791007090E+03  0.54045621179E+03  0.41800000000E+01 0.  1.
         -5    1    1    2    0  502 -0.28958861370E+02  0.21487400298E+02 -0.33756470282E+03  0.33951100867E+03  0.41800000000E+01 0.  1.
        -11    1    3    3    0    0  0.46816108770E+02 -0.56792834382E+01 -0.36830454848E+02  0.59837151545E+02  0.00000000000E+00 0. -1.
         11    1    3    3    0    0  0.15428588940E+03 -0.13633921744E+03 -0.39646829243E+03  0.44674335449E+03  0.00000000000E+00 0.  1.
</event>
<event>
 7    1  0.4096326E-006  0.1981331E+03  0.7561462E-02  0.1151324E+00
          1   -1    0    0  501    0  0.00000000000E+00  0.00000000000E+00  0.21994533505E+03  0.21994533505E+03  0.00000000000E+00 0. -1.
         -1   -1    0    0    0  501 -0.00000000000E+00 -0.00000000000E+00 -0.19185477031E+03  0.19185477031E+03  0.00000000000E+00 0.  1.
         23    2    1    2    0    0 -0.91334468276E+02 -0.14517513442E+03 -0.14354381316E+02  0.19531282634E+03  0.92321433691E+02 0.  0.
          5    1    1    2  502    0  0.48359770820E+02  0.15647138038E+03  0.49855615041E+02  0.17124548188E+03  0.41800000000E+01 0. -1.
         -5    1    1    2    0  502  0.42974697456E+02 -0.11296245961E+02 -0.74106689815E+01  0.45241797146E+02  0.41800000000E+01 0. -1.
        -11    1    3    3    0    0 -0.28705786538E+01 -0.74563009570E+02  0.19582361481E+02  0.77145003073E+02  0.00000000000E+00 0. -1.
         11    1    3    3    0    0 -0.88463889622E+02 -0.70612124854E+02 -0.33936742797E+02  0.11816782326E+03  0.00000000000E+00 0.  1.
</event>
<event>
 7    1  0.4096326E-006  0.1448270E+03  0.7561462E-02  0.1206978E+00
          1   -1    0    0  501    0  0.00000000000E+00  0.00000000000E+00  0.11738992033E+03  0.11738992033E+03  0.00000000000E+00 0. -1.
         -1   -1    0    0    0  501 -0.00000000000E+00 -0.00000000000E+00 -0.36813751258E+03  0.36813751258E+03  0.00000000000E+00 0.  1.
         23    2    1    2    0    0 -0.10620827880E+03 -0.99578479137E+00  0.46285571105E+02  0.14617924921E+03  0.89133768759E+02 0.  0.
          5    1    1    2  502    0  0.63462644339E+02  0.62189295544E+02 -0.14975426142E+03  0.17418044356E+03  0.41800000000E+01 0.  1.
         -5    1    1    2    0  502  0.42745634465E+02 -0.61193510753E+02 -0.14727890194E+03  0.16516774014E+03  0.41800000000E+01 0.  1.
        -11    1    3    3    0    0 -0.74399426473E+02  0.31204285279E+02  0.58075449320E+02  0.99406940870E+02  0.00000000000E+00 0. -1.
         11    1    3    3    0    0 -0.31808852331E+02 -0.32200070071E+02 -0.11789878214E+02  0.46772308340E+02  0.00000000000E+00 0.  1.
</event>
<event>
 7    1  0.4096326E-006  0.1177797E+03  0.7561462E-02  0.1246805E+00
         -1   -1    0    0    0  501 -0.00000000000E+00  0.00000000000E+00  0.28162276932E+02  0.28162276932E+02  0.00000000000E+00 0.  1.
          1   -1    0    0  501    0  0.00000000000E+00 -0.00000000000E+00 -0.56266825250E+03  0.56266825250E+03  0.00000000000E+00 0. -1.
         23    2    1    2    0    0  0.49463243107E+02 -0.18531375975E+02 -0.31968058156E+03  0.33669108558E+03  0.91516056318E+02 0.  0.
          5    1    1    2  502    0 -0.88287611507E+02  0.20772242832E+02 -0.11233680445E+03  0.14444105529E+03  0.41800000000E+01 0. -1.
         -5    1    1    2    0  502  0.38824368401E+02 -0.22408668561E+01 -0.10248858955E+03  0.10969838856E+03  0.41800000000E+01 0. -1.
        -11    1    3    3    0    0 -0.24940709583E+02  0.87099113592E+01 -0.77608810066E+02  0.81981881842E+02  0.00000000000E+00 0. -1.
         11    1    3    3    0    0  0.74403952690E+02 -0.27241287335E+02 -0.24207177150E+03  0.25470920374E+03  0.00000000000E+00 0.  1.
</event>
<event>
 7    1  0.4096326E-006  0.7836082E+02  0.7561462E-02  0.1333769E+00
         -1   -1    0    0    0  501 -0.00000000000E+00  0.00000000000E+00  0.28448647836E+02  0.28448647836E+02  0.00000000000E+00 0.  1.
          1   -1    0    0  501    0  0.00000000000E+00 -0.00000000000E+00 -0.45064187154E+03  0.45064187154E+03  0.00000000000E+00 0. -1.
         23    2    1    2    0    0  0.10902798101E+02 -0.30273938135E+02 -0.19413831728E+03  0.21700007579E+03  0.91454711853E+02 0.  0.
          5    1    1    2  502    0  0.75654054248E+00  0.45988381574E+02 -0.23606308984E+03  0.24053847588E+03  0.41800000000E+01 0. -1.
         -5    1    1    2    0  502 -0.11659338644E+02 -0.15714443439E+02  0.80081834189E+01  0.21551967703E+02  0.41800000000E+01 0. -1.
        -11    1    3    3    0    0  0.23890554377E+02 -0.56455643453E+02 -0.90413481410E+02  0.10923642198E+03  0.00000000000E+00 0.  1.
         11    1    3    3    0    0 -0.12987756276E+02  0.26181705318E+02 -0.10372483587E+03  0.10776365381E+03  0.00000000000E+00 0. -1.
</event>
<event>
 7    1  0.4096326E-006  0.1366618E+03  0.7561462E-02  0.1217893E+00
          1   -1    0    0  501    0  0.00000000000E+00  0.00000000000E+00  0.86826942717E+02  0.86826942717E+02  0.00000000000E+00 0. -1.
         -1   -1    0    0    0  501 -0.00000000000E+00 -0.00000000000E+00 -0.34322461367E+03  0.34322461367E+03  0.00000000000E+00 0.  1.
         23    2    1    2    0    0  0.11765423494E+03 -0.62843317336E+02 -0.10337180162E+03  0.19160885627E+03  0.90754740373E+02 0.  0.
          5    1    1    2  502    0 -0.89749334555E+02  0.27796972266E+02 -0.17525199885E+02  0.95667234471E+02  0.41800000000E+01 0. -1.
         -5    1    1    2    0  502 -0.27904900381E+02  0.35046345070E+02 -0.13550066945E+03  0.14277546564E+03  0.41800000000E+01 0. -1.
        -11    1    3    3    0    0  0.26292258563E+02 -0.70119031844E+01 -0.76531564036E+02  0.81225180458E+02  0.00000000000E+00 0.  1.
         11    1    3    3    0    0  0.91361976373E+02 -0.55831414152E+02 -0.26840237581E+02  0.11038367581E+03  0.00000000000E+00 0. -1.
</event>
<event>
 7    1  0.4096326E-006  0.1105756E+03  0.7561462E-02  0.1259508E+00
         -1   -1    0    0    0  501 -0.00000000000E+00  0.00000000000E+00  0.10452889141E+04  0.10452889141E+04  0.00000000000E+00 0.  1.
          1   -1    0    0  501    0  0.00000000000E+00 -0.00000000000E+00 -0.14458221134E+02  0.14458221134E+02  0.00000000000E+00 0. -1.
         23    2    1    2    0    0 -0.14071855303E+02  0.40316047707E+02  0.34197441345E+03  0.35832557229E+03  0.98118884462E+02 0.  0.
          5    1    1    2  502    0 -0.53694200929E+01  0.43492145447E+02  0.29418097338E+03  0.29745640838E+03  0.41800000000E+01 0. -1.
         -5    1    1    2    0  502  0.19441275396E+02 -0.83808193154E+02  0.39467530616E+03  0.40396515459E+03  0.41800000000E+01 0. -1.
        -11    1    3    3    0    0 -0.43027644621E+02  0.21412032419E+01  0.25860058072E+03  0.26216449664E+03  0.00000000000E+00 0.  1.
         11    1    3    3    0    0  0.28955789318E+02  0.38174844465E+02  0.83373832733E+02  0.96161075647E+02  0.00000000000E+00 0. -1.
</event>
<event>
 7    1  0.4096326E-006  0.9839141E+02  0.7561462E-02  0.1283715E+00
         -2   -1    0    0    0  501 -0.00000000000E+00  0.00000000000E+00  0.44000408232E+02  0.44000408232E+02  0.00000000000E+00 0.  1.
          2   -1    0    0  501    0  0.00000000000E+00 -0.00000000000E+00 -0.27318368006E+03  0.27318368006E+03  0.00000000000E+00 0. -1.
         23    2    1    2    0    0 -0.73900653582E+01  0.17419158673E+02 -0.76117473392E+02  0.11860333858E+03  0.88965397830E+02 0.  0.
          5    1    1    2  502    0  0.55202911459E+02  0.20836010390E+02 -0.10542110954E+03  0.12088251941E+03  0.41800000000E+01 0. -1.
         -5    1    1    2    0  502 -0.47812846101E+02 -0.38255169063E+02 -0.47644688894E+02  0.77698230302E+02  0.41800000000E+01 0. -1.
        -11    1    3    3    0    0 -0.14318714978E+02 -0.27393325437E+02 -0.64910039484E+02  0.71893901709E+02  0.00000000000E+00 0. -1.
         11    1    3    3    0    0  0.69286496203E+01  0.44812484110E+02 -0.11207433908E+02  0.46709436867E+02  0.00000000000E+00 0.  1.
</event>
<event>
 7    1  0.4096326E-006  0.1673819E+03  0.7561462E-02  0.1180606E+00
         -1   -1    0    0    0  501 -0.00000000000E+00  0.00000000000E+00  0.56445584276E+02  0.56445584276E+02  0.00000000000E+00 0.  1.
          1   -1    0    0  501    0  0.00000000000E+00 -0.00000000000E+00 -0.52951801156E+03  0.52951801156E+03  0.00000000000E+00 0. -1.
         23    2    1    2    0    0  0.18519129199E+02 -0.13037479347E+03 -0.24018888344E+03  0.29062940796E+03  0.97129851865E+02 0.  0.
          5    1    1    2  502    0 -0.57785000218E+02  0.33099579281E+02 -0.14029621199E+03  0.15535503821E+03  0.41800000000E+01 0.  1.
         -5    1    1    2    0  502  0.39265871019E+02  0.97275214185E+02 -0.92587331848E+02  0.13997914966E+03  0.41800000000E+01 0.  1.
        -11    1    3    3    0    0  0.57185130804E+02 -0.93642079419E+02 -0.17276341938E+03  0.20466112796E+03  0.00000000000E+00 0.  1.
         11    1    3    3    0    0 -0.38666001605E+02 -0.36732714047E+02 -0.67425464061E+02  0.85968279994E+02  0.00000000000E+00 0. -1.
</event>
<event>
 7    1  0.4096326E-006  0.1210960E+03  0.7561462E-02  0.1241300E+00
          3   -1    0    0  501    0  0.00000000000E+00  0.00000000000E+00  0.18245562783E+03  0.18245562783E+03  0.00000000000E+00 0. -1.
         -3   -1    0    0    0  501 -0.00000000000E+00 -0.00000000000E+00 -0.10603257490E+03  0.10603257490E+03  0.00000000000E+00 0.  1.
         23    2    1    2    0    0 -0.18554397968E+02 -0.74304546918E+02  0.66667116861E+02  0.13757814315E+03  0.92832158354E+02 0.  0.
          5    1    1    2  502    0 -0.67729730385E+01 -0.23906366552E+02  0.37953897896E+02  0.45556100481E+02  0.41800000000E+01 0. -1.
         -5    1    1    2    0  502  0.25327371007E+02  0.98210913470E+02 -0.28197961831E+02  0.10535395910E+03  0.41800000000E+01 0.  1.
        -11    1    3    3    0    0  0.34374869572E+02 -0.38339160622E+02  0.10762730921E+02  0.52605696195E+02  0.00000000000E+00 0.  1.
         11    1    3    3    0    0 -0.52929267541E+02 -0.35965386296E+02  0.55904385940E+02  0.84972446953E+02  0.00000000000E+00 0. -1.
</event>
<event>
 7    1  0.4096326E-006  0.1212589E+03  0.7561462E-02  0.1241035E+00
          2   -1    0    0  501    0  0.00000000000E+00  0.00000000000E+00  0.13466809872E+03  0.13466809872E+03  0.00000000000E+00 0.  1.
         -2   -1    0    0    0  501 -0.00000000000E+00 -0.00000000000E+00 -0.19425012465E+03  0.19425012465E+03  0.00000000000E+00 0. -1.
         23    2    1    2    0    0  0.12264253578E+02 -0.10119542318E+03  0.34575254988E+02  0.14209122358E+03  0.92755280021E+02 0.  0.
          5    1    1    2  502    0  0.96012954662E+01 -0.17147189715E+02  0.14384422655E+02  0.24710220656E+02  0.41800000000E+01 0.  1.
         -5    1    1    2    0  502 -0.21865549044E+02  0.11834261290E+03 -0.10854170357E+03  0.16211677913E+03  0.41800000000E+01 0.  1.
        -11    1    3    3    0    0  0.78332222577E+01 -0.78034213207E+02  0.66207910251E+02  0.10263617872E+03  0.00000000000E+00 0.  1.
         11    1    3    3    0    0  0.44310313205E+01 -0.23161209977E+02 -0.31632655263E+02  0.39455044863E+02  0.00000000000E+00 0. -1.
</event>
<event>
 7    1  0.4096326E-006  0.3108003E+03  0.7561462E-02  0.1079963E+00
         -2   -1    0    0    0  501 -0.00000000000E+00  0.00000000000E+00  0.67873837924E+02  0.67873837924E+02  0.00000000000E+00 0.  1.
          2   -1    0    0  501    0  0.00000000000E+00 -0.00000000000E+00 -0.14837355412E+04  0.14837355412E+04  0.00000000000E+00 0. -1.
         23    2    1    2    0    0  0.13908407971E+03 -0.26329703581E+03 -0.69040645254E+03  0.75750240745E+03  0.92082122525E+02 0.  0.
          5    1    1    2  502    0  0.22275896377E+02  0.23907064572E+02 -0.54757537346E+02  0.63903236163E+02  0.41800000000E+01 0. -1.
         -5    1    1    2    0  502 -0.16135997608E+03  0.23938997123E+03 -0.67069771337E+03  0.73020373549E+03  0.41800000000E+01 0. -1.
        -11    1    3    3    0    0  0.64197851187E+02 -0.84771928530E+02 -0.35111947227E+03  0.36686854290E+03  0.00000000000E+00 0.  1.
         11    1    3    3    0    0  0.74886228520E+02 -0.17852510727E+03 -0.33928698027E+03  0.39063386455E+03  0.00000000000E+00 0. -1.
</event>
<event>
 7    1  0.4096326E-006  0.7182349E+02  0.7561462E-02  0.1354000E+00
          3   -1    0    0  501    0  0.00000000000E+00  0.00000000000E+00  0.19857763896E+02  0.19857763896E+02  0.00000000000E+00 0. -1.
         -3   -1    0    0    0  501 -0.00000000000E+00 -0.00000000000E+00 -0.57578485836E+03  0.57578485836E+03  0.00000000000E+00 0.  1.
         23    2    1    2    0    0  0.10366034092E+02 -0.89958520506E+01 -0.18547386183E+03  0.20746144675E+03  0.91931052684E+02 0.  0.
          5    1    1    2  502    0  0.32821786217E+02  0.94281583159E+01 -0.31910405920E+03  0.32095331875E+03  0.41800000000E+01 0. -1.
         -5    1    1    2    0  502 -0.43187820309E+02 -0.43230626528E+00 -0.51349173430E+02  0.67227856754E+02  0.41800000000E+01 0.  1.
        -11    1    3    3    0    0  0.36436053797E+02  0.41192635542E+01 -0.17099806236E+03  0.17488536726E+03  0.00000000000E+00 0.  1.
         11    1    3    3    0    0 -0.26070019705E+02 -0.13115115605E+02 -0.14475799465E+02  0.32576079489E+02  0.00000000000E+00 0. -1.
</event>
<event>
 7    1  0.4096326E-006  0.8439897E+02  0.7561462E-02  0.1317012E+00
         -1   -1    0    0    0  501 -0.00000000000E+00  0.00000000000E+00  0.39864287416E+02  0.39864287416E+02  0.00000000000E+00 0.  1.
          1   -1    0    0  501    0  0.00000000000E+00 -0.00000000000E+00 -0.34356473642E+03  0.34356473642E+03  0.00000000000E+00 0. -1.
         23    2    1    2    0    0  0.36982494933E+02 -0.32178510546E+01 -0.10753396532E+03  0.14782973195E+03  0.94403476924E+02 0.  0.
          5    1    1    2  502    0 -0.20319861791E+01  0.47831141959E+02 -0.22865380612E+02  0.53218841959E+02  0.41800000000E+01 0. -1.
         -5    1    1    2    0  502 -0.34950508754E+02 -0.44613290905E+02 -0.17330110308E+03  0.18238044993E+03  0.41800000000E+01 0. -1.
        -11    1    3    3    0    0 -0.66563467710E+00 -0.21882941636E+02  0.92115314373E+01  0.23752021295E+02  0.00000000000E+00 0.  1.
         11    1    3    3    0    0  0.37648129610E+02  0.18665090581E+02 -0.11674549676E+03  0.12407771066E+03  0.00000000000E+00 0. -1.
</event>
<event>
 7    1  0.4096326E-006  0.7385771E+02  0.7561462E-02  0.1347445E+00
          1   -1    0    0  501    0  0.00000000000E+00  0.00000000000E+00  0.25179439477E+03  0.25179439477E+03  0.00000000000E+00 0. -1.
         -1   -1    0    0    0  501 -0.00000000000E+00 -0.00000000000E+00 -0.53585067332E+02  0.53585067332E+02  0.00000000000E+00 0.  1.
         23    2    1    2    0    0  0.38835408344E+02 -0.14211393268E+02  0.99077628402E+02  0.14050012662E+03  0.90629777057E+02 0.  0.
          5    1    1    2  502    0 -0.24036575008E+02 -0.18958782852E+02 -0.22273046967E+02  0.38088756957E+02  0.41800000000E+01 0. -1.
         -5    1    1    2    0  502 -0.14798833336E+02  0.33170176119E+02  0.12140474601E+03  0.12679057853E+03  0.41800000000E+01 0. -1.
        -11    1    3    3    0    0  0.40692745134E+01 -0.37944364851E+02  0.63787338696E+01  0.38691369383E+02  0.00000000000E+00 0.  1.
         11    1    3    3    0    0  0.34766133831E+02  0.23732971583E+02  0.92698894532E+02  0.10180875723E+03  0.00000000000E+00 0. -1.
</event>
<event>
 7    1  0.4096326E-006  0.1119235E+03  0.7561462E-02  0.1257049E+00
         -1   -1    0    0    0  501 -0.00000000000E+00  0.00000000000E+00  0.35610677551E+02  0.35610677551E+02  0.00000000000E+00 0.  1.
          1   -1    0    0  501    0  0.00000000000E+00 -0.00000000000E+00 -0.50013488510E+03  0.50013488510E+03  0.00000000000E+00 0. -1.
         23    2    1    2    0    0  0.52768818274E+02 -0.18046623510E+02 -0.30889330654E+03  0.32843369803E+03  0.96661214439E+02 0.  0.
          5    1    1    2  502    0  0.29401638283E+02  0.64473309677E+01  0.56076830717E+00  0.30394263792E+02  0.41800000000E+01 0.  1.
         -5    1    1    2    0  502 -0.82170456557E+02  0.11599292543E+02 -0.15619166932E+03  0.17691760083E+03  0.41800000000E+01 0.  1.
        -11    1    3    3    0    0  0.18141468230E+02  0.39352293037E+02 -0.14574607332E+03  0.15205141803E+03  0.00000000000E+00 0. -1.
         11    1    3    3    0    0  0.34627350044E+02 -0.57398916547E+02 -0.16314723321E+03  0.17638228000E+03  0.00000000000E+00 0.  1.
</event>
<event>
 7    1  0.4096326E-006  0.1091937E+03  0.7561462E-02  0.1262070E+00
          2   -1    0    0  501    0  0.00000000000E+00  0.00000000000E+00  0.12543408370E+03  0.12543408370E+03  0.00000000000E+00 0. -1.
         -2   -1    0    0    0  501 -0.00000000000E+00 -0.00000000000E+00 -0.13033235742E+03  0.13033235742E+03  0.00000000000E+00 0.  1.
         23    2    1    2    0    0  0.14384169839E+02 -0.36769865200E+02  0.56005977021E+02  0.11114760455E+03  0.87511103333E+02 0.  0.
          5    1    1    2  502    0  0.97702359941E+01  0.78222051738E+02 -0.20002383934E+02  0.81435340316E+02  0.41800000000E+01 0. -1.
         -5    1    1    2    0  502 -0.24154405833E+02 -0.41452186537E+02 -0.40901866814E+02  0.63183496253E+02  0.41800000000E+01 0. -1.
        -11    1    3    3    0    0 -0.32959302119E+02 -0.29187255898E+01  0.37644640250E+02  0.50119392403E+02  0.00000000000E+00 0. -1.
         11    1    3    3    0    0  0.47343471958E+02 -0.33851139611E+02  0.18361336771E+02  0.61028212148E+02  0.00000000000E+00 0.  1.
</event>
<event>
 7    1  0.4096326E-006  0.6025089E+02  0.7561462E-02  0.1396782E+00
          2   -1    0    0  501    0  0.00000000000E+00  0.00000000000E+00  0.32518970510E+02  0.32518970510E+02  0.00000000000E+00 0. -1.
         -2   -1    0    0    0  501 -0.00000000000E+00 -0.00000000000E+00 -0.38299099305E+03  0.38299099305E+03  0.00000000000E+00 0.  1.
         23    2    1    2    0    0 -0.20511514624E+02  0.68694786560E+01 -0.84938807829E+02  0.12720995756E+03  0.92194686717E+02 0.  0.
          5    1    1    2  502    0 -0.18457184400E+01 -0.29757004323E+01  0.10219610386E+02  0.11583363331E+02  0.41800000000E+01 0. -1.
         -5    1    1    2    0  502  0.22357233064E+02 -0.38937782237E+01 -0.27575282509E+03  0.27671664266E+03  0.41800000000E+01 0.  1.
        -11    1    3    3    0    0  0.16448466055E+02  0.39425813094E+02 -0.24510873455E+02  0.49251697343E+02  0.00000000000E+00 0. -1.
         11    1    3    3    0    0 -0.36959980679E+02 -0.32556334438E+02 -0.60427934375E+02  0.77958260221E+02  0.00000000000E+00 0.  1.
</event>
<event>
 7    1  0.4096326E-006  0.1358325E+03  0.7561462E-02  0.1219049E+00
          2   -1    0    0  501    0  0.00000000000E+00  0.00000000000E+00  0.20354273068E+03  0.20354273068E+03  0.00000000000E+00 0. -1.
         -2   -1    0    0    0  501 -0.00000000000E+00 -0.00000000000E+00 -0.13200289225E+03  0.13200289225E+03  0.00000000000E+00 0.  1.
         23    2    1    2    0    0  0.10224225350E+03  0.49626745160E+02  0.80794055193E+02  0.16626787628E+03  0.90559566549E+02 0.  0.
          5    1    1    2  502    0 -0.64445768326E+02 -0.68838563318E+02  0.41415968778E+02  0.10307647513E+03  0.41800000000E+01 0. -1.
         -5    1    1    2    0  502 -0.37796485170E+02  0.19211818158E+02 -0.50670185543E+02  0.66201271522E+02  0.41800000000E+01 0. -1.
        -11    1    3    3    0    0  0.79497101569E+02 -0.63726172700E+00  0.77459785912E+02  0.11099645802E+03  0.00000000000E+00 0.  1.
         11    1    3    3    0    0  0.22745151927E+02  0.50264006887E+02  0.33342692808E+01  0.55271418257E+02  0.00000000000E+00 0. -1.
</event>
<event>
 7    1  0.4096326E-006  0.1538405E+03  0.7561462E-02  0.1195832E+00
          2   -1    0    0  501    0  0.00000000000E+00  0.00000000000E+00  0.69996601065E+03  0.69996601065E+03  0.00000000000E+00 0. -1.
         -2   -1    0    0    0  501 -0.00000000000E+00 -0.00000000000E+00 -0.41117277946E+02  0.41117277946E+02  0.00000000000E+00 0.  1.
         23    2    1    2    0    0  0.82919606794E+02  0.89090257011E+02  0.43696675185E+03  0.45877756270E+03  0.68732632210E+02 0.  0.
          5    1    1    2  502    0  0.11969465920E+02 -0.77247753769E+02  0.88811385240E+02  0.11838673120E+03  0.41800000000E+01 0.  1.
         -5    1    1    2    0  502 -0.94889072714E+02 -0.11842503242E+02  0.13307059561E+03  0.16391899469E+03  0.41800000000E+01 0.  1.
        -11    1    3    3    0    0  0.18104169577E+02  0.59939779100E+02  0.27270126943E+03  0.27979728451E+03  0.00000000000E+00 0.  1.
         11    1    3    3    0    0  0.64815437217E+02  0.29150477911E+02  0.16426548243E+03  0.17898027819E+03  0.00000000000E+00 0. -1.
</event>
<event>
 7    1  0.4096326E-006  0.7613499E+02  0.7561462E-02  0.1340392E+00
         -1   -1    0    0    0  501 -0.00000000000E+00  0.00000000000E+00  0.12706994667E+02  0.12706994667E+02  0.00000000000E+00 0.  1.
          1   -1    0    0  501    0  0.00000000000E+00 -0.00000000000E+00 -0.94797835979E+03  0.94797835979E+03  0.00000000000E+00 0. -1.
         23    2    1    2    0    0 -0.17866551848E+02  0.29878007513E+01 -0.44883175317E+03  0.45809196803E+03  0.89834113170E+02 0.  0.
          5    1    1    2  502    0 -0.20716404165E+02  0.67428712734E+01 -0.44292653594E+03  0.44348170690E+03  0.41800000000E+01 0. -1.
         -5    1    1    2    0  502  0.38582956013E+02 -0.97306720248E+01 -0.43513076008E+02  0.59111679526E+02  0.41800000000E+01 0. -1.
        -11    1    3    3    0    0 -0.41969674617E+01 -0.42434638148E+02 -0.25498149715E+03  0.25852248827E+03  0.00000000000E+00 0. -1.
         11    1    3    3    0    0 -0.13669584387E+02  0.45422438900E+02 -0.19385025602E+03  0.19956947976E+03  0.00000000000E+00 0.  1.
</event>
<event>
 7    1  0.4096326E-006  0.8486952E+02  0.7561462E-02  0.1315774E+00
         -2   -1    0    0    0  501 -0.00000000000E+00  0.00000000000E+00  0.46122911029E+02  0.46122911029E+02  0.00000000000E+00 0.  1.
          2   -1    0    0  501    0  0.00000000000E+00 -0.00000000000E+00 -0.31838950578E+03  0.31838950578E+03  0.00000000000E+00 0. -1.
         23    2    1    2    0    0 -0.39256334010E+02  0.10919999869E+02 -0.16935914640E+03  0.19748925334E+03  0.93054707338E+02 0.  0.
          5    1    1    2  502    0  0.61920079950E+02 -0.20869089295E+02 -0.11996788691E+03  0.13667253374E+03  0.41800000000E+01 0. -1.
         -5    1    1    2    0  502 -0.22663745939E+02  0.99490894255E+01  0.17060438569E+02  0.30350629723E+02  0.41800000000E+01 0. -1.
        -11    1    3    3    0    0 -0.19358839219E+02 -0.28820075418E+02 -0.16763846593E+02  0.38553702230E+02  0.00000000000E+00 0.  1.
         11    1    3    3    0    0 -0.19897494792E+02  0.39740075288E+02 -0.15259529981E+03  0.15893555111E+03  0.00000000000E+00 0. -1.
</event>
<event>
 7    1  0.4096326E-006  0.1495533E+03  0.7561462E-02  0.1201023E+00
          1   -1    0    0  501    0  0.00000000000E+00  0.00000000000E+00  0.34597348151E+02  0.34597348151E+02  0.00000000000E+00 0. -1.
         -1   -1    0    0    0  501 -0.00000000000E+00 -0.00000000000E+00 -0.88413945147E+03  0.88413945147E+03  0.00000000000E+00 0.  1.
         23    2    1    2    0    0 -0.53548130253E+02 -0.12484173736E+03 -0.36064089644E+03  0.39612297851E+03  0.91644401251E+02 0.  0.
          5    1    1    2  502    0  0.53681344279E+02  0.84674101431E+02 -0.46496303881E+03  0.47566741536E+03  0.41800000000E+01 0. -1.
         -5    1    1    2    0  502 -0.13321402628E+00  0.40167635927E+02 -0.23938168066E+02  0.46946405744E+02  0.41800000000E+01 0. -1.
        -11    1    3    3    0    0 -0.20432785177E+02 -0.12355993525E+03 -0.32030903689E+03  0.34392213569E+03  0.00000000000E+00 0.  1.
         11    1    3    3    0    0 -0.33115345076E+02 -0.12818021119E+01 -0.40331859556E+02  0.52200842823E+02  0.00000000000E+00 0. -1.
</event>
<event>
 7    1  0.4096326E-006  0.2202791E+03  0.7561462E-02  0.1133675E+00
          1   -1    0    0  501    0  0.00000000000E+00  0.00000000000E+00  0.92074685657E+03  0.92074685657E+03  0.00000000000E+00 0. -1.
         -1   -1    0    0    0  501 -0.00000000000E+00 -0.00000000000E+00 -0.70642942288E+02  0.70642942288E+02  0.00000000000E+00 0.  1.
         23    2    1    2    0    0 -0.70932510230E+02 -0.18319813129E+03  0.64908119091E+03  0.68373588032E+03  0.87151507915E+02 0.  0.
          5    1    1    2  502    0 -0.11391223904E+02  0.12374712041E+03  0.72968273257E+02  0.14416986888E+03  0.41800000000E+01 0. -1.
         -5    1    1    2    0  502  0.82323734134E+02  0.59451010884E+02  0.12805445011E+03  0.16348404965E+03  0.41800000000E+01 0. -1.
        -11    1    3    3    0    0 -0.73139285586E+02 -0.69590187942E+02  0.28654946525E+03  0.30381366887E+03  0.00000000000E+00 0. -1.
         11    1    3    3    0    0  0.22067753559E+01 -0.11360794335E+03  0.36253172566E+03  0.37992221145E+03  0.00000000000E+00 0.  1.
</event>
<event>
 7    1  0.4096326E-006  0.7282783E+02  0.7561462E-02  0.1350733E+00
         -1   -1    0    0    0  501 -0.00000000000E+00  0.00000000000E+00  0.10190848740E+03  0.10190848740E+03  0.00000000000E+00 0.  1.
          1   -1    0    0  501    0  0.00000000000E+00 -0.00000000000E+00 -0.14980122657E+03  0.14980122657E+03  0.00000000000E+00 0. -1.
         23    2    1    2    0    0  0.23970681226E+02 -0.46072564275E+02 -0.48189202701E+02  0.11625670463E+03  0.92174548428E+02 0.  0.
          5    1    1    2  502    0 -0.41951200825E+01  0.37341256151E+01  0.59501963130E+02  0.59912425613E+02  0.41800000000E+01 0. -1.
         -5    1    1    2    0  502 -0.19775561143E+02  0.42338438660E+02 -0.59205499596E+02  0.75540583723E+02  0.41800000000E+01 0. -1.
        -11    1    3    3    0    0 -0.25824143121E+02 -0.29619214207E+02 -0.50229289035E+02  0.63774334141E+02  0.00000000000E+00 0. -1.
         11    1    3    3    0    0  0.49794824347E+02 -0.16453350068E+02  0.20400863336E+01  0.52482370492E+02  0.00000000000E+00 0.  1.
</event>
<event>
 7    1  0.4096326E-006  0.7860723E+02  0.7561462E-02  0.1333051E+00
          2   -1    0    0  501    0  0.00000000000E+00  0.00000000000E+00  0.12770674418E+03  0.12770674418E+03  0.00000000000E+00 0. -1.
         -2   -1    0    0    0  501 -0.00000000000E+00 -0.00000000000E+00 -0.11201799767E+03  0.11201799767E+03  0.00000000000E+00 0.  1.
         23    2    1    2    0    0  0.24853730335E+02 -0.28960945494E+02  0.40343782433E+02  0.10660324353E+03  0.90995529966E+02 0.  0.
          5    1    1    2  502    0 -0.41761162934E+02  0.20903479863E+02 -0.69789234788E+02  0.84077106826E+02  0.41800000000E+01 0.  1.
         -5    1    1    2    0  502  0.16907432599E+02  0.80574656304E+01  0.45134198868E+02  0.49044391493E+02  0.41800000000E+01 0.  1.
        -11    1    3    3    0    0  0.36892938387E+02 -0.52810704976E+02  0.84098540855E+01  0.64967569668E+02  0.00000000000E+00 0. -1.
         11    1    3    3    0    0 -0.12039208052E+02  0.23849759482E+02  0.31933928347E+02  0.41635673857E+02  0.00000000000E+00 0.  1.
</event>
<event>
 7    1  0.4096326E-006  0.9034355E+02  0.7561462E-02  0.1302022E+00
          1   -1    0    0  501    0  0.00000000000E+00  0.00000000000E+00  0.24720179697E+03  0.24720179697E+03  0.00000000000E+00 0. -1.
         -1   -1    0    0    0  501 -0.00000000000E+00 -0.00000000000E+00 -0.58148659253E+02  0.58148659253E+02  0.00000000000E+00 0.  1.
         23    2    1    2    0    0 -0.36459328431E+02  0.28775415579E+02  0.62699355243E+02  0.12158388196E+03  0.93242286721E+02 0.  0.
          5    1    1    2  502    0  0.39332592453E+02 -0.68255701141E+02  0.11977704436E+03  0.14342212634E+03  0.41800000000E+01 0.  1.
         -5    1    1    2    0  502 -0.28732640225E+01  0.39480285563E+02  0.65767381125E+01  0.40344447926E+02  0.41800000000E+01 0.  1.
        -11    1    3    3    0    0  0.67440507141E+01  0.15328231577E+02  0.73235417382E+02  0.75125649830E+02  0.00000000000E+00 0. -1.
         11    1    3    3    0    0 -0.43203379145E+02  0.13447184002E+02 -0.10536062139E+02  0.46458232129E+02  0.00000000000E+00 0.  1.
</event>
<event>
 7    1  0.4096326E-006  0.1078405E+03  0.7561462E-02  0.1264622E+00
          1   -1    0    0  501    0  0.00000000000E+00  0.00000000000E+00  0.27500325088E+03  0.27500325088E+03  0.00000000000E+00 0. -1.
         -1   -1    0    0    0  501 -0.00000000000E+00 -0.00000000000E+00 -0.50844330924E+02  0.50844330924E+02  0.00000000000E+00 0.  1.
         23    2    1    2    0    0  0.16870601242E+02 -0.37841784744E+02  0.14627937150E+03  0.17278626228E+03  0.82102497212E+02 0.  0.
          5    1    1    2  502    0 -0.62347633889E+02  0.47980388042E+02  0.70461989355E+02  0.10569630756E+03  0.41800000000E+01 0. -1.
         -5    1    1    2    0  502  0.45477032647E+02 -0.10138603298E+02  0.74175591065E+01  0.47365011964E+02  0.41800000000E+01 0. -1.
        -11    1    3    3    0    0 -0.25204092536E+02  0.93590936241E+01  0.60640933943E+02  0.66333715285E+02  0.00000000000E+00 0.  1.
         11    1    3    3    0    0  0.42074693777E+02 -0.47200878368E+02  0.85638437554E+02  0.10645254700E+03  0.00000000000E+00 0. -1.
</event>
<event>
 7    1  0.4096326E-006  0.7589351E+02  0.7561462E-02  0.1341126E+00
          1   -1    0    0  501    0  0.00000000000E+00  0.00000000000E+00  0.16607646879E+03  0.16607646879E+03  0.00000000000E+00 0. -1.
         -1   -1    0    0    0  501 -0.00000000000E+00 -0.00000000000E+00 -0.82856340978E+02  0.82856340978E+02  0.00000000000E+00 0.  1.
         23    2    1    2    0    0 -0.52627913810E+01  0.15951374502E+01  0.63951155365E+02  0.11163962811E+03  0.91342294996E+02 0.  0.
          5    1    1    2  502    0 -0.42214861010E+00 -0.49180633737E+02 -0.38151082064E+02  0.62385017488E+02  0.41800000000E+01 0. -1.
         -5    1    1    2    0  502  0.56849399911E+01  0.47585496287E+02  0.57420054514E+02  0.74908164175E+02  0.41800000000E+01 0.  1.
        -11    1    3    3    0    0  0.24503345370E+02  0.15966676578E+01 -0.13952870298E+02  0.28242625081E+02  0.00000000000E+00 0.  1.
         11    1    3    3    0    0 -0.29766136751E+02 -0.15302075652E-02  0.77904025664E+02  0.83397003028E+02  0.00000000000E+00 0. -1.
</event>
<event>
 7    1  0.4096326E-006  0.3174826E+03  0.7561462E-02  0.1076814E+00
          1   -1    0    0  501    0  0.00000000000E+00  0.00000000000E+00  0.32636707187E+03  0.32636707187E+03  0.00000000000E+00 0. -1.
         -1   -1    0    0    0  501 -0.00000000000E+00 -0.00000000000E+00 -0.37523939526E+03  0.37523939526E+03  0.00000000000E+00 0.  1.
         23    2    1    2    0    0 -0.20198696039E+03 -0.23544924196E+03  0.92836358879E+02  0.33833840613E+03  0.98077570465E+02 0.  0.
          5    1    1    2  502    0  0.45495316559E+02  0.58425156190E+02  0.20127000431E+02  0.76849796688E+02  0.41800000000E+01 0. -1.
         -5    1    1    2    0  502  0.15649164383E+03  0.17702408577E+03 -0.16183568271E+03  0.28641826431E+03  0.41800000000E+01 0. -1.
        -11    1    3    3    0    0 -0.95917861963E+02 -0.43812259681E+02  0.41838482679E+02  0.11344694344E+03  0.00000000000E+00 0. -1.
         11    1    3    3    0    0 -0.10606909843E+03 -0.19163698228E+03  0.50997876199E+02  0.22489146270E+03  0.00000000000E+00 0.  1.
</event>
<event>
 7    1  0.4096326E-006  0.1249852E+03  0.7561462E-02  0.1235092E+00
         -2   -1    0    0    0  501 -0.00000000000E+00  0.00000000000E+00  0.12952472465E+03  0.12952472465E+03  0.00000000000E+00 0.  1.
          2   -1    0    0  501    0  0.00000000000E+00 -0.00000000000E+00 -0.12133661915E+03  0.12133661915E+03  0.00000000000E+00 0. -1.
         23    2    1    2    0    0 -0.27407079841E+02  0.59096851735E+02  0.44046798857E+01  0.10977522021E+03  0.88247446739E+02 0.  0.
          5    1    1    2  502    0  0.69494475315E+02 -0.68501698149E+02  0.11125501849E+01  0.97676378498E+02  0.41800000000E+01 0. -1.
         -5    1    1    2    0  502 -0.42087395474E+02  0.94048464135E+01  0.26708754347E+01  0.43409745097E+02  0.41800000000E+01 0. -1.
        -11    1    3    3    0    0  0.19142349919E+02  0.59414867419E+02 -0.36673110397E+01  0.62530034392E+02  0.00000000000E+00 0. -1.
         11    1    3    3    0    0 -0.46549429761E+02 -0.31801568372E+00  0.80719909254E+01  0.47245185813E+02  0.00000000000E+00 0.  1.
</event>
<event>
 7    1  0.4096326E-006  0.1833704E+03  0.7561462E-02  0.1164580E+00
         -2   -1    0    0    0  501 -0.00000000000E+00  0.00000000000E+00  0.62111798386E+02  0.62111798386E+02  0.00000000000E+00 0.  1.
          2   -1    0    0  501    0  0.00000000000E+00 -0.00000000000E+00 -0.56567442450E+03  0.56567442450E+03  0.00000000000E+00 0. -1.
         23    2    1    2    0    0  0.15239989441E+03 -0.17789542694E+02 -0.23536284985E+03  0.29443953342E+03  0.88072538871E+02 0.  0.
          5    1    1    2  502    0 -0.22179708857E+02  0.51900226622E+02 -0.12246742645E+03  0.13491225278E+03  0.41800000000E+01 0.  1.
         -5    1    1    2    0  502 -0.13022018555E+03 -0.34110683928E+02 -0.14573234980E+03  0.19843443668E+03  0.41800000000E+01 0.  1.
        -11    1    3    3    0    0  0.14255127582E+03  0.12997778900E+02 -0.20544691444E+03  0.25039617239E+03  0.00000000000E+00 0. -1.
         11    1    3    3    0    0  0.98486185867E+01 -0.30787321593E+02 -0.29915935414E+02  0.44043361028E+02  0.00000000000E+00 0.  1.
</event>
<event>
 7    1  0.4096326E-006  0.1199321E+03  0.7561462E-02  0.1243209E+00
          1   -1    0    0  501    0  0.00000000000E+00  0.00000000000E+00  0.51517831845E+02  0.51517831845E+02  0.00000000000E+00 0. -1.
         -1   -1    0    0    0  501 -0.00000000000E+00 -0.00000000000E+00 -0.61964725376E+03  0.61964725376E+03  0.00000000000E+00 0.  1.
         23    2    1    2    0    0  0.13510137746E+02  0.10234296698E+03 -0.75842163879E+02  0.15284928561E+03  0.83392227325E+02 0.  0.
          5    1    1    2  502    0 -0.12269511340E+02  0.14465387510E+02 -0.95796201741E+01  0.21657097382E+02  0.41800000000E+01 0. -1.
         -5    1    1    2    0  502 -0.12406264059E+01 -0.11680835449E+03 -0.48270763786E+03  0.49665870261E+03  0.41800000000E+01 0. -1.
        -11    1    3    3    0    0 -0.23681829997E+00  0.24668987130E+02 -0.69459380879E+02  0.73710383264E+02  0.00000000000E+00 0.  1.
         11    1    3    3    0    0  0.13746956046E+02  0.77673979846E+02 -0.63827829999E+01  0.79138902346E+02  0.00000000000E+00 0. -1.
</event>
<event>
 7    1  0.4096326E-006  0.1511881E+03  0.7561462E-02  0.1199021E+00
          1   -1    0    0  501    0  0.00000000000E+00  0.00000000000E+00  0.40576851080E+03  0.40576851080E+03  0.00000000000E+00 0. -1.
         -1   -1    0    0    0  501 -0.00000000000E+00 -0.00000000000E+00 -0.79675380153E+02  0.79675380153E+02  0.00000000000E+00 0.  1.
         23    2    1    2    0    0  0.28304075829E+02  0.10205120319E+03  0.28424212551E+03  0.31628361800E+03  0.89588907364E+02 0.  0.
          5    1    1    2  502    0 -0.40289625344E+02 -0.12828673422E+03  0.37768923653E+02  0.13973082724E+03  0.41800000000E+01 0.  1.
         -5    1    1    2    0  502  0.11985549515E+02  0.26235531029E+02  0.40820814883E+01  0.29429445711E+02  0.41800000000E+01 0.  1.
        -11    1    3    3    0    0 -0.18844050264E+02  0.87283872256E+02  0.18506343594E+03  0.20548004261E+03  0.00000000000E+00 0. -1.
         11    1    3    3    0    0  0.47148126093E+02  0.14767330936E+02  0.99178689561E+02  0.11080357539E+03  0.00000000000E+00 0.  1.
</event>
<event>
 7    1  0.4096326E-006  0.1099537E+03  0.7561462E-02  0.1260656E+00
         -4   -1    0    0    0  501 -0.00000000000E+00  0.00000000000E+00  0.78677207775E+03  0.78677207775E+03  0.00000000000E+00 0.  1.
          4   -1    0    0  501    0  0.00000000000E+00 -0.00000000000E+00 -0.31855304529E+02  0.31855304529E+02  0.00000000000E+00 0. -1.
         23    2    1    2    0    0  0.26807590527E+02  0.29793207481E+01  0.74695562966E+02  0.12062921480E+03  0.90798992689E+02 0.  0.
          5    1    1    2  502    0 -0.97164541089E+01 -0.62366721415E+02  0.13293587235E+03  0.14721900685E+03  0.41800000000E+01 0. -1.
         -5    1    1    2    0  502 -0.17091136418E+02  0.59387400667E+02  0.54728533790E+03  0.55077916063E+03  0.41800000000E+01 0.  1.
        -11    1    3    3    0    0  0.27456026085E+02 -0.41754411307E+02  0.38559752689E+02  0.63119876105E+02  0.00000000000E+00 0.  1.
         11    1    3    3    0    0 -0.64843555848E+00  0.44733732055E+02  0.36135810277E+02  0.57509338691E+02  0.00000000000E+00 0. -1.
</event>
<event>
 7    1  0.4096326E-006  0.8427647E+02  0.7561462E-02  0.1317336E+00
         -2   -1    0    0    0  501 -0.00000000000E+00  0.00000000000E+00  0.18674565533E+03  0.18674565533E+03  0.00000000000E+00 0.  1.
          2   -1    0    0  501    0  0.00000000000E+00 -0.00000000000E+00 -0.92559869416E+02  0.92559869416E+02  0.00000000000E+00 0. -1.
         23    2    1    2    0    0 -0.61249224526E+02 -0.17155126431E+02 -0.32162708957E+01  0.10848329269E+03  0.87820923059E+02 0.  0.
          5    1    1    2  502    0  0.20945943596E+02  0.40149822229E+02 -0.16010145254E+02  0.48213462116E+02  0.41800000000E+01 0. -1.
         -5    1    1    2    0  502  0.40303280931E+02 -0.22994695798E+02  0.11341220206E+03  0.12260876994E+03  0.41800000000E+01 0. -1.
        -11    1    3    3    0    0 -0.28104417390E+02 -0.29844910973E+02 -0.40065463845E+02  0.57322058415E+02  0.00000000000E+00 0. -1.
         11    1    3    3    0    0 -0.33144807136E+02  0.12689784541E+02  0.36849192949E+02  0.51161234278E+02  0.00000000000E+00 0.  1.
</event>
<event>
 7    1  0.4096326E-006  0.8799147E+02  0.7561462E-02  0.1307790E+00
          1   -1    0    0  501    0  0.00000000000E+00  0.00000000000E+00  0.43425706175E+03  0.43425706175E+03  0.00000000000E+00 0. -1.
         -1   -1    0    0    0  501 -0.00000000000E+00 -0.00000000000E+00 -0.37755319680E+02  0.37755319680E+02  0.00000000000E+00 0.  1.
         23    2    1    2    0    0  0.18260580786E+01 -0.50103454319E+02  0.26250598699E+03  0.28197334215E+03  0.89921531664E+02 0.  0.
          5    1    1    2  502    0 -0.34792632356E+02  0.17014274747E+02  0.13759775817E+03  0.14300569312E+03  0.41800000000E+01 0. -1.
         -5    1    1    2    0  502  0.32966574277E+02  0.33089179572E+02 -0.36020030907E+01  0.47033346155E+02  0.41800000000E+01 0. -1.
        -11    1    3    3    0    0  0.36904422657E+02 -0.13139494178E+02  0.50411002921E+02  0.63842399190E+02  0.00000000000E+00 0.  1.
         11    1    3    3    0    0 -0.35078364578E+02 -0.36963960141E+02  0.21209498407E+03  0.21813094296E+03  0.00000000000E+00 0. -1.
</event>
<event>
 7    1  0.4096326E-006  0.8963591E+02  0.7561462E-02  0.1303736E+00
          2   -1    0    0  501    0  0.00000000000E+00  0.00000000000E+00  0.20724754470E+03  0.20724754470E+03  0.00000000000E+00 0. -1.
         -2   -1    0    0    0  501 -0.00000000000E+00 -0.00000000000E+00 -0.88756927525E+02  0.88756927525E+02  0.00000000000E+00 0.  1.
         23    2    1    2    0    0  0.71240797412E+02  0.20971431325E+02  0.89452994873E+02  0.14765920231E+03  0.91029388588E+02 0.  0.
          5    1    1    2  502    0 -0.66069112552E+02  0.40697919554E+01 -0.38024120191E+02  0.76452579788E+02  0.41800000000E+01 0.  1.
         -5    1    1    2    0  502 -0.51716848605E+01 -0.25041223281E+02  0.67061742493E+02  0.71892690129E+02  0.41800000000E+01 0.  1.
        -11    1    3    3    0    0  0.40586797662E+02  0.34747586399E+02  0.99194370427E+02  0.11266856718E+03  0.00000000000E+00 0. -1.
         11    1    3    3    0    0  0.30653999750E+02 -0.13776155074E+02 -0.97413755541E+01  0.34990635133E+02  0.00000000000E+00 0.  1.
</event>
<event>
 7    1  0.4096326E-006  0.1388402E+03  0.7561462E-02  0.1214898E+00
          1   -1    0    0  501    0  0.00000000000E+00  0.00000000000E+00  0.75601923917E+03  0.75601923917E+03  0.00000000000E+00 0. -1.
         -1   -1    0    0    0  501 -0.00000000000E+00 -0.00000000000E+00 -0.38049938514E+02  0.38049938514E+02  0.00000000000E+00 0.  1.
         23    2    1    2    0    0 -0.93444489009E+02 -0.29358396539E+02  0.53621244378E+03  0.55266483151E+03  0.91218655733E+02 0.  0.
          5    1    1    2  502    0  0.97820960316E+02 -0.26697133303E+02  0.12952268439E+03  0.16454566350E+03  0.41800000000E+01 0.  1.
         -5    1    1    2    0  502 -0.43764713068E+01  0.56055529842E+02  0.52234172480E+02  0.76858682669E+02  0.41800000000E+01 0.  1.
        -11    1    3    3    0    0 -0.43678108731E+02  0.21478304189E+02  0.10639823859E+03  0.11700290555E+03  0.00000000000E+00 0.  1.
         11    1    3    3    0    0 -0.49766380278E+02 -0.50836700728E+02  0.42981420519E+03  0.43566192596E+03  0.00000000000E+00 0. -1.
</event>
<event>
 7    1  0.4096326E-006  0.1054475E+03  0.7561462E-02  0.1269240E+00
          4   -1    0    0  501    0  0.00000000000E+00  0.00000000000E+00  0.81965151738E+02  0.81965151738E+02  0.00000000000E+00 0.  1.
         -4   -1    0    0    0  501 -0.00000000000E+00 -0.00000000000E+00 -0.39760173952E+03  0.39760173952E+03  0.00000000000E+00 0. -1.
         23    2    1    2    0    0  0.87054120735E+02  0.16060166866E+02  0.27212336229E+01  0.12624823490E+03  0.89971455505E+02 0.  0.
          5    1    1    2  502    0 -0.36610987322E+02 -0.63112213438E+01 -0.73915100874E+01  0.38109089846E+02  0.41800000000E+01 0.  1.
         -5    1    1    2    0  502 -0.50443133413E+02 -0.97489455227E+01 -0.31096631131E+03  0.31520956651E+03  0.41800000000E+01 0.  1.
        -11    1    3    3    0    0  0.60149266960E+01 -0.28741685101E+02  0.14768356111E+02  0.32868954164E+02  0.00000000000E+00 0. -1.
         11    1    3    3    0    0  0.81039194039E+02  0.44801851968E+02 -0.12047122488E+02  0.93379280734E+02  0.00000000000E+00 0.  1.
</event>
<event>
 7    1  0.4096326E-006  0.1689017E+03  0.7561462E-02  0.1178998E+00
          1   -1    0    0  501    0  0.00000000000E+00  0.00000000000E+00  0.53355798627E+02  0.53355798627E+02  0.00000000000E+00 0. -1.
         -1   -1    0    0    0  501 -0.00000000000E+00 -0.00000000000E+00 -0.55245354931E+03  0.55245354931E+03  0.00000000000E+00 0.  1.
         23    2    1    2    0    0  0.94237992373E+02 -0.92457562061E+02 -0.19863237412E+03  0.25459707561E+03  0.89082270222E+02 0.  0.
          5    1    1    2  502    0 -0.87050135073E+02  0.11086961303E+01 -0.17811363833E+03  0.19829497165E+03  0.41800000000E+01 0.  1.
         -5    1    1    2    0  502 -0.71878572995E+01  0.91348865931E+02 -0.12235173823E+03  0.15291730068E+03  0.41800000000E+01 0.  1.
        -11    1    3    3    0    0 -0.59246822627E+01  0.12502948019E+02 -0.12909429201E+02  0.18922973640E+02  0.00000000000E+00 0. -1.
         11    1    3    3    0    0  0.10016267464E+03 -0.10496051008E+03 -0.18572294492E+03  0.23567410197E+03  0.00000000000E+00 0.  1.
</event>
<event>
 7    1  0.4096326E-006  0.1097409E+03  0.7561462E-02  0.1261050E+00
          3   -1    0    0  501    0  0.00000000000E+00  0.00000000000E+00  0.87263901909E+02  0.87263901909E+02  0.00000000000E+00 0. -1.
         -3   -1    0    0    0  501 -0.00000000000E+00 -0.00000000000E+00 -0.18912516773E+03  0.18912516773E+03  0.00000000000E+00 0.  1.
         23    2    1    2    0    0  0.28020503595E+01  0.40323906306E+00  0.18305434221E+02  0.10290817947E+03  0.10122741917E+03 0.  0.
          5    1    1    2  502    0  0.57952588353E+02  0.19096656459E+02 -0.60188624363E+02  0.85809834445E+02  0.41800000000E+01 0. -1.
         -5    1    1    2    0  502 -0.60754638713E+02 -0.19499895522E+02 -0.59978075678E+02  0.87671055728E+02  0.41800000000E+01 0. -1.
        -11    1    3    3    0    0  0.97197742317E+01 -0.46226191997E+02  0.27816155030E+02  0.54818549035E+02  0.00000000000E+00 0. -1.
         11    1    3    3    0    0 -0.69177238722E+01  0.46629431060E+02 -0.95107208094E+01  0.48089630430E+02  0.00000000000E+00 0.  1.
</event>
<event>
 7    1  0.4096326E-006  0.9420887E+02  0.7561462E-02  0.1292968E+00
          2   -1    0    0  501    0  0.00000000000E+00  0.00000000000E+00  0.13609333917E+03  0.13609333917E+03  0.00000000000E+00 0. -1.
         -2   -1    0    0    0  501 -0.00000000000E+00 -0.00000000000E+00 -0.13250631911E+03  0.13250631911E+03  0.00000000000E+00 0.  1.
         23    2    1    2    0    0 -0.44253077305E+02  0.59325847423E+00  0.70531196621E+02  0.11998077890E+03  0.86383162720E+02 0.  0.
          5    1    1    2  502    0  0.45642181501E+02 -0.58330391782E+02 -0.44564639387E+02  0.86539718172E+02  0.41800000000E+01 0.  1.
         -5    1    1    2    0  502 -0.13891041960E+01  0.57737133308E+02 -0.22379537173E+02  0.62079161215E+02  0.41800000000E+01 0.  1.
        -11    1    3    3    0    0 -0.31233425834E+01 -0.12720972036E+02 -0.17528244903E+02  0.21881905031E+02  0.00000000000E+00 0.  1.
         11    1    3    3    0    0 -0.41129734721E+02  0.13314230510E+02  0.88059441524E+02  0.98098873866E+02  0.00000000000E+00 0. -1.
</event>
<event>
 7    1  0.4096326E-006  0.9373859E+02  0.7561462E-02  0.1294043E+00
          3   -1    0    0  501    0  0.00000000000E+00  0.00000000000E+00  0.17459828309E+03  0.17459828309E+03  0.00000000000E+00 0. -1.
         -3   -1    0    0    0  501 -0.00000000000E+00 -0.00000000000E+00 -0.76316055543E+02  0.76316055543E+02  0.00000000000E+00 0.  1.
         23    2    1    2    0    0 -0.27680120284E+01  0.37871390082E+02  0.55515319039E+02  0.11337389100E+03  0.91267652733E+02 0.  0.
          5    1    1    2  502    0  0.18972691037E+02  0.38815925777E+02 -0.78951622874E+01  0.44118534502E+02  0.41800000000E+01 0. -1.
         -5    1    1    2    0  502 -0.16204679008E+02 -0.76687315859E+02  0.50662070794E+02  0.93421913129E+02  0.41800000000E+01 0. -1.
        -11    1    3    3    0    0 -0.27051420095E+02  0.29171671426E+02 -0.11626116570E+02  0.41447947228E+02  0.00000000000E+00 0.  1.
         11    1    3    3    0    0  0.24283408066E+02  0.86997186565E+01  0.67141435609E+02  0.71925943773E+02  0.00000000000E+00 0. -1.
</event>
<event>
 7    1  0.4096326E-006  0.1516797E+03  0.7561462E-02  0.1198424E+00
         -1   -1    0    0    0  501 -0.00000000000E+00  0.00000000000E+00  0.32111331086E+03  0.32111331086E+03  0.00000000000E+00 0.  1.
          1   -1    0    0  501    0  0.00000000000E+00 -0.00000000000E+00 -0.83973047266E+02  0.83973047266E+02  0.00000000000E+00 0. -1.
         23    2    1    2    0    0 -0.77056597109E+02  0.91246992442E+02  0.14351292161E+03  0.20842065665E+03  0.92625475232E+02 0.  0.
          5    1    1    2  502    0  0.68075493664E+02 -0.11707556374E+03  0.99850934031E+02  0.16831114607E+03  0.41800000000E+01 0. -1.
         -5    1    1    2    0  502  0.89811034450E+01  0.25828571300E+02 -0.62235920476E+01  0.28354555409E+02  0.41800000000E+01 0. -1.
        -11    1    3    3    0    0 -0.27690443134E+02 -0.84518982659E+01  0.68154569622E+02  0.74048906715E+02  0.00000000000E+00 0.  1.
         11    1    3    3    0    0 -0.49366153975E+02  0.99698890708E+02  0.75358351989E+02  0.13437174994E+03  0.00000000000E+00 0. -1.
</event>
<event>
 7    1  0.4096326E-006  0.9355376E+02  0.7561462E-02  0.1294467E+00
         -3   -1    0    0    0  501 -0.00000000000E+00  0.00000000000E+00  0.67165592225E+02  0.67165592225E+02  0.00000000000E+00 0.  1.
          3   -1    0    0  501    0  0.00000000000E+00 -0.00000000000E+00 -0.19671075947E+03  0.19671075947E+03  0.00000000000E+00 0. -1.
         23    2    1    2    0    0  0.33873374598E+02  0.16473262359E+02 -0.65636668990E+02  0.11845256856E+03  0.91126641560E+02 0.  0.
          5    1    1    2  502    0 -0.57480530556E+02 -0.44697571388E+02 -0.77082429899E+02  0.10611813078E+03  0.41800000000E+01 0.  1.
         -5    1    1    2    0  502  0.23607155958E+02  0.28224309028E+02  0.13173931643E+02  0.39305652360E+02  0.41800000000E+01 0.  1.
        -11    1    3    3    0    0  0.30855506872E+02 -0.22413987965E+02  0.42957582772E+01  0.38378414506E+02  0.00000000000E+00 0.  1.
         11    1    3    3    0    0  0.30178677269E+01  0.38887250325E+02 -0.69932427267E+02  0.80074154051E+02  0.00000000000E+00 0. -1.
</event>
<event>
 7    1  0.4096326E-006  0.8792442E+02  0.7561462E-02  0.1307957E+00
          3   -1    0    0  501    0  0.00000000000E+00  0.00000000000E+00  0.40040659919E+02  0.40040659919E+02  0.00000000000E+00 0.  1.
         -3   -1    0    0    0  501 -0.00000000000E+00 -0.00000000000E+00 -0.27169915738E+03  0.27169915738E+03  0.00000000000E+00 0. -1.
         23    2    1    2    0    0  0.95930192621E+01  0.10152099933E+02 -0.80660994288E+02  0.11516817041E+03  0.81008766955E+02 0.  0.
          5    1    1    2  502    0  0.47315572909E+02 -0.36576389490E+02 -0.95191389627E+02  0.11249652780E+03  0.41800000000E+01 0.  1.
         -5    1    1    2    0  502 -0.56908592171E+02  0.26424289557E+02 -0.55806113546E+02  0.84075119093E+02  0.41800000000E+01 0.  1.
        -11    1    3    3    0    0  0.18520266388E+02  0.27703392625E+02 -0.12446999962E+01  0.33347076455E+02  0.00000000000E+00 0.  1.
         11    1    3    3    0    0 -0.89272471255E+01 -0.17551292692E+02 -0.79416294292E+02  0.81821093952E+02  0.00000000000E+00 0. -1.
</event>
<event>
 7    1  0.4096326E-006  0.1214181E+03  0.7561462E-02  0.1240776E+00
          2   -1    0    0  501    0  0.00000000000E+00  0.00000000000E+00  0.37271508375E+03  0.37271508375E+03  0.00000000000E+00 0. -1.
         -2   -1    0    0    0  501 -0.00000000000E+00 -0.00000000000E+00 -0.47288968797E+02  0.47288968797E+02  0.00000000000E+00 0.  1.
         23    2    1    2    0    0  0.89369825392E+01  0.64499348050E+02  0.21042488920E+03  0.23803019693E+03  0.90220314246E+02 0.  0.
          5    1    1    2  502    0 -0.54139880122E+02 -0.41471659734E+00  0.78299600013E+02  0.95286926552E+02  0.41800000000E+01 0. -1.
         -5    1    1    2    0  502  0.45202897583E+02 -0.64084631453E+02  0.36701625744E+02  0.86686929064E+02  0.41800000000E+01 0. -1.
        -11    1    3    3    0    0  0.12893366072E+02  0.86596419323E+02  0.15156278308E+03  0.17503272821E+03  0.00000000000E+00 0.  1.
         11    1    3    3    0    0 -0.39563835327E+01 -0.22097071273E+02  0.58862106118E+02  0.62997468728E+02  0.00000000000E+00 0. -1.
</event>
<event>
 7    1  0.4096326E-006  0.1056876E+03  0.7561462E-02  0.1268771E+00
         -2   -1    0    0    0  501 -0.00000000000E+00  0.00000000000E+00  0.13442648623E+03  0.13442648623E+03  0.00000000000E+00 0.  1.
          2   -1    0    0  501    0  0.00000000000E+00 -0.00000000000E+00 -0.89966589760E+02  0.89966589760E+02  0.00000000000E+00 0. -1.
         23    2    1    2    0    0  0.87421179271E+01  0.59401398263E+01  0.58441996845E+00  0.91410081658E+02  0.90795107771E+02 0.  0.
          5    1    1    2  502    0 -0.31691191207E+02 -0.56163656290E+02  0.42958843386E+02  0.77599114125E+02  0.41800000000E+01 0.  1.
         -5    1    1    2    0  502  0.22949073280E+02  0.50223516463E+02  0.91663311498E+00  0.55383880206E+02  0.41800000000E+01 0.  1.
        -11    1    3    3    0    0  0.49752574734E+02 -0.11033558300E+01  0.15318807096E+01  0.49788379621E+02  0.00000000000E+00 0.  1.
         11    1    3    3    0    0 -0.41010456807E+02  0.70434956562E+01 -0.94746074116E+00  0.41621702037E+02  0.00000000000E+00 0. -1.
</event>
<event>
 7    1  0.4096326E-006  0.1208752E+03  0.7561462E-02  0.1241660E+00
         -2   -1    0    0    0  501 -0.00000000000E+00  0.00000000000E+00  0.14477216789E+03  0.14477216789E+03  0.00000000000E+00 0.  1.
          2   -1    0    0  501    0  0.00000000000E+00 -0.00000000000E+00 -0.11091279499E+03  0.11091279499E+03  0.00000000000E+00 0. -1.
         23    2    1    2    0    0 -0.61416494680E+02 -0.21047203108E+02 -0.69278707934E+00  0.11057566606E+03  0.89507135990E+02 0.  0.
          5    1    1    2  502    0 -0.22022210066E+02  0.41006973766E+02 -0.10816888936E+02  0.47969022503E+02  0.41800000000E+01 0. -1.
         -5    1    1    2    0  502  0.83438704746E+02 -0.19959770658E+02  0.45369048911E+02  0.97140274313E+02  0.41800000000E+01 0. -1.
        -11    1    3    3    0    0 -0.76967993702E+02 -0.38236239556E+02 -0.78907863567E+01  0.86303803967E+02  0.00000000000E+00 0.  1.
         11    1    3    3    0    0  0.15551499022E+02  0.17189036448E+02  0.71979992774E+01  0.24271862092E+02  0.00000000000E+00 0. -1.
</event>
<event>
 7    1  0.4096326E-006  0.2113980E+03  0.7561462E-02  0.1140464E+00
         -1   -1    0    0    0  501 -0.00000000000E+00  0.00000000000E+00  0.63083443794E+02  0.63083443794E+02  0.00000000000E+00 0.  1.
          1   -1    0    0  501    0  0.00000000000E+00 -0.00000000000E+00 -0.77608114123E+03  0.77608114123E+03  0.00000000000E+00 0. -1.
         23    2    1    2    0    0 -0.16179262153E+03 -0.10105728967E+03 -0.28916905336E+03  0.35784650573E+03  0.89699231129E+02 0.  0.
          5    1    1    2  502    0  0.65060739013E+02  0.99934616959E+02 -0.30825844217E+03  0.33054586217E+03  0.41800000000E+01 0.  1.
         -5    1    1    2    0  502  0.96731882513E+02  0.11226727084E+01 -0.11557020190E+03  0.15077221712E+03  0.41800000000E+01 0.  1.
        -11    1    3    3    0    0 -0.70936318167E+02 -0.24822177604E+00 -0.67412797127E+02  0.97859634506E+02  0.00000000000E+00 0.  1.
         11    1    3    3    0    0 -0.90856303360E+02 -0.10080906789E+03 -0.22175625623E+03  0.25998687122E+03  0.00000000000E+00 0. -1.
</event>
<event>
 7    1  0.4096326E-006  0.8616600E+02  0.7561462E-02  0.1312411E+00
          2   -1    0    0  501    0  0.00000000000E+00  0.00000000000E+00  0.68280051668E+02  0.68280051668E+02  0.00000000000E+00 0. -1.
         -2   -1    0    0    0  501 -0.00000000000E+00 -0.00000000000E+00 -0.23353189701E+03  0.23353189701E+03  0.00000000000E+00 0.  1.
         23    2    1    2    0    0 -0.34601412232E+02  0.13488884580E+02 -0.16824576802E+02  0.10418148748E+03  0.95872353750E+02 0.  0.
          5    1    1    2  502    0  0.71281997817E+02  0.60807681790E+01 -0.41460165415E+02  0.82792008495E+02  0.41800000000E+01 0.  1.
         -5    1    1    2    0  502 -0.36680585584E+02 -0.19569652759E+02 -0.10696710313E+03  0.11483845270E+03  0.41800000000E+01 0.  1.
        -11    1    3    3    0    0 -0.14836203743E+02 -0.16991485934E+02  0.34549225849E+02  0.41261029344E+02  0.00000000000E+00 0. -1.
         11    1    3    3    0    0 -0.19765208489E+02  0.30480370515E+02 -0.51373802651E+02  0.62920458137E+02  0.00000000000E+00 0.  1.
</event>
<event>
 7    1  0.4096326E-006  0.1307434E+03  0.7561462E-02  0.1226357E+00
          1   -1    0    0  501    0  0.00000000000E+00  0.00000000000E+00  0.48123780759E+03  0.48123780759E+03  0.00000000000E+00 0. -1.
         -1   -1    0    0    0  501 -0.00000000000E+00 -0.00000000000E+00 -0.41584696357E+02  0.41584696357E+02  0.00000000000E+00 0.  1.
         23    2    1    2    0    0  0.14858033104E+02 -0.77248425526E+02  0.27843452437E+03  0.30412981474E+03  0.93707414110E+02 0.  0.
          5    1    1    2  502    0  0.40743718327E+02 -0.53595204037E+01  0.80351302556E+02  0.90346993666E+02  0.41800000000E+01 0.  1.
         -5    1    1    2    0  502 -0.55601751431E+02  0.82607945929E+02  0.80867284311E+02  0.12834569554E+03  0.41800000000E+01 0.  1.
        -11    1    3    3    0    0  0.46257450407E+02 -0.76147375590E+02  0.22699296710E+03  0.24385237674E+03  0.00000000000E+00 0.  1.
         11    1    3    3    0    0 -0.31399417302E+02 -0.11010499355E+01  0.51441557264E+02  0.60277437998E+02  0.00000000000E+00 0. -1.
</event>
<event>
 7    1  0.4096326E-006  0.2265910E+03  0.7561462E-02  0.1129062E+00
         -1   -1    0    0    0  501 -0.00000000000E+00  0.00000000000E+00  0.12564200863E+03  0.12564200863E+03  0.00000000000E+00 0.  1.
          1   -1    0    0  501    0  0.00000000000E+00 -0.00000000000E+00 -0.52352469257E+03  0.52352469257E+03  0.00000000000E+00 0. -1.
         23    2    1    2    0    0  0.19074220645E+03 -0.67717525997E+02 -0.33712027980E+03  0.40357841725E+03  0.90869154114E+02 0.  0.
          5    1    1    2  502    0 -0.83245854260E+02  0.94709900329E+02 -0.42830918549E+02  0.13323587150E+03  0.41800000000E+01 0.  1.
         -5    1    1    2    0  502 -0.10749635219E+03 -0.26992374332E+02 -0.17931485590E+02  0.11235241244E+03  0.41800000000E+01 0.  1.
        -11    1    3    3    0    0  0.16155864723E+03 -0.23692658580E+02 -0.21068196576E+03  0.26655098811E+03  0.00000000000E+00 0.  1.
         11    1    3    3    0    0  0.29183559220E+02 -0.44024867418E+02 -0.12643831404E+03  0.13702742914E+03  0.00000000000E+00 0. -1.
</event>
<event>
 7    1  0.4096326E-006  0.1267011E+03  0.7561462E-02  0.1232435E+00
         -1   -1    0    0    0  501 -0.00000000000E+00  0.00000000000E+00  0.41158328501E+02  0.41158328501E+02  0.00000000000E+00 0.  1.
          1   -1    0    0  501    0  0.00000000000E+00 -0.00000000000E+00 -0.39626677735E+03  0.39626677735E+03  0.00000000000E+00 0. -1.
         23    2    1    2    0    0 -0.20597831680E+01 -0.65811055014E+02 -0.18206169754E+03  0.21399411058E+03  0.91168415491E+02 0.  0.
          5    1    1    2  502    0 -0.44348095793E+02 -0.15650880618E+02 -0.51439566277E+02  0.69822668550E+02  0.41800000000E+01 0.  1.
         -5    1    1    2    0  502  0.46407878961E+02  0.81461935633E+02 -0.12160718503E+03  0.15360832672E+03  0.41800000000E+01 0.  1.
        -11    1    3    3    0    0 -0.45362793879E+02 -0.20872820882E+02 -0.76081285413E+02  0.91004503791E+02  0.00000000000E+00 0.  1.
         11    1    3    3    0    0  0.43303010711E+02 -0.44938234133E+02 -0.10598041213E+03  0.12298960679E+03  0.00000000000E+00 0. -1.
</event>
<event>
 7    1  0.4096326E-006  0.1463989E+03  0.7561462E-02  0.1204969E+00
         -2   -1    0    0    0  501 -0.00000000000E+00  0.00000000000E+00  0.30256983176E+02  0.30256983176E+02  0.00000000000E+00 0.  1.
          2   -1    0    0  501    0  0.00000000000E+00 -0.00000000000E+00 -0.93528007544E+03  0.93528007544E+03  0.00000000000E+00 0. -1.
         23    2    1    2    0    0 -0.61193200591E+02  0.10657232620E+03 -0.52816387267E+03  0.54987803646E+03  0.91140057483E+02 0.  0.
          5    1    1    2  502    0 -0.28883012048E+01  0.85637848374E+01  0.53839970707E+01  0.11319916919E+02  0.41800000000E+01 0.  1.
         -5    1    1    2    0  502  0.64081501796E+02 -0.11513611104E+03 -0.38224321666E+03  0.40433910524E+03  0.41800000000E+01 0.  1.
        -11    1    3    3    0    0  0.16092675226E+02  0.56905363425E+02 -0.16511107434E+03  0.17538204427E+03  0.00000000000E+00 0.  1.
         11    1    3    3    0    0 -0.77285875817E+02  0.49666962776E+02 -0.36305279834E+03  0.37449599220E+03  0.00000000000E+00 0. -1.
</event>
<event>
 7    1  0.4096326E-006  0.1250518E+03  0.7561462E-02  0.1234988E+00
         -2   -1    0    0    0  501 -0.00000000000E+00  0.00000000000E+00  0.81075174342E+02  0.81075174342E+02  0.00000000000E+00 0.  1.
          2   -1    0    0  501    0  0.00000000000E+00 -0.00000000000E+00 -0.24324124872E+03  0.24324124872E+03  0.00000000000E+00 0. -1.
         23    2    1    2    0    0 -0.61156851112E+02  0.31071479336E+02 -0.13863866279E+03  0.17972727884E+03  0.91518406202E+02 0.  0.
          5    1    1    2  502    0  0.15766312331E+02 -0.76368882407E+02 -0.81712590177E+01  0.78517671123E+02  0.41800000000E+01 0.  1.
         -5    1    1    2    0  502  0.45390538781E+02  0.45297403071E+02 -0.15356152575E+02  0.66071473101E+02  0.41800000000E+01 0.  1.
        -11    1    3    3    0    0 -0.56198668336E+02 -0.17550969779E+02 -0.10505024395E+03  0.12042375437E+03  0.00000000000E+00 0. -1.
         11    1    3    3    0    0 -0.49581827765E+01  0.48622449115E+02 -0.33588418835E+02  0.59303524467E+02  0.00000000000E+00 0.  1.
</event>
<event>
 7    1  0.4096326E-006  0.1320620E+03  0.7561462E-02  0.1224428E+00
         -1   -1    0    0    0  501 -0.00000000000E+00  0.00000000000E+00  0.28331083949E+02  0.28331083949E+02  0.00000000000E+00 0.  1.
          1   -1    0    0  501    0  0.00000000000E+00 -0.00000000000E+00 -0.72661845629E+03  0.72661845629E+03  0.00000000000E+00 0. -1.
         23    2    1    2    0    0 -0.29320782341E+02  0.76218537012E+02 -0.44525050149E+03  0.46110551779E+03  0.87757141011E+02 0.  0.
          5    1    1    2  502    0 -0.19591509299E+02 -0.91064282049E+02 -0.19656870856E+03  0.21756208375E+03  0.41800000000E+01 0. -1.
         -5    1    1    2    0  502  0.48912291640E+02  0.14845745038E+02 -0.56468162303E+02  0.76281938708E+02  0.41800000000E+01 0. -1.
        -11    1    3    3    0    0 -0.42376734067E+02  0.11102012540E+00 -0.14300046162E+03  0.14914734975E+03  0.00000000000E+00 0. -1.
         11    1    3    3    0    0  0.13055951726E+02  0.76107516886E+02 -0.30225003987E+03  0.31195816803E+03  0.00000000000E+00 0.  1.
</event>
<event>
 7    1  0.4096326E-006  0.1083303E+03  0.7561462E-02  0.1263693E+00
         -2   -1    0    0    0  501 -0.00000000000E+00  0.00000000000E+00  0.31130872905E+03  0.31130872905E+03  0.00000000000E+00 0.  1.
          2   -1    0    0  501    0  0.00000000000E+00 -0.00000000000E+00 -0.11568994949E+03  0.11568994949E+03  0.00000000000E+00 0. -1.
         23    2    1    2    0    0  0.67967937181E+02  0.76593335349E+02 -0.39659718323E+02  0.14153422358E+03  0.89290893614E+02 0.  0.
          5    1    1    2  502    0 -0.69511519136E+02 -0.66965100120E+02  0.24959793311E+03  0.26764300204E+03  0.41800000000E+01 0. -1.
         -5    1    1    2    0  502  0.15435819551E+01 -0.96282352293E+01 -0.14319435231E+02  0.17821452921E+02  0.41800000000E+01 0. -1.
        -11    1    3    3    0    0  0.43530792482E+02  0.20218418996E+02  0.23479982632E+02  0.53432424100E+02  0.00000000000E+00 0.  1.
         11    1    3    3    0    0  0.24437144699E+02  0.56374916353E+02 -0.63139700955E+02  0.88101799480E+02  0.00000000000E+00 0. -1.
</event>
<event>
 7    1  0.4096326E-006  0.1390435E+03  0.7561462E-02  0.1214622E+00
          1   -1    0    0  501    0  0.00000000000E+00  0.00000000000E+00  0.17654853398E+03  0.17654853398E+03  0.00000000000E+00 0. -1.
         -1   -1    0    0    0  501 -0.00000000000E+00 -0.00000000000E+00 -0.14995380480E+03  0.14995380480E+03  0.00000000000E+00 0.  1.
         23    2    1    2    0    0 -0.83841408956E+02 -0.71651732515E+02  0.68361187143E+02  0.15458616200E+03  0.84025454152E+02 0.  0.
          5    1    1    2  502    0  0.10549502041E+03  0.37863651361E+02 -0.60491593990E+02  0.12743453523E+03  0.41800000000E+01 0. -1.
         -5    1    1    2    0  502 -0.21653611449E+02  0.33788081153E+02  0.18725136026E+02  0.44481641561E+02  0.41800000000E+01 0. -1.
        -11    1    3    3    0    0 -0.51089571485E+02 -0.50263099499E+01 -0.32470901627E+01  0.51438815118E+02  0.00000000000E+00 0.  1.
         11    1    3    3    0    0 -0.32751837471E+02 -0.66625422565E+02  0.71608277305E+02  0.10314734688E+03  0.00000000000E+00 0. -1.
</event>
<event>
 7    1  0.4096326E-006  0.1245990E+03  0.7561462E-02  0.1235697E+00
          2   -1    0    0  501    0  0.00000000000E+00  0.00000000000E+00  0.24919183909E+03  0.24919183909E+03  0.00000000000E+00 0. -1.
         -2   -1    0    0    0  501 -0.00000000000E+00 -0.00000000000E+00 -0.87035318968E+02  0.87035318968E+02  0.00000000000E+00 0.  1.
         23    2    1    2    0    0  0.58115632849E+02  0.67987126493E+02  0.12507034583E+03  0.17804195596E+03  0.89758957911E+02 0.  0.
          5    1    1    2  502    0 -0.12574731415E+00 -0.70495122441E+02  0.62855711520E+02  0.94540419774E+02  0.41800000000E+01 0.  1.
         -5    1    1    2    0  502 -0.57989885535E+02  0.25079959488E+01 -0.25769537229E+02  0.63644782324E+02  0.41800000000E+01 0.  1.
        -11    1    3    3    0    0 -0.72880638888E+01  0.52721625529E+02  0.28385781058E+02  0.60319468167E+02  0.00000000000E+00 0. -1.
         11    1    3    3    0    0  0.65403696738E+02  0.15265500963E+02  0.96684564771E+02  0.11772248779E+03  0.00000000000E+00 0.  1.
</event>
<event>
 7    1  0.4096326E-006  0.1564355E+03  0.7561462E-02  0.1192781E+00
          2   -1    0    0  501    0  0.00000000000E+00  0.00000000000E+00  0.10477879428E+03  0.10477879428E+03  0.00000000000E+00 0. -1.
         -2   -1    0    0    0  501 -0.00000000000E+00 -0.00000000000E+00 -0.49399594427E+03  0.49399594427E+03  0.00000000000E+00 0.  1.
         23    2    1    2    0    0 -0.83342253587E+02 -0.56653295411E+02 -0.55271098356E+02  0.14669305545E+03  0.91150595665E+02 0.  0.
          5    1    1    2  502    0  0.12027766231E+03  0.69406730997E+02 -0.25633570997E+02  0.14127477737E+03  0.41800000000E+01 0. -1.
         -5    1    1    2    0  502 -0.36935408724E+02 -0.12753435587E+02 -0.30831248063E+03  0.31080690573E+03  0.41800000000E+01 0.  1.
        -11    1    3    3    0    0 -0.37852692241E+02  0.22000723885E+02 -0.88776758921E+01  0.44672936892E+02  0.00000000000E+00 0. -1.
         11    1    3    3    0    0 -0.45489561346E+02 -0.78654019295E+02 -0.46393422464E+02  0.10202011856E+03  0.00000000000E+00 0.  1.
</event>
<event>
 7    1  0.4096326E-006  0.1661022E+03  0.7561462E-02  0.1181975E+00
          1   -1    0    0  501    0  0.00000000000E+00  0.00000000000E+00  0.19858718441E+03  0.19858718441E+03  0.00000000000E+00 0. -1.
         -1   -1    0    0    0  501 -0.00000000000E+00 -0.00000000000E+00 -0.15882173475E+03  0.15882173475E+03  0.00000000000E+00 0.  1.
         23    2    1    2    0    0  0.22655014784E+02 -0.99216189308E+02  0.49000916892E+02  0.14488655905E+03  0.90740967713E+02 0.  0.
          5    1    1    2  502    0  0.61825806776E+02 -0.16743751684E+02 -0.23337673018E+02  0.68300095064E+02  0.41800000000E+01 0. -1.
         -5    1    1    2    0  502 -0.84480821560E+02  0.11595994099E+03  0.14102205781E+02  0.14422226504E+03  0.41800000000E+01 0.  1.
        -11    1    3    3    0    0  0.39926349919E+02 -0.22462947030E+02 -0.95761858336E+01  0.46801717300E+02  0.00000000000E+00 0.  1.
         11    1    3    3    0    0 -0.17271335135E+02 -0.76753242277E+02  0.58577102726E+02  0.98084841750E+02  0.00000000000E+00 0. -1.
</event>
<event>
 7    1  0.4096326E-006  0.1324776E+03  0.7561462E-02  0.1223825E+00
          1   -1    0    0  501    0  0.00000000000E+00  0.00000000000E+00  0.96334744803E+03  0.96334744803E+03  0.00000000000E+00 0. -1.
         -1   -1    0    0    0  501 -0.00000000000E+00 -0.00000000000E+00 -0.22644817985E+02  0.22644817985E+02  0.00000000000E+00 0.  1.
         23    2    1    2    0    0  0.83088957018E+02  0.52560566540E+02  0.49490056221E+03  0.51264759042E+03  0.90634417042E+02 0.  0.
          5    1    1    2  502    0 -0.14912326219E+02  0.32693688626E+02  0.21466866255E+03  0.21769557145E+03  0.41800000000E+01 0.  1.
         -5    1    1    2    0  502 -0.68176630799E+02 -0.85254255166E+02  0.23113340528E+03  0.25564910414E+03  0.41800000000E+01 0.  1.
        -11    1    3    3    0    0 -0.12078055285E+02  0.42027959097E+01  0.10275849337E+02  0.16405364748E+02  0.00000000000E+00 0.  1.
         11    1    3    3    0    0  0.95167012303E+02  0.48357770631E+02  0.48462471288E+03  0.49624222567E+03  0.00000000000E+00 0. -1.
</event>
<event>
 7    1  0.4096326E-006  0.8919125E+02  0.7561462E-02  0.1304822E+00
          2   -1    0    0  501    0  0.00000000000E+00  0.00000000000E+00  0.23049129649E+03  0.23049129649E+03  0.00000000000E+00 0. -1.
         -2   -1    0    0    0  501 -0.00000000000E+00 -0.00000000000E+00 -0.75168024050E+02  0.75168024050E+02  0.00000000000E+00 0.  1.
         23    2    1    2    0    0 -0.46124786769E+02 -0.47942605176E+02  0.10754955708E+03  0.15614194341E+03  0.91582803617E+02 0.  0.
          5    1    1    2  502    0  0.11263435336E+02 -0.21159237331E+02  0.65614075677E+02  0.69980408879E+02  0.41800000000E+01 0.  1.
         -5    1    1    2    0  502  0.34861351433E+02  0.69101842506E+02 -0.17840360321E+02  0.79536968247E+02  0.41800000000E+01 0.  1.
        -11    1    3    3    0    0 -0.12864441679E+02 -0.40449801842E+02 -0.90384470852E+00  0.42455827209E+02  0.00000000000E+00 0.  1.
         11    1    3    3    0    0 -0.33260345090E+02 -0.74928033337E+01  0.10845340179E+03  0.11368611620E+03  0.00000000000E+00 0. -1.
</event>
<event>
 7    1  0.4096326E-006  0.3139399E+03  0.7561462E-02  0.1078473E+00
          2   -1    0    0  501    0  0.00000000000E+00  0.00000000000E+00  0.19471721282E+04  0.19471721282E+04  0.00000000000E+00 0. -1.
         -2   -1    0    0    0  501 -0.00000000000E+00 -0.00000000000E+00 -0.53226423815E+02  0.53226423815E+02  0.00000000000E+00 0.  1.
         23    2    1    2    0    0  0.15272760706E+03  0.26144264813E+03  0.92004328020E+03  0.97286951039E+03  0.91200145779E+02 0.  0.
          5    1    1    2  502    0 -0.16930027474E+03 -0.25500625129E+03  0.94495598167E+03  0.99330259786E+03  0.41800000000E+01 0. -1.
         -5    1    1    2    0  502  0.16572667680E+02 -0.64363968458E+01  0.28946442529E+02  0.34226443775E+02  0.41800000000E+01 0. -1.
        -11    1    3    3    0    0  0.64925444816E+02  0.13176350708E+03  0.30993149762E+03  0.34297881625E+03  0.00000000000E+00 0. -1.
         11    1    3    3    0    0  0.87802162245E+02  0.12967914105E+03  0.61011178258E+03  0.62989069414E+03  0.00000000000E+00 0.  1.
</event>
<event>
 7    1  0.4096326E-006  0.8927356E+02  0.7561462E-02  0.1304620E+00
          2   -1    0    0  501    0  0.00000000000E+00  0.00000000000E+00  0.17645286740E+03  0.17645286740E+03  0.00000000000E+00 0. -1.
         -2   -1    0    0    0  501 -0.00000000000E+00 -0.00000000000E+00 -0.11500349689E+03  0.11500349689E+03  0.00000000000E+00 0.  1.
         23    2    1    2    0    0 -0.36198408190E+02  0.26682092682E+02  0.11169248708E+03  0.14935267415E+03  0.88367136316E+02 0.  0.
          5    1    1    2  502    0 -0.31728057471E+02 -0.49713953199E+02 -0.10668014555E+02  0.60078496220E+02  0.41800000000E+01 0. -1.
         -5    1    1    2    0  502  0.67926465662E+02  0.23031860517E+02 -0.39575102018E+02  0.82025193910E+02  0.41800000000E+01 0. -1.
        -11    1    3    3    0    0 -0.14418688974E+02  0.20265449357E+02 -0.90704822792E+01  0.26473773402E+02  0.00000000000E+00 0.  1.
         11    1    3    3    0    0 -0.21779719216E+02  0.64166433252E+01  0.12076296936E+03  0.12287890075E+03  0.00000000000E+00 0. -1.
</event>
<event>
 7    1  0.4096326E-006  0.1030912E+03  0.7561462E-02  0.1273927E+00
         -1   -1    0    0    0  501 -0.00000000000E+00  0.00000000000E+00  0.17859705224E+03  0.17859705224E+03  0.00000000000E+00 0.  1.
          1   -1    0    0  501    0  0.00000000000E+00 -0.00000000000E+00 -0.10911386465E+03  0.10911386465E+03  0.00000000000E+00 0. -1.
         23    2    1    2    0    0  0.71406521801E+02 -0.49310768736E+02  0.19728135049E+02  0.12753843666E+03  0.91358690027E+02 0.  0.
          5    1    1    2  502    0 -0.66614014354E+02 -0.28988552299E+01  0.76169371667E+02  0.10131671062E+03  0.41800000000E+01 0.  1.
         -5    1    1    2    0  502 -0.47925074470E+01  0.52209623966E+02 -0.26414319129E+02  0.58855769618E+02  0.41800000000E+01 0.  1.
        -11    1    3    3    0    0  0.28644240734E+02 -0.19554692232E+02 -0.36866563063E+02  0.50616420139E+02  0.00000000000E+00 0. -1.
         11    1    3    3    0    0  0.42762281067E+02 -0.29756076504E+02  0.56594698112E+02  0.76922016519E+02  0.00000000000E+00 0.  1.
</event>
<event>
 7    1  0.4096326E-006  0.1100032E+03  0.7561462E-02  0.1260564E+00
         -2   -1    0    0    0  501 -0.00000000000E+00  0.00000000000E+00  0.41195878091E+02  0.41195878091E+02  0.00000000000E+00 0.  1.
          2   -1    0    0  501    0  0.00000000000E+00 -0.00000000000E+00 -0.34343590868E+03  0.34343590868E+03  0.00000000000E+00 0. -1.
         23    2    1    2    0    0  0.48522413823E+01  0.18688212271E+02 -0.19663588223E+03  0.21979054307E+03  0.96277822583E+02 0.  0.
          5    1    1    2  502    0  0.11261894623E+02 -0.69950831747E+02 -0.46494621248E+02  0.84847930661E+02  0.41800000000E+01 0.  1.
         -5    1    1    2    0  502 -0.16114136006E+02  0.51262619476E+02 -0.59109527116E+02  0.79993313037E+02  0.41800000000E+01 0.  1.
        -11    1    3    3    0    0  0.44451999763E+02  0.30382602626E+02 -0.13749724961E+03  0.14766372769E+03  0.00000000000E+00 0. -1.
         11    1    3    3    0    0 -0.39599758381E+02 -0.11694390355E+02 -0.59138632623E+02  0.72126815388E+02  0.00000000000E+00 0.  1.
</event>
<event>
 7    1  0.4096326E-006  0.1091166E+03  0.7561462E-02  0.1262215E+00
          2   -1    0    0  501    0  0.00000000000E+00  0.00000000000E+00  0.91076042476E+02  0.91076042476E+02  0.00000000000E+00 0. -1.
         -2   -1    0    0    0  501 -0.00000000000E+00 -0.00000000000E+00 -0.15038444176E+03  0.15038444176E+03  0.00000000000E+00 0.  1.
         23    2    1    2    0    0 -0.91454920512E+01 -0.39786135196E+02 -0.69308106300E+01  0.99835571627E+02  0.90843429302E+02 0.  0.
          5    1    1    2  502    0 -0.20482232993E+02 -0.33876618892E+02 -0.47490045207E+02  0.61967120069E+02  0.41800000000E+01 0.  1.
         -5    1    1    2    0  502  0.29627725044E+02  0.73662754088E+02 -0.48875434445E+01  0.79657792538E+02  0.41800000000E+01 0.  1.
        -11    1    3    3    0    0 -0.49558244003E+02 -0.27511526328E+02  0.17821713521E+01  0.56710490778E+02  0.00000000000E+00 0. -1.
         11    1    3    3    0    0  0.40412751952E+02 -0.12274608868E+02 -0.87129819821E+01  0.43125080849E+02  0.00000000000E+00 0.  1.
</event>
<event>
 7    1  0.4096326E-006  0.1014558E+03  0.7561462E-02  0.1277264E+00
         -2   -1    0    0    0  501 -0.00000000000E+00  0.00000000000E+00  0.32639707679E+03  0.32639707679E+03  0.00000000000E+00 0.  1.
          2   -1    0    0  501    0  0.00000000000E+00 -0.00000000000E+00 -0.41604977609E+02  0.41604977609E+02  0.00000000000E+00 0. -1.
         23    2    1    2    0    0  0.46646699328E+00  0.30270868172E+02  0.92569006649E+02  0.13666641382E+03  0.95875672732E+02 0.  0.
          5    1    1    2  502    0 -0.79548425637E+01  0.44206881724E+02  0.34805331203E+02  0.56977288388E+02  0.41800000000E+01 0. -1.
         -5    1    1    2    0  502  0.74883755704E+01 -0.74477749896E+02  0.15741776133E+03  0.17435835220E+03  0.41800000000E+01 0. -1.
        -11    1    3    3    0    0  0.37039418189E+02  0.29055529814E+01  0.44585374034E+01  0.37419771427E+02  0.00000000000E+00 0. -1.
         11    1    3    3    0    0 -0.36572951196E+02  0.27365315191E+02  0.88110469246E+02  0.99246642388E+02  0.00000000000E+00 0.  1.
</event>
<event>
 7    1  0.4096326E-006  0.6929832E+02  0.7561462E-02  0.1362496E+00
          3   -1    0    0  501    0  0.00000000000E+00  0.00000000000E+00  0.20903925683E+03  0.20903925683E+03  0.00000000000E+00 0. -1.
         -3   -1    0    0    0  501 -0.00000000000E+00 -0.00000000000E+00 -0.51962241125E+02  0.51962241125E+02  0.00000000000E+00 0.  1.
         23    2    1    2    0    0  0.12896490522E+02 -0.24294100208E+01  0.73725078003E+02  0.11761486910E+03  0.90695362646E+02 0.  0.
          5    1    1    2  502    0  0.26416960542E+02 -0.14467483709E+02  0.94248855766E+02  0.99032737528E+02  0.41800000000E+01 0. -1.
         -5    1    1    2    0  502 -0.39313451064E+02  0.16896893729E+02 -0.10896918069E+02  0.44353891325E+02  0.41800000000E+01 0.  1.
        -11    1    3    3    0    0  0.13649469557E+02  0.29893700126E+02 -0.43129347433E+01  0.33144271489E+02  0.00000000000E+00 0.  1.
         11    1    3    3    0    0 -0.75297903476E+00 -0.32323110147E+02  0.78038012746E+02  0.84470597608E+02  0.00000000000E+00 0. -1.
</event>
<event>
 7    1  0.4096326E-006  0.1002409E+03  0.7561462E-02  0.1279790E+00
         -2   -1    0    0    0  501 -0.00000000000E+00  0.00000000000E+00  0.86831293288E+02  0.86831293288E+02  0.00000000000E+00 0.  1.
          2   -1    0    0  501    0  0.00000000000E+00 -0.00000000000E+00 -0.17055598159E+03  0.17055598159E+03  0.00000000000E+00 0. -1.
         23    2    1    2    0    0 -0.36834068704E+02 -0.41862175070E+02 -0.32070011493E+02  0.11101787800E+03  0.90483663054E+02 0.  0.
          5    1    1    2  502    0 -0.95741199877E+01 -0.40074836365E+02 -0.67517334448E+01  0.41960869721E+02  0.41800000000E+01 0. -1.
         -5    1    1    2    0  502  0.46408188691E+02  0.81937011435E+02 -0.44902943366E+02  0.10440852716E+03  0.41800000000E+01 0. -1.
        -11    1    3    3    0    0 -0.26644121255E+02 -0.57124353059E+01  0.28701601790E+02  0.39576799516E+02  0.00000000000E+00 0.  1.
         11    1    3    3    0    0 -0.10189947449E+02 -0.36149739764E+02 -0.60771613283E+02  0.71441078484E+02  0.00000000000E+00 0. -1.
</event>
<event>
 7    1  0.4096326E-006  0.1665941E+03  0.7561462E-02  0.1181447E+00
         -1   -1    0    0    0  501 -0.00000000000E+00  0.00000000000E+00  0.14554091755E+03  0.14554091755E+03  0.00000000000E+00 0.  1.
          1   -1    0    0  501    0  0.00000000000E+00 -0.00000000000E+00 -0.26201944183E+03  0.26201944183E+03  0.00000000000E+00 0. -1.
         23    2    1    2    0    0 -0.14468779282E+03  0.50203741653E+02 -0.10818513980E+03  0.20964171062E+03  0.93758462502E+02 0.  0.
          5    1    1    2  502    0  0.70693459895E+02 -0.73773755986E+02  0.36006695787E+02  0.10841626670E+03  0.41800000000E+01 0. -1.
         -5    1    1    2    0  502  0.73994332927E+02  0.23570014333E+02 -0.44300080274E+02  0.89502382054E+02  0.41800000000E+01 0. -1.
        -11    1    3    3    0    0 -0.11874194575E+02  0.37452787468E+01  0.17161072764E+02  0.21202028868E+02  0.00000000000E+00 0.  1.
         11    1    3    3    0    0 -0.13281359825E+03  0.46458462906E+02 -0.12534621256E+03  0.18843968175E+03  0.00000000000E+00 0. -1.
</event>
<event>
 7    1  0.4096326E-006  0.1377294E+03  0.7561462E-02  0.1216417E+00
         -2   -1    0    0    0  501 -0.00000000000E+00  0.00000000000E+00  0.22636085860E+02  0.22636085860E+02  0.00000000000E+00 0.  1.
          2   -1    0    0  501    0  0.00000000000E+00 -0.00000000000E+00 -0.94268548007E+03  0.94268548007E+03  0.00000000000E+00 0. -1.
         23    2    1    2    0    0 -0.78323290580E+02  0.55710812382E+02 -0.47212925446E+03  0.49043411327E+03  0.91549735556E+02 0.  0.
          5    1    1    2  502    0  0.79878441506E+01 -0.80264304962E+02 -0.27351809683E+03  0.28519429517E+03  0.41800000000E+01 0. -1.
         -5    1    1    2    0  502  0.70335446429E+02  0.24553492580E+02 -0.17440204292E+03  0.18969315749E+03  0.41800000000E+01 0. -1.
        -11    1    3    3    0    0  0.72518047783E+01  0.29790085064E+02 -0.47811403523E+02  0.56797606882E+02  0.00000000000E+00 0.  1.
         11    1    3    3    0    0 -0.85575095358E+02  0.25920727317E+02 -0.42431785094E+03  0.43363650639E+03  0.00000000000E+00 0. -1.
</event>
<event>
 7    1  0.4096326E-006  0.5208944E+02  0.7561462E-02  0.1434387E+00
          3   -1    0    0  501    0  0.00000000000E+00  0.00000000000E+00  0.24868441062E+03  0.24868441062E+03  0.00000000000E+00 0. -1.
         -3   -1    0    0    0  501 -0.00000000000E+00 -0.00000000000E+00 -0.53164487766E+02  0.53164487766E+02  0.00000000000E+00 0.  1.
         23    2    1    2    0    0  0.32801270215E+02  0.17923879699E+02  0.75963102033E+02  0.12482160434E+03  0.91721596405E+02 0.  0.
          5    1    1    2  502    0 -0.15461642777E+02 -0.35699921640E+02  0.13951337452E+03  0.14489651781E+03  0.41800000000E+01 0. -1.
         -5    1    1    2    0  502 -0.17339627438E+02  0.17776041942E+02 -0.19956553697E+02  0.32130776247E+02  0.41800000000E+01 0. -1.
        -11    1    3    3    0    0  0.16827595868E+02  0.16920647352E+02  0.96145758238E+02  0.99063025982E+02  0.00000000000E+00 0. -1.
         11    1    3    3    0    0  0.15973674347E+02  0.10032323462E+01 -0.20182656205E+02  0.25758578353E+02  0.00000000000E+00 0.  1.
</event>
<event>
 7    1  0.4096326E-006  0.1246073E+03  0.7561462E-02  0.1235684E+00
         -2   -1    0    0    0  501 -0.00000000000E+00  0.00000000000E+00  0.88340440733E+02  0.88340440733E+02  0.00000000000E+00 0.  1.
          2   -1    0    0  501    0  0.00000000000E+00 -0.00000000000E+00 -0.36999191144E+03  0.36999191144E+03  0.00000000000E+00 0. -1.
         23    2    1    2    0    0  0.48043530462E+02 -0.79602644946E+02 -0.27265678748E+03  0.30221128394E+03  0.91351926529E+02 0.  0.
          5    1    1    2  502    0 -0.82490100738E+02  0.83187441200E+02 -0.21268133856E+02  0.11914097956E+03  0.41800000000E+01 0. -1.
         -5    1    1    2    0  502  0.34446570276E+02 -0.35847962543E+01  0.12273450627E+02  0.36980088673E+02  0.41800000000E+01 0. -1.
        -11    1    3    3    0    0  0.30614432551E+02 -0.24200802768E+02 -0.21762593327E+02  0.44682578298E+02  0.00000000000E+00 0.  1.
         11    1    3    3    0    0  0.17429097912E+02 -0.55401842178E+02 -0.25089419415E+03  0.25752870564E+03  0.00000000000E+00 0. -1.
</event>
<event>
 7    1  0.4096326E-006  0.1042097E+03  0.7561462E-02  0.1271685E+00
         -3   -1    0    0    0  501 -0.00000000000E+00  0.00000000000E+00  0.26782388129E+02  0.26782388129E+02  0.00000000000E+00 0.  1.
          3   -1    0    0  501    0  0.00000000000E+00 -0.00000000000E+00 -0.50475360770E+03  0.50475360770E+03  0.00000000000E+00 0. -1.
         23    2    1    2    0    0  0.28779012289E-01 -0.16272383345E+02 -0.29624702771E+03  0.31032447669E+03  0.90962564376E+02 0.  0.
          5    1    1    2  502    0  0.38259209455E+02  0.51635456461E+02 -0.14074405783E+03  0.15477838895E+03  0.41800000000E+01 0. -1.
         -5    1    1    2    0  502 -0.38287988467E+02 -0.35363073117E+02 -0.40980134024E+02  0.66433130181E+02  0.41800000000E+01 0. -1.
        -11    1    3    3    0    0 -0.43081708513E+02 -0.21772971838E+02 -0.13707693093E+03  0.14532783940E+03  0.00000000000E+00 0.  1.
         11    1    3    3    0    0  0.43110487525E+02  0.55005884936E+01 -0.15917009678E+03  0.16499663729E+03  0.00000000000E+00 0. -1.
</event>
<event>
 6    1  0.4096326E-006  0.1458790E+03  0.7561462E-02  0.1205630E+00
          1   -1    0    0  501    0  0.00000000000E+00  0.00000000000E+00  0.43246578345E+03  0.43246578345E+03  0.00000000000E+00 0. -1.
         -1   -1    0    0    0  501 -0.00000000000E+00 -0.00000000000E+00 -0.81085128589E+02  0.81085128589E+02  0.00000000000E+00 0.  1.
          5    1    1    2  502    0  0.21282903757E+02  0.56063049740E+02  0.11634855842E+03  0.13095986784E+03  0.41800000000E+01 0. -1.
         -5    1    1    2    0  502 -0.39743496755E-01  0.50911222484E+01 -0.32364745874E+02  0.33028325431E+02  0.41800000000E+01 0. -1.
        -11    1    1    2    0    0 -0.11688535768E+03 -0.55108545675E+02  0.14855459864E+03  0.19689491467E+03  0.00000000000E+00 0.  1.
         11    1    1    2    0    0  0.95642197421E+02 -0.60456263135E+01  0.11884224367E+03  0.15266780409E+03  0.00000000000E+00 0. -1.
</event>
<event>
 7    1  0.4096326E-006  0.7148940E+02  0.7561462E-02  0.1355100E+00
         -3   -1    0    0    0  501 -0.00000000000E+00  0.00000000000E+00  0.19383983878E+02  0.19383983878E+02  0.00000000000E+00 0.  1.
          3   -1    0    0  501    0  0.00000000000E+00 -0.00000000000E+00 -0.69930761449E+03  0.69930761449E+03  0.00000000000E+00 0. -1.
         23    2    1    2    0    0  0.15661844246E+02  0.10960597597E+02 -0.40959717826E+03  0.42021292564E+03  0.91889207030E+02 0.  0.
          5    1    1    2  502    0 -0.82904021884E+01 -0.31049668959E+02 -0.27439235330E+03  0.27629956327E+03  0.41800000000E+01 0.  1.
         -5    1    1    2    0  502 -0.73714420578E+01  0.20089071362E+02  0.40659009475E+01  0.22179109466E+02  0.41800000000E+01 0.  1.
        -11    1    3    3    0    0  0.51874943373E+02  0.63803302960E+01 -0.30460769084E+03  0.30905915887E+03  0.00000000000E+00 0. -1.
         11    1    3    3    0    0 -0.36213099127E+02  0.45802673006E+01 -0.10498948742E+03  0.11115376676E+03  0.00000000000E+00 0.  1.
</event>
<event>
 7    1  0.4096326E-006  0.1108033E+03  0.7561462E-02  0.1259090E+00
         -4   -1    0    0    0  501 -0.00000000000E+00  0.00000000000E+00  0.60823584656E+03  0.60823584656E+03  0.00000000000E+00 0.  1.
          4   -1    0    0  501    0  0.00000000000E+00 -0.00000000000E+00 -0.23014366857E+02  0.23014366857E+02  0.00000000000E+00 0. -1.
         23    2    1    2    0    0 -0.12118555724E+02 -0.32006366319E+02  0.15935443906E+03  0.18607562570E+03  0.89772124590E+02 0.  0.
          5    1    1    2  502    0  0.61337775813E+02  0.47458030551E+02  0.24158869908E+03  0.25376595384E+03  0.41800000000E+01 0. -1.
         -5    1    1    2    0  502 -0.49219220089E+02 -0.15451664232E+02  0.18427834156E+03  0.19140863388E+03  0.41800000000E+01 0. -1.
        -11    1    3    3    0    0 -0.44884619656E+02  0.20403853294E+01  0.10403179543E+03  0.11331993079E+03  0.00000000000E+00 0.  1.
         11    1    3    3    0    0  0.32766063932E+02 -0.34046751649E+02  0.55322643631E+02  0.72755694909E+02  0.00000000000E+00 0. -1.
</event>
<event>
 7    1  0.4096326E-006  0.1002635E+03  0.7561462E-02  0.1279743E+00
          1   -1    0    0  501    0  0.00000000000E+00  0.00000000000E+00  0.20703374494E+03  0.20703374494E+03  0.00000000000E+00 0. -1.
         -1   -1    0    0    0  501 -0.00000000000E+00 -0.00000000000E+00 -0.62114407709E+02  0.62114407709E+02  0.00000000000E+00 0.  1.
         23    2    1    2    0    0  0.33532160754E+02 -0.29580477239E+01  0.92750008497E+02  0.13912626619E+03  0.98083627663E+02 0.  0.
          5    1    1    2  502    0  0.33651991997E+02 -0.26646092193E+02  0.32201861757E+02  0.53822886351E+02  0.41800000000E+01 0. -1.
         -5    1    1    2    0  502 -0.67184152750E+02  0.29604139917E+02  0.19967466981E+02  0.76199000116E+02  0.41800000000E+01 0.  1.
        -11    1    3    3    0    0  0.54899982442E+02  0.13916343909E+02  0.17774432549E+02  0.59359945690E+02  0.00000000000E+00 0.  1.
         11    1    3    3    0    0 -0.21367821688E+02 -0.16874391633E+02  0.74975575948E+02  0.79766320496E+02  0.00000000000E+00 0. -1.
</event>
<event>
 7    1  0.4096326E-006  0.1040103E+03  0.7561462E-02  0.1272082E+00
          1   -1    0    0  501    0  0.00000000000E+00  0.00000000000E+00  0.17462810554E+03  0.17462810554E+03  0.00000000000E+00 0. -1.
         -1   -1    0    0    0  501 -0.00000000000E+00 -0.00000000000E+00 -0.13135413964E+03  0.13135413964E+03  0.00000000000E+00 0.  1.
         23    2    1    2    0    0  0.34442524216E+02 -0.18399352075E+02  0.11893604283E+03  0.15466319620E+03  0.90830051982E+02 0.  0.
          5    1    1    2  502    0  0.43245771471E+02  0.17601309443E+02 -0.67049591141E+01  0.47354321038E+02  0.41800000000E+01 0.  1.
         -5    1    1    2    0  502 -0.77688295686E+02  0.79804263170E+00 -0.68957117816E+02  0.10396472794E+03  0.41800000000E+01 0.  1.
        -11    1    3    3    0    0  0.57057633468E+02 -0.20494439070E+02  0.40265558606E+02  0.72779878947E+02  0.00000000000E+00 0.  1.
         11    1    3    3    0    0 -0.22615109252E+02  0.20950869953E+01  0.78670484222E+02  0.81883317250E+02  0.00000000000E+00 0. -1.
</event>
<event>
 7    1  0.4096326E-006  0.1282056E+03  0.7561462E-02  0.1230143E+00
         -1   -1    0    0    0  501 -0.00000000000E+00  0.00000000000E+00  0.10801420231E+03  0.10801420231E+03  0.00000000000E+00 0.  1.
          1   -1    0    0  501    0  0.00000000000E+00 -0.00000000000E+00 -0.29005584745E+03  0.29005584745E+03  0.00000000000E+00 0. -1.
         23    2    1    2    0    0  0.65582770668E+00 -0.28169891147E+02 -0.18431659958E+03  0.20610666456E+03  0.87825824311E+02 0.  0.
          5    1    1    2  502    0 -0.78677330808E+02 -0.12263759782E+02 -0.45548505256E+02  0.91829520951E+02  0.41800000000E+01 0. -1.
         -5    1    1    2    0  502  0.78021503102E+02  0.40433650929E+02  0.47823459700E+02  0.10013386426E+03  0.41800000000E+01 0.  1.
        -11    1    3    3    0    0  0.42013672830E+02 -0.20043690690E+02 -0.68156117360E+02  0.82535777543E+02  0.00000000000E+00 0. -1.
         11    1    3    3    0    0 -0.41357845123E+02 -0.81262004568E+01 -0.11616048222E+03  0.12357088701E+03  0.00000000000E+00 0.  1.
</event>
<event>
 7    1  0.4096326E-006  0.1570183E+03  0.7561462E-02  0.1192105E+00
          3   -1    0    0  501    0  0.00000000000E+00  0.00000000000E+00  0.16556998467E+03  0.16556998467E+03  0.00000000000E+00 0. -1.
         -3   -1    0    0    0  501 -0.00000000000E+00 -0.00000000000E+00 -0.27257483159E+03  0.27257483159E+03  0.00000000000E+00 0.  1.
         23    2    1    2    0    0  0.12503972443E+03 -0.27251847968E+02  0.81901105518E+02  0.17794239731E+03  0.92618085554E+02 0.  0.
          5    1    1    2  502    0 -0.69983530861E+02  0.62654645883E+02 -0.16590477077E+03  0.19069652490E+03  0.41800000000E+01 0.  1.
         -5    1    1    2    0  502 -0.55056193566E+02 -0.35402797915E+02 -0.23001181662E+02  0.69505894052E+02  0.41800000000E+01 0.  1.
        -11    1    3    3    0    0  0.29589990355E+02  0.30794995312E+02  0.40341484854E+02  0.58748060953E+02  0.00000000000E+00 0. -1.
         11    1    3    3    0    0  0.95449734072E+02 -0.58046843279E+02  0.41559620664E+02  0.11919433635E+03  0.00000000000E+00 0.  1.
</event>
<event>
 6    1  0.4096326E-006  0.1964061E+03  0.7561462E-02  0.1152807E+00
         -2   -1    0    0    0  501 -0.00000000000E+00  0.00000000000E+00  0.83500183442E+03  0.83500183442E+03  0.00000000000E+00 0.  1.
          2   -1    0    0  501    0  0.00000000000E+00 -0.00000000000E+00 -0.10227541448E+03  0.10227541448E+03  0.00000000000E+00 0. -1.
          5    1    1    2  502    0  0.72604934328E+02 -0.13126076751E+03  0.41354420661E+03  0.43992857238E+03  0.41800000000E+01 0. -1.
         -5    1    1    2    0  502 -0.70986188023E+02 -0.28593374703E+02  0.14186872185E+03  0.16124771814E+03  0.41800000000E+01 0.  1.
        -11    1    1    2    0    0 -0.23200608691E+02  0.72174812719E+02  0.22254896075E+03  0.23510744728E+03  0.00000000000E+00 0.  1.
         11    1    1    2    0    0  0.21581862386E+02  0.87679329489E+02 -0.45235469273E+02  0.10099351110E+03  0.00000000000E+00 0. -1.
</event>
<event>
 7    1  0.4096326E-006  0.1057200E+03  0.7561462E-02  0.1268708E+00
         -1   -1    0    0    0  501 -0.00000000000E+00  0.00000000000E+00  0.49975942082E+02  0.49975942082E+02  0.00000000000E+00 0.  1.
          1   -1    0    0  501    0  0.00000000000E+00 -0.00000000000E+00 -0.31732033736E+03  0.31732033736E+03  0.00000000000E+00 0. -1.
         23    2    1    2    0    0  0.23928433723E+02 -0.34611013163E+02 -0.18499104735E+03  0.21173359940E+03  0.94015622870E+02 0.  0.
          5    1    1    2  502    0  0.27230656551E+02 -0.30024517280E+02 -0.55325827793E+02  0.68712443670E+02  0.41800000000E+01 0. -1.
         -5    1    1    2    0  502 -0.51159090274E+02  0.64635530443E+02 -0.27027520137E+02  0.86850236373E+02  0.41800000000E+01 0. -1.
        -11    1    3    3    0    0  0.51301737218E+02 -0.32432415850E+02 -0.66207710157E+02  0.89817541292E+02  0.00000000000E+00 0.  1.
         11    1    3    3    0    0 -0.27373303495E+02 -0.21785973130E+01 -0.11878333719E+03  0.12191605811E+03  0.00000000000E+00 0. -1.
</event>
<event>
 7    1  0.4096326E-006  0.1612529E+03  0.7561462E-02  0.1187289E+00
         -1   -1    0    0    0  501 -0.00000000000E+00  0.00000000000E+00  0.11519082848E+03  0.11519082848E+03  0.00000000000E+00 0.  1.
          1   -1    0    0  501    0  0.00000000000E+00 -0.00000000000E+00 -0.29841238265E+03  0.29841238265E+03  0.00000000000E+00 0. -1.
         23    2    1    2    0    0 -0.33893714548E+02  0.13324708294E+03 -0.15451511581E+03  0.22552126007E+03  0.89896322132E+02 0.  0.
          5    1    1    2  502    0 -0.38949580186E+02 -0.84608693760E+02  0.67834489999E+01  0.93483626571E+02  0.41800000000E+01 0.  1.
         -5    1    1    2    0  502  0.72843294734E+02 -0.48638389184E+02 -0.35489887366E+02  0.94598324485E+02  0.41800000000E+01 0.  1.
        -11    1    3    3    0    0 -0.63544200085E+00  0.71019151486E+02 -0.20261467496E+02  0.73855607299E+02  0.00000000000E+00 0.  1.
         11    1    3    3    0    0 -0.33258272547E+02  0.62227931458E+02 -0.13425364831E+03  0.15166565277E+03  0.00000000000E+00 0. -1.
</event>
<event>
 7    1  0.4096326E-006  0.2275317E+03  0.7561462E-02  0.1128389E+00
          2   -1    0    0  501    0  0.00000000000E+00  0.00000000000E+00  0.22314507394E+03  0.22314507394E+03  0.00000000000E+00 0. -1.
         -2   -1    0    0    0  501 -0.00000000000E+00 -0.00000000000E+00 -0.77295745092E+03  0.77295745092E+03  0.00000000000E+00 0.  1.
         23    2    1    2    0    0  0.36824270888E+02 -0.18018609361E+03  0.14677306509E+03  0.25658415169E+03  0.10232320854E+03 0.  0.
          5    1    1    2  502    0  0.47326727396E+02  0.13073335907E+00 -0.17496301513E+03  0.18129910446E+03  0.41800000000E+01 0. -1.
         -5    1    1    2    0  502 -0.84150998284E+02  0.18005536025E+03 -0.52162242694E+03  0.55821926871E+03  0.41800000000E+01 0.  1.
        -11    1    3    3    0    0  0.37799986273E+02 -0.10720936917E+02  0.15572760529E+02  0.42264504270E+02  0.00000000000E+00 0.  1.
         11    1    3    3    0    0 -0.97571538544E+00 -0.16946515669E+03  0.13120030456E+03  0.21431964742E+03  0.00000000000E+00 0. -1.
</event>
<event>
 7    1  0.4096326E-006  0.1445835E+03  0.7561462E-02  0.1207291E+00
         -2   -1    0    0    0  501 -0.00000000000E+00  0.00000000000E+00  0.92403233646E+02  0.92403233646E+02  0.00000000000E+00 0.  1.
          2   -1    0    0  501    0  0.00000000000E+00 -0.00000000000E+00 -0.50186061039E+03  0.50186061039E+03  0.00000000000E+00 0. -1.
         23    2    1    2    0    0 -0.70493093869E+02  0.10349029418E+03 -0.38475218279E+03  0.41555397759E+03  0.94717204648E+02 0.  0.
          5    1    1    2  502    0  0.41092759532E+01 -0.42146112909E+02 -0.66571849913E+02  0.79009268969E+02  0.41800000000E+01 0.  1.
         -5    1    1    2    0  502  0.66383817916E+02 -0.61344181268E+02  0.41866655958E+02  0.99700597479E+02  0.41800000000E+01 0.  1.
        -11    1    3    3    0    0 -0.11554395993E+01  0.84134622741E+02 -0.18534753922E+03  0.20355264694E+03  0.00000000000E+00 0.  1.
         11    1    3    3    0    0 -0.69337654270E+02  0.19355671435E+02 -0.19940464357E+03  0.21200133064E+03  0.00000000000E+00 0. -1.
</event>
<event>
 7    1  0.4096326E-006  0.1060192E+03  0.7561462E-02  0.1268124E+00
          2   -1    0    0  501    0  0.00000000000E+00  0.00000000000E+00  0.24773356952E+03  0.24773356952E+03  0.00000000000E+00 0. -1.
         -2   -1    0    0    0  501 -0.00000000000E+00 -0.00000000000E+00 -0.53122125849E+02  0.53122125849E+02  0.00000000000E+00 0.  1.
         23    2    1    2    0    0 -0.35120576041E+02 -0.47297344967E+01  0.98165751717E+02  0.13871345279E+03  0.91373310793E+02 0.  0.
          5    1    1    2  502    0  0.65913843230E+02  0.44487694670E+02  0.63841964838E+02  0.10206399258E+03  0.41800000000E+01 0.  1.
         -5    1    1    2    0  502 -0.30793267188E+02 -0.39757960173E+02  0.32603727115E+02  0.60078250000E+02  0.41800000000E+01 0.  1.
        -11    1    3    3    0    0  0.14246900247E+02 -0.24842016688E+02  0.75571760521E+02  0.80815784028E+02  0.00000000000E+00 0. -1.
         11    1    3    3    0    0 -0.49367476289E+02  0.20112282191E+02  0.22593991196E+02  0.57897668763E+02  0.00000000000E+00 0.  1.
</event>
<event>
 7    1  0.4096326E-006  0.1915326E+03  0.7561462E-02  0.1157086E+00
         -1   -1    0    0    0  501 -0.00000000000E+00  0.00000000000E+00  0.66007568609E+02  0.66007568609E+02  0.00000000000E+00 0.  1.
          1   -1    0    0  501    0  0.00000000000E+00 -0.00000000000E+00 -0.85686960459E+03  0.85686960459E+03  0.00000000000E+00 0. -1.
         23    2    1    2    0    0  0.10518975230E+03  0.89596775156E+02 -0.60965802197E+03  0.63227123350E+03  0.94823746212E+02 0.  0.
          5    1    1    2  502    0 -0.43337896109E+02 -0.13301087318E+03 -0.15881005026E+03  0.21167940402E+03  0.41800000000E+01 0. -1.
         -5    1    1    2    0  502 -0.61851856196E+02  0.43414098024E+02 -0.22393963747E+02  0.78926535680E+02  0.41800000000E+01 0.  1.
        -11    1    3    3    0    0  0.28763459663E+02  0.86258259729E+02 -0.31745864922E+03  0.33022389064E+03  0.00000000000E+00 0.  1.
         11    1    3    3    0    0  0.76426292642E+02  0.33385154275E+01 -0.29219937275E+03  0.30204734286E+03  0.00000000000E+00 0. -1.
</event>
<event>
 7    1  0.4096326E-006  0.1504545E+03  0.7561462E-02  0.1199916E+00
          2   -1    0    0  501    0  0.00000000000E+00  0.00000000000E+00  0.81024848517E+03  0.81024848517E+03  0.00000000000E+00 0. -1.
         -2   -1    0    0    0  501 -0.00000000000E+00 -0.00000000000E+00 -0.30745101528E+02  0.30745101528E+02  0.00000000000E+00 0.  1.
         23    2    1    2    0    0 -0.11178324384E+03  0.14752519492E+02  0.48262074722E+03  0.50486714943E+03  0.96202507707E+02 0.  0.
          5    1    1    2  502    0 -0.10847081947E+02 -0.31235624327E+02  0.52757137728E+02  0.62402815603E+02  0.41800000000E+01 0. -1.
         -5    1    1    2    0  502  0.12263032578E+03  0.16483104835E+02  0.24412549870E+03  0.27372362167E+03  0.41800000000E+01 0.  1.
        -11    1    3    3    0    0  0.37530173164E+01 -0.22168994329E+02  0.39553502554E+02  0.45497571505E+02  0.00000000000E+00 0.  1.
         11    1    3    3    0    0 -0.11553626115E+03  0.36921513821E+02  0.44306724467E+03  0.45936957792E+03  0.00000000000E+00 0. -1.
</event>
<event>
 7    1  0.4096326E-006  0.1762110E+03  0.7561462E-02  0.1171521E+00
         -2   -1    0    0    0  501 -0.00000000000E+00  0.00000000000E+00  0.44496789138E+02  0.44496789138E+02  0.00000000000E+00 0.  1.
          2   -1    0    0  501    0  0.00000000000E+00 -0.00000000000E+00 -0.98997191280E+03  0.98997191280E+03  0.00000000000E+00 0. -1.
         23    2    1    2    0    0 -0.55966614977E+02  0.14438242468E+03 -0.67395973693E+03  0.69779849809E+03  0.93394166723E+02 0.  0.
          5    1    1    2  502    0  0.65534741205E+02 -0.68136156062E+02 -0.61145677425E+02  0.11266589695E+03  0.41800000000E+01 0.  1.
         -5    1    1    2    0  502 -0.95681262277E+01 -0.76246268617E+02 -0.21036970931E+03  0.22400430690E+03  0.41800000000E+01 0.  1.
        -11    1    3    3    0    0 -0.17184095130E+02 -0.11186242350E+02 -0.76411489425E+02  0.79114732253E+02  0.00000000000E+00 0.  1.
         11    1    3    3    0    0 -0.38782519847E+02  0.15556866703E+03 -0.59754824751E+03  0.61868376583E+03  0.00000000000E+00 0. -1.
</event>
<event>
 7    1  0.4096326E-006  0.1097705E+03  0.7561462E-02  0.1260996E+00
          2   -1    0    0  501    0  0.00000000000E+00  0.00000000000E+00  0.37664557837E+03  0.37664557837E+03  0.00000000000E+00 0. -1.
         -2   -1    0    0    0  501 -0.00000000000E+00 -0.00000000000E+00 -0.41691299066E+02  0.41691299066E+02  0.00000000000E+00 0.  1.
         23    2    1    2    0    0 -0.17430537386E+01  0.52561152509E+02  0.19691767320E+03  0.22476967387E+03  0.94758235965E+02 0.  0.
          5    1    1    2  502    0 -0.50356065245E+02 -0.18115161611E+02  0.11492058040E+03  0.12683889224E+03  0.41800000000E+01 0.  1.
         -5    1    1    2    0  502  0.52099118983E+02 -0.34445990898E+02  0.23116025709E+02  0.66728311325E+02  0.41800000000E+01 0.  1.
        -11    1    3    3    0    0 -0.22081996977E+02  0.71891656870E+02  0.16997288359E+03  0.18586771122E+03  0.00000000000E+00 0. -1.
         11    1    3    3    0    0  0.20338943238E+02 -0.19330504361E+02  0.26944789612E+02  0.38901962651E+02  0.00000000000E+00 0.  1.
</event>
<event>
 7    1  0.4096326E-006  0.1632330E+03  0.7561462E-02  0.1185094E+00
          2   -1    0    0  501    0  0.00000000000E+00  0.00000000000E+00  0.14873517631E+04  0.14873517631E+04  0.00000000000E+00 0. -1.
         -2   -1    0    0    0  501 -0.00000000000E+00 -0.00000000000E+00 -0.18690663904E+02  0.18690663904E+02  0.00000000000E+00 0.  1.
         23    2    1    2    0    0 -0.76354158757E+02 -0.10313387709E+03  0.69757703101E+03  0.71440882874E+03  0.85438318229E+02 0.  0.
          5    1    1    2  502    0  0.10723507281E+03  0.87181525096E+02  0.51783425953E+03  0.53597553293E+03  0.41800000000E+01 0.  1.
         -5    1    1    2    0  502 -0.30880914049E+02  0.15952351997E+02  0.25324980864E+03  0.25565806532E+03  0.41800000000E+01 0.  1.
        -11    1    3    3    0    0 -0.68203830765E+02 -0.22021380122E+02  0.28668977174E+03  0.29551265444E+03  0.00000000000E+00 0.  1.
         11    1    3    3    0    0 -0.81503279919E+01 -0.81112496971E+02  0.41088725926E+03  0.41889617429E+03  0.00000000000E+00 0. -1.
</event>
<event>
 7    1  0.4096326E-006  0.1279718E+03  0.7561462E-02  0.1230497E+00
         -4   -1    0    0    0  501 -0.00000000000E+00  0.00000000000E+00  0.74447519928E+02  0.74447519928E+02  0.00000000000E+00 0.  1.
          4   -1    0    0  501    0  0.00000000000E+00 -0.00000000000E+00 -0.29551821920E+03  0.29551821920E+03  0.00000000000E+00 0. -1.
         23    2    1    2    0    0  0.65576833035E+02  0.27045534969E+02 -0.19095754411E+03  0.22304591367E+03  0.90845550024E+02 0.  0.
          5    1    1    2  502    0 -0.88682695314E+02  0.19853468764E+02 -0.13951302179E+02  0.92037448371E+02  0.41800000000E+01 0.  1.
         -5    1    1    2    0  502  0.23105862279E+02 -0.46899003733E+02 -0.16161852982E+02  0.54882377086E+02  0.41800000000E+01 0.  1.
        -11    1    3    3    0    0 -0.21741361793E+02  0.29616277948E+01 -0.20558805539E+02  0.30068630448E+02  0.00000000000E+00 0.  1.
         11    1    3    3    0    0  0.87318194828E+02  0.24083907174E+02 -0.17039873857E+03  0.19297728322E+03  0.00000000000E+00 0. -1.
</event>
<event>
 7    1  0.4096326E-006  0.1231994E+03  0.7561462E-02  0.1237911E+00
          1   -1    0    0  501    0  0.00000000000E+00  0.00000000000E+00  0.10991598818E+03  0.10991598818E+03  0.00000000000E+00 0. -1.
         -1   -1    0    0    0  501 -0.00000000000E+00 -0.00000000000E+00 -0.19536195215E+03  0.19536195215E+03  0.00000000000E+00 0.  1.
         23    2    1    2    0    0  0.31684709833E+02 -0.89456135896E+02 -0.64650164427E+02  0.14689555049E+03  0.91609704222E+02 0.  0.
          5    1    1    2  502    0 -0.53722430787E+02 -0.20167205229E+01 -0.33295389684E+02  0.63373670444E+02  0.41800000000E+01 0. -1.
         -5    1    1    2    0  502  0.22037720954E+02  0.91472856419E+02  0.12499590141E+02  0.95008719389E+02  0.41800000000E+01 0. -1.
        -11    1    3    3    0    0  0.93493919651E+00 -0.40305067396E+02 -0.77637671664E+02  0.87481315894E+02  0.00000000000E+00 0.  1.
         11    1    3    3    0    0  0.30749770636E+02 -0.49151068500E+02  0.12987507237E+02  0.59414234599E+02  0.00000000000E+00 0. -1.
</event>
<event>
 7    1  0.4096326E-006  0.1064955E+03  0.7561462E-02  0.1267201E+00
          1   -1    0    0  501    0  0.00000000000E+00  0.00000000000E+00  0.28976373579E+03  0.28976373579E+03  0.00000000000E+00 0. -1.
         -1   -1    0    0    0  501 -0.00000000000E+00 -0.00000000000E+00 -0.51647401776E+02  0.51647401776E+02  0.00000000000E+00 0.  1.
         23    2    1    2    0    0 -0.66783020756E+02 -0.15670367549E+02  0.12108142995E+03  0.16651318802E+03  0.91435205616E+02 0.  0.
          5    1    1    2  502    0  0.28960479130E+02  0.44315393907E+02  0.11563756203E+03  0.12724811056E+03  0.41800000000E+01 0. -1.
         -5    1    1    2    0  502  0.37822541626E+02 -0.28645026358E+02  0.13973420266E+01  0.47649838980E+02  0.41800000000E+01 0.  1.
        -11    1    3    3    0    0  0.22068093910E+02 -0.19560513766E+00  0.12507444033E+02  0.25366812698E+02  0.00000000000E+00 0.  1.
         11    1    3    3    0    0 -0.88851114666E+02 -0.15474762411E+02  0.10857398592E+03  0.14114637533E+03  0.00000000000E+00 0. -1.
</event>
<event>
 7    1  0.4096326E-006  0.2834974E+03  0.7561462E-02  0.1093794E+00
          2   -1    0    0  501    0  0.00000000000E+00  0.00000000000E+00  0.67168190677E+03  0.67168190677E+03  0.00000000000E+00 0. -1.
         -2   -1    0    0    0  501 -0.00000000000E+00 -0.00000000000E+00 -0.12991387632E+03  0.12991387632E+03  0.00000000000E+00 0.  1.
         23    2    1    2    0    0  0.26401133185E+03 -0.54973517646E+02  0.33975607413E+03  0.44218198844E+03  0.85829190872E+02 0.  0.
          5    1    1    2  502    0 -0.22720200243E+03  0.91714381890E+02  0.16888137615E+03  0.29760824815E+03  0.41800000000E+01 0.  1.
         -5    1    1    2    0  502 -0.36809329413E+02 -0.36740864244E+02  0.33130580176E+02  0.61805546515E+02  0.41800000000E+01 0.  1.
        -11    1    3    3    0    0  0.17496751078E+03 -0.39878254909E+02  0.15746561505E+03  0.23874531402E+03  0.00000000000E+00 0. -1.
         11    1    3    3    0    0  0.89043821066E+02 -0.15095262738E+02  0.18229045908E+03  0.20343667442E+03  0.00000000000E+00 0.  1.
</event>
<event>
 7    1  0.4096326E-006  0.1741178E+03  0.7561462E-02  0.1173620E+00
         -2   -1    0    0    0  501 -0.00000000000E+00  0.00000000000E+00  0.64527803034E+03  0.64527803034E+03  0.00000000000E+00 0.  1.
          2   -1    0    0  501    0  0.00000000000E+00 -0.00000000000E+00 -0.52232259287E+02  0.52232259287E+02  0.00000000000E+00 0. -1.
         23    2    1    2    0    0 -0.65280543419E+02  0.12371563812E+03  0.19292406445E+03  0.25557076966E+03  0.92355915877E+02 0.  0.
          5    1    1    2  502    0 -0.27572862387E+02  0.52037192446E+01  0.51430453880E+02  0.58735895503E+02  0.41800000000E+01 0. -1.
         -5    1    1    2    0  502  0.92853405806E+02 -0.12891935737E+03  0.34869125273E+03  0.38320362446E+03  0.41800000000E+01 0. -1.
        -11    1    3    3    0    0 -0.68989597447E+02  0.45526958864E+02  0.13460269106E+03  0.15795617424E+03  0.00000000000E+00 0.  1.
         11    1    3    3    0    0  0.37090540277E+01  0.78188679259E+02  0.58321373389E+02  0.97614595425E+02  0.00000000000E+00 0. -1.
</event>
<event>
 7    1  0.4096326E-006  0.9152428E+02  0.7561462E-02  0.1299202E+00
         -2   -1    0    0    0  501 -0.00000000000E+00  0.00000000000E+00  0.76485460312E+02  0.76485460312E+02  0.00000000000E+00 0.  1.
          2   -1    0    0  501    0  0.00000000000E+00 -0.00000000000E+00 -0.17470440554E+03  0.17470440554E+03  0.00000000000E+00 0. -1.
         23    2    1    2    0    0  0.30087433380E+02  0.15782452642E+02 -0.69715540822E+02  0.11847260062E+03  0.89560934597E+02 0.  0.
          5    1    1    2  502    0 -0.19449435904E+02  0.53565391171E+02 -0.72886211161E+00  0.57144862658E+02  0.41800000000E+01 0.  1.
         -5    1    1    2    0  502 -0.10637997476E+02 -0.69347843813E+02 -0.27774542296E+02  0.75572402579E+02  0.41800000000E+01 0.  1.
        -11    1    3    3    0    0  0.25701900583E+02  0.30721787520E+02  0.65910091557E+01  0.40593808933E+02  0.00000000000E+00 0.  1.
         11    1    3    3    0    0  0.43855327966E+01 -0.14939334878E+02 -0.76306549977E+02  0.77878791682E+02  0.00000000000E+00 0. -1.
</event>
<event>
 7    1  0.4096326E-006  0.1230472E+03  0.7561462E-02  0.1238153E+00
         -3   -1    0    0    0  501 -0.00000000000E+00  0.00000000000E+00  0.40909550737E+03  0.40909550737E+03  0.00000000000E+00 0.  1.
          3   -1    0    0  501    0  0.00000000000E+00 -0.00000000000E+00 -0.40767821743E+02  0.40767821743E+02  0.00000000000E+00 0. -1.
         23    2    1    2    0    0 -0.34123402518E+02  0.53314349443E+02  0.11959619360E+03  0.16434454439E+03  0.93268715493E+02 0.  0.
          5    1    1    2  502    0 -0.15106120579E+02  0.34349720321E+02  0.89728929332E+02  0.97349120819E+02  0.41800000000E+01 0.  1.
         -5    1    1    2    0  502  0.49229523097E+02 -0.87664069764E+02  0.15900256270E+03  0.18816966391E+03  0.41800000000E+01 0.  1.
        -11    1    3    3    0    0  0.14922747968E+02 -0.16590985640E+02  0.77431026094E+01  0.23620009514E+02  0.00000000000E+00 0.  1.
         11    1    3    3    0    0 -0.49046150487E+02  0.69905335083E+02  0.11185309099E+03  0.14072453487E+03  0.00000000000E+00 0. -1.
</event>
<event>
 7    1  0.4096326E-006  0.1947166E+03  0.7561462E-02  0.1154275E+00
          1   -1    0    0  501    0  0.00000000000E+00  0.00000000000E+00  0.82330167472E+03  0.82330167472E+03  0.00000000000E+00 0. -1.
         -1   -1    0    0    0  501 -0.00000000000E+00 -0.00000000000E+00 -0.52793528287E+02  0.52793528287E+02  0.00000000000E+00 0.  1.
         23    2    1    2    0    0  0.12280326599E+03  0.12617844081E+03  0.42772607717E+03  0.47094239342E+03  0.88518358346E+02 0.  0.
          5    1    1    2  502    0 -0.57039984696E+02 -0.11257030993E+03  0.12685198083E+03  0.17898193197E+03  0.41800000000E+01 0. -1.
         -5    1    1    2    0  502 -0.65763281292E+02 -0.13608130879E+02  0.21593008843E+03  0.22617087761E+03  0.41800000000E+01 0. -1.
        -11    1    3    3    0    0  0.56148034280E+02  0.34917500921E+01  0.14735653146E+03  0.15772996366E+03  0.00000000000E+00 0. -1.
         11    1    3    3    0    0  0.66655231707E+02  0.12268669072E+03  0.28036954572E+03  0.31321242976E+03  0.00000000000E+00 0.  1.
</event>
<event>
 7    1  0.4096326E-006  0.8487450E+02  0.7561462E-02  0.1315761E+00
          1   -1    0    0  501    0  0.00000000000E+00  0.00000000000E+00  0.38129189437E+02  0.38129189437E+02  0.00000000000E+00 0. -1.
         -1   -1    0    0    0  501 -0.00000000000E+00 -0.00000000000E+00 -0.42457669903E+03  0.42457669903E+03  0.00000000000E+00 0.  1.
         23    2    1    2    0    0  0.28920529999E+02  0.52534896388E+02 -0.12827615601E+03  0.16962018014E+03  0.93380516781E+02 0.  0.
          5    1    1    2  502    0 -0.16160755667E+02 -0.60480754969E+02 -0.40110792392E+02  0.74467709859E+02  0.41800000000E+01 0. -1.
         -5    1    1    2    0  502 -0.12759774332E+02  0.79458585806E+01 -0.21806056119E+03  0.21861799847E+03  0.41800000000E+01 0. -1.
        -11    1    3    3    0    0 -0.22939449923E+02  0.16154810685E+02 -0.92941202061E+02  0.97083795309E+02  0.00000000000E+00 0.  1.
         11    1    3    3    0    0  0.51859979922E+02  0.36380085703E+02 -0.35334953953E+02  0.72536384829E+02  0.00000000000E+00 0. -1.
</event>
<event>
 7    1  0.4096326E-006  0.1002907E+03  0.7561462E-02  0.1279686E+00
          2   -1    0    0  501    0  0.00000000000E+00  0.00000000000E+00  0.53163243529E+03  0.53163243529E+03  0.00000000000E+00 0. -1.
         -2   -1    0    0    0  501 -0.00000000000E+00 -0.00000000000E+00 -0.23448886887E+02  0.23448886887E+02  0.00000000000E+00 0.  1.
         23    2    1    2    0    0  0.40397238252E+02 -0.21550158307E+01  0.28760434144E+03  0.30491229258E+03  0.92836781489E+02 0.  0.
          5    1    1    2  502    0 -0.16995070151E+02  0.55733786232E+02  0.93940306867E+02  0.11062251575E+03  0.41800000000E+01 0. -1.
         -5    1    1    2    0  502 -0.23402168101E+02 -0.53578770402E+02  0.12663890010E+03  0.13954651385E+03  0.41800000000E+01 0.  1.
        -11    1    3    3    0    0 -0.20443294584E+02 -0.89754445230E+01  0.18689998093E+02  0.29117055595E+02  0.00000000000E+00 0.  1.
         11    1    3    3    0    0  0.60840532836E+02  0.68204286924E+01  0.26891434335E+03  0.27579523698E+03  0.00000000000E+00 0. -1.
</event>
<event>
 7    1  0.4096326E-006  0.1111531E+03  0.7561462E-02  0.1258449E+00
         -4   -1    0    0    0  501 -0.00000000000E+00  0.00000000000E+00  0.85763288799E+02  0.85763288799E+02  0.00000000000E+00 0.  1.
          4   -1    0    0  501    0  0.00000000000E+00 -0.00000000000E+00 -0.22142001394E+03  0.22142001394E+03  0.00000000000E+00 0. -1.
         23    2    1    2    0    0 -0.47472937189E+02  0.54429880661E+02 -0.11231915934E+03  0.16087039502E+03  0.89707294937E+02 0.  0.
          5    1    1    2  502    0  0.77352186903E+02 -0.61694977912E+02 -0.44686279262E+02  0.10864606331E+03  0.41800000000E+01 0. -1.
         -5    1    1    2    0  502 -0.29879249715E+02  0.72650972511E+01  0.21348713460E+02  0.37666844412E+02  0.41800000000E+01 0. -1.
        -11    1    3    3    0    0 -0.27436124253E+01  0.46784372835E+02 -0.85841581845E+01  0.47644440625E+02  0.00000000000E+00 0.  1.
         11    1    3    3    0    0 -0.44729324763E+02  0.76455078252E+01 -0.10373500116E+03  0.11322595440E+03  0.00000000000E+00 0. -1.
</event>
<event>
 7    1  0.4096326E-006  0.1550631E+03  0.7561462E-02  0.1194386E+00
         -2   -1    0    0    0  501 -0.00000000000E+00  0.00000000000E+00  0.37723753638E+02  0.37723753638E+02  0.00000000000E+00 0.  1.
          2   -1    0    0  501    0  0.00000000000E+00 -0.00000000000E+00 -0.73571511902E+03  0.73571511902E+03  0.00000000000E+00 0. -1.
         23    2    1    2    0    0  0.83149920173E+02  0.93860363774E+02 -0.31656638045E+03  0.35289647103E+03  0.92725233440E+02 0.  0.
          5    1    1    2  502    0 -0.11388616119E+03 -0.83327275221E+02 -0.33673310863E+03  0.36513032106E+03  0.41800000000E+01 0.  1.
         -5    1    1    2    0  502  0.30736241022E+02 -0.10533088553E+02 -0.44691876301E+02  0.55412080578E+02  0.41800000000E+01 0.  1.
        -11    1    3    3    0    0  0.56649604802E+02  0.93929204963E+02 -0.15929657621E+03  0.19340959765E+03  0.00000000000E+00 0.  1.
         11    1    3    3    0    0  0.26500315371E+02 -0.68841188717E-01 -0.15726980424E+03  0.15948687338E+03  0.00000000000E+00 0. -1.
</event>
<event>
 7    1  0.4096326E-006  0.7570698E+02  0.7561462E-02  0.1341696E+00
          2   -1    0    0  501    0  0.00000000000E+00  0.00000000000E+00  0.18360186532E+03  0.18360186532E+03  0.00000000000E+00 0. -1.
         -2   -1    0    0    0  501 -0.00000000000E+00 -0.00000000000E+00 -0.73157411482E+02  0.73157411482E+02  0.00000000000E+00 0.  1.
         23    2    1    2    0    0 -0.22497184202E+02 -0.10189724594E+02  0.79567655774E+02  0.12556869291E+03  0.93949619526E+02 0.  0.
          5    1    1    2  502    0  0.64542110844E+02 -0.48283709366E+01 -0.15496215840E+02  0.66682848945E+02  0.41800000000E+01 0. -1.
         -5    1    1    2    0  502 -0.42044926642E+02  0.15018095530E+02  0.46373013905E+02  0.64507734950E+02  0.41800000000E+01 0. -1.
        -11    1    3    3    0    0 -0.21041198731E+02  0.87001243548E+01 -0.16200658669E+02  0.27944329463E+02  0.00000000000E+00 0.  1.
         11    1    3    3    0    0 -0.14559854709E+01 -0.18889848948E+02  0.95768314443E+02  0.97624363446E+02  0.00000000000E+00 0. -1.
</event>
<event>
 7    1  0.4096326E-006  0.1138715E+03  0.7561462E-02  0.1253564E+00
          2   -1    0    0  501    0  0.00000000000E+00  0.00000000000E+00  0.45197488063E+02  0.45197488063E+02  0.00000000000E+00 0. -1.
         -2   -1    0    0    0  501 -0.00000000000E+00 -0.00000000000E+00 -0.50310890150E+03  0.50310890150E+03  0.00000000000E+00 0.  1.
         23    2    1    2    0    0 -0.83595889080E+02  0.77545010924E+01 -0.10344393470E+03  0.16316320759E+03  0.94197556891E+02 0.  0.
          5    1    1    2  502    0 -0.60954391155E+01 -0.11842000730E+02 -0.23612605580E+03  0.23653831399E+03  0.41800000000E+01 0.  1.
         -5    1    1    2    0  502  0.89691328196E+02  0.40874996379E+01 -0.11834142293E+03  0.14860486798E+03  0.41800000000E+01 0.  1.
        -11    1    3    3    0    0  0.15840504069E+02  0.17955050467E+02 -0.88067568236E+01  0.25512043670E+02  0.00000000000E+00 0. -1.
         11    1    3    3    0    0 -0.99436393149E+02 -0.10200549375E+02 -0.94637177881E+02  0.13765116392E+03  0.00000000000E+00 0.  1.
</event>
<event>
 7    1  0.4096326E-006  0.7558290E+02  0.7561462E-02  0.1342075E+00
          1   -1    0    0  501    0  0.00000000000E+00  0.00000000000E+00  0.44695843150E+03  0.44695843150E+03  0.00000000000E+00 0. -1.
         -1   -1    0    0    0  501 -0.00000000000E+00 -0.00000000000E+00 -0.28975366413E+02  0.28975366413E+02  0.00000000000E+00 0.  1.
         23    2    1    2    0    0  0.27171806583E+02 -0.86884353386E+01  0.22001737710E+03  0.24003113400E+03  0.91616063441E+02 0.  0.
          5    1    1    2  502    0 -0.24678946891E+02 -0.37512221223E+02  0.15608812778E+02  0.47721322247E+02  0.41800000000E+01 0.  1.
         -5    1    1    2    0  502 -0.24928596924E+01  0.46200656562E+02  0.18235687521E+03  0.18818134167E+03  0.41800000000E+01 0.  1.
        -11    1    3    3    0    0 -0.14229433770E+02  0.63274620664E+01 -0.77819278507E-01  0.15573041369E+02  0.00000000000E+00 0.  1.
         11    1    3    3    0    0  0.41401240353E+02 -0.15015897405E+02  0.22009519638E+03  0.22445809263E+03  0.00000000000E+00 0. -1.
</event>
<event>
 7    1  0.4096326E-006  0.1216515E+03  0.7561462E-02  0.1240397E+00
          1   -1    0    0  501    0  0.00000000000E+00  0.00000000000E+00  0.59630612891E+02  0.59630612891E+02  0.00000000000E+00 0. -1.
         -1   -1    0    0    0  501 -0.00000000000E+00 -0.00000000000E+00 -0.32054131213E+03  0.32054131213E+03  0.00000000000E+00 0.  1.
         23    2    1    2    0    0 -0.68790264678E+02  0.89755049329E+01 -0.49538247615E+02  0.12495237172E+03  0.91358617643E+02 0.  0.
          5    1    1    2  502    0  0.76597404859E+02  0.43913965602E+02 -0.11645973491E+03  0.14620513350E+03  0.41800000000E+01 0.  1.
         -5    1    1    2    0  502 -0.78071401808E+01 -0.52889470535E+02 -0.94912716711E+02  0.10901441980E+03  0.41800000000E+01 0.  1.
        -11    1    3    3    0    0 -0.41271843148E+02 -0.31793958581E+02  0.39971058012E+01  0.52251293705E+02  0.00000000000E+00 0. -1.
         11    1    3    3    0    0 -0.27518421529E+02  0.40769463514E+02 -0.53535353416E+02  0.72701078012E+02  0.00000000000E+00 0.  1.
</event>
<event>
 7    1  0.4096326E-006  0.9002148E+02  0.7561462E-02  0.1302800E+00
          1   -1    0    0  501    0  0.00000000000E+00  0.00000000000E+00  0.27337035185E+03  0.27337035185E+03  0.00000000000E+00 0. -1.
         -1   -1    0    0    0  501 -0.00000000000E+00 -0.00000000000E+00 -0.50543239501E+02  0.50543239501E+02  0.00000000000E+00 0.  1.
         23    2    1    2    0    0 -0.56590391570E+02 -0.35453374219E+01  0.85606664496E+02  0.12976801104E+03  0.79348559200E+02 0.  0.
          5    1    1    2  502    0  0.67311426840E+02 -0.13711028722E+02  0.15335744336E+02  0.70508708301E+02  0.41800000000E+01 0.  1.
         -5    1    1    2    0  502 -0.10721035270E+02  0.17256366144E+02  0.12188470352E+03  0.12363687202E+03  0.41800000000E+01 0.  1.
        -11    1    3    3    0    0 -0.24401445902E+02 -0.36828508583E+02  0.17732454631E+02  0.47604721969E+02  0.00000000000E+00 0.  1.
         11    1    3    3    0    0 -0.32188945669E+02  0.33283171161E+02  0.67874209865E+02  0.82163289069E+02  0.00000000000E+00 0. -1.
</event>
<event>
 7    1  0.4096326E-006  0.7766913E+02  0.7561462E-02  0.1335799E+00
          2   -1    0    0  501    0  0.00000000000E+00  0.00000000000E+00  0.55041597317E+03  0.55041597317E+03  0.00000000000E+00 0. -1.
         -2   -1    0    0    0  501 -0.00000000000E+00 -0.00000000000E+00 -0.31488797030E+02  0.31488797030E+02  0.00000000000E+00 0.  1.
         23    2    1    2    0    0 -0.45419357838E+02 -0.20923487302E+02  0.35293223080E+03  0.36812415835E+03  0.91943058663E+02 0.  0.
          5    1    1    2  502    0  0.20844185781E+02  0.47702286721E+01  0.17973624197E+03  0.18105199319E+03  0.41800000000E+01 0.  1.
         -5    1    1    2    0  502  0.24575172058E+02  0.16153258630E+02 -0.13741296629E+02  0.32728618655E+02  0.41800000000E+01 0.  1.
        -11    1    3    3    0    0 -0.23984345408E+02 -0.57023464050E+02  0.23224469541E+03  0.24034251148E+03  0.00000000000E+00 0.  1.
         11    1    3    3    0    0 -0.21435012431E+02  0.36099976749E+02  0.12068753539E+03  0.12778164688E+03  0.00000000000E+00 0. -1.
</event>
<event>
 7    1  0.4096326E-006  0.7783191E+02  0.7561462E-02  0.1335319E+00
         -3   -1    0    0    0  501 -0.00000000000E+00  0.00000000000E+00  0.20423290186E+03  0.20423290186E+03  0.00000000000E+00 0.  1.
          3   -1    0    0  501    0  0.00000000000E+00 -0.00000000000E+00 -0.95221629540E+02  0.95221629540E+02  0.00000000000E+00 0. -1.
         23    2    1    2    0    0 -0.19613092543E+02  0.39095510408E+02 -0.31780664377E+02  0.10610869881E+03  0.91301221254E+02 0.  0.
          5    1    1    2  502    0 -0.19081189441E+02  0.23892932092E+02  0.10807911418E+03  0.11239898272E+03  0.41800000000E+01 0.  1.
         -5    1    1    2    0  502  0.38694281984E+02 -0.62988442500E+02  0.32712822525E+02  0.80946849874E+02  0.41800000000E+01 0.  1.
        -11    1    3    3    0    0  0.59641466272E+01  0.12561734141E+02  0.30624419079E+02  0.33633662506E+02  0.00000000000E+00 0.  1.
         11    1    3    3    0    0 -0.25577239170E+02  0.26533776268E+02 -0.62405083457E+02  0.72475036308E+02  0.00000000000E+00 0. -1.
</event>
<event>
 7    1  0.4096326E-006  0.1968881E+03  0.7561462E-02  0.1152391E+00
         -3   -1    0    0    0  501 -0.00000000000E+00  0.00000000000E+00  0.12561666791E+03  0.12561666791E+03  0.00000000000E+00 0.  1.
          3   -1    0    0  501    0  0.00000000000E+00 -0.00000000000E+00 -0.33113872553E+03  0.33113872553E+03  0.00000000000E+00 0. -1.
         23    2    1    2    0    0  0.13198806156E+03  0.11077262899E+03 -0.94277300829E+02  0.21651699327E+03  0.91104199665E+02 0.  0.
          5    1    1    2  502    0  0.19361297519E+02 -0.21451228805E+02  0.48141037913E+01  0.29591604455E+02  0.41800000000E+01 0.  1.
         -5    1    1    2    0  502 -0.15134935908E+03 -0.89321400181E+02 -0.11605886058E+03  0.21064679571E+03  0.41800000000E+01 0.  1.
        -11    1    3    3    0    0  0.13347509192E+03  0.75233382210E+02 -0.53227412436E+02  0.16219993649E+03  0.00000000000E+00 0.  1.
         11    1    3    3    0    0 -0.14870303576E+01  0.35539246776E+02 -0.41049888393E+02  0.54317056785E+02  0.00000000000E+00 0. -1.
</event>
<event>
 7    1  0.5369342E-006  0.1483331E+03  0.7561462E-02  0.1202536E+00
         -1   -1    0    0    0  501 -0.00000000000E+00  0.00000000000E+00  0.66781786163E+03  0.66781786163E+03  0.00000000000E+00 0.  1.
          1   -1    0    0  501    0  0.00000000000E+00 -0.00000000000E+00 -0.41213166252E+02  0.41213166252E+02  0.00000000000E+00 0. -1.
         23    2    1    2    0    0 -0.10571898068E+02 -0.12671499011E+03  0.29065404080E+03  0.32866428516E+03  0.85860276947E+02 0.  0.
          5    1    1    2  502    0  0.15973445068E+02  0.14652024234E+03  0.23623432268E+03  0.27847344572E+03  0.41800000000E+01 0. -1.
         -5    1    1    2    0  502 -0.54015470001E+01 -0.19805252226E+02  0.99716331899E+02  0.10189329700E+03  0.41800000000E+01 0. -1.
        -11    1    3    3    0    0  0.17000002789E+01 -0.78436464802E+02  0.79421501411E+02  0.11163755595E+03  0.00000000000E+00 0. -1.
         11    1    3    3    0    0 -0.12271898347E+02 -0.48278525312E+02  0.21123253939E+03  0.21702672922E+03  0.00000000000E+00 0.  1.
</event>
<event>
 7    1  0.4096326E-006  0.8615130E+02  0.7561462E-02  0.1312449E+00
          3   -1    0    0  501    0  0.00000000000E+00  0.00000000000E+00  0.15207949746E+03  0.15207949746E+03  0.00000000000E+00 0.  1.
         -3   -1    0    0    0  501 -0.00000000000E+00 -0.00000000000E+00 -0.10448098592E+03  0.10448098592E+03  0.00000000000E+00 0. -1.
         23    2    1    2    0    0 -0.45437369615E+02  0.67360524282E+01  0.66573958179E+02  0.12195807828E+03  0.91278431127E+02 0.  0.
          5    1    1    2  502    0 -0.21189608031E+02  0.27213739421E+01 -0.54288341417E+02  0.58490185317E+02  0.41800000000E+01 0.  1.
         -5    1    1    2    0  502  0.66626977646E+02 -0.94574263703E+01  0.35312894772E+02  0.76112219787E+02  0.41800000000E+01 0.  1.
        -11    1    3    3    0    0  0.57009425636E+01 -0.23174914015E+02  0.57197885849E+02  0.61977217841E+02  0.00000000000E+00 0.  1.
         11    1    3    3    0    0 -0.51138312179E+02  0.29910966444E+02  0.93760723305E+01  0.59980860434E+02  0.00000000000E+00 0. -1.
</event>
<event>
 7    1  0.4096326E-006  0.1353732E+03  0.7561462E-02  0.1219694E+00
          2   -1    0    0  501    0  0.00000000000E+00  0.00000000000E+00  0.27819238012E+02  0.27819238012E+02  0.00000000000E+00 0. -1.
         -2   -1    0    0    0  501 -0.00000000000E+00 -0.00000000000E+00 -0.95044618202E+03  0.95044618202E+03  0.00000000000E+00 0.  1.
         23    2    1    2    0    0  0.19015085221E+02 -0.11775621080E+03 -0.48223199212E+03  0.50516659186E+03  0.91746894575E+02 0.  0.
          5    1    1    2  502    0 -0.17355848415E+02  0.11006031356E+03 -0.17466414687E+03  0.20721856745E+03  0.41800000000E+01 0.  1.
         -5    1    1    2    0  502 -0.16592368058E+01  0.76958972314E+01 -0.26573080502E+03  0.26588026071E+03  0.41800000000E+01 0.  1.
        -11    1    3    3    0    0  0.12607938211E+02  0.13759469001E+02 -0.67684380413E+02  0.70210102157E+02  0.00000000000E+00 0.  1.
         11    1    3    3    0    0  0.64071470096E+01 -0.13151567980E+03 -0.41454761171E+03  0.43495648971E+03  0.00000000000E+00 0. -1.
</event>
<event>
 7    1  0.4096326E-006  0.1436422E+03  0.7561462E-02  0.1208510E+00
          1   -1    0    0  501    0  0.00000000000E+00  0.00000000000E+00  0.64756566869E+02  0.64756566869E+02  0.00000000000E+00 0. -1.
         -1   -1    0    0    0  501 -0.00000000000E+00 -0.00000000000E+00 -0.40923957489E+03  0.40923957489E+03  0.00000000000E+00 0.  1.
         23    2    1    2    0    0 -0.87716658482E+02  0.72532192912E+02 -0.10023329535E+03  0.17690750768E+03  0.91073715156E+02 0.  0.
          5    1    1    2  502    0  0.11562961015E+03 -0.41331285071E+02 -0.15015822677E+03  0.19401919321E+03  0.41800000000E+01 0. -1.
         -5    1    1    2    0  502 -0.27912951667E+02 -0.31200907841E+02 -0.94091485905E+02  0.10306944087E+03  0.41800000000E+01 0. -1.
        -11    1    3    3    0    0 -0.39399384090E+02  0.61089017632E+02 -0.92788886093E+01  0.73282175976E+02  0.00000000000E+00 0. -1.
         11    1    3    3    0    0 -0.48317274392E+02  0.11443175280E+02 -0.90954406736E+02  0.10362533170E+03  0.00000000000E+00 0.  1.
</event>
<event>
 7    1  0.4096326E-006  0.1046374E+03  0.7561462E-02  0.1270836E+00
          1   -1    0    0  501    0  0.00000000000E+00  0.00000000000E+00  0.72033404429E+02  0.72033404429E+02  0.00000000000E+00 0. -1.
         -1   -1    0    0    0  501 -0.00000000000E+00 -0.00000000000E+00 -0.29296779438E+03  0.29296779438E+03  0.00000000000E+00 0.  1.
         23    2    1    2    0    0  0.59195360129E+02 -0.89347852562E+01 -0.80936817492E+00  0.10940682718E+03  0.91571161997E+02 0.  0.
          5    1    1    2  502    0  0.19245574984E+02 -0.10586774054E+02 -0.14344845533E+01  0.22405403082E+02  0.41800000000E+01 0. -1.
         -5    1    1    2    0  502 -0.78440935113E+02  0.19521559310E+02 -0.21869053722E+03  0.23318896854E+03  0.41800000000E+01 0.  1.
        -11    1    3    3    0    0 -0.15524725080E+02 -0.25111161817E+02 -0.12513245991E+02  0.32065072303E+02  0.00000000000E+00 0.  1.
         11    1    3    3    0    0  0.74720085209E+02  0.16176376561E+02  0.11703877816E+02  0.77341754882E+02  0.00000000000E+00 0. -1.
</event>
<event>
 7    1  0.4096326E-006  0.1774654E+03  0.7561462E-02  0.1170279E+00
         -2   -1    0    0    0  501 -0.00000000000E+00  0.00000000000E+00  0.80958347037E+03  0.80958347037E+03  0.00000000000E+00 0.  1.
          2   -1    0    0  501    0  0.00000000000E+00 -0.00000000000E+00 -0.54206942340E+02  0.54206942340E+02  0.00000000000E+00 0. -1.
         23    2    1    2    0    0 -0.11853896206E+03 -0.95882355043E+02  0.18698676583E+03  0.26215927868E+03  0.10255986188E+03 0.  0.
          5    1    1    2  502    0 -0.34623184435E+01  0.44762980000E+02  0.28882005280E+03  0.29231867427E+03  0.41800000000E+01 0.  1.
         -5    1    1    2    0  502  0.12200128050E+03  0.51119375043E+02  0.27956970939E+03  0.30931245975E+03  0.41800000000E+01 0.  1.
        -11    1    3    3    0    0 -0.83311061600E+02 -0.90642776701E+01  0.12248639753E+03  0.14841095544E+03  0.00000000000E+00 0. -1.
         11    1    3    3    0    0 -0.35227900456E+02 -0.86818077373E+02  0.64500368298E+02  0.11374832324E+03  0.00000000000E+00 0.  1.
</event>
<event>
 7    1  0.4096326E-006  0.1042671E+03  0.7561462E-02  0.1271570E+00
          1   -1    0    0  501    0  0.00000000000E+00  0.00000000000E+00  0.38523501818E+02  0.38523501818E+02  0.00000000000E+00 0. -1.
         -1   -1    0    0    0  501 -0.00000000000E+00 -0.00000000000E+00 -0.38697471535E+03  0.38697471535E+03  0.00000000000E+00 0.  1.
         23    2    1    2    0    0  0.41930749094E+02  0.33826858113E+02 -0.12006840452E+03  0.15958673624E+03  0.90272147255E+02 0.  0.
          5    1    1    2  502    0  0.21285661579E+02  0.12721219239E+02 -0.15924657388E+03  0.16121988866E+03  0.41800000000E+01 0. -1.
         -5    1    1    2    0  502 -0.63216410673E+02 -0.46548077352E+02 -0.69136235138E+02  0.10469159227E+03  0.41800000000E+01 0. -1.
        -11    1    3    3    0    0  0.58807564415E+02 -0.82987240328E+01 -0.74504814069E+02  0.95279408964E+02  0.00000000000E+00 0.  1.
         11    1    3    3    0    0 -0.16876815321E+02  0.42125582145E+02 -0.45563590446E+02  0.64307327271E+02  0.00000000000E+00 0. -1.
</event>
<event>
 7    1  0.4096326E-006  0.1062646E+03  0.7561462E-02  0.1267648E+00
         -3   -1    0    0    0  501 -0.00000000000E+00  0.00000000000E+00  0.10437501976E+04  0.10437501976E+04  0.00000000000E+00 0.  1.
          3   -1    0    0  501    0  0.00000000000E+00 -0.00000000000E+00 -0.27949073265E+02  0.27949073265E+02  0.00000000000E+00 0. -1.
         23    2    1    2    0    0  0.33318336535E+02 -0.45044544763E+02  0.96683309446E+02  0.14401840512E+03  0.90854367677E+02 0.  0.
          5    1    1    2  502    0  0.98642411083E+01 -0.31479080005E+02  0.15566497946E+03  0.15917692660E+03  0.41800000000E+01 0. -1.
         -5    1    1    2    0  502 -0.43182577643E+02  0.76523624768E+02  0.76345283543E+03  0.76850393915E+03  0.41800000000E+01 0.  1.
        -11    1    3    3    0    0  0.20432653601E+02  0.17836780065E+02 -0.99094414634E+00  0.27140855303E+02  0.00000000000E+00 0.  1.
         11    1    3    3    0    0  0.12885682933E+02 -0.62881324828E+02  0.97674253592E+02  0.11687754982E+03  0.00000000000E+00 0. -1.
</event>
<event>
 7    1  0.4096326E-006  0.1673044E+03  0.7561462E-02  0.1180688E+00
         -3   -1    0    0    0  501 -0.00000000000E+00  0.00000000000E+00  0.94971288896E+02  0.94971288896E+02  0.00000000000E+00 0.  1.
          3   -1    0    0  501    0  0.00000000000E+00 -0.00000000000E+00 -0.37485755469E+03  0.37485755469E+03  0.00000000000E+00 0. -1.
         23    2    1    2    0    0 -0.57861820613E+02  0.97364848437E+02 -0.20576009201E+03  0.25149788886E+03  0.89922570263E+02 0.  0.
          5    1    1    2  502    0 -0.59406105686E+02 -0.44536236769E+02 -0.43122901075E+02  0.85962891851E+02  0.41800000000E+01 0. -1.
         -5    1    1    2    0  502  0.11726792630E+03 -0.52828611668E+02 -0.31003272707E+02  0.13236806287E+03  0.41800000000E+01 0.  1.
        -11    1    3    3    0    0 -0.51946527951E+02  0.22750368371E+02 -0.14294677923E+03  0.15378492358E+03  0.00000000000E+00 0. -1.
         11    1    3    3    0    0 -0.59152926626E+01  0.74614480066E+02 -0.62813312781E+02  0.97712965287E+02  0.00000000000E+00 0.  1.
</event>
<event>
 7    1  0.4096326E-006  0.1414699E+03  0.7561462E-02  0.1211365E+00
          1   -1    0    0  501    0  0.00000000000E+00  0.00000000000E+00  0.72788888444E+03  0.72788888444E+03  0.00000000000E+00 0. -1.
         -1   -1    0    0    0  501 -0.00000000000E+00 -0.00000000000E+00 -0.28710306787E+02  0.28710306787E+02  0.00000000000E+00 0.  1.
         23    2    1    2    0    0 -0.92030482188E+02  0.23612772568E+02  0.33527415786E+03  0.36024235560E+03  0.91316050956E+02 0.  0.
          5    1    1    2  502    0 -0.12929184678E+02  0.30502494754E+02  0.13104352306E+03  0.13523107387E+03  0.41800000000E+01 0. -1.
         -5    1    1    2    0  502  0.10495966687E+03 -0.54115267322E+02  0.23286089673E+03  0.26112576175E+03  0.41800000000E+01 0. -1.
        -11    1    3    3    0    0 -0.48353810672E+02 -0.33983007503E+02  0.13705841026E+03  0.14925797676E+03  0.00000000000E+00 0.  1.
         11    1    3    3    0    0 -0.43676671516E+02  0.57595780071E+02  0.19821574760E+03  0.21098437884E+03  0.00000000000E+00 0. -1.
</event>
<event>
 7    1  0.4096326E-006  0.6510590E+02  0.7561462E-02  0.1377574E+00
         -1   -1    0    0    0  501 -0.00000000000E+00  0.00000000000E+00  0.12962122605E+03  0.12962122605E+03  0.00000000000E+00 0.  1.
          1   -1    0    0  501    0  0.00000000000E+00 -0.00000000000E+00 -0.97512992389E+02  0.97512992389E+02  0.00000000000E+00 0. -1.
         23    2    1    2    0    0  0.30207884569E+02 -0.10510720420E+02  0.22629169581E+02  0.97673621283E+02  0.89471031316E+02 0.  0.
          5    1    1    2  502    0 -0.20291936210E+02  0.85086401070E+00 -0.57402899149E+02  0.61033203057E+02  0.41800000000E+01 0.  1.
         -5    1    1    2    0  502 -0.99159483590E+01  0.96598564093E+01  0.66881963226E+02  0.68427394095E+02  0.41800000000E+01 0.  1.
        -11    1    3    3    0    0  0.27480530075E+01  0.38627581428E+02  0.90791968314E+01  0.39775289533E+02  0.00000000000E+00 0. -1.
         11    1    3    3    0    0  0.27459831562E+02 -0.49138301848E+02  0.13549972750E+02  0.57898331750E+02  0.00000000000E+00 0.  1.
</event>
<event>
 7    1  0.4096326E-006  0.1024560E+03  0.7561462E-02  0.1275215E+00
         -3   -1    0    0    0  501 -0.00000000000E+00  0.00000000000E+00  0.18957128076E+02  0.18957128076E+02  0.00000000000E+00 0.  1.
          3   -1    0    0  501    0  0.00000000000E+00 -0.00000000000E+00 -0.75710826885E+03  0.75710826885E+03  0.00000000000E+00 0. -1.
         23    2    1    2    0    0  0.14276505890E+02 -0.15184789624E+02 -0.47466760624E+03  0.48365190985E+03  0.90418123358E+02 0.  0.
          5    1    1    2  502    0 -0.26745794924E+02 -0.43921938629E+02 -0.55423729198E+02  0.75721439482E+02  0.41800000000E+01 0.  1.
         -5    1    1    2    0  502  0.12469289033E+02  0.59106728253E+02 -0.20805980533E+03  0.21669204759E+03  0.41800000000E+01 0.  1.
        -11    1    3    3    0    0 -0.23396103592E+02 -0.40924042972E+02 -0.24663667934E+03  0.25110118788E+03  0.00000000000E+00 0.  1.
         11    1    3    3    0    0  0.37672609483E+02  0.25739253348E+02 -0.22803092690E+03  0.23255072197E+03  0.00000000000E+00 0. -1.
</event>
<event>
 7    1  0.4423668E-006  0.2738192E+03  0.7561462E-02  0.1099113E+00
          2   -1    0    0  501    0  0.00000000000E+00  0.00000000000E+00  0.73284883910E+03  0.73284883910E+03  0.00000000000E+00 0. -1.
         -2   -1    0    0    0  501 -0.00000000000E+00 -0.00000000000E+00 -0.10866816467E+03  0.10866816467E+03  0.00000000000E+00 0.  1.
         23    2    1    2    0    0 -0.92001414975E+02  0.24299170595E+03  0.29250180334E+03  0.40200841161E+03  0.92434996256E+02 0.  0.
          5    1    1    2  502    0  0.10151110461E+03 -0.24789979148E+03  0.28383971543E+03  0.39030919465E+03  0.41800000000E+01 0. -1.
         -5    1    1    2    0  502 -0.95096896331E+01  0.49080855258E+01  0.47839155658E+02  0.49199397502E+02  0.41800000000E+01 0. -1.
        -11    1    3    3    0    0 -0.56169701799E+02  0.61693883514E+02  0.50550188660E+02  0.97552510151E+02  0.00000000000E+00 0.  1.
         11    1    3    3    0    0 -0.35831713176E+02  0.18129782244E+03  0.24195161468E+03  0.30445590146E+03  0.00000000000E+00 0. -1.
</event>
<event>
 7    1  0.4096326E-006  0.1099159E+03  0.7561462E-02  0.1260726E+00
          1   -1    0    0  501    0  0.00000000000E+00  0.00000000000E+00  0.24132628029E+03  0.24132628029E+03  0.00000000000E+00 0. -1.
         -1   -1    0    0    0  501 -0.00000000000E+00 -0.00000000000E+00 -0.55200275311E+02  0.55200275311E+02  0.00000000000E+00 0.  1.
         23    2    1    2    0    0  0.19700831823E+02 -0.24619462770E+02  0.11884595109E+03  0.15102771671E+03  0.87697037584E+02 0.  0.
          5    1    1    2  502    0  0.51370281917E+02  0.20290471921E+02  0.16007306306E+02  0.57656876174E+02  0.41800000000E+01 0.  1.
         -5    1    1    2    0  502 -0.71071113740E+02  0.43289908491E+01  0.51272747580E+02  0.87841962720E+02  0.41800000000E+01 0.  1.
        -11    1    3    3    0    0 -0.63443792197E+01 -0.53702195887E+02  0.72036197520E+02  0.90074362301E+02  0.00000000000E+00 0.  1.
         11    1    3    3    0    0  0.26045211043E+02  0.29082733117E+02  0.46809753571E+02  0.60953354405E+02  0.00000000000E+00 0. -1.
</event>
<event>
 7    1  0.4096326E-006  0.1502826E+03  0.7561462E-02  0.1200126E+00
         -1   -1    0    0    0  501 -0.00000000000E+00  0.00000000000E+00  0.70219778257E+02  0.70219778257E+02  0.00000000000E+00 0.  1.
          1   -1    0    0  501    0  0.00000000000E+00 -0.00000000000E+00 -0.40976265947E+03  0.40976265947E+03  0.00000000000E+00 0. -1.
         23    2    1    2    0    0  0.11210872563E+03  0.65780174168E+02 -0.15788990967E+03  0.22397461738E+03  0.91323644144E+02 0.  0.
          5    1    1    2  502    0  0.19235951638E+02 -0.79849814169E+01 -0.72829213334E+02  0.75864013066E+02  0.41800000000E+01 0. -1.
         -5    1    1    2    0  502 -0.13134467726E+03 -0.57795192751E+02 -0.10882375821E+03  0.18014380728E+03  0.41800000000E+01 0. -1.
        -11    1    3    3    0    0  0.77459088200E+02  0.64978797970E+02 -0.15998247566E+03  0.18925260117E+03  0.00000000000E+00 0. -1.
         11    1    3    3    0    0  0.34649637426E+02  0.80137619779E+00  0.20925659873E+01  0.34722016214E+02  0.00000000000E+00 0.  1.
</event>
<event>
 7    1  0.4096326E-006  0.1272367E+03  0.7561462E-02  0.1231614E+00
          2   -1    0    0  501    0  0.00000000000E+00  0.00000000000E+00  0.47755300241E+03  0.47755300241E+03  0.00000000000E+00 0. -1.
         -2   -1    0    0    0  501 -0.00000000000E+00 -0.00000000000E+00 -0.36513510003E+02  0.36513510003E+02  0.00000000000E+00 0.  1.
         23    2    1    2    0    0 -0.21950888048E+02  0.10643800154E+02  0.26117653708E+03  0.28530455977E+03  0.11220684621E+03 0.  0.
          5    1    1    2  502    0 -0.27739709770E+02 -0.62241994745E+02  0.10336719501E+03  0.12387819345E+03  0.41800000000E+01 0. -1.
         -5    1    1    2    0  502  0.49690597818E+02  0.51598194591E+02  0.76495760314E+02  0.10488375919E+03  0.41800000000E+01 0.  1.
        -11    1    3    3    0    0 -0.13440582301E+02 -0.50731973381E+02  0.10824086721E+03  0.12029325713E+03  0.00000000000E+00 0.  1.
         11    1    3    3    0    0 -0.85103057474E+01  0.61375773534E+02  0.15293566987E+03  0.16501130264E+03  0.00000000000E+00 0. -1.
</event>
<event>
 7    1  0.4096326E-006  0.3797476E+03  0.7561462E-02  0.1051027E+00
          1   -1    0    0  501    0  0.00000000000E+00  0.00000000000E+00  0.46613526379E+03  0.46613526379E+03  0.00000000000E+00 0. -1.
         -1   -1    0    0    0  501 -0.00000000000E+00 -0.00000000000E+00 -0.62295368704E+03  0.62295368704E+03  0.00000000000E+00 0.  1.
         23    2    1    2    0    0 -0.34923443138E+03  0.14021831594E+03  0.29629556785E+03  0.48693815594E+03  0.87703135615E+02 0.  0.
          5    1    1    2  502    0  0.23551900248E+03 -0.10631938610E+03 -0.38952346136E+03  0.46746017128E+03  0.41800000000E+01 0. -1.
         -5    1    1    2    0  502  0.11371542890E+03 -0.33898929836E+02 -0.63590529749E+02  0.13469062360E+03  0.41800000000E+01 0. -1.
        -11    1    3    3    0    0 -0.18861700169E+03  0.11164706785E+03  0.13443351414E+03  0.25712606016E+03  0.00000000000E+00 0.  1.
         11    1    3    3    0    0 -0.16061742968E+03  0.28571248080E+02  0.16186205371E+03  0.22981209578E+03  0.00000000000E+00 0. -1.
</event>
<event>
 7    1  0.4096326E-006  0.1254567E+03  0.7561462E-02  0.1234357E+00
         -4   -1    0    0    0  501 -0.00000000000E+00  0.00000000000E+00  0.17009656981E+04  0.17009656981E+04  0.00000000000E+00 0.  1.
          4   -1    0    0  501    0  0.00000000000E+00 -0.00000000000E+00 -0.20361905886E+02  0.20361905886E+02  0.00000000000E+00 0. -1.
         23    2    1    2    0    0 -0.13590869271E+02 -0.82542350799E+02  0.21482462305E+03  0.24784426427E+03  0.90990160242E+02 0.  0.
          5    1    1    2  502    0  0.55419515056E+02  0.17249969082E+02  0.96158174787E+03  0.96334096473E+03  0.41800000000E+01 0. -1.
         -5    1    1    2    0  502 -0.41828645785E+02  0.65292381716E+02  0.50419742127E+03  0.51014237497E+03  0.41800000000E+01 0. -1.
        -11    1    3    3    0    0  0.46794129275E+01  0.15059346227E+02  0.64839821876E+01  0.17050596445E+02  0.00000000000E+00 0.  1.
         11    1    3    3    0    0 -0.18270282198E+02 -0.97601697026E+02  0.20834064086E+03  0.23079366783E+03  0.00000000000E+00 0. -1.
</event>
<event>
 7    1  0.4096326E-006  0.1253687E+03  0.7561462E-02  0.1234494E+00
         -1   -1    0    0    0  501 -0.00000000000E+00  0.00000000000E+00  0.26376511059E+02  0.26376511059E+02  0.00000000000E+00 0.  1.
          1   -1    0    0  501    0  0.00000000000E+00 -0.00000000000E+00 -0.73535956260E+03  0.73535956260E+03  0.00000000000E+00 0. -1.
         23    2    1    2    0    0  0.85777815086E+02 -0.10747478340E+02 -0.35932225280E+03  0.38044408269E+03  0.90287744720E+02 0.  0.
          5    1    1    2  502    0 -0.10526672582E+03 -0.20496995353E+02 -0.19852600508E+03  0.22567954599E+03  0.41800000000E+01 0.  1.
         -5    1    1    2    0  502  0.19488910734E+02  0.31244473693E+02 -0.15113479366E+03  0.15561244498E+03  0.41800000000E+01 0.  1.
        -11    1    3    3    0    0 -0.74542487338E+01 -0.10796004535E+02 -0.49653801254E+01  0.14027634794E+02  0.00000000000E+00 0. -1.
         11    1    3    3    0    0  0.93232063820E+02  0.48526195272E-01 -0.35435687267E+03  0.36641644790E+03  0.00000000000E+00 0.  1.
</event>
<event>
 7    1  0.4096326E-006  0.9369465E+02  0.7561462E-02  0.1294143E+00
         -2   -1    0    0    0  501 -0.00000000000E+00  0.00000000000E+00  0.53832602213E+03  0.53832602213E+03  0.00000000000E+00 0.  1.
          2   -1    0    0  501    0  0.00000000000E+00 -0.00000000000E+00 -0.26489462650E+02  0.26489462650E+02  0.00000000000E+00 0. -1.
         23    2    1    2    0    0  0.30215434703E+02  0.82184121136E+01  0.12812502811E+03  0.16001534580E+03  0.90600073244E+02 0.  0.
          5    1    1    2  502    0 -0.59685809454E+02 -0.45791484975E+02  0.28886029709E+03  0.29852470515E+03  0.41800000000E+01 0.  1.
         -5    1    1    2    0  502  0.29470374751E+02  0.37573072861E+02  0.94851234279E+02  0.10627543383E+03  0.41800000000E+01 0.  1.
        -11    1    3    3    0    0  0.34058942289E+02  0.27918515690E+02  0.17183727229E+02  0.47272989642E+02  0.00000000000E+00 0. -1.
         11    1    3    3    0    0 -0.38435075857E+01 -0.19700103577E+02  0.11094130088E+03  0.11274235616E+03  0.00000000000E+00 0.  1.
</event>
<event>
 7    1  0.4096326E-006  0.1152549E+03  0.7561462E-02  0.1251137E+00
         -1   -1    0    0    0  501 -0.00000000000E+00  0.00000000000E+00  0.46582760501E+02  0.46582760501E+02  0.00000000000E+00 0.  1.
          1   -1    0    0  501    0  0.00000000000E+00 -0.00000000000E+00 -0.33468944176E+03  0.33468944176E+03  0.00000000000E+00 0. -1.
         23    2    1    2    0    0  0.20312264401E+02  0.50422041842E+02 -0.17963972512E+03  0.20695317519E+03  0.87202153030E+02 0.  0.
          5    1    1    2  502    0 -0.60876864948E+02  0.63632436226E+01 -0.27175431793E+02  0.67100372938E+02  0.41800000000E+01 0. -1.
         -5    1    1    2    0  502  0.40564600547E+02 -0.56785285465E+02 -0.81291524350E+02  0.10721865413E+03  0.41800000000E+01 0. -1.
        -11    1    3    3    0    0 -0.21974693549E+02 -0.11080564772E+02 -0.71007290026E+02  0.75151189671E+02  0.00000000000E+00 0. -1.
         11    1    3    3    0    0  0.42286957950E+02  0.61502606615E+02 -0.10863243509E+03  0.13180198552E+03  0.00000000000E+00 0.  1.
</event>
<event>
 7    1  0.4096326E-006  0.7696091E+02  0.7561462E-02  0.1337904E+00
          2   -1    0    0  501    0  0.00000000000E+00  0.00000000000E+00  0.17421800642E+03  0.17421800642E+03  0.00000000000E+00 0. -1.
         -2   -1    0    0    0  501 -0.00000000000E+00 -0.00000000000E+00 -0.13124861992E+03  0.13124861992E+03  0.00000000000E+00 0.  1.
         23    2    1    2    0    0 -0.12038383106E+02  0.43021868001E+02  0.11601823142E+03  0.15386770368E+03  0.90660004528E+02 0.  0.
          5    1    1    2  502    0  0.10984040582E+02 -0.59388473193E+00 -0.10030082690E+03  0.10098876236E+03  0.41800000000E+01 0.  1.
         -5    1    1    2    0  502  0.10543425239E+01 -0.42427983269E+02  0.27251981985E+02  0.50610160289E+02  0.41800000000E+01 0.  1.
        -11    1    3    3    0    0  0.23529356224E+02  0.56709708314E+02  0.84277281274E+02  0.10427023430E+03  0.00000000000E+00 0.  1.
         11    1    3    3    0    0 -0.35567739329E+02 -0.13687840313E+02  0.31740950146E+02  0.49597469387E+02  0.00000000000E+00 0. -1.
</event>
<event>
 7    1  0.4096326E-006  0.9732949E+02  0.7561462E-02  0.1286014E+00
          1   -1    0    0  501    0  0.00000000000E+00  0.00000000000E+00  0.20909426527E+03  0.20909426527E+03  0.00000000000E+00 0. -1.
         -1   -1    0    0    0  501 -0.00000000000E+00 -0.00000000000E+00 -0.88934317350E+02  0.88934317350E+02  0.00000000000E+00 0.  1.
         23    2    1    2    0    0  0.74069860323E+01  0.42807891055E+02  0.13038422325E+03  0.16521107338E+03  0.91691188873E+02 0.  0.
          5    1    1    2  502    0 -0.91537038270E+01  0.34052242802E+02 -0.37018319834E+02  0.51294969899E+02  0.41800000000E+01 0.  1.
         -5    1    1    2    0  502  0.17467177947E+01 -0.76860133857E+02  0.26794044506E+02  0.81522539340E+02  0.41800000000E+01 0.  1.
        -11    1    3    3    0    0  0.17721690725E+02 -0.15134116432E+02  0.12967510253E+01  0.23340551955E+02  0.00000000000E+00 0.  1.
         11    1    3    3    0    0 -0.10314704693E+02  0.57942007487E+02  0.12908747223E+03  0.14187052143E+03  0.00000000000E+00 0. -1.
</event>
<event>
 7    1  0.4096326E-006  0.1384182E+03  0.7561462E-02  0.1215473E+00
         -2   -1    0    0    0  501 -0.00000000000E+00  0.00000000000E+00  0.83201867642E+02  0.83201867642E+02  0.00000000000E+00 0.  1.
          2   -1    0    0  501    0  0.00000000000E+00 -0.00000000000E+00 -0.38748365468E+03  0.38748365468E+03  0.00000000000E+00 0. -1.
         23    2    1    2    0    0 -0.88247768108E+02  0.68885579977E+02 -0.25904124321E+03  0.29682632434E+03  0.92035913813E+02 0.  0.
          5    1    1    2  502    0  0.10456496553E+03 -0.89894871665E+02 -0.49554297562E+02  0.14658792848E+03  0.41800000000E+01 0.  1.
         -5    1    1    2    0  502 -0.16317197426E+02  0.21009291688E+02  0.43137537352E+01  0.27271269504E+02  0.41800000000E+01 0.  1.
        -11    1    3    3    0    0 -0.27709186507E+02  0.21706766547E+02 -0.19112837279E+03  0.19434257798E+03  0.00000000000E+00 0. -1.
         11    1    3    3    0    0 -0.60538581601E+02  0.47178813431E+02 -0.67912870424E+02  0.10248374636E+03  0.00000000000E+00 0.  1.
</event>
<event>
 7    1  0.5972814E-006  0.1857043E+03  0.7561462E-02  0.1162394E+00
         -1   -1    0    0    0  501 -0.00000000000E+00  0.00000000000E+00  0.27277143184E+02  0.27277143184E+02  0.00000000000E+00 0.  1.
          1   -1    0    0  501    0  0.00000000000E+00 -0.00000000000E+00 -0.13411666485E+04  0.13411666485E+04  0.00000000000E+00 0. -1.
         23    2    1    2    0    0  0.13491850610E+03  0.75985185415E+02 -0.72370724909E+03  0.74559619655E+03  0.90469631472E+02 0.  0.
          5    1    1    2  502    0 -0.51357631466E+02 -0.99502429388E+02 -0.32268524509E+03  0.34158685508E+03  0.41800000000E+01 0. -1.
         -5    1    1    2    0  502 -0.83560874638E+02  0.23517243973E+02 -0.26749701113E+03  0.28126074006E+03  0.41800000000E+01 0. -1.
        -11    1    3    3    0    0  0.81094693365E+02  0.22088094590E+01 -0.23990329271E+03  0.25324853008E+03  0.00000000000E+00 0.  1.
         11    1    3    3    0    0  0.53823812739E+02  0.73776375956E+02 -0.48380395638E+03  0.49234766647E+03  0.00000000000E+00 0. -1.
</event>
<event>
 7    1  0.4096326E-006  0.1371806E+03  0.7561462E-02  0.1217174E+00
         -2   -1    0    0    0  501 -0.00000000000E+00  0.00000000000E+00  0.17130018524E+02  0.17130018524E+02  0.00000000000E+00 0.  1.
          2   -1    0    0  501    0  0.00000000000E+00 -0.00000000000E+00 -0.11093742469E+04  0.11093742469E+04  0.00000000000E+00 0. -1.
         23    2    1    2    0    0  0.28608059122E+02 -0.79129945490E+02 -0.48767354632E+03  0.50342095327E+03  0.92342834529E+02 0.  0.
          5    1    1    2  502    0  0.46668249927E+02  0.10368451695E+02 -0.16590664142E+03  0.17270760380E+03  0.41800000000E+01 0. -1.
         -5    1    1    2    0  502 -0.75276309050E+02  0.68761493795E+02 -0.43866404065E+03  0.45037570837E+03  0.41800000000E+01 0. -1.
        -11    1    3    3    0    0 -0.23977796477E+02 -0.65873435172E+02 -0.29902279980E+03  0.30713006851E+03  0.00000000000E+00 0.  1.
         11    1    3    3    0    0  0.52585855599E+02 -0.13256510318E+02 -0.18865074653E+03  0.19629088476E+03  0.00000000000E+00 0. -1.
</event>
<event>
 7    1  0.4096326E-006  0.1289783E+03  0.7561462E-02  0.1228980E+00
          2   -1    0    0  501    0  0.00000000000E+00  0.00000000000E+00  0.57654553374E+03  0.57654553374E+03  0.00000000000E+00 0. -1.
         -2   -1    0    0    0  501 -0.00000000000E+00 -0.00000000000E+00 -0.30747487304E+02  0.30747487304E+02  0.00000000000E+00 0.  1.
         23    2    1    2    0    0 -0.49925266812E+01 -0.73218402568E+02  0.30128316529E+03  0.32303057260E+03  0.90506051439E+02 0.  0.
          5    1    1    2  502    0 -0.45626703811E+02  0.81108516780E+02  0.14702928480E+03  0.17405594096E+03  0.41800000000E+01 0. -1.
         -5    1    1    2    0  502  0.50619230492E+02 -0.78901142122E+01  0.97485596351E+02  0.11020650749E+03  0.41800000000E+01 0. -1.
        -11    1    3    3    0    0  0.23156659995E+00  0.20017415570E+02  0.29490199112E+02  0.35642985184E+02  0.00000000000E+00 0.  1.
         11    1    3    3    0    0 -0.52240932811E+01 -0.93235818138E+02  0.27179296618E+03  0.28738758741E+03  0.00000000000E+00 0. -1.
</event>
<event>
 7    1  0.4096326E-006  0.8441162E+02  0.7561462E-02  0.1316978E+00
          4   -1    0    0  501    0  0.00000000000E+00  0.00000000000E+00  0.52140524218E+02  0.52140524218E+02  0.00000000000E+00 0. -1.
         -4   -1    0    0    0  501 -0.00000000000E+00 -0.00000000000E+00 -0.25660759847E+03  0.25660759847E+03  0.00000000000E+00 0.  1.
         23    2    1    2    0    0 -0.44483073628E+02  0.28984718467E+02 -0.38638096152E+02  0.94352627659E+02  0.67754395635E+02 0.  0.
          5    1    1    2  502    0  0.76329526031E+02 -0.13518229066E+02 -0.47952272402E+02  0.91245996568E+02  0.41800000000E+01 0. -1.
         -5    1    1    2    0  502 -0.31846452403E+02 -0.15466489400E+02 -0.11787670570E+03  0.12314949846E+03  0.41800000000E+01 0. -1.
        -11    1    3    3    0    0 -0.14257866964E+02  0.90243122324E+00  0.18812656062E+02  0.23622387275E+02  0.00000000000E+00 0. -1.
         11    1    3    3    0    0 -0.30225206665E+02  0.28082287243E+02 -0.57450752214E+02  0.70730240383E+02  0.00000000000E+00 0.  1.
</event>
<event>
 7    1  0.4096326E-006  0.1708849E+03  0.7561462E-02  0.1176928E+00
          2   -1    0    0  501    0  0.00000000000E+00  0.00000000000E+00  0.20667038777E+03  0.20667038777E+03  0.00000000000E+00 0. -1.
         -2   -1    0    0    0  501 -0.00000000000E+00 -0.00000000000E+00 -0.19797075478E+03  0.19797075478E+03  0.00000000000E+00 0.  1.
         23    2    1    2    0    0  0.99833491493E+02  0.13787824416E+03  0.15895226228E+02  0.19327280649E+03  0.90136470301E+02 0.  0.
          5    1    1    2  502    0 -0.89380691083E+01 -0.22740139874E+02 -0.52269805730E+02  0.57849874952E+02  0.41800000000E+01 0.  1.
         -5    1    1    2    0  502 -0.90895422385E+02 -0.11513810428E+03  0.45074212487E+02  0.15351846110E+03  0.41800000000E+01 0.  1.
        -11    1    3    3    0    0  0.76700745819E+01  0.10991253807E+02  0.32902165430E+02  0.35527316171E+02  0.00000000000E+00 0. -1.
         11    1    3    3    0    0  0.92163416911E+02  0.12688699035E+03 -0.17006939202E+02  0.15774549032E+03  0.00000000000E+00 0.  1.
</event>
<event>
 7    1  0.4096326E-006  0.8180089E+02  0.7561462E-02  0.1324017E+00
         -2   -1    0    0    0  501 -0.00000000000E+00  0.00000000000E+00  0.20720376966E+02  0.20720376966E+02  0.00000000000E+00 0.  1.
          2   -1    0    0  501    0  0.00000000000E+00 -0.00000000000E+00 -0.56939802968E+03  0.56939802968E+03  0.00000000000E+00 0. -1.
         23    2    1    2    0    0 -0.10628555036E+02 -0.46634447682E+01 -0.24824329417E+03  0.26447594551E+03  0.90488003367E+02 0.  0.
          5    1    1    2  502    0  0.45168213752E+02  0.18645598207E+02 -0.27725703543E+03  0.28156129344E+03  0.41800000000E+01 0.  1.
         -5    1    1    2    0  502 -0.34539658716E+02 -0.13982153438E+02 -0.23177323109E+02  0.44081167697E+02  0.41800000000E+01 0.  1.
        -11    1    3    3    0    0 -0.22166738448E+02 -0.36775634390E+02 -0.63808337557E+02  0.76911088408E+02  0.00000000000E+00 0.  1.
         11    1    3    3    0    0  0.11538183412E+02  0.32112189622E+02 -0.18443495662E+03  0.18756485710E+03  0.00000000000E+00 0. -1.
</event>
<event>
 7    1  0.4096326E-006  0.8826198E+02  0.7561462E-02  0.1307116E+00
          2   -1    0    0  501    0  0.00000000000E+00  0.00000000000E+00  0.28246520529E+03  0.28246520529E+03  0.00000000000E+00 0.  1.
         -2   -1    0    0    0  501 -0.00000000000E+00 -0.00000000000E+00 -0.72160116138E+02  0.72160116138E+02  0.00000000000E+00 0. -1.
         23    2    1    2    0    0 -0.11752174637E+02  0.56892579950E+02  0.18600620786E+03  0.21457763303E+03  0.89835249035E+02 0.  0.
          5    1    1    2  502    0  0.52141511913E+02 -0.20060157547E+02 -0.29433458714E+02  0.63284659099E+02  0.41800000000E+01 0.  1.
         -5    1    1    2    0  502 -0.40389337277E+02 -0.36832422402E+02  0.53732340006E+02  0.76763029306E+02  0.41800000000E+01 0.  1.
        -11    1    3    3    0    0 -0.21148953243E+02  0.26718995382E+02  0.17899052496E+03  0.18220535383E+03  0.00000000000E+00 0.  1.
         11    1    3    3    0    0  0.93967786064E+01  0.30173584568E+02  0.70156829015E+01  0.32372279197E+02  0.00000000000E+00 0. -1.
</event>
<event>
 7    1  0.4096326E-006  0.1323062E+03  0.7561462E-02  0.1224073E+00
          1   -1    0    0  501    0  0.00000000000E+00  0.00000000000E+00  0.20378328609E+03  0.20378328609E+03  0.00000000000E+00 0. -1.
         -1   -1    0    0    0  501 -0.00000000000E+00 -0.00000000000E+00 -0.11823983186E+03  0.11823983186E+03  0.00000000000E+00 0.  1.
         23    2    1    2    0    0 -0.91497901472E+02 -0.59645147039E+02  0.22130431295E+02  0.14426326897E+03  0.91611818258E+02 0.  0.
          5    1    1    2  502    0  0.28061610759E+02 -0.21806688643E+02 -0.23442555929E+02  0.42778633644E+02  0.41800000000E+01 0.  1.
         -5    1    1    2    0  502  0.63436290713E+02  0.81451835682E+02  0.86855578866E+02  0.13498121534E+03  0.41800000000E+01 0.  1.
        -11    1    3    3    0    0 -0.90616433077E+02 -0.70377202474E+02 -0.52353417862E+01  0.11485511471E+03  0.00000000000E+00 0.  1.
         11    1    3    3    0    0 -0.88146839517E+00  0.10732055435E+02  0.27365773081E+02  0.29408154256E+02  0.00000000000E+00 0. -1.
</event>
<event>
 7    1  0.4096326E-006  0.1621559E+03  0.7561462E-02  0.1186284E+00
         -3   -1    0    0    0  501 -0.00000000000E+00  0.00000000000E+00  0.76079228720E+02  0.76079228720E+02  0.00000000000E+00 0.  1.
          3   -1    0    0  501    0  0.00000000000E+00 -0.00000000000E+00 -0.48629758138E+03  0.48629758138E+03  0.00000000000E+00 0. -1.
         23    2    1    2    0    0 -0.15326020056E+03  0.36266123908E+02 -0.22860651111E+03  0.29138726935E+03  0.88553277756E+02 0.  0.
          5    1    1    2  502    0  0.10155814905E+03  0.24324623366E+01 -0.17943304921E+03  0.20623691730E+03  0.41800000000E+01 0. -1.
         -5    1    1    2    0  502  0.51702051505E+02 -0.38698586245E+02 -0.21787923485E+01  0.64752623447E+02  0.41800000000E+01 0. -1.
        -11    1    3    3    0    0 -0.66913488249E+02  0.21781254928E+02 -0.34336819648E+02  0.78299777518E+02  0.00000000000E+00 0.  1.
         11    1    3    3    0    0 -0.86346712307E+02  0.14484868980E+02 -0.19426969146E+03  0.21308749184E+03  0.00000000000E+00 0. -1.
</event>
<event>
 7    1  0.4096326E-006  0.1170284E+03  0.7561462E-02  0.1248081E+00
         -2   -1    0    0    0  501 -0.00000000000E+00  0.00000000000E+00  0.20973239387E+02  0.20973239387E+02  0.00000000000E+00 0.  1.
          2   -1    0    0  501    0  0.00000000000E+00 -0.00000000000E+00 -0.87481832317E+03  0.87481832317E+03  0.00000000000E+00 0. -1.
         23    2    1    2    0    0 -0.80498663939E+02 -0.25300478681E+01 -0.38054465291E+03  0.39966187655E+03  0.91809295136E+02 0.  0.
          5    1    1    2  502    0  0.10381285671E+02  0.37292740876E+02 -0.40084824717E+02  0.55881886034E+02  0.41800000000E+01 0. -1.
         -5    1    1    2    0  502  0.70117378268E+02 -0.34762693007E+02 -0.43321560615E+03  0.44024779997E+03  0.41800000000E+01 0. -1.
        -11    1    3    3    0    0 -0.36411582321E+02 -0.43386012501E+02 -0.24374732296E+03  0.25024169688E+03  0.00000000000E+00 0.  1.
         11    1    3    3    0    0 -0.44087081618E+02  0.40855964633E+02 -0.13679732995E+03  0.14942017967E+03  0.00000000000E+00 0. -1.
</event>
<event>
 7    1  0.4096326E-006  0.1109538E+03  0.7561462E-02  0.1258814E+00
          1   -1    0    0  501    0  0.00000000000E+00  0.00000000000E+00  0.37550851943E+02  0.37550851943E+02  0.00000000000E+00 0. -1.
         -1   -1    0    0    0  501 -0.00000000000E+00 -0.00000000000E+00 -0.58980907489E+03  0.58980907489E+03  0.00000000000E+00 0.  1.
         23    2    1    2    0    0 -0.16243537557E+02  0.29056341018E+02 -0.53357003335E+02  0.11193878331E+03  0.92602364647E+02 0.  0.
          5    1    1    2  502    0 -0.16844622055E+02 -0.69233956358E+02 -0.36048579335E+03  0.36748409708E+03  0.41800000000E+01 0.  1.
         -5    1    1    2    0  502  0.33088159612E+02  0.40177615339E+02 -0.13841542627E+03  0.14793704644E+03  0.41800000000E+01 0.  1.
        -11    1    3    3    0    0  0.95890058292E+01 -0.31261114595E+02 -0.15522906179E+02  0.36196228184E+02  0.00000000000E+00 0.  1.
         11    1    3    3    0    0 -0.25832543386E+02  0.60317455613E+02 -0.37834097156E+02  0.75742555126E+02  0.00000000000E+00 0. -1.
</event>
<event>
 7    1  0.4096326E-006  0.1274274E+03  0.7561462E-02  0.1231324E+00
          3   -1    0    0  501    0  0.00000000000E+00  0.00000000000E+00  0.24467831481E+03  0.24467831481E+03  0.00000000000E+00 0. -1.
         -3   -1    0    0    0  501 -0.00000000000E+00 -0.00000000000E+00 -0.79663777009E+02  0.79663777009E+02  0.00000000000E+00 0.  1.
         23    2    1    2    0    0 -0.67591101405E+02  0.56821702495E+02  0.85351729408E+02  0.15174016988E+03  0.89122940803E+02 0.  0.
          5    1    1    2  502    0 -0.27311037727E+02 -0.12131520490E+02 -0.12733075873E+02  0.32751644116E+02  0.41800000000E+01 0. -1.
         -5    1    1    2    0  502  0.94902139132E+02 -0.44690182004E+02  0.92395884266E+02  0.13985027783E+03  0.41800000000E+01 0. -1.
        -11    1    3    3    0    0  0.15241265197E+02 -0.53246699663E+01 -0.19952293863E+01  0.16267428050E+02  0.00000000000E+00 0.  1.
         11    1    3    3    0    0 -0.82832366602E+02  0.62146372461E+02  0.87346958794E+02  0.13547274183E+03  0.00000000000E+00 0. -1.
</event>
<event>
 7    1  0.4096326E-006  0.1059697E+03  0.7561462E-02  0.1268221E+00
          1   -1    0    0  501    0  0.00000000000E+00  0.00000000000E+00  0.19001362796E+02  0.19001362796E+02  0.00000000000E+00 0. -1.
         -1   -1    0    0    0  501 -0.00000000000E+00 -0.00000000000E+00 -0.10349019924E+04  0.10349019924E+04  0.00000000000E+00 0.  1.
         23    2    1    2    0    0  0.33758084252E+02  0.44922757222E+02 -0.19973413702E+03  0.22629682348E+03  0.90326432778E+02 0.  0.
          5    1    1    2  502    0 -0.68002456203E+02 -0.34249462207E+02 -0.27916951710E+03  0.28939670245E+03  0.41800000000E+01 0. -1.
         -5    1    1    2    0  502  0.34244371951E+02 -0.10673295015E+02 -0.53699697548E+03  0.53820982926E+03  0.41800000000E+01 0. -1.
        -11    1    3    3    0    0 -0.15208775677E+02  0.48154522434E+02 -0.61299913946E+02  0.79421938646E+02  0.00000000000E+00 0. -1.
         11    1    3    3    0    0  0.48966859929E+02 -0.32317652118E+01 -0.13843422308E+03  0.14687488484E+03  0.00000000000E+00 0.  1.
</event>
<event>
 7    1  0.4096326E-006  0.1177702E+03  0.7561462E-02  0.1246821E+00
         -2   -1    0    0    0  501 -0.00000000000E+00  0.00000000000E+00  0.19659119347E+02  0.19659119347E+02  0.00000000000E+00 0.  1.
          2   -1    0    0  501    0  0.00000000000E+00 -0.00000000000E+00 -0.11951226264E+04  0.11951226264E+04  0.00000000000E+00 0. -1.
         23    2    1    2    0    0  0.10314704371E+03  0.20028271788E+02 -0.42631748745E+03  0.44802804389E+03  0.89118369104E+02 0.  0.
          5    1    1    2  502    0 -0.10696677637E+02 -0.29876158400E+01 -0.50442042376E+03  0.50455998758E+03  0.41800000000E+01 0.  1.
         -5    1    1    2    0  502 -0.92450366073E+02 -0.17040655948E+02 -0.24472559580E+03  0.26219371423E+03  0.41800000000E+01 0.  1.
        -11    1    3    3    0    0  0.43539058301E+02 -0.29066671537E+02 -0.25186316843E+03  0.25724614011E+03  0.00000000000E+00 0.  1.
         11    1    3    3    0    0  0.59607985409E+02  0.49094943325E+02 -0.17445431902E+03  0.19078190378E+03  0.00000000000E+00 0. -1.
</event>
<event>
 7    1  0.4096326E-006  0.6805455E+02  0.7561462E-02  0.1366836E+00
         -3   -1    0    0    0  501 -0.00000000000E+00  0.00000000000E+00  0.14410046489E+03  0.14410046489E+03  0.00000000000E+00 0.  1.
          3   -1    0    0  501    0  0.00000000000E+00 -0.00000000000E+00 -0.10029420586E+03  0.10029420586E+03  0.00000000000E+00 0. -1.
         23    2    1    2    0    0 -0.25413023381E+02  0.23308240684E+02 -0.22676681641E+02  0.98598493405E+02  0.89545157157E+02 0.  0.
          5    1    1    2  502    0  0.29400153352E+01 -0.25579300807E+02  0.10101121433E+03  0.10432488744E+03  0.41800000000E+01 0. -1.
         -5    1    1    2    0  502  0.22473008046E+02  0.22710601232E+01 -0.34528273651E+02  0.41471289901E+02  0.41800000000E+01 0. -1.
        -11    1    3    3    0    0  0.47441029164E+01 -0.27534151711E+02  0.11615889769E+02  0.30258303291E+02  0.00000000000E+00 0. -1.
         11    1    3    3    0    0 -0.30157126298E+02  0.50842392395E+02 -0.34292571409E+02  0.68340190114E+02  0.00000000000E+00 0.  1.
</event>
<event>
 7    1  0.4096326E-006  0.1005753E+03  0.7561462E-02  0.1279091E+00
         -3   -1    0    0    0  501 -0.00000000000E+00  0.00000000000E+00  0.10799063567E+03  0.10799063567E+03  0.00000000000E+00 0.  1.
          3   -1    0    0  501    0  0.00000000000E+00 -0.00000000000E+00 -0.11860391210E+03  0.11860391210E+03  0.00000000000E+00 0. -1.
         23    2    1    2    0    0 -0.21249228367E+02 -0.13926168275E+02  0.81512560998E+01  0.97582617625E+02  0.93864031543E+02 0.  0.
          5    1    1    2  502    0 -0.37075216323E+02 -0.34390217791E+02  0.52535584774E+00  0.50744528216E+02  0.41800000000E+01 0.  1.
         -5    1    1    2    0  502  0.58324444690E+02  0.48316386066E+02 -0.19289888374E+02  0.78267401926E+02  0.41800000000E+01 0.  1.
        -11    1    3    3    0    0  0.16631014563E+02  0.18367682851E+02 -0.26998750056E+02  0.36645530742E+02  0.00000000000E+00 0. -1.
         11    1    3    3    0    0 -0.37880242930E+02 -0.32293851126E+02  0.35150006156E+02  0.60937086883E+02  0.00000000000E+00 0.  1.
</event>
<event>
 7    1  0.4096326E-006  0.8941766E+02  0.7561462E-02  0.1304268E+00
          1   -1    0    0  501    0  0.00000000000E+00  0.00000000000E+00  0.28529571485E+03  0.28529571485E+03  0.00000000000E+00 0. -1.
         -1   -1    0    0    0  501 -0.00000000000E+00 -0.00000000000E+00 -0.55848603268E+02  0.55848603268E+02  0.00000000000E+00 0.  1.
         23    2    1    2    0    0  0.50144916667E+02 -0.18586179970E+02  0.14917514148E+03  0.18318548635E+03  0.91889829788E+02 0.  0.
          5    1    1    2  502    0 -0.85140453189E+01  0.61766612010E+02  0.65589738624E+01  0.62833875139E+02  0.41800000000E+01 0.  1.
         -5    1    1    2    0  502 -0.41630871348E+02 -0.43180432040E+02  0.73712996240E+02  0.95124956636E+02  0.41800000000E+01 0.  1.
        -11    1    3    3    0    0  0.24981650732E+02 -0.78100667252E-01  0.14987307608E+03  0.15194086978E+03  0.00000000000E+00 0. -1.
         11    1    3    3    0    0  0.25163265935E+02 -0.18508079302E+02 -0.69793460265E+00  0.31244616571E+02  0.00000000000E+00 0.  1.
</event>
<event>
 7    1  0.4096326E-006  0.8862179E+02  0.7561462E-02  0.1306224E+00
         -2   -1    0    0    0  501 -0.00000000000E+00  0.00000000000E+00  0.58695952068E+03  0.58695952068E+03  0.00000000000E+00 0.  1.
          2   -1    0    0  501    0  0.00000000000E+00 -0.00000000000E+00 -0.37572312920E+02  0.37572312920E+02  0.00000000000E+00 0. -1.
         23    2    1    2    0    0  0.92694889415E+01 -0.95114849143E+01  0.35456223416E+02  0.95429075122E+02  0.87596648504E+02 0.  0.
          5    1    1    2  502    0 -0.41763279228E+02 -0.20184610064E+02  0.77354348895E+02  0.90292622446E+02  0.41800000000E+01 0. -1.
         -5    1    1    2    0  502  0.32493790286E+02  0.29696094978E+02  0.43657663545E+03  0.43881013604E+03  0.41800000000E+01 0. -1.
        -11    1    3    3    0    0 -0.17947832741E+02  0.32073069315E+02  0.48771135339E+01  0.37075500156E+02  0.00000000000E+00 0.  1.
         11    1    3    3    0    0  0.27217321683E+02 -0.41584554230E+02  0.30579109882E+02  0.58353574966E+02  0.00000000000E+00 0. -1.
</event>
<event>
 7    1  0.4096326E-006  0.1557272E+03  0.7561462E-02  0.1193607E+00
          1   -1    0    0  501    0  0.00000000000E+00  0.00000000000E+00  0.72752739441E+03  0.72752739441E+03  0.00000000000E+00 0. -1.
         -1   -1    0    0    0  501 -0.00000000000E+00 -0.00000000000E+00 -0.38995014644E+02  0.38995014644E+02  0.00000000000E+00 0.  1.
         23    2    1    2    0    0  0.91643626919E+02 -0.83543188174E+02  0.26292274908E+03  0.30590487599E+03  0.95243910720E+02 0.  0.
          5    1    1    2  502    0 -0.63044247391E+02 -0.21020957906E+02  0.13791873083E+03  0.15315190666E+03  0.41800000000E+01 0.  1.
         -5    1    1    2    0  502 -0.28599379528E+02  0.10456414608E+03  0.28769089986E+03  0.30746562640E+03  0.41800000000E+01 0.  1.
        -11    1    3    3    0    0  0.68984627247E+02 -0.24611409205E+02  0.21352968607E+03  0.22574216950E+03  0.00000000000E+00 0. -1.
         11    1    3    3    0    0  0.22658999672E+02 -0.58931778968E+02  0.49393063009E+02  0.80162706490E+02  0.00000000000E+00 0.  1.
</event>
<event>
 7    1  0.4096326E-006  0.1285745E+03  0.7561462E-02  0.1229586E+00
          2   -1    0    0  501    0  0.00000000000E+00  0.00000000000E+00  0.41312377266E+03  0.41312377266E+03  0.00000000000E+00 0. -1.
         -2   -1    0    0    0  501 -0.00000000000E+00 -0.00000000000E+00 -0.51588313886E+02  0.51588313886E+02  0.00000000000E+00 0.  1.
         23    2    1    2    0    0  0.56190401456E+02  0.55778510261E+02  0.21451391613E+03  0.24630903887E+03  0.91560466330E+02 0.  0.
          5    1    1    2  502    0  0.26364464493E+02  0.24580799175E+02  0.68751591279E+01  0.36932924189E+02  0.41800000000E+01 0. -1.
         -5    1    1    2    0  502 -0.82554865949E+02 -0.80359309436E+02  0.14014638352E+03  0.18147012349E+03  0.41800000000E+01 0.  1.
        -11    1    3    3    0    0 -0.15752408399E+02  0.19307961178E+02  0.10706783702E+02  0.27121411329E+02  0.00000000000E+00 0.  1.
         11    1    3    3    0    0  0.71942809855E+02  0.36470549082E+02  0.20380713242E+03  0.21918762754E+03  0.00000000000E+00 0. -1.
</event>
<event>
 7    1  0.4096326E-006  0.1125250E+03  0.7561462E-02  0.1255964E+00
          1   -1    0    0  501    0  0.00000000000E+00  0.00000000000E+00  0.48569952725E+03  0.48569952725E+03  0.00000000000E+00 0. -1.
         -1   -1    0    0    0  501 -0.00000000000E+00 -0.00000000000E+00 -0.28846434604E+02  0.28846434604E+02  0.00000000000E+00 0.  1.
         23    2    1    2    0    0 -0.96050436246E+01  0.38981507520E+02  0.26506832104E+03  0.28207946162E+03  0.87725669312E+02 0.  0.
          5    1    1    2  502    0  0.23490959574E+02 -0.80849616869E+02  0.10185190887E+03  0.13221107923E+03  0.41800000000E+01 0.  1.
         -5    1    1    2    0  502 -0.13885915949E+02  0.41868109349E+02  0.89932862739E+02  0.10025542101E+03  0.41800000000E+01 0.  1.
        -11    1    3    3    0    0  0.20040175127E+02 -0.21313912694E+02  0.77141475484E+02  0.82502719551E+02  0.00000000000E+00 0.  1.
         11    1    3    3    0    0 -0.29645218751E+02  0.60295420214E+02  0.18792684555E+03  0.19957674207E+03  0.00000000000E+00 0. -1.
</event>
<event>
 7    1  0.4096326E-006  0.9807752E+02  0.7561462E-02  0.1284391E+00
          1   -1    0    0  501    0  0.00000000000E+00  0.00000000000E+00  0.38873075870E+03  0.38873075870E+03  0.00000000000E+00 0. -1.
         -1   -1    0    0    0  501 -0.00000000000E+00 -0.00000000000E+00 -0.43092714951E+02  0.43092714951E+02  0.00000000000E+00 0.  1.
         23    2    1    2    0    0 -0.50644592841E+02  0.27355703650E+02  0.22301519460E+03  0.24743587570E+03  0.90418616751E+02 0.  0.
          5    1    1    2  502    0  0.29918196665E+02 -0.70347415411E+02  0.11141610400E+03  0.13518460703E+03  0.41800000000E+01 0. -1.
         -5    1    1    2    0  502  0.20726396176E+02  0.42991711761E+02  0.11206745145E+02  0.49202990919E+02  0.41800000000E+01 0. -1.
        -11    1    3    3    0    0 -0.42044247314E+02 -0.99855335811E+00  0.21151005730E+03  0.21565069019E+03  0.00000000000E+00 0. -1.
         11    1    3    3    0    0 -0.86003455270E+01  0.28354257008E+02  0.11505137302E+02  0.31785185512E+02  0.00000000000E+00 0.  1.
</event>
<event>
 7    1  0.4096326E-006  0.1595482E+03  0.7561462E-02  0.1189208E+00
         -1   -1    0    0    0  501 -0.00000000000E+00  0.00000000000E+00  0.29841611316E+03  0.29841611316E+03  0.00000000000E+00 0.  1.
          1   -1    0    0  501    0  0.00000000000E+00 -0.00000000000E+00 -0.14677734601E+03  0.14677734601E+03  0.00000000000E+00 0. -1.
         23    2    1    2    0    0  0.13359515382E+03  0.33070538601E+02 -0.51895854534E+02  0.17328716349E+03  0.91618424270E+02 0.  0.
          5    1    1    2  502    0 -0.70157224550E+02  0.41299045091E+02  0.78805769617E+02  0.11338196068E+03  0.41800000000E+01 0. -1.
         -5    1    1    2    0  502 -0.63437929266E+02 -0.74369583692E+02  0.12472885207E+03  0.15852433500E+03  0.41800000000E+01 0.  1.
        -11    1    3    3    0    0  0.10260898347E+02 -0.39086206989E+01  0.22174064632E+02  0.24743736439E+02  0.00000000000E+00 0.  1.
         11    1    3    3    0    0  0.12333425547E+03  0.36979159300E+02 -0.74069919166E+02  0.14854342705E+03  0.00000000000E+00 0. -1.
</event>
<event>
 7    1  0.4096326E-006  0.7167439E+02  0.7561462E-02  0.1354490E+00
          1   -1    0    0  501    0  0.00000000000E+00  0.00000000000E+00  0.19863209351E+02  0.19863209351E+02  0.00000000000E+00 0. -1.
         -1   -1    0    0    0  501 -0.00000000000E+00 -0.00000000000E+00 -0.68024356804E+03  0.68024356804E+03  0.00000000000E+00 0.  1.
         23    2    1    2    0    0  0.87350324785E+00 -0.49939539082E+01 -0.17345362110E+03  0.19734137479E+03  0.93977427871E+02 0.  0.
          5    1    1    2  502    0 -0.27064844384E+02  0.12697785504E+02 -0.22829404211E+02  0.37846976826E+02  0.41800000000E+01 0.  1.
         -5    1    1    2    0  502  0.26191341136E+02 -0.77038315958E+01 -0.46409733339E+03  0.46491842578E+03  0.41800000000E+01 0.  1.
        -11    1    3    3    0    0 -0.39763814805E+02 -0.16887840087E+02 -0.46308557934E+02  0.63331213857E+02  0.00000000000E+00 0. -1.
         11    1    3    3    0    0  0.40637318053E+02  0.11893886179E+02 -0.12714506316E+03  0.13401016093E+03  0.00000000000E+00 0.  1.
</event>
<event>
 7    1  0.4096326E-006  0.9340354E+02  0.7561462E-02  0.1294813E+00
          3   -1    0    0  501    0  0.00000000000E+00  0.00000000000E+00  0.10251767065E+03  0.10251767065E+03  0.00000000000E+00 0. -1.
         -3   -1    0    0    0  501 -0.00000000000E+00 -0.00000000000E+00 -0.17098998645E+03  0.17098998645E+03  0.00000000000E+00 0.  1.
         23    2    1    2    0    0  0.65469000915E+02  0.27358568604E+01  0.49084842533E+01  0.11437023523E+03  0.93609735045E+02 0.  0.
          5    1    1    2  502    0 -0.17105667286E+02  0.40547962596E+02 -0.82368149499E+02  0.93481150912E+02  0.41800000000E+01 0. -1.
         -5    1    1    2    0  502 -0.48363333629E+02 -0.43283819456E+02  0.89873494425E+01  0.65656270960E+02  0.41800000000E+01 0. -1.
        -11    1    3    3    0    0  0.20717139984E+02 -0.18729878589E+02 -0.39090294787E+02  0.48042266678E+02  0.00000000000E+00 0.  1.
         11    1    3    3    0    0  0.44751860931E+02  0.21465735449E+02  0.43998779040E+02  0.66327968552E+02  0.00000000000E+00 0. -1.
</event>
<event>
 7    1  0.4096326E-006  0.1651344E+03  0.7561462E-02  0.1183019E+00
          2   -1    0    0  501    0  0.00000000000E+00  0.00000000000E+00  0.22445899116E+03  0.22445899116E+03  0.00000000000E+00 0. -1.
         -2   -1    0    0    0  501 -0.00000000000E+00 -0.00000000000E+00 -0.15558744117E+03  0.15558744117E+03  0.00000000000E+00 0.  1.
         23    2    1    2    0    0 -0.10612505319E+03 -0.53776831877E+02  0.10877332014E+03  0.20286345740E+03  0.12315629343E+03 0.  0.
          5    1    1    2  502    0  0.62464742346E+02 -0.32467968812E+02 -0.38646994272E+02  0.80418129805E+02  0.41800000000E+01 0. -1.
         -5    1    1    2    0  502  0.43660310845E+02  0.86244800688E+02 -0.12547758765E+01  0.96764845121E+02  0.41800000000E+01 0. -1.
        -11    1    3    3    0    0 -0.10457652862E+03  0.45176152060E+01  0.98339992704E+02  0.14362246812E+03  0.00000000000E+00 0.  1.
         11    1    3    3    0    0 -0.15485245723E+01 -0.58294447083E+02  0.10433327438E+02  0.59240989276E+02  0.00000000000E+00 0. -1.
</event>
<event>
 7    1  0.4096326E-006  0.1483788E+03  0.7561462E-02  0.1202479E+00
          2   -1    0    0  501    0  0.00000000000E+00  0.00000000000E+00  0.73744396748E+03  0.73744396748E+03  0.00000000000E+00 0. -1.
         -2   -1    0    0    0  501 -0.00000000000E+00 -0.00000000000E+00 -0.43886984050E+02  0.43886984050E+02  0.00000000000E+00 0.  1.
         23    2    1    2    0    0  0.65070693008E+02  0.77034400193E+02  0.54583378102E+03  0.56306979962E+03  0.94575836458E+02 0.  0.
          5    1    1    2  502    0 -0.42363191837E+02  0.28565782284E+02  0.60972823092E+02  0.79660539139E+02  0.41800000000E+01 0. -1.
         -5    1    1    2    0  502 -0.22707501171E+02 -0.10560018248E+03  0.86750379320E+02  0.13860061277E+03  0.41800000000E+01 0. -1.
        -11    1    3    3    0    0 -0.21191131621E+02  0.36228697624E+02  0.19683008184E+03  0.20125522032E+03  0.00000000000E+00 0. -1.
         11    1    3    3    0    0  0.86261824628E+02  0.40805702569E+02  0.34900369918E+03  0.36181457930E+03  0.00000000000E+00 0.  1.
</event>
<event>
 7    1  0.4096326E-006  0.1025429E+03  0.7561462E-02  0.1275038E+00
          4   -1    0    0  501    0  0.00000000000E+00  0.00000000000E+00  0.58691157212E+02  0.58691157212E+02  0.00000000000E+00 0. -1.
         -4   -1    0    0    0  501 -0.00000000000E+00 -0.00000000000E+00 -0.61430331288E+03  0.61430331288E+03  0.00000000000E+00 0.  1.
         23    2    1    2    0    0  0.47792072152E+02  0.27903225178E+01 -0.18501518094E+01  0.10326557215E+03  0.91479436323E+02 0.  0.
          5    1    1    2  502    0 -0.86328649776E+02  0.12511914886E+02 -0.43978762103E+03  0.44837462885E+03  0.41800000000E+01 0.  1.
         -5    1    1    2    0  502  0.38536577624E+02 -0.15302237404E+02 -0.11397438284E+03  0.12135426909E+03  0.41800000000E+01 0.  1.
        -11    1    3    3    0    0  0.54901319088E+02  0.19228907209E+02 -0.33333119996E+02  0.67044780548E+02  0.00000000000E+00 0.  1.
         11    1    3    3    0    0 -0.71092469358E+01 -0.16438584691E+02  0.31482968187E+02  0.36220791605E+02  0.00000000000E+00 0. -1.
</event>
<event>
 7    1  0.4096326E-006  0.1204713E+03  0.7561462E-02  0.1242322E+00
          2   -1    0    0  501    0  0.00000000000E+00  0.00000000000E+00  0.52352097758E+03  0.52352097758E+03  0.00000000000E+00 0. -1.
         -2   -1    0    0    0  501 -0.00000000000E+00 -0.00000000000E+00 -0.44005475002E+02  0.44005475002E+02  0.00000000000E+00 0.  1.
         23    2    1    2    0    0  0.20111411746E+02  0.92114221533E+02  0.31177388461E+03  0.33801819149E+03  0.90353992523E+02 0.  0.
          5    1    1    2  502    0  0.15971087783E+02  0.21190593027E+02  0.40873280282E+01  0.27171594142E+02  0.41800000000E+01 0. -1.
         -5    1    1    2    0  502 -0.36082499529E+02 -0.11330481456E+03  0.16365428994E+03  0.20233666695E+03  0.41800000000E+01 0. -1.
        -11    1    3    3    0    0 -0.25332367113E+00  0.24014161846E+02  0.69273731565E+01  0.24994652246E+02  0.00000000000E+00 0.  1.
         11    1    3    3    0    0  0.20364735417E+02  0.68100059687E+02  0.30484651145E+03  0.31302353924E+03  0.00000000000E+00 0. -1.
</event>
<event>
 7    1  0.4096326E-006  0.1322038E+03  0.7561462E-02  0.1224222E+00
          2   -1    0    0  501    0  0.00000000000E+00  0.00000000000E+00  0.38420566419E+03  0.38420566419E+03  0.00000000000E+00 0. -1.
         -2   -1    0    0    0  501 -0.00000000000E+00 -0.00000000000E+00 -0.69068707275E+02  0.69068707275E+02  0.00000000000E+00 0.  1.
         23    2    1    2    0    0  0.43043635025E+02 -0.82636400577E+02  0.24864261830E+03  0.28371637156E+03  0.99951481441E+02 0.  0.
          5    1    1    2  502    0 -0.10909634490E+02  0.98468507857E+02  0.83547589987E+02  0.12966394779E+03  0.41800000000E+01 0. -1.
         -5    1    1    2    0  502 -0.32134000535E+02 -0.15832107281E+02 -0.17053251371E+02  0.39894052109E+02  0.41800000000E+01 0. -1.
        -11    1    3    3    0    0 -0.27457821707E+02 -0.14133330230E+02  0.10654888052E+03  0.11093397558E+03  0.00000000000E+00 0. -1.
         11    1    3    3    0    0  0.70501456732E+02 -0.68503070347E+02  0.14209373778E+03  0.17278239599E+03  0.00000000000E+00 0.  1.
</event>
<event>
 7    1  0.4096326E-006  0.1450769E+03  0.7561462E-02  0.1206656E+00
         -2   -1    0    0    0  501 -0.00000000000E+00  0.00000000000E+00  0.49373192101E+03  0.49373192101E+03  0.00000000000E+00 0.  1.
          2   -1    0    0  501    0  0.00000000000E+00 -0.00000000000E+00 -0.52588080888E+02  0.52588080888E+02  0.00000000000E+00 0. -1.
         23    2    1    2    0    0 -0.93718261699E+02 -0.74731722580E+02  0.22115215351E+03  0.26637242963E+03  0.87624501874E+02 0.  0.
          5    1    1    2  502    0 -0.29047887386E+02  0.18202868068E+02  0.69653542496E+02  0.77744533890E+02  0.41800000000E+01 0.  1.
         -5    1    1    2    0  502  0.12276614908E+03  0.56528854512E+02  0.15033814411E+03  0.20220303838E+03  0.41800000000E+01 0.  1.
        -11    1    3    3    0    0 -0.52557019018E+02 -0.49009683631E+02  0.47688501388E+02  0.86246057895E+02  0.00000000000E+00 0.  1.
         11    1    3    3    0    0 -0.41161242680E+02 -0.25722038949E+02  0.17346365212E+03  0.18012637173E+03  0.00000000000E+00 0. -1.
</event>
<event>
 7    1  0.4096326E-006  0.1559583E+03  0.7561462E-02  0.1193337E+00
         -1   -1    0    0    0  501 -0.00000000000E+00  0.00000000000E+00  0.88096117294E+02  0.88096117294E+02  0.00000000000E+00 0.  1.
          1   -1    0    0  501    0  0.00000000000E+00 -0.00000000000E+00 -0.44187671140E+03  0.44187671140E+03  0.00000000000E+00 0. -1.
         23    2    1    2    0    0  0.14128376592E+03 -0.62999457960E+02 -0.93931421970E+02  0.20271292465E+03  0.91320225427E+02 0.  0.
          5    1    1    2  502    0 -0.41864898102E+02  0.20417069586E+02 -0.10921568129E+01  0.46778110587E+02  0.41800000000E+01 0. -1.
         -5    1    1    2    0  502 -0.99418867822E+02  0.42582388373E+02 -0.25875701532E+03  0.28048179345E+03  0.41800000000E+01 0. -1.
        -11    1    3    3    0    0  0.24921542007E+02 -0.71212727454E+00  0.17103984861E+02  0.30234693307E+02  0.00000000000E+00 0.  1.
         11    1    3    3    0    0  0.11636222392E+03 -0.62287330685E+02 -0.11103540683E+03  0.17247823135E+03  0.00000000000E+00 0. -1.
</event>
<event>
 7    1  0.4096326E-006  0.1827867E+03  0.7561462E-02  0.1165133E+00
         -1   -1    0    0    0  501 -0.00000000000E+00  0.00000000000E+00  0.51829221665E+02  0.51829221665E+02  0.00000000000E+00 0.  1.
          1   -1    0    0  501    0  0.00000000000E+00 -0.00000000000E+00 -0.81143226227E+03  0.81143226227E+03  0.00000000000E+00 0. -1.
         23    2    1    2    0    0  0.15299794331E+03  0.44461758811E+02 -0.51421747441E+03  0.54506795497E+03  0.85406357404E+02 0.  0.
          5    1    1    2  502    0 -0.88957674210E+02  0.35283447066E+02 -0.15181260096E+03  0.17950745848E+03  0.41800000000E+01 0. -1.
         -5    1    1    2    0  502 -0.64040269099E+02 -0.79745205877E+02 -0.93572965228E+02  0.13868607049E+03  0.41800000000E+01 0. -1.
        -11    1    3    3    0    0  0.37712155731E+02  0.35491484670E+02 -0.76833124374E+02  0.92656252757E+02  0.00000000000E+00 0.  1.
         11    1    3    3    0    0  0.11528578758E+03  0.89702741405E+01 -0.43738435004E+03  0.45241170221E+03  0.00000000000E+00 0. -1.
</event>
<event>
 7    1  0.4096326E-006  0.1817152E+03  0.7561462E-02  0.1166153E+00
         -1   -1    0    0    0  501 -0.00000000000E+00  0.00000000000E+00  0.68572038824E+02  0.68572038824E+02  0.00000000000E+00 0.  1.
          1   -1    0    0  501    0  0.00000000000E+00 -0.00000000000E+00 -0.53544546150E+03  0.53544546150E+03  0.00000000000E+00 0. -1.
         23    2    1    2    0    0 -0.84690681084E+02  0.12613543115E+03 -0.28807361609E+03  0.33812363031E+03  0.90876414058E+02 0.  0.
          5    1    1    2  502    0  0.11314261089E+03 -0.11566359232E+03 -0.16839908949E+03  0.23357020942E+03  0.41800000000E+01 0. -1.
         -5    1    1    2    0  502 -0.28451929810E+02 -0.10471838834E+02 -0.10400717102E+02  0.32323660602E+02  0.41800000000E+01 0. -1.
        -11    1    3    3    0    0 -0.75398326409E+02  0.41965553660E+02 -0.18916442867E+03  0.20791632065E+03  0.00000000000E+00 0. -1.
         11    1    3    3    0    0 -0.92923546752E+01  0.84169877489E+02 -0.98909187421E+02  0.13020730966E+03  0.00000000000E+00 0.  1.
</event>
<event>
 7    1  0.4096326E-006  0.1307170E+03  0.7561462E-02  0.1226396E+00
          3   -1    0    0  501    0  0.00000000000E+00  0.00000000000E+00  0.28029798398E+03  0.28029798398E+03  0.00000000000E+00 0. -1.
         -3   -1    0    0    0  501 -0.00000000000E+00 -0.00000000000E+00 -0.75769599126E+02  0.75769599126E+02  0.00000000000E+00 0.  1.
         23    2    1    2    0    0 -0.19038024262E+02  0.91330887606E+02  0.12495808935E+03  0.18090285695E+03  0.91692650537E+02 0.  0.
          5    1    1    2  502    0 -0.39032474952E+02 -0.89145811816E+02  0.55660589866E+02  0.11218771559E+03  0.41800000000E+01 0.  1.
         -5    1    1    2    0  502  0.58070499214E+02 -0.21850757898E+01  0.23909705640E+02  0.62977010560E+02  0.41800000000E+01 0.  1.
        -11    1    3    3    0    0  0.81229250264E+01  0.71930932093E+02  0.26741398528E+02  0.77169574950E+02  0.00000000000E+00 0.  1.
         11    1    3    3    0    0 -0.27160949288E+02  0.19399955514E+02  0.98216690818E+02  0.10373328200E+03  0.00000000000E+00 0. -1.
</event>
<event>
 7    1  0.4096326E-006  0.1201851E+03  0.7561462E-02  0.1242792E+00
         -1   -1    0    0    0  501 -0.00000000000E+00  0.00000000000E+00  0.38640909799E+02  0.38640909799E+02  0.00000000000E+00 0.  1.
          1   -1    0    0  501    0  0.00000000000E+00 -0.00000000000E+00 -0.52809773710E+03  0.52809773710E+03  0.00000000000E+00 0. -1.
         23    2    1    2    0    0  0.46333574804E+02 -0.21250441712E+02 -0.37518170676E+03  0.38980649494E+03  0.92679064428E+02 0.  0.
          5    1    1    2  502    0 -0.60344334982E+02  0.64814222881E+02 -0.82141081670E+02  0.12085922369E+03  0.41800000000E+01 0.  1.
         -5    1    1    2    0  502  0.14010760179E+02 -0.43563781169E+02 -0.32134038862E+02  0.56072928264E+02  0.41800000000E+01 0.  1.
        -11    1    3    3    0    0  0.12566974527E+02 -0.55950813650E+02 -0.20080199233E+03  0.20882974529E+03  0.00000000000E+00 0. -1.
         11    1    3    3    0    0  0.33766600277E+02  0.34700371938E+02 -0.17437971444E+03  0.18097674965E+03  0.00000000000E+00 0.  1.
</event>
<event>
 7    1  0.4096326E-006  0.1394497E+03  0.7561462E-02  0.1214071E+00
         -2   -1    0    0    0  501 -0.00000000000E+00  0.00000000000E+00  0.28110233778E+03  0.28110233778E+03  0.00000000000E+00 0. -1.
          2   -1    0    0  501    0  0.00000000000E+00 -0.00000000000E+00 -0.96831975559E+02  0.96831975559E+02  0.00000000000E+00 0.  1.
         23    2    1    2    0    0  0.79951584056E+02 -0.85073392228E+02  0.37175641972E+02  0.15229350495E+03  0.90451895694E+02 0.  0.
          5    1    1    2  502    0  0.89955403518E+01 -0.21244743609E+02  0.53271741368E+02  0.58203176078E+02  0.41800000000E+01 0. -1.
         -5    1    1    2    0  502 -0.88947124407E+02  0.10631813584E+03  0.93822978878E+02  0.16743763231E+03  0.41800000000E+01 0. -1.
        -11    1    3    3    0    0  0.67815667864E+02 -0.70869840962E+02 -0.12818030356E+02  0.98923207934E+02  0.00000000000E+00 0.  1.
         11    1    3    3    0    0  0.12135916192E+02 -0.14203551266E+02  0.49993672328E+02  0.53370297012E+02  0.00000000000E+00 0. -1.
</event>
<event>
 7    1  0.4096326E-006  0.1056096E+03  0.7561462E-02  0.1268923E+00
         -1   -1    0    0    0  501 -0.00000000000E+00  0.00000000000E+00  0.51296845376E+02  0.51296845376E+02  0.00000000000E+00 0.  1.
          1   -1    0    0  501    0  0.00000000000E+00 -0.00000000000E+00 -0.38961469538E+03  0.38961469538E+03  0.00000000000E+00 0. -1.
         23    2    1    2    0    0 -0.29508223709E+02 -0.64026409726E+02 -0.24108301651E+03  0.26749798964E+03  0.92000202214E+02 0.  0.
          5    1    1    2  502    0 -0.86356318025E+01  0.62889237063E+02  0.53888463086E+01  0.63844673541E+02  0.41800000000E+01 0. -1.
         -5    1    1    2    0  502  0.38143855511E+02  0.11371726622E+01 -0.10262367981E+03  0.10956887757E+03  0.41800000000E+01 0. -1.
        -11    1    3    3    0    0 -0.43588037958E+02 -0.78014995259E+02 -0.15282615303E+03  0.17703697237E+03  0.00000000000E+00 0.  1.
         11    1    3    3    0    0  0.14079814249E+02  0.13988585533E+02 -0.88256863480E+02  0.90461017272E+02  0.00000000000E+00 0. -1.
</event>
<event>
 7    1  0.4096326E-006  0.1170324E+03  0.7561462E-02  0.1248074E+00
         -1   -1    0    0    0  501 -0.00000000000E+00  0.00000000000E+00  0.12581960938E+03  0.12581960938E+03  0.00000000000E+00 0.  1.
          1   -1    0    0  501    0  0.00000000000E+00 -0.00000000000E+00 -0.17442059295E+03  0.17442059295E+03  0.00000000000E+00 0. -1.
         23    2    1    2    0    0 -0.72083906504E+01 -0.48922593304E+02 -0.11044130243E+03  0.15219634593E+03  0.92309617058E+02 0.  0.
          5    1    1    2  502    0 -0.48708841310E+02  0.55659919741E+02  0.17191467660E+02  0.76049962838E+02  0.41800000000E+01 0.  1.
         -5    1    1    2    0  502  0.55917231961E+02 -0.67373264368E+01  0.44648851188E+02  0.71993893561E+02  0.41800000000E+01 0.  1.
        -11    1    3    3    0    0  0.41237477691E+02 -0.13144503454E+02 -0.57790607918E+02  0.72201536693E+02  0.00000000000E+00 0.  1.
         11    1    3    3    0    0 -0.48445868341E+02 -0.35778089850E+02 -0.52650694509E+02  0.79994809237E+02  0.00000000000E+00 0. -1.
</event>
<event>
 7    1  0.4096326E-006  0.8792032E+02  0.7561462E-02  0.1307968E+00
         -2   -1    0    0    0  501 -0.00000000000E+00  0.00000000000E+00  0.24419540243E+02  0.24419540243E+02  0.00000000000E+00 0.  1.
          2   -1    0    0  501    0  0.00000000000E+00 -0.00000000000E+00 -0.69534082617E+03  0.69534082617E+03  0.00000000000E+00 0. -1.
         23    2    1    2    0    0 -0.40605294928E+02  0.45284487394E+02 -0.40695253782E+03  0.42138360756E+03  0.90853188778E+02 0.  0.
          5    1    1    2  502    0 -0.10469270268E+01 -0.18283800327E+02 -0.24398006541E+03  0.24470214165E+03  0.41800000000E+01 0. -1.
         -5    1    1    2    0  502  0.41652221955E+02 -0.27000687067E+02 -0.19988682704E+02  0.53674617205E+02  0.41800000000E+01 0. -1.
        -11    1    3    3    0    0 -0.29502554483E+02  0.72271016215E+02 -0.25602012884E+03  0.26765613551E+03  0.00000000000E+00 0.  1.
         11    1    3    3    0    0 -0.11102740445E+02 -0.26986528821E+02 -0.15093240898E+03  0.15372747206E+03  0.00000000000E+00 0. -1.
</event>
<event>
 7    1  0.4096326E-006  0.8498111E+02  0.7561462E-02  0.1315482E+00
          2   -1    0    0  501    0  0.00000000000E+00  0.00000000000E+00  0.13847944855E+03  0.13847944855E+03  0.00000000000E+00 0. -1.
         -2   -1    0    0    0  501 -0.00000000000E+00 -0.00000000000E+00 -0.12030349363E+03  0.12030349363E+03  0.00000000000E+00 0.  1.
         23    2    1    2    0    0  0.62724649595E+02  0.26097823220E+02  0.25518987194E+02  0.11624453422E+03  0.90808011684E+02 0.  0.
          5    1    1    2  502    0 -0.42602063790E+02  0.25074608389E+01  0.55717623018E+02  0.70307532412E+02  0.41800000000E+01 0. -1.
         -5    1    1    2    0  502 -0.20122585805E+02 -0.28605284058E+02 -0.63060655290E+02  0.72230875539E+02  0.41800000000E+01 0. -1.
        -11    1    3    3    0    0  0.69315950936E+02  0.37410086781E+02 -0.90445403394E+01  0.79284420645E+02  0.00000000000E+00 0.  1.
         11    1    3    3    0    0 -0.65913013408E+01 -0.11312263561E+02  0.34563527533E+02  0.36960113579E+02  0.00000000000E+00 0. -1.
</event>
<event>
 7    1  0.4096326E-006  0.1560431E+03  0.7561462E-02  0.1193238E+00
          1   -1    0    0  501    0  0.00000000000E+00  0.00000000000E+00  0.49120235691E+03  0.49120235691E+03  0.00000000000E+00 0. -1.
         -1   -1    0    0    0  501 -0.00000000000E+00 -0.00000000000E+00 -0.59418403027E+02  0.59418403027E+02  0.00000000000E+00 0.  1.
         23    2    1    2    0    0 -0.12849050854E+03 -0.11622217993E+02  0.15853237492E+03  0.22357194259E+03  0.90592565257E+02 0.  0.
          5    1    1    2  502    0  0.99612658948E+02 -0.49243072793E+02  0.15286579868E+03  0.18903170858E+03  0.41800000000E+01 0. -1.
         -5    1    1    2    0  502  0.28877849590E+02  0.60865290786E+02  0.12038578028E+03  0.13801710877E+03  0.41800000000E+01 0. -1.
        -11    1    3    3    0    0 -0.50274655692E+02  0.11996076384E+02  0.80079421099E+01  0.52302714943E+02  0.00000000000E+00 0.  1.
         11    1    3    3    0    0 -0.78215852846E+02 -0.23618294377E+02  0.15052443281E+03  0.17126922765E+03  0.00000000000E+00 0. -1.
</event>
<event>
 7    1  0.4096326E-006  0.9015240E+02  0.7561462E-02  0.1302483E+00
         -4   -1    0    0    0  501 -0.00000000000E+00  0.00000000000E+00  0.21768198093E+02  0.21768198093E+02  0.00000000000E+00 0.  1.
          4   -1    0    0  501    0  0.00000000000E+00 -0.00000000000E+00 -0.73147171182E+03  0.73147171182E+03  0.00000000000E+00 0. -1.
         23    2    1    2    0    0  0.34217381859E+02 -0.18840561030E+02 -0.46276161079E+03  0.47367975464E+03  0.93265243109E+02 0.  0.
          5    1    1    2  502    0 -0.13835281871E+02  0.45081918805E+02 -0.22114798979E+02  0.52252570860E+02  0.41800000000E+01 0.  1.
         -5    1    1    2    0  502 -0.20382099988E+02 -0.26241357775E+02 -0.22482710396E+03  0.22730758441E+03  0.41800000000E+01 0.  1.
        -11    1    3    3    0    0  0.70695918407E+01 -0.54331981307E+02 -0.29641440871E+03  0.30143563992E+03  0.00000000000E+00 0. -1.
         11    1    3    3    0    0  0.27147790018E+02  0.35491420277E+02 -0.16634720208E+03  0.17224411472E+03  0.00000000000E+00 0.  1.
</event>
<event>
 7    1  0.4096326E-006  0.9791752E+02  0.7561462E-02  0.1284737E+00
         -1   -1    0    0    0  501 -0.00000000000E+00  0.00000000000E+00  0.34712906093E+02  0.34712906093E+02  0.00000000000E+00 0.  1.
          1   -1    0    0  501    0  0.00000000000E+00 -0.00000000000E+00 -0.51313027748E+03  0.51313027748E+03  0.00000000000E+00 0. -1.
         23    2    1    2    0    0  0.73980484861E+02 -0.99418630926E+01 -0.21469208602E+03  0.24656209742E+03  0.95541735915E+02 0.  0.
          5    1    1    2  502    0 -0.18968941611E+02 -0.64989822304E+01  0.91255862150E+01  0.22423341402E+02  0.41800000000E+01 0. -1.
         -5    1    1    2    0  502 -0.55011543250E+02  0.16440845323E+02 -0.27285087158E+03  0.27885774475E+03  0.41800000000E+01 0. -1.
        -11    1    3    3    0    0  0.52847572685E+02  0.38200448811E+02 -0.14729071066E+03  0.16107977426E+03  0.00000000000E+00 0. -1.
         11    1    3    3    0    0  0.21132912176E+02 -0.48142311904E+02 -0.67401375355E+02  0.85482323157E+02  0.00000000000E+00 0.  1.
</event>
<event>
 7    1  0.4096326E-006  0.9387674E+02  0.7561462E-02  0.1293726E+00
         -2   -1    0    0    0  501 -0.00000000000E+00  0.00000000000E+00  0.52878462334E+02  0.52878462334E+02  0.00000000000E+00 0. -1.
          2   -1    0    0  501    0  0.00000000000E+00 -0.00000000000E+00 -0.25977699587E+03  0.25977699587E+03  0.00000000000E+00 0.  1.
         23    2    1    2    0    0 -0.15731114993E+02 -0.40516552248E+02 -0.10609746380E+03  0.14622854175E+03  0.90758226141E+02 0.  0.
          5    1    1    2  502    0  0.38839671576E+02  0.73231394125E+02 -0.36757110562E+02  0.90773976174E+02  0.41800000000E+01 0. -1.
         -5    1    1    2    0  502 -0.23108556583E+02 -0.32714841877E+02 -0.64043959180E+02  0.75652940286E+02  0.41800000000E+01 0. -1.
        -11    1    3    3    0    0 -0.20218497840E+02  0.32583622928E+01  0.94728866326E+01  0.22564134393E+02  0.00000000000E+00 0. -1.
         11    1    3    3    0    0  0.44873828478E+01 -0.43774914541E+02 -0.11557035043E+03  0.12366440735E+03  0.00000000000E+00 0.  1.
</event>
<event>
 7    1  0.4096326E-006  0.1706280E+03  0.7561462E-02  0.1177194E+00
          2   -1    0    0  501    0  0.00000000000E+00  0.00000000000E+00  0.50083234874E+03  0.50083234874E+03  0.00000000000E+00 0. -1.
         -2   -1    0    0    0  501 -0.00000000000E+00 -0.00000000000E+00 -0.73125921457E+02  0.73125921457E+02  0.00000000000E+00 0.  1.
         23    2    1    2    0    0 -0.12296544686E+03  0.35379100321E+02  0.31903452121E+03  0.36460456387E+03  0.12157828924E+03 0.  0.
          5    1    1    2  502    0  0.13767934843E+03  0.28396726202E+01  0.83310090859E+02  0.16100220608E+03  0.41800000000E+01 0.  1.
         -5    1    1    2    0  502 -0.14713901571E+02 -0.38218772941E+02  0.25361815213E+02  0.48351500240E+02  0.41800000000E+01 0.  1.
        -11    1    3    3    0    0 -0.51315969875E+02 -0.34817146211E+02  0.57791032087E+02  0.84766537172E+02  0.00000000000E+00 0.  1.
         11    1    3    3    0    0 -0.71649476983E+02  0.70196246532E+02  0.26124348912E+03  0.27983802670E+03  0.00000000000E+00 0. -1.
</event>
<event>
 7    1  0.4096326E-006  0.8975335E+02  0.7561462E-02  0.1303450E+00
          2   -1    0    0  501    0  0.00000000000E+00  0.00000000000E+00  0.80705036118E+02  0.80705036118E+02  0.00000000000E+00 0. -1.
         -2   -1    0    0    0  501 -0.00000000000E+00 -0.00000000000E+00 -0.15323155656E+03  0.15323155656E+03  0.00000000000E+00 0.  1.
         23    2    1    2    0    0  0.25030457234E+02  0.47089508057E+01 -0.21289017778E+02  0.96383013822E+02  0.90486270055E+02 0.  0.
          5    1    1    2  502    0  0.43929235950E+02 -0.18743235971E+02  0.38328185929E+01  0.48096253120E+02  0.41800000000E+01 0. -1.
         -5    1    1    2    0  502 -0.68959693184E+02  0.14034285165E+02 -0.55070321252E+02  0.89457325731E+02  0.41800000000E+01 0. -1.
        -11    1    3    3    0    0  0.16910168087E+02 -0.25047602264E+02 -0.47235801170E+02  0.56076350417E+02  0.00000000000E+00 0.  1.
         11    1    3    3    0    0  0.81202891475E+01  0.29756553070E+02  0.25946783392E+02  0.40306663405E+02  0.00000000000E+00 0. -1.
</event>
<event>
 7    1  0.4096326E-006  0.1353848E+03  0.7561462E-02  0.1219678E+00
          2   -1    0    0  501    0  0.00000000000E+00  0.00000000000E+00  0.53059690001E+03  0.53059690001E+03  0.00000000000E+00 0.  1.
         -2   -1    0    0    0  501 -0.00000000000E+00 -0.00000000000E+00 -0.38539115263E+02  0.38539115263E+02  0.00000000000E+00 0. -1.
         23    2    1    2    0    0 -0.30645033513E+02 -0.88220364521E+02  0.20853826645E+03  0.24548241164E+03  0.89729900568E+02 0.  0.
          5    1    1    2  502    0  0.25659992208E+01 -0.27719270386E+02  0.20522851868E+02  0.34836793072E+02  0.41800000000E+01 0. -1.
         -5    1    1    2    0  502  0.28079034293E+02  0.11593963491E+03  0.26299666643E+03  0.28881681056E+03  0.41800000000E+01 0. -1.
        -11    1    3    3    0    0 -0.50069430884E+02 -0.22807921766E+02  0.13163626013E+03  0.14267184090E+03  0.00000000000E+00 0.  1.
         11    1    3    3    0    0  0.19424397371E+02 -0.65412442756E+02  0.76902006319E+02  0.10281057074E+03  0.00000000000E+00 0. -1.
</event>
<event>
 7    1  0.4096326E-006  0.1957753E+03  0.7561462E-02  0.1153353E+00
          1   -1    0    0  501    0  0.00000000000E+00  0.00000000000E+00  0.70752016246E+03  0.70752016246E+03  0.00000000000E+00 0. -1.
         -1   -1    0    0    0  501 -0.00000000000E+00 -0.00000000000E+00 -0.55384630718E+02  0.55384630718E+02  0.00000000000E+00 0.  1.
         23    2    1    2    0    0  0.13325781288E+03 -0.97846523079E+02  0.30800332184E+03  0.36114622278E+03  0.90713621859E+02 0.  0.
          5    1    1    2  502    0  0.15357870730E+02  0.45129886443E+02  0.10355143798E+03  0.11407428962E+03  0.41800000000E+01 0. -1.
         -5    1    1    2    0  502 -0.14861568361E+03  0.52716636636E+02  0.24058077192E+03  0.28768428078E+03  0.41800000000E+01 0. -1.
        -11    1    3    3    0    0 -0.10246591828E+02 -0.20529924109E+02  0.61304759115E+02  0.65457955347E+02  0.00000000000E+00 0. -1.
         11    1    3    3    0    0  0.14350440470E+03 -0.77316598969E+02  0.24669856273E+03  0.29568826743E+03  0.00000000000E+00 0.  1.
</event>
<event>
 7    1  0.4096326E-006  0.1048110E+03  0.7561462E-02  0.1270492E+00
         -1   -1    0    0    0  501 -0.00000000000E+00  0.00000000000E+00  0.29226055064E+03  0.29226055064E+03  0.00000000000E+00 0.  1.
          1   -1    0    0  501    0  0.00000000000E+00 -0.00000000000E+00 -0.40118766147E+02  0.40118766147E+02  0.00000000000E+00 0. -1.
         23    2    1    2    0    0 -0.60894175507E+01  0.34314540615E+01  0.92596700221E+02  0.12952449995E+03  0.90297238669E+02 0.  0.
          5    1    1    2  502    0 -0.56256568247E+02  0.73535130037E+01  0.47503629580E+02  0.74114390287E+02  0.41800000000E+01 0.  1.
         -5    1    1    2    0  502  0.62345985798E+02 -0.10784967065E+02  0.11204145469E+03  0.12874042655E+03  0.41800000000E+01 0.  1.
        -11    1    3    3    0    0  0.16309947584E+02  0.41814255803E+02  0.35823660958E+02  0.57426309850E+02  0.00000000000E+00 0. -1.
         11    1    3    3    0    0 -0.22399365135E+02 -0.38382801742E+02  0.56773039262E+02  0.72098190095E+02  0.00000000000E+00 0.  1.
</event>
<event>
 7    1  0.4096326E-006  0.1129488E+03  0.7561462E-02  0.1255205E+00
          2   -1    0    0  501    0  0.00000000000E+00  0.00000000000E+00  0.20908958811E+03  0.20908958811E+03  0.00000000000E+00 0. -1.
         -2   -1    0    0    0  501 -0.00000000000E+00 -0.00000000000E+00 -0.92052046886E+02  0.92052046886E+02  0.00000000000E+00 0.  1.
         23    2    1    2    0    0 -0.58129811122E+02 -0.54081719770E+02  0.89390964774E+02  0.15042656218E+03  0.91287998512E+02 0.  0.
          5    1    1    2  502    0  0.48312109261E+01 -0.15770440569E+02 -0.37549658706E+02  0.41224951955E+02  0.41800000000E+01 0. -1.
         -5    1    1    2    0  502  0.53298600196E+02  0.69852160339E+02  0.65196235152E+02  0.10949012086E+03  0.41800000000E+01 0. -1.
        -11    1    3    3    0    0 -0.21066229983E+02 -0.75313990156E+02  0.60174540046E+02  0.98676027630E+02  0.00000000000E+00 0.  1.
         11    1    3    3    0    0 -0.37063581138E+02  0.21232270387E+02  0.29216424728E+02  0.51750534552E+02  0.00000000000E+00 0. -1.
</event>
<event>
 7    1  0.4096326E-006  0.1646222E+03  0.7561462E-02  0.1183575E+00
         -1   -1    0    0    0  501 -0.00000000000E+00  0.00000000000E+00  0.20268260415E+03  0.20268260415E+03  0.00000000000E+00 0.  1.
          1   -1    0    0  501    0  0.00000000000E+00 -0.00000000000E+00 -0.14526105143E+03  0.14526105143E+03  0.00000000000E+00 0. -1.
         23    2    1    2    0    0 -0.10922035692E+03 -0.75573510585E+02  0.29014702726E+02  0.16329607447E+03  0.90461666444E+02 0.  0.
          5    1    1    2  502    0  0.68976114563E+02 -0.25281905010E+02  0.72507890741E+01  0.73938660005E+02  0.41800000000E+01 0.  1.
         -5    1    1    2    0  502  0.40244242358E+02  0.10085541559E+03  0.21156060919E+02  0.11070892110E+03  0.41800000000E+01 0.  1.
        -11    1    3    3    0    0 -0.44972838054E+02 -0.69065291652E+02  0.48769714143E+02  0.95765628966E+02  0.00000000000E+00 0.  1.
         11    1    3    3    0    0 -0.64247518867E+02 -0.65082189324E+01 -0.19755011417E+02  0.67530445507E+02  0.00000000000E+00 0. -1.
</event>
<event>
 7    1  0.4096326E-006  0.1092766E+03  0.7561462E-02  0.1261915E+00
          2   -1    0    0  501    0  0.00000000000E+00  0.00000000000E+00  0.54766480218E+03  0.54766480218E+03  0.00000000000E+00 0. -1.
         -2   -1    0    0    0  501 -0.00000000000E+00 -0.00000000000E+00 -0.33871851060E+02  0.33871851060E+02  0.00000000000E+00 0.  1.
         23    2    1    2    0    0 -0.20242433625E+02  0.67700542694E+02  0.32014556378E+03  0.34042064904E+03  0.91651059380E+02 0.  0.
          5    1    1    2  502    0  0.36611680939E+02 -0.98484209268E+02  0.12017987678E+03  0.15968791388E+03  0.41800000000E+01 0. -1.
         -5    1    1    2    0  502 -0.16369247315E+02  0.30783666574E+02  0.73467510561E+02  0.81428090321E+02  0.41800000000E+01 0. -1.
        -11    1    3    3    0    0  0.94592807685E+01  0.13562177180E+02  0.23738089752E+01  0.16704658380E+02  0.00000000000E+00 0.  1.
         11    1    3    3    0    0 -0.29701714393E+02  0.54138365514E+02  0.31777175480E+03  0.32371599066E+03  0.00000000000E+00 0. -1.
</event>
<event>
 7    1  0.4096326E-006  0.8431427E+02  0.7561462E-02  0.1317236E+00
         -1   -1    0    0    0  501 -0.00000000000E+00  0.00000000000E+00  0.10985260956E+03  0.10985260956E+03  0.00000000000E+00 0.  1.
          1   -1    0    0  501    0  0.00000000000E+00 -0.00000000000E+00 -0.12577006169E+03  0.12577006169E+03  0.00000000000E+00 0. -1.
         23    2    1    2    0    0  0.31331791697E+02  0.81092284492E+01 -0.44633462891E+02  0.10326722832E+03  0.87318575794E+02 0.  0.
          5    1    1    2  502    0  0.38140662805E+01  0.30591002631E+02 -0.36959466596E+02  0.48309741405E+02  0.41800000000E+01 0. -1.
         -5    1    1    2    0  502 -0.35145857977E+02 -0.38700231080E+02  0.65675477357E+02  0.84045701524E+02  0.41800000000E+01 0. -1.
        -11    1    3    3    0    0  0.13644909260E+02  0.43456777107E+02 -0.26802004240E+01  0.45627387604E+02  0.00000000000E+00 0.  1.
         11    1    3    3    0    0  0.17686882437E+02 -0.35347548658E+02 -0.41953262467E+02  0.57639840719E+02  0.00000000000E+00 0. -1.
</event>
<event>
 7    1  0.4096326E-006  0.2291129E+03  0.7561462E-02  0.1127266E+00
          2   -1    0    0  501    0  0.00000000000E+00  0.00000000000E+00  0.32242617159E+03  0.32242617159E+03  0.00000000000E+00 0. -1.
         -2   -1    0    0    0  501 -0.00000000000E+00 -0.00000000000E+00 -0.16856589137E+03  0.16856589137E+03  0.00000000000E+00 0.  1.
         23    2    1    2    0    0 -0.20033455690E+03  0.42041563617E+02  0.53927157438E+02  0.23111600720E+03  0.92763369461E+02 0.  0.
          5    1    1    2  502    0  0.20594015885E+01  0.25129265067E+02  0.29339719634E+02  0.38910315417E+02  0.41800000000E+01 0.  1.
         -5    1    1    2    0  502  0.19827515531E+03 -0.67170828684E+02  0.70593403140E+02  0.22096574035E+03  0.41800000000E+01 0.  1.
        -11    1    3    3    0    0 -0.20718671983E+02  0.38396064497E+02  0.21196878387E+02  0.48505966550E+02  0.00000000000E+00 0.  1.
         11    1    3    3    0    0 -0.17961588492E+03  0.36454991196E+01  0.32730279051E+02  0.18261004065E+03  0.00000000000E+00 0. -1.
</event>
<event>
 7    1  0.4096326E-006  0.9638622E+02  0.7561462E-02  0.1288084E+00
          1   -1    0    0  501    0  0.00000000000E+00  0.00000000000E+00  0.20325615880E+03  0.20325615880E+03  0.00000000000E+00 0. -1.
         -1   -1    0    0    0  501 -0.00000000000E+00 -0.00000000000E+00 -0.79236758792E+02  0.79236758792E+02  0.00000000000E+00 0.  1.
         23    2    1    2    0    0 -0.41018181601E+02 -0.30807698396E+02  0.52877372062E+02  0.11733058809E+03  0.91317276145E+02 0.  0.
          5    1    1    2  502    0  0.48137825570E+02 -0.16106691803E+02  0.98023131947E+02  0.11046575292E+03  0.41800000000E+01 0. -1.
         -5    1    1    2    0  502 -0.71196439689E+01  0.46914390199E+02 -0.26881103999E+02  0.54696576586E+02  0.41800000000E+01 0.  1.
        -11    1    3    3    0    0 -0.34503943847E+02 -0.57319889197E+02  0.59168809828E+02  0.89314275987E+02  0.00000000000E+00 0.  1.
         11    1    3    3    0    0 -0.65142377532E+01  0.26512190801E+02 -0.62914377660E+01  0.28016312101E+02  0.00000000000E+00 0. -1.
</event>
<event>
 7    1  0.4096326E-006  0.5420850E+02  0.7561462E-02  0.1423879E+00
         -1   -1    0    0    0  501 -0.00000000000E+00  0.00000000000E+00  0.87729371468E+02  0.87729371468E+02  0.00000000000E+00 0.  1.
          1   -1    0    0  501    0  0.00000000000E+00 -0.00000000000E+00 -0.14633881593E+03  0.14633881593E+03  0.00000000000E+00 0. -1.
         23    2    1    2    0    0  0.30588470141E+02  0.18328785105E+02 -0.25746623179E+02  0.99907924266E+02  0.89705662346E+02 0.  0.
          5    1    1    2  502    0 -0.11712888995E+02 -0.28561252539E+02 -0.78006397934E+02  0.83996472746E+02  0.41800000000E+01 0. -1.
         -5    1    1    2    0  502 -0.18875581147E+02  0.10232467434E+02  0.45143576649E+02  0.50163790388E+02  0.41800000000E+01 0. -1.
        -11    1    3    3    0    0  0.36984162147E+02  0.26145089080E+02  0.22529788112E+02  0.50586414037E+02  0.00000000000E+00 0.  1.
         11    1    3    3    0    0 -0.63956920061E+01 -0.78163039753E+01 -0.48276411291E+02  0.49321510229E+02  0.00000000000E+00 0. -1.
</event>
<event>
 7    1  0.4096326E-006  0.9936947E+02  0.7561462E-02  0.1281627E+00
          1   -1    0    0  501    0  0.00000000000E+00  0.00000000000E+00  0.32392657241E+03  0.32392657241E+03  0.00000000000E+00 0. -1.
         -1   -1    0    0    0  501 -0.00000000000E+00 -0.00000000000E+00 -0.62251549850E+02  0.62251549850E+02  0.00000000000E+00 0.  1.
         23    2    1    2    0    0  0.63171361472E+02  0.49834306292E+02  0.17797014996E+03  0.21550941250E+03  0.91087066070E+02 0.  0.
          5    1    1    2  502    0 -0.28880511645E+01 -0.32157974141E+02  0.10038820341E+03  0.10553549130E+03  0.41800000000E+01 0.  1.
         -5    1    1    2    0  502 -0.60283310308E+02 -0.17676332152E+02 -0.16683330809E+02  0.65133218459E+02  0.41800000000E+01 0.  1.
        -11    1    3    3    0    0 -0.13611506158E+02  0.73552473392E+01  0.89769618212E+02  0.91093123326E+02  0.00000000000E+00 0. -1.
         11    1    3    3    0    0  0.76782867631E+02  0.42479058953E+02  0.88200531749E+02  0.12441628917E+03  0.00000000000E+00 0.  1.
</event>
<event>
 7    1  0.4096326E-006  0.2917363E+03  0.7561462E-02  0.1089446E+00
          2   -1    0    0  501    0  0.00000000000E+00  0.00000000000E+00  0.73010781294E+03  0.73010781294E+03  0.00000000000E+00 0. -1.
         -2   -1    0    0    0  501 -0.00000000000E+00 -0.00000000000E+00 -0.16071590389E+03  0.16071590389E+03  0.00000000000E+00 0.  1.
         23    2    1    2    0    0  0.27781879222E+03  0.65619785576E+02  0.47996247435E+03  0.56658010900E+03  0.95706873087E+02 0.  0.
          5    1    1    2  502    0 -0.12740343271E+03 -0.95555938644E+01 -0.20746542677E+02  0.12950226049E+03  0.41800000000E+01 0.  1.
         -5    1    1    2    0  502 -0.15041535952E+03 -0.56064191711E+02  0.11017597739E+03  0.19474134734E+03  0.41800000000E+01 0.  1.
        -11    1    3    3    0    0  0.37950322237E+02  0.37841319356E+02  0.49192206733E+02  0.72746584880E+02  0.00000000000E+00 0.  1.
         11    1    3    3    0    0  0.23986846999E+03  0.27778466220E+02  0.43077026762E+03  0.49383352412E+03  0.00000000000E+00 0. -1.
</event>
<event>
 7    1  0.4096326E-006  0.1458752E+03  0.7561462E-02  0.1205635E+00
         -1   -1    0    0    0  501 -0.00000000000E+00  0.00000000000E+00  0.59512571390E+03  0.59512571390E+03  0.00000000000E+00 0.  1.
          1   -1    0    0  501    0  0.00000000000E+00 -0.00000000000E+00 -0.39318026213E+02  0.39318026213E+02  0.00000000000E+00 0. -1.
         23    2    1    2    0    0  0.10079102440E+03 -0.25246537366E+02  0.19292703535E+03  0.23682734336E+03  0.89833909798E+02 0.  0.
          5    1    1    2  502    0 -0.30884236876E+02  0.69254584997E+02  0.21718757631E+03  0.23008248376E+03  0.41800000000E+01 0. -1.
         -5    1    1    2    0  502 -0.69906787519E+02 -0.44008047630E+02  0.14569307604E+03  0.16753391299E+03  0.41800000000E+01 0. -1.
        -11    1    3    3    0    0 -0.10165642707E+02 -0.19498775102E+02  0.13552200188E+02  0.25830304916E+02  0.00000000000E+00 0. -1.
         11    1    3    3    0    0  0.11095666710E+03 -0.57477622643E+01  0.17937483516E+03  0.21099703845E+03  0.00000000000E+00 0.  1.
</event>
<event>
 7    1  0.4096326E-006  0.1333883E+03  0.7561462E-02  0.1222513E+00
          1   -1    0    0  501    0  0.00000000000E+00  0.00000000000E+00  0.16526617759E+03  0.16526617759E+03  0.00000000000E+00 0. -1.
         -1   -1    0    0    0  501 -0.00000000000E+00 -0.00000000000E+00 -0.12489080932E+03  0.12489080932E+03  0.00000000000E+00 0.  1.
         23    2    1    2    0    0 -0.86768244273E+02 -0.36317551946E+01  0.55390852179E+02  0.13716386753E+03  0.90575174246E+02 0.  0.
          5    1    1    2  502    0 -0.53699010259E+01 -0.46398689316E+02 -0.99723641110E+01  0.47943661241E+02  0.41800000000E+01 0.  1.
         -5    1    1    2    0  502  0.92138145298E+02  0.50030444511E+02 -0.50431197995E+01  0.10504945813E+03  0.41800000000E+01 0.  1.
        -11    1    3    3    0    0 -0.10022120346E+03 -0.86522822595E+01  0.25154879636E+02  0.10369146339E+03  0.00000000000E+00 0.  1.
         11    1    3    3    0    0  0.13452959186E+02  0.50205270649E+01  0.30235972544E+02  0.33472404134E+02  0.00000000000E+00 0. -1.
</event>
<event>
 7    1  0.4096326E-006  0.9019966E+02  0.7561462E-02  0.1302369E+00
         -1   -1    0    0    0  501 -0.00000000000E+00  0.00000000000E+00  0.17719219915E+02  0.17719219915E+02  0.00000000000E+00 0.  1.
          1   -1    0    0  501    0  0.00000000000E+00 -0.00000000000E+00 -0.67596638238E+03  0.67596638238E+03  0.00000000000E+00 0. -1.
         23    2    1    2    0    0 -0.49697982701E+01 -0.98077248608E+01 -0.32474328984E+03  0.33732517461E+03  0.90604518484E+02 0.  0.
          5    1    1    2  502    0  0.45849254531E+02  0.18061346028E+02 -0.29604525483E+03  0.30014768310E+03  0.41800000000E+01 0.  1.
         -5    1    1    2    0  502 -0.40879456260E+02 -0.82536211677E+01 -0.37458617793E+02  0.56212744583E+02  0.41800000000E+01 0.  1.
        -11    1    3    3    0    0  0.31625647414E+02 -0.32997953341E+02 -0.12939099876E+03  0.13722637158E+03  0.00000000000E+00 0.  1.
         11    1    3    3    0    0 -0.36595445684E+02  0.23190228480E+02 -0.19535229108E+03  0.20009880303E+03  0.00000000000E+00 0. -1.
</event>
<event>
 7    1  0.4096326E-006  0.9946251E+02  0.7561462E-02  0.1281430E+00
         -1   -1    0    0    0  501 -0.00000000000E+00  0.00000000000E+00  0.43564528742E+03  0.43564528742E+03  0.00000000000E+00 0.  1.
          1   -1    0    0  501    0  0.00000000000E+00 -0.00000000000E+00 -0.40612894920E+02  0.40612894920E+02  0.00000000000E+00 0. -1.
         23    2    1    2    0    0 -0.16002711420E+02 -0.53771546725E+02  0.86774207691E+02  0.13888880190E+03  0.92805550287E+02 0.  0.
          5    1    1    2  502    0  0.58996725099E+02  0.63152934630E+02  0.15116879747E+03  0.17417917342E+03  0.41800000000E+01 0. -1.
         -5    1    1    2    0  502 -0.42994013679E+02 -0.93813879056E+01  0.15708938733E+03  0.16319020701E+03  0.41800000000E+01 0. -1.
        -11    1    3    3    0    0 -0.27602888084E+02 -0.25259983540E+02 -0.88362513410E+01  0.38445617914E+02  0.00000000000E+00 0. -1.
         11    1    3    3    0    0  0.11600176664E+02 -0.28511563185E+02  0.95610459032E+02  0.10044318399E+03  0.00000000000E+00 0.  1.
</event>
<event>
 7    1  0.4096326E-006  0.1077407E+03  0.7561462E-02  0.1264812E+00
          2   -1    0    0  501    0  0.00000000000E+00  0.00000000000E+00  0.25166047681E+03  0.25166047681E+03  0.00000000000E+00 0. -1.
         -2   -1    0    0    0  501 -0.00000000000E+00 -0.00000000000E+00 -0.74092624161E+02  0.74092624161E+02  0.00000000000E+00 0.  1.
         23    2    1    2    0    0  0.53864569546E+02  0.42361122987E+02  0.12668952528E+03  0.17431838066E+03  0.98187603233E+02 0.  0.
          5    1    1    2  502    0  0.37692119545E+02 -0.72641666331E+01 -0.42887181409E+01  0.38850090038E+02  0.41800000000E+01 0. -1.
         -5    1    1    2    0  502 -0.91556689091E+02 -0.35096956354E+02  0.55167045515E+02  0.11258463027E+03  0.41800000000E+01 0. -1.
        -11    1    3    3    0    0  0.25396846176E+02  0.43349966148E+02  0.13548982223E+03  0.14450505627E+03  0.00000000000E+00 0. -1.
         11    1    3    3    0    0  0.28467723369E+02 -0.98884316157E+00 -0.88002969525E+01  0.29813324388E+02  0.00000000000E+00 0.  1.
</event>
<event>
 7    1  0.4096326E-006  0.2621992E+03  0.7561462E-02  0.1105829E+00
          2   -1    0    0  501    0  0.00000000000E+00  0.00000000000E+00  0.28903256948E+03  0.28903256948E+03  0.00000000000E+00 0. -1.
         -2   -1    0    0    0  501 -0.00000000000E+00 -0.00000000000E+00 -0.36495513825E+03  0.36495513825E+03  0.00000000000E+00 0.  1.
         23    2    1    2    0    0 -0.87931171384E+02  0.23059648310E+03  0.14374594078E+03  0.30070487767E+03  0.94095159516E+02 0.  0.
          5    1    1    2  502    0  0.48591391375E+02 -0.17472201314E+02 -0.12180095581E+02  0.53218683400E+02  0.41800000000E+01 0. -1.
         -5    1    1    2    0  502  0.39339780010E+02 -0.21312428179E+03 -0.20748841397E+03  0.30006414666E+03  0.41800000000E+01 0. -1.
        -11    1    3    3    0    0 -0.75359442401E+01  0.11372330371E+03  0.10169953687E+03  0.15275004439E+03  0.00000000000E+00 0. -1.
         11    1    3    3    0    0 -0.80395227144E+02  0.11687317940E+03  0.42046403909E+02  0.14795483328E+03  0.00000000000E+00 0.  1.
</event>
<event>
 7    1  0.4096326E-006  0.1784648E+03  0.7561462E-02  0.1169297E+00
          1   -1    0    0  501    0  0.00000000000E+00  0.00000000000E+00  0.49351612695E+03  0.49351612695E+03  0.00000000000E+00 0. -1.
         -1   -1    0    0    0  501 -0.00000000000E+00 -0.00000000000E+00 -0.83953333613E+02  0.83953333613E+02  0.00000000000E+00 0.  1.
         23    2    1    2    0    0  0.72749450035E+02 -0.14566389900E+03  0.27857881405E+03  0.33392588691E+03  0.85964459853E+02 0.  0.
          5    1    1    2  502    0  0.42369917522E+00  0.70755772920E+02 -0.59256157427E+01  0.71127661598E+02  0.41800000000E+01 0. -1.
         -5    1    1    2    0  502 -0.73173149210E+02  0.74908126083E+02  0.13690959502E+03  0.17241591205E+03  0.41800000000E+01 0. -1.
        -11    1    3    3    0    0 -0.78241034361E+01 -0.70906270060E+02  0.81842650156E+02  0.10856857332E+03  0.00000000000E+00 0. -1.
         11    1    3    3    0    0  0.80573553471E+02 -0.74757628943E+02  0.19673616390E+03  0.22535731359E+03  0.00000000000E+00 0.  1.
</event>
<event>
 7    1  0.4096326E-006  0.1117065E+03  0.7561462E-02  0.1257442E+00
          4   -1    0    0  501    0  0.00000000000E+00  0.00000000000E+00  0.13495722618E+03  0.13495722618E+03  0.00000000000E+00 0. -1.
         -4   -1    0    0    0  501 -0.00000000000E+00 -0.00000000000E+00 -0.11811606685E+03  0.11811606685E+03  0.00000000000E+00 0.  1.
         23    2    1    2    0    0 -0.42399564175E+02 -0.42131079327E+02  0.30843615335E+02  0.11371714931E+03  0.91692478167E+02 0.  0.
          5    1    1    2  502    0 -0.29120828108E+02 -0.13358457204E+02  0.24848711755E+02  0.40760297894E+02  0.41800000000E+01 0. -1.
         -5    1    1    2    0  502  0.71520392283E+02  0.55489536531E+02 -0.38851167760E+02  0.98595845821E+02  0.41800000000E+01 0. -1.
        -11    1    3    3    0    0 -0.32284265771E+02  0.19707434496E+02  0.34163870698E+02  0.50968881210E+02  0.00000000000E+00 0.  1.
         11    1    3    3    0    0 -0.10115298404E+02 -0.61838513823E+02 -0.33202553625E+01  0.62748268098E+02  0.00000000000E+00 0. -1.
</event>
<event>
 7    1  0.4096326E-006  0.1213409E+03  0.7561462E-02  0.1240901E+00
          1   -1    0    0  501    0  0.00000000000E+00  0.00000000000E+00  0.82882518347E+03  0.82882518347E+03  0.00000000000E+00 0. -1.
         -1   -1    0    0    0  501 -0.00000000000E+00 -0.00000000000E+00 -0.25361546631E+02  0.25361546631E+02  0.00000000000E+00 0.  1.
         23    2    1    2    0    0  0.82264772939E+02 -0.47585475443E+02  0.38112351285E+03  0.40357339690E+03  0.92652492130E+02 0.  0.
          5    1    1    2  502    0 -0.98219582206E+01 -0.29187691390E+02  0.26258565419E+02  0.40686322638E+02  0.41800000000E+01 0.  1.
         -5    1    1    2    0  502 -0.72442814719E+02  0.76773166833E+02  0.39608155857E+03  0.40992701056E+03  0.41800000000E+01 0.  1.
        -11    1    3    3    0    0  0.83789722929E+02 -0.31048204201E+02  0.37558253588E+03  0.38606599166E+03  0.00000000000E+00 0. -1.
         11    1    3    3    0    0 -0.15249499894E+01 -0.16537271242E+02  0.55409769653E+01  0.17507405242E+02  0.00000000000E+00 0.  1.
</event>
<event>
 7    1  0.4096326E-006  0.1263492E+03  0.7561462E-02  0.1232976E+00
         -2   -1    0    0    0  501 -0.00000000000E+00  0.00000000000E+00  0.14502765168E+03  0.14502765168E+03  0.00000000000E+00 0.  1.
          2   -1    0    0  501    0  0.00000000000E+00 -0.00000000000E+00 -0.14976226045E+03  0.14976226045E+03  0.00000000000E+00 0. -1.
         23    2    1    2    0    0 -0.69726023769E+02  0.68221814885E+02 -0.68267501036E+01  0.13614815324E+03  0.94730041149E+02 0.  0.
          5    1    1    2  502    0  0.85243930232E+02 -0.18831363766E+02 -0.35698970473E+02  0.94408880914E+02  0.41800000000E+01 0.  1.
         -5    1    1    2    0  502 -0.15517906462E+02 -0.49390451119E+02  0.37791111808E+02  0.64232877986E+02  0.41800000000E+01 0.  1.
        -11    1    3    3    0    0 -0.29868264061E+02 -0.47196358799E+01  0.32328568059E+02  0.44266516393E+02  0.00000000000E+00 0.  1.
         11    1    3    3    0    0 -0.39857759708E+02  0.72941450765E+02 -0.39155318163E+02  0.91881636843E+02  0.00000000000E+00 0. -1.
</event>
<event>
 7    1  0.4096326E-006  0.1850829E+03  0.7561462E-02  0.1162972E+00
         -1   -1    0    0    0  501 -0.00000000000E+00  0.00000000000E+00  0.55976872616E+03  0.55976872616E+03  0.00000000000E+00 0.  1.
          1   -1    0    0  501    0  0.00000000000E+00 -0.00000000000E+00 -0.10475991601E+03  0.10475991601E+03  0.00000000000E+00 0. -1.
         23    2    1    2    0    0  0.13837010514E+03  0.11617570939E+03  0.47553979742E+02  0.20159347258E+03  0.75732857774E+02 0.  0.
          5    1    1    2  502    0 -0.22154514241E+02 -0.51962174975E+02  0.32861984409E+02  0.65484903212E+02  0.41800000000E+01 0. -1.
         -5    1    1    2    0  502 -0.11621559090E+03 -0.64213534419E+02  0.37459284599E+03  0.39745026637E+03  0.41800000000E+01 0. -1.
        -11    1    3    3    0    0  0.62018816194E+02  0.53161790946E+02  0.60643326336E+02  0.10173555233E+03  0.00000000000E+00 0.  1.
         11    1    3    3    0    0  0.76351288947E+02  0.63013918448E+02 -0.13089346594E+02  0.99857920248E+02  0.00000000000E+00 0. -1.
</event>
<event>
 7    1  0.4096326E-006  0.2094457E+03  0.7561462E-02  0.1142006E+00
          2   -1    0    0  501    0  0.00000000000E+00  0.00000000000E+00  0.12182747933E+04  0.12182747933E+04  0.00000000000E+00 0. -1.
         -2   -1    0    0    0  501 -0.00000000000E+00 -0.00000000000E+00 -0.41101198490E+02  0.41101198490E+02  0.00000000000E+00 0.  1.
         23    2    1    2    0    0 -0.16171760960E+03  0.10476014428E+03  0.47858946036E+03  0.52398897641E+03  0.91593137014E+02 0.  0.
          5    1    1    2  502    0  0.14333930694E+03 -0.32976080740E+02  0.54937673258E+03  0.56874057839E+03  0.41800000000E+01 0. -1.
         -5    1    1    2    0  502  0.18378302652E+02 -0.71784063538E+02  0.14920740187E+03  0.16664643698E+03  0.41800000000E+01 0. -1.
        -11    1    3    3    0    0 -0.59304899702E+02  0.64143923627E+02  0.11717913316E+03  0.14615903433E+03  0.00000000000E+00 0.  1.
         11    1    3    3    0    0 -0.10241270989E+03  0.40616220650E+02  0.36141032720E+03  0.37782994208E+03  0.00000000000E+00 0. -1.
</event>
<event>
 7    1  0.4096326E-006  0.2026690E+03  0.7561462E-02  0.1147506E+00
         -1   -1    0    0    0  501 -0.00000000000E+00  0.00000000000E+00  0.61836215223E+02  0.61836215223E+02  0.00000000000E+00 0.  1.
          1   -1    0    0  501    0  0.00000000000E+00 -0.00000000000E+00 -0.67964991799E+03  0.67964991799E+03  0.00000000000E+00 0. -1.
         23    2    1    2    0    0  0.13994439884E+03 -0.98823009603E+02 -0.24629452399E+03  0.31367242254E+03  0.91536736472E+02 0.  0.
          5    1    1    2  502    0 -0.18182342483E+02  0.87705036678E+02 -0.15005438538E+03  0.17480435351E+03  0.41800000000E+01 0.  1.
         -5    1    1    2    0  502 -0.12176205636E+03  0.11117972925E+02 -0.22146479340E+03  0.25300935715E+03  0.41800000000E+01 0.  1.
        -11    1    3    3    0    0  0.59209015241E+02  0.76586142540E+01 -0.62476266017E+02  0.86415540694E+02  0.00000000000E+00 0.  1.
         11    1    3    3    0    0  0.80735383600E+02 -0.10648162386E+03 -0.18381825797E+03  0.22725688185E+03  0.00000000000E+00 0. -1.
</event>
<event>
 7    1  0.4096326E-006  0.1070757E+03  0.7561462E-02  0.1266083E+00
          2   -1    0    0  501    0  0.00000000000E+00  0.00000000000E+00  0.13500763385E+03  0.13500763385E+03  0.00000000000E+00 0. -1.
         -2   -1    0    0    0  501 -0.00000000000E+00 -0.00000000000E+00 -0.16070003769E+03  0.16070003769E+03  0.00000000000E+00 0.  1.
         23    2    1    2    0    0 -0.32328932798E+01  0.58564013766E+02  0.71242992050E+02  0.12693542342E+03  0.87159867453E+02 0.  0.
          5    1    1    2  502    0  0.54575866350E+02 -0.47013049094E+02 -0.90266517372E+02  0.11556067035E+03  0.41800000000E+01 0. -1.
         -5    1    1    2    0  502 -0.51342973070E+02 -0.11550964672E+02 -0.66688785097E+01  0.53211577773E+02  0.41800000000E+01 0. -1.
        -11    1    3    3    0    0  0.30965271233E+02  0.39029082218E+02  0.71985047535E+02  0.87544070901E+02  0.00000000000E+00 0. -1.
         11    1    3    3    0    0 -0.34198164513E+02  0.19534931548E+02 -0.74205548518E+00  0.39391352515E+02  0.00000000000E+00 0.  1.
</event>
<event>
 7    1  0.4096326E-006  0.1698187E+03  0.7561462E-02  0.1178037E+00
         -2   -1    0    0    0  501 -0.00000000000E+00  0.00000000000E+00  0.22438351518E+03  0.22438351518E+03  0.00000000000E+00 0.  1.
          2   -1    0    0  501    0  0.00000000000E+00 -0.00000000000E+00 -0.14126521123E+03  0.14126521123E+03  0.00000000000E+00 0. -1.
         23    2    1    2    0    0 -0.13450098130E+03 -0.40387019160E+02  0.26094035273E+02  0.16912569273E+03  0.90559240160E+02 0.  0.
          5    1    1    2  502    0  0.11605459119E+03 -0.22291537522E+02  0.56490977977E+02  0.13105069162E+03  0.41800000000E+01 0. -1.
         -5    1    1    2    0  502  0.18446390104E+02  0.62678556681E+02  0.53329070328E+00  0.65472342058E+02  0.41800000000E+01 0. -1.
        -11    1    3    3    0    0 -0.10847657207E+03 -0.59411502254E+02  0.45166386500E+02  0.13166964630E+03  0.00000000000E+00 0.  1.
         11    1    3    3    0    0 -0.26024409225E+02  0.19024483094E+02 -0.19072351227E+02  0.37456046426E+02  0.00000000000E+00 0. -1.
</event>
<event>
 7    1  0.4096326E-006  0.2052266E+03  0.7561462E-02  0.1145403E+00
          2   -1    0    0  501    0  0.00000000000E+00  0.00000000000E+00  0.73611088946E+03  0.73611088946E+03  0.00000000000E+00 0. -1.
         -2   -1    0    0    0  501 -0.00000000000E+00 -0.00000000000E+00 -0.12207906917E+03  0.12207906917E+03  0.00000000000E+00 0.  1.
         23    2    1    2    0    0  0.17376439586E+03 -0.81780697052E+02  0.28187517092E+03  0.35184567029E+03  0.86369068798E+02 0.  0.
          5    1    1    2  502    0 -0.79539362961E+02  0.77818788213E+01  0.37161589489E+03  0.38013538856E+03  0.41800000000E+01 0. -1.
         -5    1    1    2    0  502 -0.94225032902E+02  0.73998818231E+02 -0.39459245515E+02  0.12620889977E+03  0.41800000000E+01 0.  1.
        -11    1    3    3    0    0  0.11264166924E+03 -0.54743448744E+01  0.15403359500E+03  0.19090432811E+03  0.00000000000E+00 0. -1.
         11    1    3    3    0    0  0.61122726627E+02 -0.76306352178E+02  0.12784157591E+03  0.16094134219E+03  0.00000000000E+00 0.  1.
</event>
<event>
 7    1  0.4096326E-006  0.9688183E+02  0.7561462E-02  0.1286993E+00
         -2   -1    0    0    0  501 -0.00000000000E+00  0.00000000000E+00  0.14367283101E+03  0.14367283101E+03  0.00000000000E+00 0.  1.
          2   -1    0    0  501    0  0.00000000000E+00 -0.00000000000E+00 -0.14128049116E+03  0.14128049116E+03  0.00000000000E+00 0. -1.
         23    2    1    2    0    0  0.68411607943E+02 -0.39850412502E+01 -0.60047507185E+02  0.12925408745E+03  0.91678172693E+02 0.  0.
          5    1    1    2  502    0  0.10589982040E+02 -0.22343598006E+02  0.67660113631E+02  0.72157795615E+02  0.41800000000E+01 0. -1.
         -5    1    1    2    0  502 -0.79001589982E+02  0.26328639256E+02 -0.52202666018E+01  0.83541439108E+02  0.41800000000E+01 0. -1.
        -11    1    3    3    0    0  0.31137403089E+02  0.23488671770E+02  0.14403507024E+02  0.41577837693E+02  0.00000000000E+00 0.  1.
         11    1    3    3    0    0  0.37274204853E+02 -0.27473713020E+02 -0.74451014209E+02  0.87676249756E+02  0.00000000000E+00 0. -1.
</event>
<event>
 7    1  0.4096326E-006  0.1049607E+03  0.7561462E-02  0.1270197E+00
          4   -1    0    0  501    0  0.00000000000E+00  0.00000000000E+00  0.71613727828E+02  0.71613727828E+02  0.00000000000E+00 0. -1.
         -4   -1    0    0    0  501 -0.00000000000E+00 -0.00000000000E+00 -0.37561626903E+03  0.37561626903E+03  0.00000000000E+00 0.  1.
         23    2    1    2    0    0  0.10432832186E+02  0.28322832099E+02  0.98638547633E+01  0.10801356877E+03  0.10324053760E+03 0.  0.
          5    1    1    2  502    0  0.28138766739E+02  0.38396223919E+02 -0.82785566710E+02  0.95587565407E+02  0.41800000000E+01 0.  1.
         -5    1    1    2    0  502 -0.38571598926E+02 -0.66719056018E+02 -0.23108082925E+03  0.24362886267E+03  0.41800000000E+01 0.  1.
        -11    1    3    3    0    0 -0.16496817661E+02 -0.22226932787E+02  0.35705604676E+02  0.45178221959E+02  0.00000000000E+00 0. -1.
         11    1    3    3    0    0  0.26929649847E+02  0.50549764885E+02 -0.25841749913E+02  0.62835346816E+02  0.00000000000E+00 0.  1.
</event>
<event>
 7    1  0.4096326E-006  0.1717768E+03  0.7561462E-02  0.1176007E+00
          1   -1    0    0  501    0  0.00000000000E+00  0.00000000000E+00  0.44203410188E+03  0.44203410188E+03  0.00000000000E+00 0. -1.
         -1   -1    0    0    0  501 -0.00000000000E+00 -0.00000000000E+00 -0.70963840990E+02  0.70963840990E+02  0.00000000000E+00 0.  1.
         23    2    1    2    0    0  0.11078331043E+03 -0.84042120565E+02  0.19677915007E+03  0.25734085487E+03  0.90367371214E+02 0.  0.
          5    1    1    2  502    0 -0.27851362763E+02  0.98268935817E+02  0.10538474651E+03  0.14681927445E+03  0.41800000000E+01 0. -1.
         -5    1    1    2    0  502 -0.82931947669E+02 -0.14226815252E+02  0.68906364308E+02  0.10883781355E+03  0.41800000000E+01 0. -1.
        -11    1    3    3    0    0  0.67879981483E+02 -0.91092643312E+02  0.10040801805E+03  0.15161573678E+03  0.00000000000E+00 0.  1.
         11    1    3    3    0    0  0.42903328948E+02  0.70505227472E+01  0.96371132026E+02  0.10572511808E+03  0.00000000000E+00 0. -1.
</event>
<event>
 7    1  0.4096326E-006  0.1092044E+03  0.7561462E-02  0.1262050E+00
          1   -1    0    0  501    0  0.00000000000E+00  0.00000000000E+00  0.33723904149E+03  0.33723904149E+03  0.00000000000E+00 0. -1.
         -1   -1    0    0    0  501 -0.00000000000E+00 -0.00000000000E+00 -0.49822405411E+02  0.49822405411E+02  0.00000000000E+00 0.  1.
         23    2    1    2    0    0 -0.20545244639E+02 -0.14103484532E+02  0.22892507076E+03  0.24673390612E+03  0.88599757633E+02 0.  0.
          5    1    1    2  502    0 -0.41369880540E+02  0.42106459291E+02  0.22430779683E+02  0.63285331689E+02  0.41800000000E+01 0.  1.
         -5    1    1    2    0  502  0.61915125179E+02 -0.28002974759E+02  0.36060785635E+02  0.77042209093E+02  0.41800000000E+01 0.  1.
        -11    1    3    3    0    0 -0.53963038617E+02  0.21157069019E+01  0.15202714908E+03  0.16133424872E+03  0.00000000000E+00 0. -1.
         11    1    3    3    0    0  0.33417793978E+02 -0.16219191434E+02  0.76897921679E+02  0.85399657398E+02  0.00000000000E+00 0.  1.
</event>
<event>
 7    1  0.4096326E-006  0.1220827E+03  0.7561462E-02  0.1239700E+00
          3   -1    0    0  501    0  0.00000000000E+00  0.00000000000E+00  0.44153251728E+03  0.44153251728E+03  0.00000000000E+00 0. -1.
         -3   -1    0    0    0  501 -0.00000000000E+00 -0.00000000000E+00 -0.66579246190E+02  0.66579246190E+02  0.00000000000E+00 0.  1.
         23    2    1    2    0    0  0.61111936139E+02  0.12407243806E+02  0.34974221156E+03  0.36608937663E+03  0.88392356545E+02 0.  0.
          5    1    1    2  502    0 -0.87826570233E+02 -0.42994951647E+02  0.97211172441E+01  0.98356722325E+02  0.41800000000E+01 0.  1.
         -5    1    1    2    0  502  0.26714634094E+02  0.30587707841E+02  0.15489942287E+02  0.43665664518E+02  0.41800000000E+01 0.  1.
        -11    1    3    3    0    0 -0.10203401015E+02 -0.23499923539E+02  0.12464349667E+03  0.12724919277E+03  0.00000000000E+00 0. -1.
         11    1    3    3    0    0  0.71315337154E+02  0.35907167345E+02  0.22509871490E+03  0.23884018386E+03  0.00000000000E+00 0.  1.
</event>
<event>
 7    1  0.4096326E-006  0.2050631E+03  0.7561462E-02  0.1145536E+00
         -2   -1    0    0    0  501 -0.00000000000E+00  0.00000000000E+00  0.36883114538E+02  0.36883114538E+02  0.00000000000E+00 0.  1.
          2   -1    0    0  501    0  0.00000000000E+00 -0.00000000000E+00 -0.15109896680E+04  0.15109896680E+04  0.00000000000E+00 0. -1.
         23    2    1    2    0    0  0.18486198247E+03 -0.21946377448E+02 -0.39172862216E+03  0.44250183515E+03  0.87755140257E+02 0.  0.
          5    1    1    2  502    0 -0.17914998758E+03  0.57123219138E+02 -0.92954136492E+03  0.94837882816E+03  0.41800000000E+01 0.  1.
         -5    1    1    2    0  502 -0.57119948845E+01 -0.35176841691E+02 -0.15283656641E+03  0.15699211926E+03  0.41800000000E+01 0.  1.
        -11    1    3    3    0    0  0.14901975996E+03 -0.17936321891E+02 -0.21549152101E+03  0.26261225434E+03  0.00000000000E+00 0.  1.
         11    1    3    3    0    0  0.35842222502E+02 -0.40100555565E+01 -0.17623710115E+03  0.17988958081E+03  0.00000000000E+00 0. -1.
</event>
<event>
 7    1  0.4096326E-006  0.1196313E+03  0.7561462E-02  0.1243706E+00
          2   -1    0    0  501    0  0.00000000000E+00  0.00000000000E+00  0.55031160113E+03  0.55031160113E+03  0.00000000000E+00 0. -1.
         -2   -1    0    0    0  501 -0.00000000000E+00 -0.00000000000E+00 -0.28460317401E+02  0.28460317401E+02  0.00000000000E+00 0.  1.
         23    2    1    2    0    0  0.30124185819E+02  0.53516476557E+02  0.26478894468E+03  0.28636783432E+03  0.90121426256E+02 0.  0.
          5    1    1    2  502    0  0.87313877641E+01 -0.82363036442E+02  0.20531708219E+03  0.22143279690E+03  0.41800000000E+01 0.  1.
         -5    1    1    2    0  502 -0.38855573583E+02  0.28846559885E+02  0.51745256852E+02  0.70971287310E+02  0.41800000000E+01 0.  1.
        -11    1    3    3    0    0  0.61582973277E+02  0.30119069697E+02  0.18880447702E+03  0.20086500815E+03  0.00000000000E+00 0. -1.
         11    1    3    3    0    0 -0.31458787458E+02  0.23397406860E+02  0.75984467659E+02  0.85502826161E+02  0.00000000000E+00 0.  1.
</event>
<event>
 7    1  0.4096326E-006  0.1296071E+03  0.7561462E-02  0.1228040E+00
         -1   -1    0    0    0  501 -0.00000000000E+00  0.00000000000E+00  0.14215684960E+03  0.14215684960E+03  0.00000000000E+00 0.  1.
          1   -1    0    0  501    0  0.00000000000E+00 -0.00000000000E+00 -0.13174406400E+03  0.13174406400E+03  0.00000000000E+00 0. -1.
         23    2    1    2    0    0 -0.59937016077E+02 -0.40175111693E+02 -0.34449319557E+02  0.12268398499E+03  0.93049014291E+02 0.  0.
          5    1    1    2  502    0 -0.26686025457E+02  0.50210697041E+02  0.15102039458E+02  0.58981370345E+02  0.41800000000E+01 0.  1.
         -5    1    1    2    0  502  0.86623041533E+02 -0.10035585348E+02  0.29760065699E+02  0.92235558263E+02  0.41800000000E+01 0.  1.
        -11    1    3    3    0    0  0.22065771851E+02 -0.21470140298E+02  0.23500411650E+01  0.30876980184E+02  0.00000000000E+00 0.  1.
         11    1    3    3    0    0 -0.82002787927E+02 -0.18704971395E+02 -0.36799360722E+02  0.91807004811E+02  0.00000000000E+00 0. -1.
</event>
<event>
 7    1  0.4096326E-006  0.9348134E+02  0.7561462E-02  0.1294634E+00
          2   -1    0    0  501    0  0.00000000000E+00  0.00000000000E+00  0.25854772786E+03  0.25854772786E+03  0.00000000000E+00 0. -1.
         -2   -1    0    0    0  501 -0.00000000000E+00 -0.00000000000E+00 -0.57770913475E+02  0.57770913475E+02  0.00000000000E+00 0.  1.
         23    2    1    2    0    0 -0.49718253409E+02  0.77415957601E+01  0.12256750446E+03  0.16044625053E+03  0.90489607864E+02 0.  0.
          5    1    1    2  502    0  0.58371503792E+02 -0.34247173337E+02 -0.50262777826E+01  0.67991449498E+02  0.41800000000E+01 0. -1.
         -5    1    1    2    0  502 -0.86532503830E+01  0.26505577577E+02  0.83235587704E+02  0.87880941309E+02  0.41800000000E+01 0. -1.
        -11    1    3    3    0    0 -0.54354296136E+02 -0.23617363057E+02  0.11255333849E+03  0.12720229303E+03  0.00000000000E+00 0. -1.
         11    1    3    3    0    0  0.46360427277E+01  0.31358958818E+02  0.10014165976E+02  0.33243957503E+02  0.00000000000E+00 0.  1.
</event>
<event>
 7    1  0.4096326E-006  0.8713262E+02  0.7561462E-02  0.1309948E+00
          1   -1    0    0  501    0  0.00000000000E+00  0.00000000000E+00  0.23265257534E+02  0.23265257534E+02  0.00000000000E+00 0. -1.
         -1   -1    0    0    0  501 -0.00000000000E+00 -0.00000000000E+00 -0.54241298660E+03  0.54241298660E+03  0.00000000000E+00 0.  1.
         23    2    1    2    0    0 -0.86045084214E+01 -0.10791451641E+02 -0.14945704030E+03  0.17515450851E+03  0.90284007237E+02 0.  0.
          5    1    1    2  502    0  0.52254572944E+01 -0.46587114503E+02 -0.27990376565E+03  0.28383314652E+03  0.41800000000E+01 0.  1.
         -5    1    1    2    0  502  0.33790511270E+01  0.57378566145E+02 -0.89786923121E+02  0.10669058910E+03  0.41800000000E+01 0.  1.
        -11    1    3    3    0    0 -0.28623260463E+02 -0.30255048339E+02 -0.13938155434E+03  0.14547122286E+03  0.00000000000E+00 0.  1.
         11    1    3    3    0    0  0.20018752042E+02  0.19463596698E+02 -0.10075485958E+02  0.29683285651E+02  0.00000000000E+00 0. -1.
</event>
<event>
 7    1  0.4096326E-006  0.1172711E+03  0.7561462E-02  0.1247668E+00
          3   -1    0    0  501    0  0.00000000000E+00  0.00000000000E+00  0.13923664728E+03  0.13923664728E+03  0.00000000000E+00 0. -1.
         -3   -1    0    0    0  501 -0.00000000000E+00 -0.00000000000E+00 -0.15645720714E+03  0.15645720714E+03  0.00000000000E+00 0.  1.
         23    2    1    2    0    0  0.71518516726E+02 -0.66729573417E+02  0.40030860707E+01  0.13548957557E+03  0.93667850339E+02 0.  0.
          5    1    1    2  502    0 -0.11222243714E+02  0.24389052907E+02  0.50468726684E+02  0.57317793300E+02  0.41800000000E+01 0. -1.
         -5    1    1    2    0  502 -0.60296273012E+02  0.42340520510E+02 -0.71692372622E+02  0.10288648555E+03  0.41800000000E+01 0. -1.
        -11    1    3    3    0    0  0.77752482860E+02 -0.12215184059E+02  0.13347471681E+02  0.79829908636E+02  0.00000000000E+00 0.  1.
         11    1    3    3    0    0 -0.62339661348E+01 -0.54514389358E+02 -0.93443856102E+01  0.55659666935E+02  0.00000000000E+00 0. -1.
</event>
<event>
 7    1  0.4096326E-006  0.1472569E+03  0.7561462E-02  0.1203885E+00
          1   -1    0    0  501    0  0.00000000000E+00  0.00000000000E+00  0.47533190257E+03  0.47533190257E+03  0.00000000000E+00 0. -1.
         -1   -1    0    0    0  501 -0.00000000000E+00 -0.00000000000E+00 -0.70689476634E+02  0.70689476634E+02  0.00000000000E+00 0.  1.
         23    2    1    2    0    0 -0.10892827691E+02  0.14564667667E+03  0.16079268733E+03  0.23547197278E+03  0.90890888129E+02 0.  0.
          5    1    1    2  502    0  0.10444851586E+02 -0.24034840334E+02  0.16138979776E+03  0.16355704722E+03  0.41800000000E+01 0.  1.
         -5    1    1    2    0  502  0.44797610534E+00 -0.12161183634E+03  0.82459940849E+02  0.14699235921E+03  0.41800000000E+01 0.  1.
        -11    1    3    3    0    0 -0.10409081706E+02  0.83904206909E+02  0.15085631107E+03  0.17293319956E+03  0.00000000000E+00 0. -1.
         11    1    3    3    0    0 -0.48374598457E+00  0.61742469764E+02  0.99363762544E+01  0.62538773219E+02  0.00000000000E+00 0.  1.
</event>
<event>
 7    1  0.4096326E-006  0.1407208E+03  0.7561462E-02  0.1212362E+00
          3   -1    0    0  501    0  0.00000000000E+00  0.00000000000E+00  0.90489031224E+02  0.90489031224E+02  0.00000000000E+00 0. -1.
         -3   -1    0    0    0  501 -0.00000000000E+00 -0.00000000000E+00 -0.25281488904E+03  0.25281488904E+03  0.00000000000E+00 0.  1.
         23    2    1    2    0    0 -0.83063497339E+02 -0.53261704519E+02 -0.35662614221E+02  0.13976423880E+03  0.92335619544E+02 0.  0.
          5    1    1    2  502    0  0.77315683179E+02 -0.22492772357E+02 -0.46771306948E+02  0.93213020697E+02  0.41800000000E+01 0.  1.
         -5    1    1    2    0  502  0.57478141594E+01  0.75754476876E+02 -0.79891936644E+02  0.11032666076E+03  0.41800000000E+01 0.  1.
        -11    1    3    3    0    0 -0.64457140868E+02  0.39358260596E+01  0.85143971774E+01  0.65136078290E+02  0.00000000000E+00 0. -1.
         11    1    3    3    0    0 -0.18606356471E+02 -0.57197530578E+02 -0.44177011399E+02  0.74628160513E+02  0.00000000000E+00 0.  1.
</event>
<event>
 7    1  0.4096326E-006  0.9298026E+02  0.7561462E-02  0.1295791E+00
          2   -1    0    0  501    0  0.00000000000E+00  0.00000000000E+00  0.95646773863E+02  0.95646773863E+02  0.00000000000E+00 0.  1.
         -2   -1    0    0    0  501 -0.00000000000E+00 -0.00000000000E+00 -0.17892766620E+03  0.17892766620E+03  0.00000000000E+00 0. -1.
         23    2    1    2    0    0  0.47160577258E+02  0.10283367356E+02  0.20103854947E+02  0.10526603979E+03  0.91361405740E+02 0.  0.
          5    1    1    2  502    0  0.25689997366E+02 -0.30566478717E+00 -0.90969064256E+02  0.94619831152E+02  0.41800000000E+01 0. -1.
         -5    1    1    2    0  502 -0.72850574624E+02 -0.99777025686E+01 -0.12415683027E+02  0.74688569116E+02  0.41800000000E+01 0. -1.
        -11    1    3    3    0    0 -0.17797715471E+02  0.11715284129E+02  0.32751350692E+02  0.39072465117E+02  0.00000000000E+00 0.  1.
         11    1    3    3    0    0  0.64958292729E+02 -0.14319167733E+01 -0.12647495745E+02  0.66193574677E+02  0.00000000000E+00 0. -1.
</event>
<event>
 7    1  0.4096326E-006  0.1286817E+03  0.7561462E-02  0.1229425E+00
          1   -1    0    0  501    0  0.00000000000E+00  0.00000000000E+00  0.21673854093E+03  0.21673854093E+03  0.00000000000E+00 0. -1.
         -1   -1    0    0    0  501 -0.00000000000E+00 -0.00000000000E+00 -0.79620085848E+02  0.79620085848E+02  0.00000000000E+00 0.  1.
         23    2    1    2    0    0  0.54992821057E+02  0.43915203901E+02  0.64916237391E+02  0.13569358258E+03  0.96155472937E+02 0.  0.
          5    1    1    2  502    0  0.23837885761E+02  0.25405250255E+02  0.37795239784E+01  0.35290632462E+02  0.41800000000E+01 0. -1.
         -5    1    1    2    0  502 -0.78830706819E+02 -0.69320454156E+02  0.68422693710E+02  0.12537441173E+03  0.41800000000E+01 0. -1.
        -11    1    3    3    0    0  0.22570213434E+02 -0.29393763072E+02  0.32275754377E+02  0.49143994166E+02  0.00000000000E+00 0.  1.
         11    1    3    3    0    0  0.32422607623E+02  0.73308966974E+02  0.32640483014E+02  0.86549588417E+02  0.00000000000E+00 0. -1.
</event>
<event>
 7    1  0.4096326E-006  0.1025295E+03  0.7561462E-02  0.1275065E+00
          2   -1    0    0  501    0  0.00000000000E+00  0.00000000000E+00  0.27390293901E+03  0.27390293901E+03  0.00000000000E+00 0. -1.
         -2   -1    0    0    0  501 -0.00000000000E+00 -0.00000000000E+00 -0.64800784681E+02  0.64800784681E+02  0.00000000000E+00 0.  1.
         23    2    1    2    0    0 -0.14408749255E+02  0.62590173527E+01  0.19062688102E+03  0.21128939739E+03  0.89765329233E+02 0.  0.
          5    1    1    2  502    0  0.53595094891E+02  0.37276278679E+02  0.20803076702E+02  0.68645433561E+02  0.41800000000E+01 0.  1.
         -5    1    1    2    0  502 -0.39186345636E+02 -0.43535296032E+02 -0.23278033881E+01  0.58768892737E+02  0.41800000000E+01 0.  1.
        -11    1    3    3    0    0  0.29445070095E+02  0.19252646254E+02  0.13377043114E+03  0.13831921338E+03  0.00000000000E+00 0. -1.
         11    1    3    3    0    0 -0.43853819350E+02 -0.12993628901E+02  0.56856449872E+02  0.72970184018E+02  0.00000000000E+00 0.  1.
</event>
<event>
 7    1  0.4096326E-006  0.1043593E+03  0.7561462E-02  0.1271387E+00
         -1   -1    0    0    0  501 -0.00000000000E+00  0.00000000000E+00  0.10047271801E+03  0.10047271801E+03  0.00000000000E+00 0.  1.
          1   -1    0    0  501    0  0.00000000000E+00 -0.00000000000E+00 -0.12543775755E+03  0.12543775755E+03  0.00000000000E+00 0. -1.
         23    2    1    2    0    0 -0.89712162153E+01 -0.14529994524E+02 -0.33425183180E+02  0.99379312845E+02  0.92018484500E+02 0.  0.
          5    1    1    2  502    0  0.41219553578E+02 -0.40552077999E+02 -0.12333855883E+02  0.59271570151E+02  0.41800000000E+01 0.  1.
         -5    1    1    2    0  502 -0.32248337363E+02  0.55082072523E+02  0.20793999524E+02  0.67259592567E+02  0.41800000000E+01 0.  1.
        -11    1    3    3    0    0 -0.20140893287E+02  0.32613445690E+02 -0.33535556426E+02  0.50930599515E+02  0.00000000000E+00 0. -1.
         11    1    3    3    0    0  0.11169677072E+02 -0.47143440214E+02  0.11037324536E+00  0.48448713330E+02  0.00000000000E+00 0.  1.
</event>
<event>
 7    1  0.4096326E-006  0.1013664E+03  0.7561462E-02  0.1277448E+00
         -3   -1    0    0    0  501 -0.00000000000E+00  0.00000000000E+00  0.79074871679E+02  0.79074871679E+02  0.00000000000E+00 0.  1.
          3   -1    0    0  501    0  0.00000000000E+00 -0.00000000000E+00 -0.18920685198E+03  0.18920685198E+03  0.00000000000E+00 0. -1.
         23    2    1    2    0    0 -0.54458913978E+02 -0.99967911245E+01 -0.60635667130E+02  0.12280856633E+03  0.91321140443E+02 0.  0.
          5    1    1    2  502    0 -0.31885152959E+02 -0.16831329567E+02 -0.40700849988E+02  0.54534284849E+02  0.41800000000E+01 0.  1.
         -5    1    1    2    0  502  0.86344066937E+02  0.26828120692E+02 -0.87954631824E+01  0.90938872478E+02  0.41800000000E+01 0.  1.
        -11    1    3    3    0    0 -0.44093909609E+02 -0.30043489795E+02  0.48182628169E+01  0.53573312388E+02  0.00000000000E+00 0.  1.
         11    1    3    3    0    0 -0.10365004369E+02  0.20046698670E+02 -0.65453929947E+02  0.69235253944E+02  0.00000000000E+00 0. -1.
</event>
<event>
 7    1  0.4096326E-006  0.1062382E+03  0.7561462E-02  0.1267699E+00
          2   -1    0    0  501    0  0.00000000000E+00  0.00000000000E+00  0.51261438451E+03  0.51261438451E+03  0.00000000000E+00 0. -1.
         -2   -1    0    0    0  501 -0.00000000000E+00 -0.00000000000E+00 -0.28253134176E+02  0.28253134176E+02  0.00000000000E+00 0.  1.
         23    2    1    2    0    0 -0.64380586932E+02  0.20328404956E+02  0.16804208046E+03  0.19407798844E+03  0.69785534102E+02 0.  0.
          5    1    1    2  502    0  0.39970433287E+02  0.46949568454E+02  0.20725253849E+03  0.21627062821E+03  0.41800000000E+01 0.  1.
         -5    1    1    2    0  502  0.24410153645E+02 -0.67277973410E+02  0.10906663138E+03  0.13051890203E+03  0.41800000000E+01 0.  1.
        -11    1    3    3    0    0 -0.28460046007E+02  0.30435188662E+02  0.30699573179E+02  0.51756533124E+02  0.00000000000E+00 0. -1.
         11    1    3    3    0    0 -0.35920540925E+02 -0.10106783706E+02  0.13734250728E+03  0.14232145531E+03  0.00000000000E+00 0.  1.
</event>
<event>
 7    1  0.4096326E-006  0.9538835E+02  0.7561462E-02  0.1290304E+00
         -2   -1    0    0    0  501 -0.00000000000E+00  0.00000000000E+00  0.45355979874E+02  0.45355979874E+02  0.00000000000E+00 0.  1.
          2   -1    0    0  501    0  0.00000000000E+00 -0.00000000000E+00 -0.31317925040E+03  0.31317925040E+03  0.00000000000E+00 0. -1.
         23    2    1    2    0    0 -0.46244079796E+02  0.43185821111E+01 -0.13906942243E+03  0.17311268349E+03  0.92035492400E+02 0.  0.
          5    1    1    2  502    0  0.30544368023E+02  0.34137183437E+02 -0.13553583204E+03  0.14312840346E+03  0.41800000000E+01 0.  1.
         -5    1    1    2    0  502  0.15699711773E+02 -0.38455765549E+02  0.67819839400E+01  0.42294143328E+02  0.41800000000E+01 0.  1.
        -11    1    3    3    0    0 -0.58580492393E+02  0.36189229444E+02 -0.90170267399E+02  0.11345488768E+03  0.00000000000E+00 0.  1.
         11    1    3    3    0    0  0.12336412597E+02 -0.31870647333E+02 -0.48899155030E+02  0.59657795801E+02  0.00000000000E+00 0. -1.
</event>
<event>
 7    1  0.4096326E-006  0.2100740E+03  0.7561462E-02  0.1141507E+00
         -1   -1    0    0    0  501 -0.00000000000E+00  0.00000000000E+00  0.15176574314E+03  0.15176574314E+03  0.00000000000E+00 0.  1.
          1   -1    0    0  501    0  0.00000000000E+00 -0.00000000000E+00 -0.35327011121E+03  0.35327011121E+03  0.00000000000E+00 0. -1.
         23    2    1    2    0    0  0.18004166690E+03  0.86855651367E+02 -0.52764892479E+02  0.22623089599E+03  0.91855203588E+02 0.  0.
          5    1    1    2  502    0 -0.12466286921E+03 -0.71866095511E+02 -0.30262331320E+02  0.14710148789E+03  0.41800000000E+01 0.  1.
         -5    1    1    2    0  502 -0.55378797694E+02 -0.14989555856E+02 -0.11847714427E+03  0.13170347047E+03  0.41800000000E+01 0.  1.
        -11    1    3    3    0    0  0.39031707397E+02  0.65222764750E+02 -0.30238138595E+02  0.81803595579E+02  0.00000000000E+00 0. -1.
         11    1    3    3    0    0  0.14100995951E+03  0.21632886617E+02 -0.22526753884E+02  0.14442730041E+03  0.00000000000E+00 0.  1.
</event>
<event>
 6    1  0.4096326E-006  0.7988690E+02  0.7561462E-02  0.1329373E+00
         -1   -1    0    0    0  501 -0.00000000000E+00  0.00000000000E+00  0.13414568420E+03  0.13414568420E+03  0.00000000000E+00 0.  1.
          1   -1    0    0  501    0  0.00000000000E+00 -0.00000000000E+00 -0.13187680967E+03  0.13187680967E+03  0.00000000000E+00 0. -1.
          5    1    1    2  502    0 -0.29413736348E+01 -0.77411749763E+02  0.99347382353E+02  0.12605001174E+03  0.41800000000E+01 0. -1.
         -5    1    1    2    0  502 -0.81398493378E+01  0.31984540792E+02 -0.23898572807E+01  0.33353437825E+02  0.41800000000E+01 0.  1.
        -11    1    1    2    0    0  0.21999464759E+01  0.35647035937E+02 -0.66324690686E+02  0.75329380259E+02  0.00000000000E+00 0. -1.
         11    1    1    2    0    0  0.88812764967E+01  0.97801730343E+01 -0.28363959860E+02  0.31289664040E+02  0.00000000000E+00 0.  1.
</event>
<event>
 7    1  0.4096326E-006  0.2627475E+03  0.7561462E-02  0.1105504E+00
         -2   -1    0    0    0  501 -0.00000000000E+00  0.00000000000E+00  0.30977337433E+03  0.30977337433E+03  0.00000000000E+00 0. -1.
          2   -1    0    0  501    0  0.00000000000E+00 -0.00000000000E+00 -0.24692704097E+03  0.24692704097E+03  0.00000000000E+00 0.  1.
         23    2    1    2    0    0 -0.13032291824E+03 -0.21572246619E+03  0.37782790731E+02  0.27421768688E+03  0.10123020834E+03 0.  0.
          5    1    1    2  502    0  0.11643076589E+02  0.51173177948E+01  0.38069267881E+02  0.40354550312E+02  0.41800000000E+01 0. -1.
         -5    1    1    2    0  502  0.11867984165E+03  0.21060514840E+03 -0.13005725251E+02  0.24212817811E+03  0.41800000000E+01 0. -1.
        -11    1    3    3    0    0 -0.12140127590E+03 -0.10875589005E+03  0.35722874299E+02  0.16685993275E+03  0.00000000000E+00 0. -1.
         11    1    3    3    0    0 -0.89216423373E+01 -0.10696657615E+03  0.20599164327E+01  0.10735775412E+03  0.00000000000E+00 0.  1.
</event>
<event>
 7    1  0.4096326E-006  0.1368170E+03  0.7561462E-02  0.1217677E+00
         -2   -1    0    0    0  501 -0.00000000000E+00  0.00000000000E+00  0.20896618767E+02  0.20896618767E+02  0.00000000000E+00 0.  1.
          2   -1    0    0  501    0  0.00000000000E+00 -0.00000000000E+00 -0.11379649188E+04  0.11379649188E+04  0.00000000000E+00 0. -1.
         23    2    1    2    0    0  0.72345388221E+02  0.77732553852E+02 -0.60400779557E+03  0.62020126719E+03  0.92455338305E+02 0.  0.
          5    1    1    2  502    0  0.55453955952E+01 -0.50567382232E+02 -0.36970481007E+03  0.37321164310E+03  0.41800000000E+01 0.  1.
         -5    1    1    2    0  502 -0.77890783816E+02 -0.27165171621E+02 -0.14335569435E+03  0.16544862724E+03  0.41800000000E+01 0.  1.
        -11    1    3    3    0    0  0.86826362743E+02  0.32849127986E+02 -0.36809832981E+03  0.37962384393E+03  0.00000000000E+00 0. -1.
         11    1    3    3    0    0 -0.14480974522E+02  0.44883425867E+02 -0.23590946577E+03  0.24057742325E+03  0.00000000000E+00 0.  1.
</event>
<event>
 7    1  0.4096326E-006  0.1120428E+03  0.7561462E-02  0.1256833E+00
         -2   -1    0    0    0  501 -0.00000000000E+00  0.00000000000E+00  0.43131524212E+02  0.43131524212E+02  0.00000000000E+00 0. -1.
          2   -1    0    0  501    0  0.00000000000E+00 -0.00000000000E+00 -0.47176317737E+03  0.47176317737E+03  0.00000000000E+00 0.  1.
         23    2    1    2    0    0  0.24948332468E+02 -0.82601000667E+02 -0.25394737885E+03  0.28335896647E+03  0.91420391870E+02 0.  0.
          5    1    1    2  502    0  0.11797484703E+02 -0.13988758867E+01 -0.12790057052E+03  0.12851912635E+03  0.41800000000E+01 0. -1.
         -5    1    1    2    0  502 -0.36745817171E+02  0.83999876553E+02 -0.46783703789E+02  0.10301660876E+03  0.41800000000E+01 0. -1.
        -11    1    3    3    0    0  0.55418778128E+02 -0.45522167691E+02 -0.10732580246E+03  0.12908267348E+03  0.00000000000E+00 0. -1.
         11    1    3    3    0    0 -0.30470445660E+02 -0.37078832976E+02 -0.14662157639E+03  0.15427629299E+03  0.00000000000E+00 0.  1.
</event>
<event>
 7    1  0.4096326E-006  0.9860435E+02  0.7561462E-02  0.1283258E+00
          3   -1    0    0  501    0  0.00000000000E+00  0.00000000000E+00  0.82330550477E+03  0.82330550477E+03  0.00000000000E+00 0. -1.
         -3   -1    0    0    0  501 -0.00000000000E+00 -0.00000000000E+00 -0.15141308466E+02  0.15141308466E+02  0.00000000000E+00 0.  1.
         23    2    1    2    0    0  0.58765936957E+01  0.22340283420E+02  0.44428267356E+03  0.45297015067E+03  0.85212914229E+02 0.  0.
          5    1    1    2  502    0 -0.39048261217E+02 -0.51377808628E+02  0.30511801102E+03  0.31189568605E+03  0.41800000000E+01 0. -1.
         -5    1    1    2    0  502  0.33171667521E+02  0.29037525208E+02  0.58763511717E+02  0.73580976521E+02  0.41800000000E+01 0. -1.
        -11    1    3    3    0    0  0.17464919297E+02 -0.29965455167E+02  0.18047792557E+03  0.18378039484E+03  0.00000000000E+00 0. -1.
         11    1    3    3    0    0 -0.11588325601E+02  0.52305738587E+02  0.26380474799E+03  0.26918975583E+03  0.00000000000E+00 0.  1.
</event>
<event>
 7    1  0.4096326E-006  0.1249311E+03  0.7561462E-02  0.1235177E+00
          2   -1    0    0  501    0  0.00000000000E+00  0.00000000000E+00  0.81801073862E+03  0.81801073862E+03  0.00000000000E+00 0. -1.
         -2   -1    0    0    0  501 -0.00000000000E+00 -0.00000000000E+00 -0.29285962870E+02  0.29285962870E+02  0.00000000000E+00 0.  1.
         23    2    1    2    0    0 -0.81402954780E+02 -0.44224102088E+01  0.56684202870E+03  0.57985435631E+03  0.90968072850E+02 0.  0.
          5    1    1    2  502    0 -0.10200081912E+02 -0.30716786256E+02  0.10366393662E+02  0.34241745669E+02  0.41800000000E+01 0. -1.
         -5    1    1    2    0  502  0.91603036692E+02  0.35139196465E+02  0.21151635339E+03  0.23320059951E+03  0.41800000000E+01 0. -1.
        -11    1    3    3    0    0 -0.37293567965E+02 -0.45446014904E+02  0.34530811042E+03  0.35027680711E+03  0.00000000000E+00 0. -1.
         11    1    3    3    0    0 -0.44109386815E+02  0.41023604695E+02  0.22153391828E+03  0.22957754920E+03  0.00000000000E+00 0.  1.
</event>
<event>
 7    1  0.4096326E-006  0.1217185E+03  0.7561462E-02  0.1240289E+00
         -1   -1    0    0    0  501 -0.00000000000E+00  0.00000000000E+00  0.55906337749E+02  0.55906337749E+02  0.00000000000E+00 0.  1.
          1   -1    0    0  501    0  0.00000000000E+00 -0.00000000000E+00 -0.31329579737E+03  0.31329579737E+03  0.00000000000E+00 0. -1.
         23    2    1    2    0    0  0.73983362736E+02 -0.26936065671E+02 -0.12408574073E+03  0.17016543476E+03  0.85789944268E+02 0.  0.
          5    1    1    2  502    0 -0.89663024908E+02  0.51530084056E+02 -0.59072636368E+02  0.11917154176E+03  0.41800000000E+01 0.  1.
         -5    1    1    2    0  502  0.15679662172E+02 -0.24594018384E+02 -0.74231082520E+02  0.79865158600E+02  0.41800000000E+01 0.  1.
        -11    1    3    3    0    0  0.24022662109E+02  0.27546596848E+02 -0.17678129715E+02  0.40600733527E+02  0.00000000000E+00 0.  1.
         11    1    3    3    0    0  0.49960700627E+02 -0.54482662520E+02 -0.10640761102E+03  0.12956470123E+03  0.00000000000E+00 0. -1.
</event>
<event>
 7    1  0.4096326E-006  0.2796368E+03  0.7561462E-02  0.1095887E+00
         -1   -1    0    0    0  501 -0.00000000000E+00  0.00000000000E+00  0.28089917507E+03  0.28089917507E+03  0.00000000000E+00 0.  1.
          1   -1    0    0  501    0  0.00000000000E+00 -0.00000000000E+00 -0.30446536378E+03  0.30446536378E+03  0.00000000000E+00 0. -1.
         23    2    1    2    0    0 -0.26163738959E+03  0.36881758221E+02 -0.71664285732E+02  0.28910601531E+03  0.92909259591E+02 0.  0.
          5    1    1    2  502    0  0.21930138563E+03 -0.64432557655E+02  0.72738999360E+02  0.23990224395E+03  0.41800000000E+01 0.  1.
         -5    1    1    2    0  502  0.42336003965E+02  0.27550799434E+02 -0.24640902328E+02  0.56356279586E+02  0.41800000000E+01 0.  1.
        -11    1    3    3    0    0 -0.15098004777E+03 -0.25244864977E+02 -0.35286734515E+02  0.15709052061E+03  0.00000000000E+00 0. -1.
         11    1    3    3    0    0 -0.11065734182E+03  0.62126623198E+02 -0.36377551218E+02  0.13201549471E+03  0.00000000000E+00 0.  1.
</event>
<event>
 7    1  0.4096326E-006  0.1106907E+03  0.7561462E-02  0.1259296E+00
         -2   -1    0    0    0  501 -0.00000000000E+00  0.00000000000E+00  0.19009743180E+02  0.19009743180E+02  0.00000000000E+00 0.  1.
          2   -1    0    0  501    0  0.00000000000E+00 -0.00000000000E+00 -0.74539272949E+03  0.74539272949E+03  0.00000000000E+00 0. -1.
         23    2    1    2    0    0  0.10725476390E+02  0.44832136911E+02 -0.38526381068E+03  0.39815875013E+03  0.89315340999E+02 0.  0.
          5    1    1    2  502    0  0.48308247991E+02 -0.45729709082E+00 -0.69582359870E+02  0.84811987064E+02  0.41800000000E+01 0.  1.
         -5    1    1    2    0  502 -0.59033724381E+02 -0.44374839820E+02 -0.27153681575E+03  0.28143173547E+03  0.41800000000E+01 0.  1.
        -11    1    3    3    0    0  0.43336643528E+02  0.49708163040E+02 -0.22151632089E+03  0.23112430977E+03  0.00000000000E+00 0. -1.
         11    1    3    3    0    0 -0.32611167138E+02 -0.48760261297E+01 -0.16374748979E+03  0.16703444036E+03  0.00000000000E+00 0.  1.
</event>
<event>
 7    1  0.4096326E-006  0.1345827E+03  0.7561462E-02  0.1220810E+00
         -2   -1    0    0    0  501 -0.00000000000E+00  0.00000000000E+00  0.24957714516E+03  0.24957714516E+03  0.00000000000E+00 0.  1.
          2   -1    0    0  501    0  0.00000000000E+00 -0.00000000000E+00 -0.17971905865E+03  0.17971905865E+03  0.00000000000E+00 0. -1.
         23    2    1    2    0    0 -0.32628557850E+02 -0.76661767039E+02 -0.12960368773E+03  0.17955012451E+03  0.92192635415E+02 0.  0.
          5    1    1    2  502    0  0.79204586786E+02  0.56072183023E+02  0.14949610768E+03  0.17828071934E+03  0.41800000000E+01 0. -1.
         -5    1    1    2    0  502 -0.46576028936E+02  0.20589584017E+02  0.49965666557E+02  0.71465359972E+02  0.41800000000E+01 0. -1.
        -11    1    3    3    0    0  0.25006887641E+02 -0.53056867543E+02 -0.42338778897E+02  0.72339116815E+02  0.00000000000E+00 0.  1.
         11    1    3    3    0    0 -0.57635445491E+02 -0.23604899496E+02 -0.87264908829E+02  0.10721100769E+03  0.00000000000E+00 0. -1.
</event>
<event>
 7    1  0.4096326E-006  0.1157290E+03  0.7561462E-02  0.1250314E+00
          2   -1    0    0  501    0  0.00000000000E+00  0.00000000000E+00  0.18951741398E+03  0.18951741398E+03  0.00000000000E+00 0.  1.
         -2   -1    0    0    0  501 -0.00000000000E+00 -0.00000000000E+00 -0.11874926267E+03  0.11874926267E+03  0.00000000000E+00 0. -1.
         23    2    1    2    0    0  0.96417979104E+01 -0.99368462610E+02  0.83886374541E+02  0.14768598869E+03  0.69333770951E+02 0.  0.
          5    1    1    2  502    0  0.18328195839E+02  0.36051220566E+02 -0.63124432807E+02  0.75085149558E+02  0.41800000000E+01 0. -1.
         -5    1    1    2    0  502 -0.27969993750E+02  0.63317242044E+02  0.50006209579E+02  0.85495538403E+02  0.41800000000E+01 0. -1.
        -11    1    3    3    0    0  0.37034349038E+02 -0.79220491419E+02  0.57744070356E+02  0.10479411687E+03  0.00000000000E+00 0.  1.
         11    1    3    3    0    0 -0.27392551127E+02 -0.20147971190E+02  0.26142304185E+02  0.42891871823E+02  0.00000000000E+00 0. -1.
</event>
<event>
 7    1  0.4096326E-006  0.1196284E+03  0.7561462E-02  0.1243711E+00
         -1   -1    0    0    0  501 -0.00000000000E+00  0.00000000000E+00  0.91293591126E+02  0.91293591126E+02  0.00000000000E+00 0.  1.
          1   -1    0    0  501    0  0.00000000000E+00 -0.00000000000E+00 -0.19640967063E+03  0.19640967063E+03  0.00000000000E+00 0. -1.
         23    2    1    2    0    0  0.72758970246E+02 -0.12161809720E+02 -0.79791234829E+02  0.14028968009E+03  0.88728664011E+02 0.  0.
          5    1    1    2  502    0 -0.96400271665E+02  0.21626755713E+02  0.14516493523E+02  0.99944634292E+02  0.41800000000E+01 0.  1.
         -5    1    1    2    0  502  0.23641301419E+02 -0.94649459928E+01 -0.39841338198E+02  0.47468947374E+02  0.41800000000E+01 0.  1.
        -11    1    3    3    0    0  0.37751189165E+02 -0.50238552804E+02 -0.52036073180E+02  0.81589321502E+02  0.00000000000E+00 0. -1.
         11    1    3    3    0    0  0.35007781081E+02  0.38076743084E+02 -0.27755161649E+02  0.58700358587E+02  0.00000000000E+00 0.  1.
</event>
<event>
 7    1  0.4096326E-006  0.1397856E+03  0.7561462E-02  0.1213618E+00
         -1   -1    0    0    0  501 -0.00000000000E+00  0.00000000000E+00  0.10755925189E+03  0.10755925189E+03  0.00000000000E+00 0.  1.
          1   -1    0    0  501    0  0.00000000000E+00 -0.00000000000E+00 -0.31417504059E+03  0.31417504059E+03  0.00000000000E+00 0. -1.
         23    2    1    2    0    0  0.11965329528E+03 -0.44653529634E+02 -0.18299223424E+03  0.24141158730E+03  0.92100748713E+02 0.  0.
          5    1    1    2  502    0 -0.95147404563E+02  0.54146315712E+02 -0.67736963073E+02  0.12880458325E+03  0.41800000000E+01 0. -1.
         -5    1    1    2    0  502 -0.24505890717E+02 -0.94927860782E+01  0.44113408607E+02  0.51518121921E+02  0.41800000000E+01 0. -1.
        -11    1    3    3    0    0  0.13401775671E+01  0.12107361397E+02 -0.61123963083E+02  0.62325942743E+02  0.00000000000E+00 0. -1.
         11    1    3    3    0    0  0.11831311771E+03 -0.56760891031E+02 -0.12186827116E+03  0.17908564456E+03  0.00000000000E+00 0.  1.
</event>
<event>
 7    1  0.4096326E-006  0.1020330E+03  0.7561462E-02  0.1276078E+00
         -1   -1    0    0    0  501 -0.00000000000E+00  0.00000000000E+00  0.73559100442E+02  0.73559100442E+02  0.00000000000E+00 0.  1.
          1   -1    0    0  501    0  0.00000000000E+00 -0.00000000000E+00 -0.21848035352E+03  0.21848035352E+03  0.00000000000E+00 0. -1.
         23    2    1    2    0    0  0.36044339439E+02 -0.17351394793E+02 -0.12440563320E+03  0.15911085905E+03  0.90770251675E+02 0.  0.
          5    1    1    2  502    0 -0.65975659879E+02 -0.20457367568E+02  0.17502459995E+02  0.71379969811E+02  0.41800000000E+01 0. -1.
         -5    1    1    2    0  502  0.29931320441E+02  0.37808762362E+02 -0.38018079873E+02  0.61548625101E+02  0.41800000000E+01 0. -1.
        -11    1    3    3    0    0 -0.17252551791E+02  0.16049782278E+02 -0.76499506504E+02  0.80046365001E+02  0.00000000000E+00 0. -1.
         11    1    3    3    0    0  0.53296891230E+02 -0.33401177071E+02 -0.47906126700E+02  0.79064494054E+02  0.00000000000E+00 0.  1.
</event>
<event>
 7    1  0.4096326E-006  0.1009702E+03  0.7561462E-02  0.1278269E+00
         -1   -1    0    0    0  501 -0.00000000000E+00  0.00000000000E+00  0.82551102790E+02  0.82551102790E+02  0.00000000000E+00 0.  1.
          1   -1    0    0  501    0  0.00000000000E+00 -0.00000000000E+00 -0.23882140335E+03  0.23882140335E+03  0.00000000000E+00 0. -1.
         23    2    1    2    0    0  0.21181412917E+02 -0.85109687447E+02 -0.91558663079E+02  0.15545637828E+03  0.89952129556E+02 0.  0.
          5    1    1    2  502    0 -0.34076958701E+02  0.94817372562E+01  0.28143509413E+02  0.45394624988E+02  0.41800000000E+01 0. -1.
         -5    1    1    2    0  502  0.12895545784E+02  0.75627950190E+02 -0.92855146898E+02  0.12052150288E+03  0.41800000000E+01 0. -1.
        -11    1    3    3    0    0  0.67434760176E+01 -0.61115686612E+02 -0.18886895817E+01  0.61515597755E+02  0.00000000000E+00 0.  1.
         11    1    3    3    0    0  0.14437936899E+02 -0.23994000835E+02 -0.89669973498E+02  0.93940780522E+02  0.00000000000E+00 0. -1.
</event>
<event>
 7    1  0.4096326E-006  0.1057873E+03  0.7561462E-02  0.1268576E+00
         -2   -1    0    0    0  501 -0.00000000000E+00  0.00000000000E+00  0.32693983278E+03  0.32693983278E+03  0.00000000000E+00 0.  1.
          2   -1    0    0  501    0  0.00000000000E+00 -0.00000000000E+00 -0.45175150801E+02  0.45175150801E+02  0.00000000000E+00 0. -1.
         23    2    1    2    0    0 -0.10784178372E+02 -0.47615732826E+02  0.86442379148E+02  0.13508761569E+03  0.91612348966E+02 0.  0.
          5    1    1    2  502    0 -0.50666973511E+02  0.83498481835E+01  0.12682611762E+03  0.13689119285E+03  0.41800000000E+01 0. -1.
         -5    1    1    2    0  502  0.61451151883E+02  0.39265884643E+02  0.68496185218E+02  0.10013617505E+03  0.41800000000E+01 0. -1.
        -11    1    3    3    0    0 -0.25960092632E+02  0.97044248628E+01  0.67293531359E+02  0.72777205457E+02  0.00000000000E+00 0. -1.
         11    1    3    3    0    0  0.15175914260E+02 -0.57320157689E+02  0.19148847789E+02  0.62310410228E+02  0.00000000000E+00 0.  1.
</event>
<event>
 6    1  0.4096326E-006  0.2397850E+03  0.7561462E-02  0.1119936E+00
         -1   -1    0    0    0  501 -0.00000000000E+00  0.00000000000E+00  0.18869966928E+03  0.18869966928E+03  0.00000000000E+00 0.  1.
          1   -1    0    0  501    0  0.00000000000E+00 -0.00000000000E+00 -0.36541739514E+03  0.36541739514E+03  0.00000000000E+00 0. -1.
          5    1    1    2  502    0 -0.48599763857E+02 -0.58281087078E+02 -0.25784108542E+02  0.80255310175E+02  0.41800000000E+01 0. -1.
         -5    1    1    2    0  502 -0.16199295932E+03  0.35845961018E+02  0.96168080364E+01  0.16624261544E+03  0.41800000000E+01 0. -1.
        -11    1    1    2    0    0  0.10610601495E+03  0.65386352011E+02 -0.14870666881E+03  0.19402972656E+03  0.00000000000E+00 0. -1.
         11    1    1    2    0    0  0.10448670823E+03 -0.42951225950E+02 -0.11843756541E+02  0.11358941225E+03  0.00000000000E+00 0.  1.
</event>
<event>
 7    1  0.4096326E-006  0.1221770E+03  0.7561462E-02  0.1239548E+00
          1   -1    0    0  501    0  0.00000000000E+00  0.00000000000E+00  0.73140779200E+03  0.73140779200E+03  0.00000000000E+00 0. -1.
         -1   -1    0    0    0  501 -0.00000000000E+00 -0.00000000000E+00 -0.26276316132E+02  0.26276316132E+02  0.00000000000E+00 0.  1.
         23    2    1    2    0    0 -0.38864961521E+02  0.75573706559E+02  0.38379308703E+03  0.40253952305E+03  0.86712534328E+02 0.  0.
          5    1    1    2  502    0 -0.28662959184E+02 -0.40922458881E+02  0.23421705875E+03  0.23952310093E+03  0.41800000000E+01 0. -1.
         -5    1    1    2    0  502  0.67527920705E+02 -0.34651247679E+02  0.87121330087E+02  0.11562148415E+03  0.41800000000E+01 0. -1.
        -11    1    3    3    0    0  0.18917427187E+02  0.52813887670E+02  0.22857270799E+03  0.23535645014E+03  0.00000000000E+00 0.  1.
         11    1    3    3    0    0 -0.57782388707E+02  0.22759818889E+02  0.15522037904E+03  0.16718307291E+03  0.00000000000E+00 0. -1.
</event>
<event>
 7    1  0.4096326E-006  0.1266929E+03  0.7561462E-02  0.1232447E+00
         -3   -1    0    0    0  501 -0.00000000000E+00  0.00000000000E+00  0.24355860245E+02  0.24355860245E+02  0.00000000000E+00 0.  1.
          3   -1    0    0  501    0  0.00000000000E+00 -0.00000000000E+00 -0.78472209881E+03  0.78472209881E+03  0.00000000000E+00 0. -1.
         23    2    1    2    0    0  0.38862936816E+02 -0.65395828621E+02 -0.45656525677E+03  0.47183938746E+03  0.91616764921E+02 0.  0.
          5    1    1    2  502    0 -0.79993477518E+02  0.44890132045E+02 -0.14296894526E+03  0.16991666225E+03  0.41800000000E+01 0. -1.
         -5    1    1    2    0  502  0.41130540702E+02  0.20505696576E+02 -0.16083203654E+03  0.16732190935E+03  0.41800000000E+01 0. -1.
        -11    1    3    3    0    0 -0.15269726611E+02 -0.58953723157E+02 -0.18212182672E+03  0.19203402248E+03  0.00000000000E+00 0. -1.
         11    1    3    3    0    0  0.54132663427E+02 -0.64421054646E+01 -0.27444343005E+03  0.27980536498E+03  0.00000000000E+00 0.  1.
</event>
<event>
 7    1  0.4096326E-006  0.1280581E+03  0.7561462E-02  0.1230366E+00
         -1   -1    0    0    0  501 -0.00000000000E+00  0.00000000000E+00  0.86649270702E+02  0.86649270702E+02  0.00000000000E+00 0.  1.
          1   -1    0    0  501    0  0.00000000000E+00 -0.00000000000E+00 -0.23437931618E+03  0.23437931618E+03  0.00000000000E+00 0. -1.
         23    2    1    2    0    0  0.72094024229E+02 -0.57046587602E+02 -0.51845675826E+02  0.13856287925E+03  0.89776588921E+02 0.  0.
          5    1    1    2  502    0 -0.67413165067E+02 -0.19814784556E+02 -0.17555318376E+02  0.72545310769E+02  0.41800000000E+01 0. -1.
         -5    1    1    2    0  502 -0.46808591619E+01  0.76861372157E+02 -0.78329051277E+02  0.10992039686E+03  0.41800000000E+01 0. -1.
        -11    1    3    3    0    0  0.53293505536E+02 -0.53029589580E+01  0.11354263155E+02  0.54747040083E+02  0.00000000000E+00 0.  1.
         11    1    3    3    0    0  0.18800518692E+02 -0.51743628644E+02 -0.63199938982E+02  0.83815839169E+02  0.00000000000E+00 0. -1.
</event>
<event>
 7    1  0.4096326E-006  0.1094074E+03  0.7561462E-02  0.1261671E+00
          4   -1    0    0  501    0  0.00000000000E+00  0.00000000000E+00  0.29740827805E+03  0.29740827805E+03  0.00000000000E+00 0. -1.
         -4   -1    0    0    0  501 -0.00000000000E+00 -0.00000000000E+00 -0.60209316721E+02  0.60209316721E+02  0.00000000000E+00 0.  1.
         23    2    1    2    0    0 -0.24511501954E+02  0.71600932554E+02  0.82916554605E+02  0.14504316068E+03  0.91841472995E+02 0.  0.
          5    1    1    2  502    0 -0.48364604265E+02 -0.41859057980E+02  0.91933378454E+02  0.11207378888E+03  0.41800000000E+01 0.  1.
         -5    1    1    2    0  502  0.72876106219E+02 -0.29741874574E+02  0.62349028268E+02  0.10050064521E+03  0.41800000000E+01 0.  1.
        -11    1    3    3    0    0 -0.13780942085E+02  0.48519920840E+02 -0.76067495467E+01  0.51009408169E+02  0.00000000000E+00 0.  1.
         11    1    3    3    0    0 -0.10730559869E+02  0.23081011715E+02  0.90523304152E+02  0.94033752512E+02  0.00000000000E+00 0. -1.
</event>
<event>
 7    1  0.4096326E-006  0.1030537E+03  0.7561462E-02  0.1274003E+00
          2   -1    0    0  501    0  0.00000000000E+00  0.00000000000E+00  0.72759771208E+03  0.72759771208E+03  0.00000000000E+00 0. -1.
         -2   -1    0    0    0  501 -0.00000000000E+00 -0.00000000000E+00 -0.18333587213E+02  0.18333587213E+02  0.00000000000E+00 0.  1.
         23    2    1    2    0    0  0.16336888726E+02  0.21435334865E+02  0.41254585073E+03  0.42279805962E+03  0.88531083521E+02 0.  0.
          5    1    1    2  502    0  0.25125110067E+02  0.35077196511E+02  0.47925807695E+02  0.64622258659E+02  0.41800000000E+01 0. -1.
         -5    1    1    2    0  502 -0.41461998793E+02 -0.56512531377E+02  0.24879246644E+03  0.25851098102E+03  0.41800000000E+01 0. -1.
        -11    1    3    3    0    0 -0.30027608450E+02 -0.15008412726E+02  0.14989607219E+03  0.15360905631E+03  0.00000000000E+00 0. -1.
         11    1    3    3    0    0  0.46364497176E+02  0.36443747591E+02  0.26264977854E+03  0.26918900331E+03  0.00000000000E+00 0.  1.
</event>
<event>
 7    1  0.4096326E-006  0.8088449E+02  0.7561462E-02  0.1326560E+00
          1   -1    0    0  501    0  0.00000000000E+00  0.00000000000E+00  0.11253951207E+03  0.11253951207E+03  0.00000000000E+00 0. -1.
         -1   -1    0    0    0  501 -0.00000000000E+00 -0.00000000000E+00 -0.10634870564E+03  0.10634870564E+03  0.00000000000E+00 0.  1.
         23    2    1    2    0    0 -0.90738436920E+01 -0.13423419241E+02  0.13205040834E+02  0.92560113043E+02  0.90169166568E+02 0.  0.
          5    1    1    2  502    0  0.11404683743E+02  0.41830619248E+02 -0.55121749878E+02  0.70254873336E+02  0.41800000000E+01 0.  1.
         -5    1    1    2    0  502 -0.23308400506E+01 -0.28407200007E+02  0.48107515470E+02  0.56073231335E+02  0.41800000000E+01 0.  1.
        -11    1    3    3    0    0 -0.45727266260E+02 -0.23468548976E+02  0.17540604232E+02  0.54308640818E+02  0.00000000000E+00 0. -1.
         11    1    3    3    0    0  0.36653422568E+02  0.10045129735E+02 -0.43355633975E+01  0.38251472225E+02  0.00000000000E+00 0.  1.
</event>
<event>
 7    1  0.4096326E-006  0.9386526E+02  0.7561462E-02  0.1293752E+00
          2   -1    0    0  501    0  0.00000000000E+00  0.00000000000E+00  0.31835146568E+03  0.31835146568E+03  0.00000000000E+00 0. -1.
         -2   -1    0    0    0  501 -0.00000000000E+00 -0.00000000000E+00 -0.47003321387E+02  0.47003321387E+02  0.00000000000E+00 0.  1.
         23    2    1    2    0    0  0.27423019273E+02  0.47978834498E+02  0.10491244313E+03  0.14993564046E+03  0.91761021194E+02 0.  0.
          5    1    1    2  502    0 -0.48695259162E+02 -0.79298845438E+02  0.14310358943E+03  0.17075024117E+03  0.41800000000E+01 0.  1.
         -5    1    1    2    0  502  0.21272239889E+02  0.31320010940E+02  0.23332111740E+02  0.44668905443E+02  0.41800000000E+01 0.  1.
        -11    1    3    3    0    0  0.37489999662E+01  0.17494752115E+02 -0.15385573655E+02  0.23597398777E+02  0.00000000000E+00 0.  1.
         11    1    3    3    0    0  0.23674019307E+02  0.30484082383E+02  0.12029801679E+03  0.12633824168E+03  0.00000000000E+00 0. -1.
</event>
<event>
 7    1  0.4096326E-006  0.9584028E+02  0.7561462E-02  0.1289295E+00
          2   -1    0    0  501    0  0.00000000000E+00  0.00000000000E+00  0.73683277164E+02  0.73683277164E+02  0.00000000000E+00 0. -1.
         -2   -1    0    0    0  501 -0.00000000000E+00 -0.00000000000E+00 -0.16601178419E+03  0.16601178419E+03  0.00000000000E+00 0.  1.
         23    2    1    2    0    0 -0.60091601004E+00  0.17374844643E+02 -0.21033826678E+02  0.94667480643E+02  0.90649124100E+02 0.  0.
          5    1    1    2  502    0  0.46768722101E+02  0.24990572195E+02 -0.45530362611E+01  0.53385809021E+02  0.41800000000E+01 0. -1.
         -5    1    1    2    0  502 -0.46167806091E+02 -0.42365416839E+02 -0.66741644084E+02  0.91641771688E+02  0.41800000000E+01 0. -1.
        -11    1    3    3    0    0 -0.36817646608E+02  0.38025097073E+01 -0.37447154245E+02  0.52652516967E+02  0.00000000000E+00 0. -1.
         11    1    3    3    0    0  0.36216730598E+02  0.13572334936E+02  0.16413327567E+02  0.42014963676E+02  0.00000000000E+00 0.  1.
</event>
<event>
 7    1  0.4096326E-006  0.2910221E+03  0.7561462E-02  0.1089817E+00
         -2   -1    0    0    0  501 -0.00000000000E+00  0.00000000000E+00  0.46181933787E+02  0.46181933787E+02  0.00000000000E+00 0.  1.
          2   -1    0    0  501    0  0.00000000000E+00 -0.00000000000E+00 -0.18793844620E+04  0.18793844620E+04  0.00000000000E+00 0. -1.
         23    2    1    2    0    0 -0.53179022080E+02  0.46400233581E+02 -0.42224704795E+03  0.43773772531E+03  0.91327742721E+02 0.  0.
          5    1    1    2  502    0  0.28995350027E+02 -0.25575885583E+03 -0.86877743223E+03  0.90611534686E+03  0.41800000000E+01 0. -1.
         -5    1    1    2    0  502  0.24183672053E+02  0.20935862225E+03 -0.54217804799E+03  0.58171332358E+03  0.41800000000E+01 0.  1.
        -11    1    3    3    0    0 -0.63682094049E+02 -0.25729109758E+01 -0.19968938035E+03  0.20961363886E+03  0.00000000000E+00 0. -1.
         11    1    3    3    0    0  0.10503071969E+02  0.48973144557E+02 -0.22255766761E+03  0.22812408645E+03  0.00000000000E+00 0.  1.
</event>
<event>
 7    1  0.4096326E-006  0.1073153E+03  0.7561462E-02  0.1265624E+00
         -2   -1    0    0    0  501 -0.00000000000E+00  0.00000000000E+00  0.38927472165E+02  0.38927472165E+02  0.00000000000E+00 0.  1.
          2   -1    0    0  501    0  0.00000000000E+00 -0.00000000000E+00 -0.61041163957E+03  0.61041163957E+03  0.00000000000E+00 0. -1.
         23    2    1    2    0    0  0.16697367098E+02  0.10514626564E+03 -0.32111868109E+03  0.34989908855E+03  0.89317554722E+02 0.  0.
          5    1    1    2  502    0 -0.17700185274E+02 -0.90387439196E+02 -0.63516639523E+02  0.11195991077E+03  0.41800000000E+01 0. -1.
         -5    1    1    2    0  502  0.10028181753E+01 -0.14758826440E+02 -0.18684884679E+03  0.18748011241E+03  0.41800000000E+01 0. -1.
        -11    1    3    3    0    0  0.65807087353E+01  0.74423726277E+02 -0.30450395941E+03  0.31353605544E+03  0.00000000000E+00 0. -1.
         11    1    3    3    0    0  0.10116658363E+02  0.30722539359E+02 -0.16614721675E+02  0.36363033117E+02  0.00000000000E+00 0.  1.
</event>
<event>
 7    1  0.4096326E-006  0.1515770E+03  0.7561462E-02  0.1198548E+00
         -2   -1    0    0    0  501 -0.00000000000E+00  0.00000000000E+00  0.10447951500E+03  0.10447951500E+03  0.00000000000E+00 0.  1.
          2   -1    0    0  501    0  0.00000000000E+00 -0.00000000000E+00 -0.61330262335E+03  0.61330262335E+03  0.00000000000E+00 0. -1.
         23    2    1    2    0    0 -0.11397558965E+03 -0.10597453584E+02 -0.51800650556E+03  0.53816842734E+03  0.90508426847E+02 0.  0.
          5    1    1    2  502    0  0.99623488771E+02  0.52574518112E+02 -0.33820989024E+02  0.11768709007E+03  0.41800000000E+01 0. -1.
         -5    1    1    2    0  502  0.14352100878E+02 -0.41977064528E+02  0.43004386227E+02  0.61926620937E+02  0.41800000000E+01 0.  1.
        -11    1    3    3    0    0 -0.29918431729E+02  0.38320772408E+02 -0.16578892989E+03  0.17277026199E+03  0.00000000000E+00 0. -1.
         11    1    3    3    0    0 -0.84057157920E+02 -0.48918225992E+02 -0.35221757567E+03  0.36539816535E+03  0.00000000000E+00 0.  1.
</event>
<event>
 7    1  0.4096326E-006  0.1391419E+03  0.7561462E-02  0.1214488E+00
          2   -1    0    0  501    0  0.00000000000E+00  0.00000000000E+00  0.48435681294E+02  0.48435681294E+02  0.00000000000E+00 0. -1.
         -2   -1    0    0    0  501 -0.00000000000E+00 -0.00000000000E+00 -0.48952189135E+03  0.48952189135E+03  0.00000000000E+00 0.  1.
         23    2    1    2    0    0 -0.10680795877E+03  0.10937296056E+02 -0.16823147391E+03  0.21917148471E+03  0.90591094458E+02 0.  0.
          5    1    1    2  502    0  0.95933974900E+02  0.28720656033E+02 -0.10199881521E+03  0.14300151862E+03  0.41800000000E+01 0. -1.
         -5    1    1    2    0  502  0.10873983868E+02 -0.39657952089E+02 -0.17085592094E+03  0.17578456931E+03  0.41800000000E+01 0. -1.
        -11    1    3    3    0    0 -0.25208550063E+02  0.42350253830E+02 -0.37654467044E+02  0.62023172155E+02  0.00000000000E+00 0.  1.
         11    1    3    3    0    0 -0.81599408706E+02 -0.31412957774E+02 -0.13057700686E+03  0.15714831255E+03  0.00000000000E+00 0. -1.
</event>
<event>
 7    1  0.4096326E-006  0.9689883E+02  0.7561462E-02  0.1286956E+00
         -2   -1    0    0    0  501 -0.00000000000E+00  0.00000000000E+00  0.29427374394E+03  0.29427374394E+03  0.00000000000E+00 0.  1.
          2   -1    0    0  501    0  0.00000000000E+00 -0.00000000000E+00 -0.65936482252E+02  0.65936482252E+02  0.00000000000E+00 0. -1.
         23    2    1    2    0    0  0.74513622379E+02  0.39685370519E+02  0.62642212733E+02  0.13609002505E+03  0.86424762357E+02 0.  0.
          5    1    1    2  502    0 -0.71143674749E+02 -0.26310291628E+02  0.18502220337E+03  0.20001085481E+03  0.41800000000E+01 0. -1.
         -5    1    1    2    0  502 -0.33699476295E+01 -0.13375078892E+02 -0.19327154420E+02  0.24109346328E+02  0.41800000000E+01 0. -1.
        -11    1    3    3    0    0  0.23693030442E+02 -0.15564963059E+02 -0.11488611528E+02  0.30587840091E+02  0.00000000000E+00 0. -1.
         11    1    3    3    0    0  0.50820591937E+02  0.55250333578E+02  0.74130824262E+02  0.10550218496E+03  0.00000000000E+00 0.  1.
</event>
<event>
 7    1  0.4096326E-006  0.1268795E+03  0.7561462E-02  0.1232161E+00
         -1   -1    0    0    0  501 -0.00000000000E+00  0.00000000000E+00  0.10166801114E+03  0.10166801114E+03  0.00000000000E+00 0.  1.
          1   -1    0    0  501    0  0.00000000000E+00 -0.00000000000E+00 -0.28106165306E+03  0.28106165306E+03  0.00000000000E+00 0. -1.
         23    2    1    2    0    0  0.10111206419E+03  0.32117135335E+02 -0.17701905056E+03  0.21869198815E+03  0.72355245231E+02 0.  0.
          5    1    1    2  502    0  0.15075242435E+02 -0.19914491342E+02 -0.34505480338E+02  0.42801290556E+02  0.41800000000E+01 0.  1.
         -5    1    1    2    0  502 -0.11618730662E+03 -0.12202643993E+02  0.32130888984E+02  0.12123638549E+03  0.41800000000E+01 0.  1.
        -11    1    3    3    0    0  0.52594501269E+02  0.34595743944E+02 -0.43259450070E+02  0.76383421520E+02  0.00000000000E+00 0.  1.
         11    1    3    3    0    0  0.48517562917E+02 -0.24786086096E+01 -0.13375960049E+03  0.14230856663E+03  0.00000000000E+00 0. -1.
</event>
<event>
 7    1  0.4096326E-006  0.1109965E+03  0.7561462E-02  0.1258736E+00
         -3   -1    0    0    0  501 -0.00000000000E+00  0.00000000000E+00  0.32342668112E+03  0.32342668112E+03  0.00000000000E+00 0.  1.
          3   -1    0    0  501    0  0.00000000000E+00 -0.00000000000E+00 -0.46892418703E+02  0.46892418703E+02  0.00000000000E+00 0. -1.
         23    2    1    2    0    0  0.39096891311E+02 -0.91544001879E+01  0.18563865008E+03  0.21057538983E+03  0.90928083915E+02 0.  0.
          5    1    1    2  502    0 -0.83310296991E+02 -0.18590756318E+01  0.72120916237E+02  0.11028581371E+03  0.41800000000E+01 0. -1.
         -5    1    1    2    0  502  0.44213405680E+02  0.11013475820E+02  0.18774696102E+02  0.49457896288E+02  0.41800000000E+01 0. -1.
        -11    1    3    3    0    0  0.55174630018E+02 -0.32814657212E+02  0.15906719759E+03  0.17153254756E+03  0.00000000000E+00 0.  1.
         11    1    3    3    0    0 -0.16077738708E+02  0.23660257025E+02  0.26571452492E+02  0.39042842263E+02  0.00000000000E+00 0. -1.
</event>
<event>
 7    1  0.4096326E-006  0.1584459E+03  0.7561462E-02  0.1190463E+00
         -2   -1    0    0    0  501 -0.00000000000E+00  0.00000000000E+00  0.48160502723E+03  0.48160502723E+03  0.00000000000E+00 0.  1.
          2   -1    0    0  501    0  0.00000000000E+00 -0.00000000000E+00 -0.59883075584E+02  0.59883075584E+02  0.00000000000E+00 0. -1.
         23    2    1    2    0    0  0.12515700158E+03  0.20803250341E+02  0.14547494733E+03  0.21276708659E+03  0.89497612055E+02 0.  0.
          5    1    1    2  502    0 -0.14141728521E+03 -0.71617926197E+01  0.27199618897E+03  0.30667497297E+03  0.41800000000E+01 0. -1.
         -5    1    1    2    0  502  0.16260283625E+02 -0.13641457722E+02  0.42508153435E+01  0.22046043260E+02  0.41800000000E+01 0. -1.
        -11    1    3    3    0    0  0.38624193510E+02  0.49178539584E+02  0.74785288160E+02  0.97484339281E+02  0.00000000000E+00 0. -1.
         11    1    3    3    0    0  0.86532808073E+02 -0.28375289243E+02  0.70689659170E+02  0.11528274730E+03  0.00000000000E+00 0.  1.
</event>
<event>
 7    1  0.4096326E-006  0.8816377E+02  0.7561462E-02  0.1307360E+00
          2   -1    0    0  501    0  0.00000000000E+00  0.00000000000E+00  0.23396709117E+03  0.23396709117E+03  0.00000000000E+00 0. -1.
         -2   -1    0    0    0  501 -0.00000000000E+00 -0.00000000000E+00 -0.16748899017E+03  0.16748899017E+03  0.00000000000E+00 0.  1.
         23    2    1    2    0    0 -0.42986699316E+02 -0.27316500075E+02  0.19115918630E+03  0.21764113544E+03  0.90729167495E+02 0.  0.
          5    1    1    2  502    0  0.48883054767E+02  0.47771292357E+02 -0.12566430275E+02  0.69620664939E+02  0.41800000000E+01 0.  1.
         -5    1    1    2    0  502 -0.58963554508E+01 -0.20454792282E+02 -0.11211465502E+03  0.11419428097E+03  0.41800000000E+01 0.  1.
        -11    1    3    3    0    0  0.19348482321E+02 -0.74237895477E+01  0.11666289239E+03  0.11848926905E+03  0.00000000000E+00 0. -1.
         11    1    3    3    0    0 -0.62335181637E+02 -0.19892710527E+02  0.74496293901E+02  0.99151866381E+02  0.00000000000E+00 0.  1.
</event>
<event>
 7    1  0.4096326E-006  0.1742563E+03  0.7561462E-02  0.1173481E+00
         -2   -1    0    0    0  501 -0.00000000000E+00  0.00000000000E+00  0.47810327039E+02  0.47810327039E+02  0.00000000000E+00 0.  1.
          2   -1    0    0  501    0  0.00000000000E+00 -0.00000000000E+00 -0.98133403498E+03  0.98133403498E+03  0.00000000000E+00 0. -1.
         23    2    1    2    0    0  0.12022757007E+03  0.55678577454E+02 -0.33462451943E+03  0.37149007266E+03  0.92068086157E+02 0.  0.
          5    1    1    2  502    0 -0.14207525345E+03 -0.16097297120E+02 -0.59514671349E+03  0.61209605749E+03  0.41800000000E+01 0. -1.
         -5    1    1    2    0  502  0.21847683384E+02 -0.39581280334E+02 -0.37524750162E+01  0.45558231867E+02  0.41800000000E+01 0.  1.
        -11    1    3    3    0    0  0.11234007805E+03  0.89740394535E+01 -0.21318776992E+03  0.24114280368E+03  0.00000000000E+00 0.  1.
         11    1    3    3    0    0  0.78874920165E+01  0.46704538000E+02 -0.12143674951E+03  0.13034726898E+03  0.00000000000E+00 0. -1.
</event>
<event>
 7    1  0.4096326E-006  0.1088407E+03  0.7561462E-02  0.1262732E+00
          2   -1    0    0  501    0  0.00000000000E+00  0.00000000000E+00  0.47171815889E+03  0.47171815889E+03  0.00000000000E+00 0.  1.
         -2   -1    0    0    0  501 -0.00000000000E+00 -0.00000000000E+00 -0.33050236167E+02  0.33050236167E+02  0.00000000000E+00 0. -1.
         23    2    1    2    0    0  0.56905046564E+02  0.65169132127E+01  0.23267850177E+03  0.25705584021E+03  0.93047113436E+02 0.  0.
          5    1    1    2  502    0  0.14124225138E+02 -0.32799898915E+02  0.14780427654E+03  0.15211477136E+03  0.41800000000E+01 0.  1.
         -5    1    1    2    0  502 -0.71029271703E+02  0.26282985702E+02  0.58185144417E+02  0.95597783483E+02  0.41800000000E+01 0.  1.
        -11    1    3    3    0    0 -0.16330838678E+02 -0.21900187040E+02  0.35424130404E+02  0.44734589516E+02  0.00000000000E+00 0. -1.
         11    1    3    3    0    0  0.73235885242E+02  0.28417100252E+02  0.19725437137E+03  0.21232125070E+03  0.00000000000E+00 0.  1.
</event>
<event>
 7    1  0.4096326E-006  0.7360121E+02  0.7561462E-02  0.1348258E+00
          1   -1    0    0  501    0  0.00000000000E+00  0.00000000000E+00  0.12858529966E+03  0.12858529966E+03  0.00000000000E+00 0. -1.
         -1   -1    0    0    0  501 -0.00000000000E+00 -0.00000000000E+00 -0.21240930569E+03  0.21240930569E+03  0.00000000000E+00 0.  1.
         23    2    1    2    0    0  0.52713525099E+02  0.28355420997E+02  0.72271322445E+02  0.13219739369E+03  0.93114237481E+02 0.  0.
          5    1    1    2  502    0 -0.99579376199E+01 -0.11440633375E+02  0.20741149478E+02  0.26032984756E+02  0.41800000000E+01 0. -1.
         -5    1    1    2    0  502 -0.42755587479E+02 -0.16914787622E+02 -0.17683647796E+03  0.18276422691E+03  0.41800000000E+01 0. -1.
        -11    1    3    3    0    0  0.13015877694E+02  0.41491806648E+02  0.78677219631E+02  0.89894871822E+02  0.00000000000E+00 0. -1.
         11    1    3    3    0    0  0.39697647405E+02 -0.13136385651E+02 -0.64058971862E+01  0.42302521865E+02  0.00000000000E+00 0.  1.
</event>
<event>
 7    1  0.4096326E-006  0.3350051E+03  0.7561462E-02  0.1068943E+00
         -1   -1    0    0    0  501 -0.00000000000E+00  0.00000000000E+00  0.11313615403E+03  0.11313615403E+03  0.00000000000E+00 0.  1.
          1   -1    0    0  501    0  0.00000000000E+00 -0.00000000000E+00 -0.14010573582E+04  0.14010573582E+04  0.00000000000E+00 0. -1.
         23    2    1    2    0    0  0.26498891808E+03 -0.19473821732E+03 -0.10091144113E+04  0.10652805344E+04  0.91480172406E+02 0.  0.
          5    1    1    2  502    0 -0.21607888908E+03  0.13670732645E+03 -0.14225171269E+03  0.29262946122E+03  0.41800000000E+01 0.  1.
         -5    1    1    2    0  502 -0.48910029002E+02  0.58030890865E+02 -0.13655508014E+03  0.15628351654E+03  0.41800000000E+01 0.  1.
        -11    1    3    3    0    0  0.12056380390E+03 -0.13762943957E+03 -0.61602902353E+03  0.64262683673E+03  0.00000000000E+00 0. -1.
         11    1    3    3    0    0  0.14442511418E+03 -0.57108777751E+02 -0.39308538777E+03  0.42265369770E+03  0.00000000000E+00 0.  1.
</event>
<event>
 7    1  0.4096326E-006  0.9091395E+02  0.7561462E-02  0.1300653E+00
         -1   -1    0    0    0  501 -0.00000000000E+00  0.00000000000E+00  0.84451559559E+02  0.84451559559E+02  0.00000000000E+00 0.  1.
          1   -1    0    0  501    0  0.00000000000E+00 -0.00000000000E+00 -0.26629019264E+03  0.26629019264E+03  0.00000000000E+00 0. -1.
         23    2    1    2    0    0 -0.19582256036E+02 -0.34208376094E+02 -0.19481949571E+03  0.21893484302E+03  0.91783178385E+02 0.  0.
          5    1    1    2  502    0  0.14361434281E+02 -0.37980314810E+02 -0.27071958242E+02  0.48980796550E+02  0.41800000000E+01 0.  1.
         -5    1    1    2    0  502  0.52208217552E+01  0.72188690903E+02  0.40052820867E+02  0.82826112630E+02  0.41800000000E+01 0.  1.
        -11    1    3    3    0    0 -0.34083206826E+02 -0.31434433494E+01 -0.17703541449E+03  0.18031384919E+03  0.00000000000E+00 0. -1.
         11    1    3    3    0    0  0.14500950790E+02 -0.31064932744E+02 -0.17784081217E+02  0.38620993837E+02  0.00000000000E+00 0.  1.
</event>
<event>
 6    1  0.4096326E-006  0.1597822E+03  0.7561462E-02  0.1188943E+00
         -1   -1    0    0    0  501 -0.00000000000E+00  0.00000000000E+00  0.22371291988E+03  0.22371291988E+03  0.00000000000E+00 0.  1.
          1   -1    0    0  501    0  0.00000000000E+00 -0.00000000000E+00 -0.24687365927E+03  0.24687365927E+03  0.00000000000E+00 0. -1.
          5    1    1    2  502    0  0.11610943843E+03  0.82872872069E+02  0.13299467049E+03  0.19507529161E+03  0.41800000000E+01 0. -1.
         -5    1    1    2    0  502 -0.24206994262E+02 -0.34224625269E+01  0.10468619833E+02  0.26921296814E+02  0.41800000000E+01 0.  1.
        -11    1    1    2    0    0 -0.99789654744E+02 -0.92976869481E+02 -0.18147113680E+03  0.22701199736E+03  0.00000000000E+00 0.  1.
         11    1    1    2    0    0  0.78872105780E+01  0.13526459939E+02  0.14847107085E+02  0.21577993373E+02  0.00000000000E+00 0. -1.
</event>
<event>
 7    1  0.4096326E-006  0.1415717E+03  0.7561462E-02  0.1211230E+00
         -1   -1    0    0    0  501 -0.00000000000E+00  0.00000000000E+00  0.66091640439E+02  0.66091640439E+02  0.00000000000E+00 0.  1.
          1   -1    0    0  501    0  0.00000000000E+00 -0.00000000000E+00 -0.30961908152E+03  0.30961908152E+03  0.00000000000E+00 0. -1.
         23    2    1    2    0    0 -0.17319229376E+02 -0.91434369236E+02 -0.11385588033E+03  0.17292578214E+03  0.90994313327E+02 0.  0.
          5    1    1    2  502    0  0.57131014830E+02  0.44581965880E+01 -0.30962692749E+02  0.65268592099E+02  0.41800000000E+01 0.  1.
         -5    1    1    2    0  502 -0.39811785454E+02  0.86976172648E+02 -0.98708868006E+02  0.13751634773E+03  0.41800000000E+01 0.  1.
        -11    1    3    3    0    0  0.28643193623E+02 -0.11927280021E+01 -0.29337013869E+02  0.41018477834E+02  0.00000000000E+00 0.  1.
         11    1    3    3    0    0 -0.45962422999E+02 -0.90241641234E+02 -0.84518866461E+02  0.13190730430E+03  0.00000000000E+00 0. -1.
</event>
<event>
 7    1  0.4096326E-006  0.8944134E+02  0.7561462E-02  0.1304210E+00
         -1   -1    0    0    0  501 -0.00000000000E+00  0.00000000000E+00  0.23701993086E+02  0.23701993086E+02  0.00000000000E+00 0.  1.
          1   -1    0    0  501    0  0.00000000000E+00 -0.00000000000E+00 -0.44360596080E+03  0.44360596080E+03  0.00000000000E+00 0. -1.
         23    2    1    2    0    0 -0.10664610591E+02  0.12647766655E+02 -0.18028429280E+03  0.19649317788E+03  0.76376978217E+02 0.  0.
          5    1    1    2  502    0  0.35704556406E+02 -0.58253794343E+02 -0.95223971164E+02  0.11727487791E+03  0.41800000000E+01 0.  1.
         -5    1    1    2    0  502 -0.25039945816E+02  0.45606027688E+02 -0.14439570375E+03  0.15353989810E+03  0.41800000000E+01 0.  1.
        -11    1    3    3    0    0  0.17956170357E+02  0.21746778965E+02 -0.15406824079E+03  0.15662812413E+03  0.00000000000E+00 0. -1.
         11    1    3    3    0    0 -0.28620780947E+02 -0.90990123104E+01 -0.26216052010E+02  0.39865053745E+02  0.00000000000E+00 0.  1.
</event>
<event>
 7    1  0.4096326E-006  0.1619903E+03  0.7561462E-02  0.1186468E+00
         -1   -1    0    0    0  501 -0.00000000000E+00  0.00000000000E+00  0.61596849654E+03  0.61596849654E+03  0.00000000000E+00 0.  1.
          1   -1    0    0  501    0  0.00000000000E+00 -0.00000000000E+00 -0.27685126104E+03  0.27685126104E+03  0.00000000000E+00 0. -1.
         23    2    1    2    0    0  0.13504205764E+03 -0.51677277742E+02 -0.23500315163E+03  0.29029741095E+03  0.90217554624E+02 0.  0.
          5    1    1    2  502    0 -0.20366160487E+01 -0.73074559915E+01 -0.14939501575E+01  0.87892550919E+01  0.41800000000E+01 0. -1.
         -5    1    1    2    0  502 -0.13300544160E+03  0.58984733734E+02  0.57561433729E+03  0.59373309155E+03  0.41800000000E+01 0.  1.
        -11    1    3    3    0    0  0.58013223168E+02 -0.69667837931E+02 -0.11263102857E+03  0.14458523542E+03  0.00000000000E+00 0. -1.
         11    1    3    3    0    0  0.77028834476E+02  0.17990560189E+02 -0.12237212306E+03  0.14571217553E+03  0.00000000000E+00 0.  1.
</event>
<event>
 7    1  0.4096326E-006  0.1748346E+03  0.7561462E-02  0.1172898E+00
         -2   -1    0    0    0  501 -0.00000000000E+00  0.00000000000E+00  0.10678305713E+03  0.10678305713E+03  0.00000000000E+00 0.  1.
          2   -1    0    0  501    0  0.00000000000E+00 -0.00000000000E+00 -0.36633090861E+03  0.36633090861E+03  0.00000000000E+00 0. -1.
         23    2    1    2    0    0  0.63396771456E+02 -0.12969087502E+03 -0.21872293497E+03  0.27778444303E+03  0.92117320935E+02 0.  0.
          5    1    1    2  502    0  0.35496370638E+02  0.26153249884E+02  0.58610260403E+01  0.44674476317E+02  0.41800000000E+01 0. -1.
         -5    1    1    2    0  502 -0.98893142093E+02  0.10353762513E+03 -0.46685942550E+02  0.15065504639E+03  0.41800000000E+01 0. -1.
        -11    1    3    3    0    0  0.31037896691E+01 -0.89786047371E+02 -0.75522229633E+02  0.11736598733E+03  0.00000000000E+00 0.  1.
         11    1    3    3    0    0  0.60292981787E+02 -0.39904827647E+02 -0.14320070533E+03  0.16041845570E+03  0.00000000000E+00 0. -1.
</event>
<event>
 7    1  0.4096326E-006  0.1469791E+03  0.7561462E-02  0.1204235E+00
          1   -1    0    0  501    0  0.00000000000E+00  0.00000000000E+00  0.23288062205E+03  0.23288062205E+03  0.00000000000E+00 0. -1.
         -1   -1    0    0    0  501 -0.00000000000E+00 -0.00000000000E+00 -0.12248278209E+03  0.12248278209E+03  0.00000000000E+00 0.  1.
         23    2    1    2    0    0 -0.28943380986E+02 -0.11835280589E+03  0.96085487555E+02  0.18014988364E+03  0.91522968114E+02 0.  0.
          5    1    1    2  502    0 -0.34116787214E+02  0.92587447942E+02  0.33550786714E+02  0.10430492977E+03  0.41800000000E+01 0. -1.
         -5    1    1    2    0  502  0.63060168199E+02  0.25765357952E+02 -0.19238434309E+02  0.70908590724E+02  0.41800000000E+01 0. -1.
        -11    1    3    3    0    0 -0.37418361018E+02 -0.98028026533E+02  0.11162472724E+03  0.15319826193E+03  0.00000000000E+00 0. -1.
         11    1    3    3    0    0  0.84749800321E+01 -0.20324779361E+02 -0.15539239690E+02  0.26951621710E+02  0.00000000000E+00 0.  1.
</event>
<event>
 7    1  0.4096326E-006  0.2278816E+03  0.7561462E-02  0.1128140E+00
         -2   -1    0    0    0  501 -0.00000000000E+00  0.00000000000E+00  0.85948366605E+02  0.85948366605E+02  0.00000000000E+00 0.  1.
          2   -1    0    0  501    0  0.00000000000E+00 -0.00000000000E+00 -0.69846858528E+03  0.69846858528E+03  0.00000000000E+00 0. -1.
         23    2    1    2    0    0 -0.17125565995E+03 -0.12289780996E+03 -0.39287053360E+03  0.45530912338E+03  0.92340505253E+02 0.  0.
          5    1    1    2  502    0  0.53568923374E+01 -0.22944027833E+02 -0.25825367762E+02  0.35207197116E+02  0.41800000000E+01 0. -1.
         -5    1    1    2    0  502  0.16589876761E+03  0.14584183779E+03 -0.19382431731E+03  0.29390063138E+03  0.41800000000E+01 0. -1.
        -11    1    3    3    0    0 -0.11530767979E+03 -0.86735469229E+02 -0.34293797680E+03  0.37205558533E+03  0.00000000000E+00 0. -1.
         11    1    3    3    0    0 -0.55947980155E+02 -0.36162340734E+02 -0.49932556798E+02  0.83253538058E+02  0.00000000000E+00 0.  1.
</event>
<event>
 7    1  0.4096326E-006  0.9523173E+02  0.7561462E-02  0.1290655E+00
         -1   -1    0    0    0  501 -0.00000000000E+00  0.00000000000E+00  0.66836794755E+03  0.66836794755E+03  0.00000000000E+00 0.  1.
          1   -1    0    0  501    0  0.00000000000E+00 -0.00000000000E+00 -0.32385795699E+02  0.32385795699E+02  0.00000000000E+00 0. -1.
         23    2    1    2    0    0 -0.70657914929E+02 -0.50810232424E+02  0.17234271536E+03  0.21271430421E+03  0.89281257937E+02 0.  0.
          5    1    1    2  502    0  0.10229564258E+02 -0.56619238721E+01 -0.40609202215E+01  0.13063875378E+02  0.41800000000E+01 0. -1.
         -5    1    1    2    0  502  0.60428350671E+02  0.56472156296E+02  0.46770035671E+03  0.47497556366E+03  0.41800000000E+01 0. -1.
        -11    1    3    3    0    0 -0.26833236000E+02 -0.43047576395E+02  0.15801605852E+03  0.16595840183E+03  0.00000000000E+00 0.  1.
         11    1    3    3    0    0 -0.43824678929E+02 -0.77626560287E+01  0.14326656844E+02  0.46755902389E+02  0.00000000000E+00 0. -1.
</event>
<event>
 7    1  0.4096326E-006  0.1174404E+03  0.7561462E-02  0.1247380E+00
         -4   -1    0    0    0  501 -0.00000000000E+00  0.00000000000E+00  0.13894945383E+03  0.13894945383E+03  0.00000000000E+00 0.  1.
          4   -1    0    0  501    0  0.00000000000E+00 -0.00000000000E+00 -0.10135640333E+03  0.10135640333E+03  0.00000000000E+00 0. -1.
         23    2    1    2    0    0 -0.55734155169E+02 -0.87899002884E+00  0.35596803688E+01  0.99202586438E+02  0.81984225042E+02 0.  0.
          5    1    1    2  502    0  0.30844536754E+02 -0.61513721020E+02  0.24307457847E+02  0.73100261478E+02  0.41800000000E+01 0.  1.
         -5    1    1    2    0  502  0.24889618415E+02  0.62392711049E+02  0.97259122794E+01  0.68003009246E+02  0.41800000000E+01 0.  1.
        -11    1    3    3    0    0 -0.31425014091E+02  0.40126215633E+02 -0.31453164891E+01  0.51064054946E+02  0.00000000000E+00 0.  1.
         11    1    3    3    0    0 -0.24309141078E+02 -0.41005205662E+02  0.67049968579E+01  0.48138531492E+02  0.00000000000E+00 0. -1.
</event>
<event>
 7    1  0.4096326E-006  0.1177626E+03  0.7561462E-02  0.1246834E+00
         -2   -1    0    0    0  501 -0.00000000000E+00  0.00000000000E+00  0.19396423191E+02  0.19396423191E+02  0.00000000000E+00 0.  1.
          2   -1    0    0  501    0  0.00000000000E+00 -0.00000000000E+00 -0.91334842189E+03  0.91334842189E+03  0.00000000000E+00 0. -1.
         23    2    1    2    0    0  0.66823463117E+02  0.10224041550E+02 -0.52052952204E+03  0.53316893606E+03  0.93531945450E+02 0.  0.
          5    1    1    2  502    0 -0.72913362257E+02  0.39072701260E+02 -0.15724511630E+03  0.17772600648E+03  0.41800000000E+01 0. -1.
         -5    1    1    2    0  502  0.60898991406E+01 -0.49296742809E+02 -0.21617736037E+03  0.22184990255E+03  0.41800000000E+01 0. -1.
        -11    1    3    3    0    0  0.84581989448E+02  0.84464231128E+01 -0.49357726094E+03  0.50084325644E+03  0.00000000000E+00 0. -1.
         11    1    3    3    0    0 -0.17758526332E+02  0.17776184370E+01 -0.26952261092E+02  0.32325679618E+02  0.00000000000E+00 0.  1.
</event>
<event>
 7    1  0.4096326E-006  0.1797132E+03  0.7561462E-02  0.1168081E+00
         -1   -1    0    0    0  501 -0.00000000000E+00  0.00000000000E+00  0.36148491187E+03  0.36148491187E+03  0.00000000000E+00 0.  1.
          1   -1    0    0  501    0  0.00000000000E+00 -0.00000000000E+00 -0.95231631930E+02  0.95231631930E+02  0.00000000000E+00 0. -1.
         23    2    1    2    0    0  0.12011183810E+03  0.78877167658E+02  0.72425603753E+02  0.18493506799E+03  0.91143019817E+02 0.  0.
          5    1    1    2  502    0  0.14673234901E+02 -0.50293082091E+02  0.49374609826E+02  0.72111180993E+02  0.41800000000E+01 0. -1.
         -5    1    1    2    0  502 -0.13478507301E+03 -0.28584085567E+02  0.14445306636E+03  0.19967029482E+03  0.41800000000E+01 0. -1.
        -11    1    3    3    0    0  0.73653566033E+02  0.94677069198E+02  0.60907368494E+02  0.13452993257E+03  0.00000000000E+00 0. -1.
         11    1    3    3    0    0  0.46458272071E+02 -0.15799901540E+02  0.11518235260E+02  0.50405135413E+02  0.00000000000E+00 0.  1.
</event>
<event>
 7    1  0.4096326E-006  0.1186311E+03  0.7561462E-02  0.1245373E+00
          3   -1    0    0  501    0  0.00000000000E+00  0.00000000000E+00  0.55708559554E+02  0.55708559554E+02  0.00000000000E+00 0. -1.
         -3   -1    0    0    0  501 -0.00000000000E+00 -0.00000000000E+00 -0.39881387382E+03  0.39881387382E+03  0.00000000000E+00 0.  1.
         23    2    1    2    0    0 -0.53707226558E+02  0.87150486568E+02 -0.16097163825E+03  0.21065849750E+03  0.89361405285E+02 0.  0.
          5    1    1    2  502    0  0.41690153136E+02 -0.10419541370E+03 -0.75960208628E+02  0.13558089393E+03  0.41800000000E+01 0.  1.
         -5    1    1    2    0  502  0.12017073422E+02  0.17044927133E+02 -0.10617346740E+03  0.10828304195E+03  0.41800000000E+01 0.  1.
        -11    1    3    3    0    0 -0.16349961648E+02  0.13893543760E+02 -0.11390732051E+03  0.11591043728E+03  0.00000000000E+00 0.  1.
         11    1    3    3    0    0 -0.37357264910E+02  0.73256942808E+02 -0.47064317733E+02  0.94748060216E+02  0.00000000000E+00 0. -1.
</event>
<event>
 7    1  0.4096326E-006  0.1301145E+03  0.7561462E-02  0.1227286E+00
         -2   -1    0    0    0  501 -0.00000000000E+00  0.00000000000E+00  0.21222712275E+03  0.21222712275E+03  0.00000000000E+00 0.  1.
          2   -1    0    0  501    0  0.00000000000E+00 -0.00000000000E+00 -0.83158217905E+02  0.83158217905E+02  0.00000000000E+00 0. -1.
         23    2    1    2    0    0 -0.72803108935E+02 -0.34934069156E+01  0.44734278572E+02  0.12783669117E+03  0.95018773770E+02 0.  0.
          5    1    1    2  502    0 -0.12224525687E+02 -0.43903754467E+02  0.15766752730E+02  0.48404974706E+02  0.41800000000E+01 0.  1.
         -5    1    1    2    0  502  0.85027634622E+02  0.47397161383E+02  0.68567873543E+02  0.11914367477E+03  0.41800000000E+01 0.  1.
        -11    1    3    3    0    0 -0.94717053457E+02 -0.63472053844E+01  0.24896665887E+02  0.98139957225E+02  0.00000000000E+00 0. -1.
         11    1    3    3    0    0  0.21913944523E+02  0.28537984688E+01  0.19837612685E+02  0.29696733950E+02  0.00000000000E+00 0.  1.
</event>
<event>
 7    1  0.4096326E-006  0.1387303E+03  0.7561462E-02  0.1215048E+00
         -2   -1    0    0    0  501 -0.00000000000E+00  0.00000000000E+00  0.84668483633E+02  0.84668483633E+02  0.00000000000E+00 0.  1.
          2   -1    0    0  501    0  0.00000000000E+00 -0.00000000000E+00 -0.42769219166E+03  0.42769219166E+03  0.00000000000E+00 0. -1.
         23    2    1    2    0    0 -0.10680967146E+03 -0.33866592544E+02 -0.30913116106E+03  0.34103537947E+03  0.90486481326E+02 0.  0.
          5    1    1    2  502    0  0.11770065235E+03  0.22136612999E+02 -0.64824965754E+02  0.13624691477E+03  0.41800000000E+01 0. -1.
         -5    1    1    2    0  502 -0.10890980885E+02  0.11729979545E+02  0.30932418792E+02  0.35078381050E+02  0.41800000000E+01 0. -1.
        -11    1    3    3    0    0  0.76590560080E+01 -0.25138223610E+02 -0.88565613586E+02  0.92382137533E+02  0.00000000000E+00 0. -1.
         11    1    3    3    0    0 -0.11446872747E+03 -0.87283689343E+01 -0.22056554748E+03  0.24865324194E+03  0.00000000000E+00 0.  1.
</event>
<event>
 7    1  0.4096326E-006  0.7659563E+02  0.7561462E-02  0.1339000E+00
          3   -1    0    0  501    0  0.00000000000E+00  0.00000000000E+00  0.10592613026E+03  0.10592613026E+03  0.00000000000E+00 0. -1.
         -3   -1    0    0    0  501 -0.00000000000E+00 -0.00000000000E+00 -0.20772607613E+03  0.20772607613E+03  0.00000000000E+00 0.  1.
         23    2    1    2    0    0 -0.30441428936E+02  0.22008021034E+02  0.54482316630E+02  0.10998216621E+03  0.87844865950E+02 0.  0.
          5    1    1    2  502    0  0.44265073763E+02 -0.15048182054E+02 -0.37528339736E+00  0.46941003142E+02  0.41800000000E+01 0.  1.
         -5    1    1    2    0  502 -0.13823644827E+02 -0.69598389799E+01 -0.15590697910E+03  0.15672903703E+03  0.41800000000E+01 0.  1.
        -11    1    3    3    0    0 -0.69012336755E+01 -0.31244144639E+02  0.27822392891E+01  0.32117977146E+02  0.00000000000E+00 0.  1.
         11    1    3    3    0    0 -0.23540195260E+02  0.53252165673E+02  0.51700077341E+02  0.77864189066E+02  0.00000000000E+00 0. -1.
</event>
<event>
 7    1  0.4096326E-006  0.1051087E+03  0.7561462E-02  0.1269906E+00
         -1   -1    0    0    0  501 -0.00000000000E+00  0.00000000000E+00  0.29023308684E+02  0.29023308684E+02  0.00000000000E+00 0.  1.
          1   -1    0    0  501    0  0.00000000000E+00 -0.00000000000E+00 -0.45914892372E+03  0.45914892372E+03  0.00000000000E+00 0. -1.
         23    2    1    2    0    0 -0.79258198139E+01  0.21833903878E+02 -0.24986388788E+03  0.26753415039E+03  0.92752472646E+02 0.  0.
          5    1    1    2  502    0 -0.58523851554E+02 -0.12581614009E+02 -0.84891840190E+02  0.10395881465E+03  0.41800000000E+01 0. -1.
         -5    1    1    2    0  502  0.66449671368E+02 -0.92522898697E+01 -0.95369886964E+02  0.11667926736E+03  0.41800000000E+01 0. -1.
        -11    1    3    3    0    0 -0.23345306663E+02  0.47569022367E+02 -0.86512340758E+02  0.10145048219E+03  0.00000000000E+00 0.  1.
         11    1    3    3    0    0  0.15419486849E+02 -0.25735118489E+02 -0.16335154712E+03  0.16608366821E+03  0.00000000000E+00 0. -1.
</event>
<event>
 7    1  0.4096326E-006  0.2666025E+03  0.7561462E-02  0.1103240E+00
          2   -1    0    0  501    0  0.00000000000E+00  0.00000000000E+00  0.29447804640E+03  0.29447804640E+03  0.00000000000E+00 0.  1.
         -2   -1    0    0    0  501 -0.00000000000E+00 -0.00000000000E+00 -0.27892370571E+03  0.27892370571E+03  0.00000000000E+00 0. -1.
         23    2    1    2    0    0 -0.15175289984E+03 -0.20453933263E+03 -0.65228269793E+02  0.27837838022E+03  0.91512371811E+02 0.  0.
          5    1    1    2  502    0  0.15491771190E+03  0.13882195438E+03  0.93129623148E+02  0.22795094118E+03  0.41800000000E+01 0.  1.
         -5    1    1    2    0  502 -0.31648120598E+01  0.65717378251E+02 -0.12347012664E+02  0.67072430709E+02  0.41800000000E+01 0.  1.
        -11    1    3    3    0    0 -0.19543570908E+02 -0.61080079202E+02 -0.52491089851E+02  0.82873649328E+02  0.00000000000E+00 0.  1.
         11    1    3    3    0    0 -0.13220932893E+03 -0.14345925343E+03 -0.12737179942E+02  0.19550473090E+03  0.00000000000E+00 0. -1.
</event>
<event>
 7    1  0.4096326E-006  0.6863918E+02  0.7561462E-02  0.1364783E+00
          2   -1    0    0  501    0  0.00000000000E+00  0.00000000000E+00  0.79347581581E+02  0.79347581581E+02  0.00000000000E+00 0. -1.
         -2   -1    0    0    0  501 -0.00000000000E+00 -0.00000000000E+00 -0.17633847906E+03  0.17633847906E+03  0.00000000000E+00 0.  1.
         23    2    1    2    0    0  0.16462326597E+02 -0.18288673665E+00 -0.23219767532E+02  0.10953910302E+03  0.10577625368E+03 0.  0.
          5    1    1    2  502    0 -0.31394227626E+02  0.18873404013E+02  0.24927463421E+02  0.44504536172E+02  0.41800000000E+01 0.  1.
         -5    1    1    2    0  502  0.14931901029E+02 -0.18690517277E+02 -0.98698593364E+02  0.10164242144E+03  0.41800000000E+01 0.  1.
        -11    1    3    3    0    0  0.28614591050E+02  0.31281713140E+02  0.26102540504E+02  0.49786373825E+02  0.00000000000E+00 0. -1.
         11    1    3    3    0    0 -0.12152264453E+02 -0.31464599876E+02 -0.49322308036E+02  0.59752729199E+02  0.00000000000E+00 0.  1.
</event>
<event>
 7    1  0.4096326E-006  0.8592304E+02  0.7561462E-02  0.1313036E+00
         -1   -1    0    0    0  501 -0.00000000000E+00  0.00000000000E+00  0.57794948284E+03  0.57794948284E+03  0.00000000000E+00 0.  1.
          1   -1    0    0  501    0  0.00000000000E+00 -0.00000000000E+00 -0.24191716081E+02  0.24191716081E+02  0.00000000000E+00 0. -1.
         23    2    1    2    0    0 -0.21524529198E+02  0.30486023978E+02  0.18289375386E+03  0.20897218255E+03  0.93949693259E+02 0.  0.
          5    1    1    2  502    0  0.28057973183E+02 -0.57749027625E+02  0.88663502174E+02  0.10954856945E+03  0.41800000000E+01 0.  1.
         -5    1    1    2    0  502 -0.65334439851E+01  0.27263003647E+02  0.28220051072E+03  0.28362044692E+03  0.41800000000E+01 0.  1.
        -11    1    3    3    0    0 -0.30925747165E+02 -0.13816606385E+02  0.14792656143E+03  0.15175496047E+03  0.00000000000E+00 0.  1.
         11    1    3    3    0    0  0.94012179675E+01  0.44302630363E+02  0.34967192427E+02  0.57217222080E+02  0.00000000000E+00 0. -1.
</event>
<event>
 7    1  0.4096326E-006  0.4235061E+03  0.7561462E-02  0.1035931E+00
         -1   -1    0    0    0  501 -0.00000000000E+00  0.00000000000E+00  0.58543348364E+03  0.58543348364E+03  0.00000000000E+00 0.  1.
          1   -1    0    0  501    0  0.00000000000E+00 -0.00000000000E+00 -0.32089837296E+03  0.32089837296E+03  0.00000000000E+00 0. -1.
         23    2    1    2    0    0 -0.28512317597E+03 -0.30637353027E+03  0.16680133101E+03  0.45871738985E+03  0.86249604074E+02 0.  0.
          5    1    1    2  502    0  0.20676766234E+03  0.15987598985E+03  0.14641627548E+02  0.26181109216E+03  0.41800000000E+01 0. -1.
         -5    1    1    2    0  502  0.78355513634E+02  0.14649754042E+03  0.83092152123E+02  0.18580337459E+03  0.41800000000E+01 0. -1.
        -11    1    3    3    0    0 -0.25714660190E+03 -0.26310841197E+03  0.11451224202E+03  0.38530957020E+03  0.00000000000E+00 0. -1.
         11    1    3    3    0    0 -0.27976574066E+02 -0.43265118305E+02  0.52289088993E+02  0.73407819652E+02  0.00000000000E+00 0.  1.
</event>
<event>
 7    1  0.4331495E-006  0.2044029E+03  0.7561462E-02  0.1146077E+00
         -1   -1    0    0    0  501 -0.00000000000E+00  0.00000000000E+00  0.10649367362E+03  0.10649367362E+03  0.00000000000E+00 0.  1.
          1   -1    0    0  501    0  0.00000000000E+00 -0.00000000000E+00 -0.40774350785E+03  0.40774350785E+03  0.00000000000E+00 0. -1.
         23    2    1    2    0    0 -0.97846108094E+02 -0.14620049703E+03 -0.18013961408E+03  0.26672180004E+03  0.87987452854E+02 0.  0.
          5    1    1    2  502    0  0.12814456865E+03  0.11687064498E+03 -0.97418446756E+02  0.19896633962E+03  0.41800000000E+01 0. -1.
         -5    1    1    2    0  502 -0.30298460553E+02  0.29329852047E+02 -0.23691773400E+02  0.48549041801E+02  0.41800000000E+01 0. -1.
        -11    1    3    3    0    0 -0.70762571119E+02 -0.35862850357E+02 -0.49138622248E+02  0.93317145817E+02  0.00000000000E+00 0.  1.
         11    1    3    3    0    0 -0.27083536974E+02 -0.11033764667E+03 -0.13100099183E+03  0.17340465423E+03  0.00000000000E+00 0. -1.
</event>
<event>
 7    1  0.4096326E-006  0.9955232E+02  0.7561462E-02  0.1281240E+00
          1   -1    0    0  501    0  0.00000000000E+00  0.00000000000E+00  0.46361647663E+03  0.46361647663E+03  0.00000000000E+00 0. -1.
         -1   -1    0    0    0  501 -0.00000000000E+00 -0.00000000000E+00 -0.25627324889E+02  0.25627324889E+02  0.00000000000E+00 0.  1.
         23    2    1    2    0    0 -0.10487009676E+02  0.96715609209E+01  0.20471729127E+03  0.22416475437E+03  0.90206159957E+02 0.  0.
          5    1    1    2  502    0  0.61251978612E+02 -0.10057957361E+01  0.18285126973E+03  0.19288565460E+03  0.41800000000E+01 0. -1.
         -5    1    1    2    0  502 -0.50764968937E+02 -0.86657651848E+01  0.50420590750E+02  0.72193392557E+02  0.41800000000E+01 0. -1.
        -11    1    3    3    0    0 -0.42515033131E+01 -0.37858250888E+02  0.12935531246E+03  0.13484850501E+03  0.00000000000E+00 0. -1.
         11    1    3    3    0    0 -0.62355063624E+01  0.47529811809E+02  0.75361978807E+02  0.89316249361E+02  0.00000000000E+00 0.  1.
</event>
<event>
 7    1  0.4096326E-006  0.1093420E+03  0.7561462E-02  0.1261793E+00
         -2   -1    0    0    0  501 -0.00000000000E+00  0.00000000000E+00  0.16196423399E+03  0.16196423399E+03  0.00000000000E+00 0.  1.
          2   -1    0    0  501    0  0.00000000000E+00 -0.00000000000E+00 -0.10681506704E+03  0.10681506704E+03  0.00000000000E+00 0. -1.
         23    2    1    2    0    0  0.55118357047E+02 -0.42225095506E+02  0.11446669979E+02  0.11919036342E+03  0.96199399714E+02 0.  0.
          5    1    1    2  502    0 -0.88131996908E+02 -0.99633098373E+00  0.31517985927E+02  0.93696837681E+02  0.41800000000E+01 0. -1.
         -5    1    1    2    0  502  0.33013639862E+02  0.43221426490E+02  0.12184511047E+02  0.55892099926E+02  0.41800000000E+01 0. -1.
        -11    1    3    3    0    0  0.43213983683E+02 -0.14260041298E+02  0.51620531957E+02  0.68814798431E+02  0.00000000000E+00 0.  1.
         11    1    3    3    0    0  0.11904373364E+02 -0.27965054208E+02 -0.40173861979E+02  0.50375564992E+02  0.00000000000E+00 0. -1.
</event>
<event>
 7    1  0.4096326E-006  0.1116193E+03  0.7561462E-02  0.1257600E+00
          1   -1    0    0  501    0  0.00000000000E+00  0.00000000000E+00  0.46472246618E+03  0.46472246618E+03  0.00000000000E+00 0. -1.
         -1   -1    0    0    0  501 -0.00000000000E+00 -0.00000000000E+00 -0.28955305668E+02  0.28955305668E+02  0.00000000000E+00 0.  1.
         23    2    1    2    0    0  0.39279769410E+02 -0.13251699202E+01  0.15592196475E+03  0.18463904825E+03  0.90748348114E+02 0.  0.
          5    1    1    2  502    0  0.13546545884E+02  0.53673129453E+02  0.13974647672E+03  0.15036909219E+03  0.41800000000E+01 0. -1.
         -5    1    1    2    0  502 -0.52826315294E+02 -0.52347959533E+02  0.14009871904E+03  0.15866963141E+03  0.41800000000E+01 0. -1.
        -11    1    3    3    0    0 -0.46973961629E+01  0.35541975516E+02  0.31919379946E+02  0.48001503835E+02  0.00000000000E+00 0.  1.
         11    1    3    3    0    0  0.43977165573E+02 -0.36867145436E+02  0.12400258480E+03  0.13663754441E+03  0.00000000000E+00 0. -1.
</event>
<event>
 7    1  0.4096326E-006  0.1336073E+03  0.7561462E-02  0.1222199E+00
          2   -1    0    0  501    0  0.00000000000E+00  0.00000000000E+00  0.28898693928E+03  0.28898693928E+03  0.00000000000E+00 0. -1.
         -2   -1    0    0    0  501 -0.00000000000E+00 -0.00000000000E+00 -0.10781983407E+03  0.10781983407E+03  0.00000000000E+00 0.  1.
         23    2    1    2    0    0 -0.75023063078E+02  0.10797360263E+03  0.13655079680E+03  0.20993091553E+03  0.90211475592E+02 0.  0.
          5    1    1    2  502    0  0.19838644860E+02 -0.23779931489E+02 -0.43135533598E+02  0.53265407445E+02  0.41800000000E+01 0. -1.
         -5    1    1    2    0  502  0.55184418218E+02 -0.84193671145E+02  0.87751842002E+02  0.13361045038E+03  0.41800000000E+01 0. -1.
        -11    1    3    3    0    0 -0.36601442461E+02  0.26674242505E+02 -0.13415363265E+01  0.45309828108E+02  0.00000000000E+00 0.  1.
         11    1    3    3    0    0 -0.38421620617E+02  0.81299360129E+02  0.13789233313E+03  0.16462108742E+03  0.00000000000E+00 0. -1.
</event>
<event>
 7    1  0.4096326E-006  0.1166872E+03  0.7561462E-02  0.1248664E+00
          2   -1    0    0  501    0  0.00000000000E+00  0.00000000000E+00  0.96932469422E+02  0.96932469422E+02  0.00000000000E+00 0. -1.
         -2   -1    0    0    0  501 -0.00000000000E+00 -0.00000000000E+00 -0.19643989501E+03  0.19643989501E+03  0.00000000000E+00 0.  1.
         23    2    1    2    0    0 -0.71310187880E+02 -0.15573491572E+02  0.15032858599E+02  0.10868859664E+03  0.79117303212E+02 0.  0.
          5    1    1    2  502    0 -0.27436318802E+00  0.59829440544E+02 -0.56222693591E+02  0.82207669385E+02  0.41800000000E+01 0. -1.
         -5    1    1    2    0  502  0.71584551068E+02 -0.44255948972E+02 -0.58317590597E+02  0.10247609840E+03  0.41800000000E+01 0. -1.
        -11    1    3    3    0    0 -0.31626772475E+02 -0.33075626515E+02  0.38115529606E+02  0.59557060066E+02  0.00000000000E+00 0. -1.
         11    1    3    3    0    0 -0.39683415405E+02  0.17502134943E+02 -0.23082671006E+02  0.49131536578E+02  0.00000000000E+00 0.  1.
</event>
<event>
 7    1  0.4096326E-006  0.1141861E+03  0.7561462E-02  0.1253009E+00
          1   -1    0    0  501    0  0.00000000000E+00  0.00000000000E+00  0.12652760101E+03  0.12652760101E+03  0.00000000000E+00 0. -1.
         -1   -1    0    0    0  501 -0.00000000000E+00 -0.00000000000E+00 -0.15934423087E+03  0.15934423087E+03  0.00000000000E+00 0.  1.
         23    2    1    2    0    0  0.39434413050E+02 -0.57082090754E+02  0.21335054242E+02  0.12395947041E+03  0.10048546038E+03 0.  0.
          5    1    1    2  502    0 -0.20927915052E+02  0.92449961831E+02 -0.46582221229E+00  0.94882361170E+02  0.41800000000E+01 0. -1.
         -5    1    1    2    0  502 -0.18506497998E+02 -0.35367871076E+02 -0.53685861889E+02  0.67030000294E+02  0.41800000000E+01 0.  1.
        -11    1    3    3    0    0  0.52731159740E+02 -0.24460773959E+02  0.51440139744E+02  0.77620826117E+02  0.00000000000E+00 0.  1.
         11    1    3    3    0    0 -0.13296746690E+02 -0.32621316795E+02 -0.30105085502E+02  0.46338644294E+02  0.00000000000E+00 0. -1.
</event>
<event>
 7    1  0.4096326E-006  0.1968163E+03  0.7561462E-02  0.1152453E+00
          1   -1    0    0  501    0  0.00000000000E+00  0.00000000000E+00  0.55940518841E+03  0.55940518841E+03  0.00000000000E+00 0. -1.
         -1   -1    0    0    0  501 -0.00000000000E+00 -0.00000000000E+00 -0.88059247123E+02  0.88059247123E+02  0.00000000000E+00 0.  1.
         23    2    1    2    0    0 -0.15240658926E+03 -0.95819091247E+02  0.32869396898E+03  0.38592468504E+03  0.92136152416E+02 0.  0.
          5    1    1    2  502    0  0.51510714754E+02  0.81021821300E+02  0.13678785069E+02  0.97069412393E+02  0.41800000000E+01 0. -1.
         -5    1    1    2    0  502  0.10089587450E+03  0.14797269947E+02  0.12897318724E+03  0.16447033811E+03  0.41800000000E+01 0. -1.
        -11    1    3    3    0    0 -0.91515025968E+02 -0.12636913828E+02  0.10652779622E+03  0.14100660600E+03  0.00000000000E+00 0. -1.
         11    1    3    3    0    0 -0.60891563289E+02 -0.83182177419E+02  0.22216617275E+03  0.24491807903E+03  0.00000000000E+00 0.  1.
</event>
<event>
 7    1  0.4096326E-006  0.1172200E+03  0.7561462E-02  0.1247755E+00
         -1   -1    0    0    0  501 -0.00000000000E+00  0.00000000000E+00  0.13869857081E+04  0.13869857081E+04  0.00000000000E+00 0.  1.
          1   -1    0    0  501    0  0.00000000000E+00 -0.00000000000E+00 -0.10332453516E+02  0.10332453516E+02  0.00000000000E+00 0. -1.
         23    2    1    2    0    0  0.80917717194E+01 -0.44507085786E+02  0.48566459154E+03  0.49645458458E+03  0.92470003895E+02 0.  0.
          5    1    1    2  502    0 -0.29111162463E+02  0.83400925892E+02  0.57073884890E+03  0.57754954789E+03  0.41800000000E+01 0. -1.
         -5    1    1    2    0  502  0.21019390744E+02 -0.38893840106E+02  0.32024981417E+03  0.32331402917E+03  0.41800000000E+01 0. -1.
        -11    1    3    3    0    0 -0.29009853262E+02  0.14084031768E+02  0.19374473213E+03  0.19641016462E+03  0.00000000000E+00 0.  1.
         11    1    3    3    0    0  0.37101624981E+02 -0.58591117555E+02  0.29191985941E+03  0.30004441996E+03  0.00000000000E+00 0. -1.
</event>
<event>
 7    1  0.4096326E-006  0.2166062E+03  0.7561462E-02  0.1136439E+00
         -4   -1    0    0    0  501 -0.00000000000E+00  0.00000000000E+00  0.24287379745E+03  0.24287379745E+03  0.00000000000E+00 0.  1.
          4   -1    0    0  501    0  0.00000000000E+00 -0.00000000000E+00 -0.19704311472E+03  0.19704311472E+03  0.00000000000E+00 0. -1.
         23    2    1    2    0    0  0.13716025075E+03  0.12785436562E+03 -0.57369190391E+01  0.20869484486E+03  0.91438246038E+02 0.  0.
          5    1    1    2  502    0  0.23231520186E+02 -0.23202687323E+02  0.14374098217E+02  0.36085389408E+02  0.41800000000E+01 0. -1.
         -5    1    1    2    0  502 -0.16039177093E+03 -0.10465167830E+03  0.37193503549E+02  0.19513667789E+03  0.41800000000E+01 0. -1.
        -11    1    3    3    0    0  0.26707864359E+02  0.86639705062E+02  0.23135967082E-01  0.90662831674E+02  0.00000000000E+00 0.  1.
         11    1    3    3    0    0  0.11045238639E+03  0.41214660560E+02 -0.57600550062E+01  0.11803201319E+03  0.00000000000E+00 0. -1.
</event>
<event>
 7    1  0.4096326E-006  0.1462521E+03  0.7561462E-02  0.1205155E+00
          2   -1    0    0  501    0  0.00000000000E+00  0.00000000000E+00  0.29955542296E+03  0.29955542296E+03  0.00000000000E+00 0. -1.
         -2   -1    0    0    0  501 -0.00000000000E+00 -0.00000000000E+00 -0.86232811187E+02  0.86232811187E+02  0.00000000000E+00 0.  1.
         23    2    1    2    0    0 -0.11656219911E+03  0.10641456357E+02  0.11876025768E+03  0.19011074728E+03  0.91313255176E+02 0.  0.
          5    1    1    2  502    0  0.65407313746E+02 -0.52193657729E+02  0.98754498194E+02  0.12950759789E+03  0.41800000000E+01 0.  1.
         -5    1    1    2    0  502  0.51154885364E+02  0.41552201372E+02 -0.41921440989E+01  0.66169888980E+02  0.41800000000E+01 0.  1.
        -11    1    3    3    0    0 -0.99744111530E+01 -0.27675003585E+02  0.54896510981E+01  0.29925423480E+02  0.00000000000E+00 0.  1.
         11    1    3    3    0    0 -0.10658778796E+03  0.38316459943E+02  0.11327060658E+03  0.16018532380E+03  0.00000000000E+00 0. -1.
</event>
<event>
 7    1  0.4096326E-006  0.9514976E+02  0.7561462E-02  0.1290839E+00
          1   -1    0    0  501    0  0.00000000000E+00  0.00000000000E+00  0.22075166641E+03  0.22075166641E+03  0.00000000000E+00 0. -1.
         -1   -1    0    0    0  501 -0.00000000000E+00 -0.00000000000E+00 -0.66869031782E+02  0.66869031782E+02  0.00000000000E+00 0.  1.
         23    2    1    2    0    0  0.28731260935E+02 -0.47497250925E+02  0.76437440977E+02  0.13038576587E+03  0.89868188805E+02 0.  0.
          5    1    1    2  502    0 -0.15595586470E+02 -0.29182976081E+02  0.71743923734E+02  0.79117200424E+02  0.41800000000E+01 0. -1.
         -5    1    1    2    0  502 -0.13135674465E+02  0.76680227006E+02  0.57012699162E+01  0.78117731892E+02  0.41800000000E+01 0. -1.
        -11    1    3    3    0    0  0.25254791857E+02 -0.60510231924E+02  0.89946665900E+02  0.11130900856E+03  0.00000000000E+00 0. -1.
         11    1    3    3    0    0  0.34764690778E+01  0.13012980999E+02 -0.13509224923E+02  0.19076757318E+02  0.00000000000E+00 0.  1.
</event>
<event>
 7    1  0.4096326E-006  0.1327667E+03  0.7561462E-02  0.1223407E+00
         -2   -1    0    0    0  501 -0.00000000000E+00  0.00000000000E+00  0.51643568460E+02  0.51643568460E+02  0.00000000000E+00 0. -1.
          2   -1    0    0  501    0  0.00000000000E+00 -0.00000000000E+00 -0.43920129002E+03  0.43920129002E+03  0.00000000000E+00 0.  1.
         23    2    1    2    0    0  0.10310429779E+03  0.46911155789E+01 -0.19646393738E+03  0.24021264579E+03  0.91932223502E+02 0.  0.
          5    1    1    2  502    0  0.17475812849E+02 -0.33390422596E+02 -0.39182807837E+02  0.54526041355E+02  0.41800000000E+01 0. -1.
         -5    1    1    2    0  502 -0.12058011063E+03  0.28699307017E+02 -0.15191097634E+03  0.19610617134E+03  0.41800000000E+01 0. -1.
        -11    1    3    3    0    0  0.68549685024E+02  0.73325218313E+01 -0.39471529201E+02  0.79440712552E+02  0.00000000000E+00 0.  1.
         11    1    3    3    0    0  0.34554612761E+02 -0.26414062525E+01 -0.15699240818E+03  0.16077193324E+03  0.00000000000E+00 0. -1.
</event>
<event>
 7    1  0.4096326E-006  0.1486324E+03  0.7561462E-02  0.1202164E+00
          2   -1    0    0  501    0  0.00000000000E+00  0.00000000000E+00  0.88341858180E+02  0.88341858180E+02  0.00000000000E+00 0. -1.
         -2   -1    0    0    0  501 -0.00000000000E+00 -0.00000000000E+00 -0.49422780713E+03  0.49422780713E+03  0.00000000000E+00 0.  1.
         23    2    1    2    0    0 -0.11873460104E+03  0.62486837640E+02 -0.31132994733E+02  0.16532950297E+03  0.91444359204E+02 0.  0.
          5    1    1    2  502    0  0.11866434736E+03 -0.34453140958E+02 -0.36784531763E+03  0.38806687099E+03  0.41800000000E+01 0.  1.
         -5    1    1    2    0  502  0.70253679393E-01 -0.28033696681E+02 -0.69076365875E+01  0.29173291354E+02  0.41800000000E+01 0.  1.
        -11    1    3    3    0    0 -0.10996644596E+03  0.72699768152E+02 -0.50987634799E+02  0.14134218913E+03  0.00000000000E+00 0.  1.
         11    1    3    3    0    0 -0.87681550790E+01 -0.10212930512E+02  0.19854640066E+02  0.23987313841E+02  0.00000000000E+00 0. -1.
</event>
<event>
 7    1  0.4096326E-006  0.1232764E+03  0.7561462E-02  0.1237788E+00
         -1   -1    0    0    0  501 -0.00000000000E+00  0.00000000000E+00  0.56814420291E+02  0.56814420291E+02  0.00000000000E+00 0.  1.
          1   -1    0    0  501    0  0.00000000000E+00 -0.00000000000E+00 -0.39600951453E+03  0.39600951453E+03  0.00000000000E+00 0. -1.
         23    2    1    2    0    0  0.44947829712E+02  0.40873461101E+02 -0.28194925262E+03  0.30243974340E+03  0.91013571061E+02 0.  0.
          5    1    1    2  502    0 -0.53387030595E+02 -0.81409099810E+02 -0.40653000619E+02  0.10558293151E+03  0.41800000000E+01 0. -1.
         -5    1    1    2    0  502  0.84392008840E+01  0.40535638709E+02 -0.16592841008E+02  0.44801259913E+02  0.41800000000E+01 0. -1.
        -11    1    3    3    0    0  0.48948566840E+02 -0.15218931866E+02 -0.16294615196E+03  0.17081869488E+03  0.00000000000E+00 0.  1.
         11    1    3    3    0    0 -0.40007371287E+01  0.56092392967E+02 -0.11900310066E+03  0.13162104851E+03  0.00000000000E+00 0. -1.
</event>
<event>
 7    1  0.4096326E-006  0.1735074E+03  0.7561462E-02  0.1174239E+00
         -1   -1    0    0    0  501 -0.00000000000E+00  0.00000000000E+00  0.29738410044E+03  0.29738410044E+03  0.00000000000E+00 0.  1.
          1   -1    0    0  501    0  0.00000000000E+00 -0.00000000000E+00 -0.11137323476E+03  0.11137323476E+03  0.00000000000E+00 0. -1.
         23    2    1    2    0    0  0.14650413575E+02 -0.14420335511E+03  0.10010332548E+03  0.19890544967E+03  0.92376728096E+02 0.  0.
          5    1    1    2  502    0 -0.23966815043E+02  0.15695318665E+03  0.10049588098E+03  0.18795107213E+03  0.41800000000E+01 0.  1.
         -5    1    1    2    0  502  0.93164014677E+01 -0.12749831532E+02 -0.14588340778E+02  0.21900813388E+02  0.41800000000E+01 0.  1.
        -11    1    3    3    0    0  0.53734987541E+02 -0.93396809451E+02  0.64481707105E+02  0.12557190551E+03  0.00000000000E+00 0. -1.
         11    1    3    3    0    0 -0.39084573966E+02 -0.50806545663E+02  0.35621618372E+02  0.73333544165E+02  0.00000000000E+00 0.  1.
</event>
<event>
 7    1  0.4096326E-006  0.8568407E+02  0.7561462E-02  0.1313653E+00
          1   -1    0    0  501    0  0.00000000000E+00  0.00000000000E+00  0.35046784914E+02  0.35046784914E+02  0.00000000000E+00 0. -1.
         -1   -1    0    0    0  501 -0.00000000000E+00 -0.00000000000E+00 -0.38449251307E+03  0.38449251307E+03  0.00000000000E+00 0.  1.
         23    2    1    2    0    0 -0.19058911014E+02 -0.19579082376E+02 -0.94095793518E+02  0.13388308098E+03  0.91236387806E+02 0.  0.
          5    1    1    2  502    0 -0.16781396971E+00  0.44387080465E+02 -0.24950595195E+03  0.25345795220E+03  0.41800000000E+01 0.  1.
         -5    1    1    2    0  502  0.19226724983E+02 -0.24807998089E+02 -0.58439826883E+01  0.32198264805E+02  0.41800000000E+01 0.  1.
        -11    1    3    3    0    0 -0.46857876099E+02 -0.39201981659E+02 -0.57192804113E+02  0.83686753795E+02  0.00000000000E+00 0. -1.
         11    1    3    3    0    0  0.27798965086E+02  0.19622899282E+02 -0.36902989405E+02  0.50196327188E+02  0.00000000000E+00 0.  1.
</event>
<event>
 7    1  0.4096326E-006  0.1263124E+03  0.7561462E-02  0.1233032E+00
         -1   -1    0    0    0  501 -0.00000000000E+00  0.00000000000E+00  0.63299391337E+02  0.63299391337E+02  0.00000000000E+00 0.  1.
          1   -1    0    0  501    0  0.00000000000E+00 -0.00000000000E+00 -0.27702050215E+03  0.27702050215E+03  0.00000000000E+00 0. -1.
         23    2    1    2    0    0 -0.53112880470E+02  0.52424704375E+02 -0.99353873670E+02  0.15512943851E+03  0.92868847188E+02 0.  0.
          5    1    1    2  502    0 -0.36242403014E+01 -0.77481919870E+02 -0.88780046294E+02  0.11796589356E+03  0.41800000000E+01 0.  1.
         -5    1    1    2    0  502  0.56737120772E+02  0.25057215495E+02 -0.25587190849E+02  0.67224561414E+02  0.41800000000E+01 0.  1.
        -11    1    3    3    0    0 -0.17595829867E+01  0.60734214397E+02 -0.28194546243E+02  0.66982634828E+02  0.00000000000E+00 0.  1.
         11    1    3    3    0    0 -0.51353297483E+02 -0.83095100218E+01 -0.71159327426E+02  0.88146803680E+02  0.00000000000E+00 0. -1.
</event>
<event>
 7    1  0.4096326E-006  0.8593627E+02  0.7561462E-02  0.1313002E+00
          3   -1    0    0  501    0  0.00000000000E+00  0.00000000000E+00  0.79125283436E+02  0.79125283436E+02  0.00000000000E+00 0. -1.
         -3   -1    0    0    0  501 -0.00000000000E+00 -0.00000000000E+00 -0.24903996185E+03  0.24903996185E+03  0.00000000000E+00 0.  1.
         23    2    1    2    0    0  0.43220985082E+01 -0.34138337863E+02  0.20792566017E+02  0.97511526397E+02  0.88837268819E+02 0.  0.
          5    1    1    2  502    0 -0.28687658225E+02  0.60987714902E+02 -0.18055711768E+03  0.19277144044E+03  0.41800000000E+01 0. -1.
         -5    1    1    2    0  502  0.24365559717E+02 -0.26849377039E+02 -0.10150126753E+02  0.37882278453E+02  0.41800000000E+01 0. -1.
        -11    1    3    3    0    0 -0.26604195455E+02 -0.22366737824E+02 -0.23695732209E+02  0.42065923282E+02  0.00000000000E+00 0.  1.
         11    1    3    3    0    0  0.30926293963E+02 -0.11771600039E+02  0.44488298226E+02  0.55445603115E+02  0.00000000000E+00 0. -1.
</event>
<event>
 7    1  0.4096326E-006  0.2832623E+03  0.7561462E-02  0.1093920E+00
          2   -1    0    0  501    0  0.00000000000E+00  0.00000000000E+00  0.42816498874E+03  0.42816498874E+03  0.00000000000E+00 0.  1.
         -2   -1    0    0    0  501 -0.00000000000E+00 -0.00000000000E+00 -0.22791114822E+03  0.22791114822E+03  0.00000000000E+00 0. -1.
         23    2    1    2    0    0 -0.24049716234E+03  0.13576382557E+03  0.20038357983E+03  0.35289625278E+03  0.90063781441E+02 0.  0.
          5    1    1    2  502    0  0.10257162102E+03 -0.10046544498E+03 -0.50269902851E+02  0.15218008610E+03  0.41800000000E+01 0.  1.
         -5    1    1    2    0  502  0.13792554133E+03 -0.35298380590E+02  0.50140163534E+02  0.15099979809E+03  0.41800000000E+01 0.  1.
        -11    1    3    3    0    0 -0.31827826304E+02  0.59796332566E+00  0.58598687688E+02  0.66687137336E+02  0.00000000000E+00 0.  1.
         11    1    3    3    0    0 -0.20866933604E+03  0.13516586225E+03  0.14178489214E+03  0.28620911544E+03  0.00000000000E+00 0. -1.
</event>
<event>
 7    1  0.4096326E-006  0.1050929E+03  0.7561462E-02  0.1269937E+00
         -2   -1    0    0    0  501 -0.00000000000E+00  0.00000000000E+00  0.53823362515E+02  0.53823362515E+02  0.00000000000E+00 0. -1.
          2   -1    0    0  501    0  0.00000000000E+00 -0.00000000000E+00 -0.29197249668E+03  0.29197249668E+03  0.00000000000E+00 0.  1.
         23    2    1    2    0    0 -0.50367441464E+02 -0.36480803003E+02 -0.11754091234E+03  0.16123976420E+03  0.91184797733E+02 0.  0.
          5    1    1    2  502    0  0.62411390402E+02 -0.11365152322E+02 -0.11911384523E+03  0.13501825382E+03  0.41800000000E+01 0. -1.
         -5    1    1    2    0  502 -0.12043948938E+02  0.47845955325E+02 -0.14943765945E+01  0.49537841176E+02  0.41800000000E+01 0. -1.
        -11    1    3    3    0    0 -0.32459915143E+02  0.19808166632E+02 -0.86548819422E+02  0.94534161549E+02  0.00000000000E+00 0. -1.
         11    1    3    3    0    0 -0.17907526321E+02 -0.56288969635E+02 -0.30992092922E+02  0.66705602652E+02  0.00000000000E+00 0.  1.
</event>
<event>
 7    1  0.4096326E-006  0.1024034E+03  0.7561462E-02  0.1275322E+00
         -2   -1    0    0    0  501 -0.00000000000E+00  0.00000000000E+00  0.13421807699E+03  0.13421807699E+03  0.00000000000E+00 0.  1.
          2   -1    0    0  501    0  0.00000000000E+00 -0.00000000000E+00 -0.13358239356E+03  0.13358239356E+03  0.00000000000E+00 0. -1.
         23    2    1    2    0    0 -0.23909079413E+02 -0.38383834657E+02 -0.63089570906E+02  0.12030276054E+03  0.91910268175E+02 0.  0.
          5    1    1    2  502    0  0.48521280783E+02  0.55587273237E+02  0.83339800564E+02  0.11138785568E+03  0.41800000000E+01 0. -1.
         -5    1    1    2    0  502 -0.24612201370E+02 -0.17203438581E+02 -0.19614546232E+02  0.36109854322E+02  0.41800000000E+01 0. -1.
        -11    1    3    3    0    0 -0.58325387236E+02 -0.27542972486E+02 -0.51065465536E+02  0.82268754093E+02  0.00000000000E+00 0. -1.
         11    1    3    3    0    0  0.34416307823E+02 -0.10840862171E+02 -0.12024105370E+02  0.38034006451E+02  0.00000000000E+00 0.  1.
</event>
<event>
 7    1  0.4096326E-006  0.8528745E+02  0.7561462E-02  0.1314683E+00
         -1   -1    0    0    0  501 -0.00000000000E+00  0.00000000000E+00  0.12936559556E+04  0.12936559556E+04  0.00000000000E+00 0.  1.
          1   -1    0    0  501    0  0.00000000000E+00 -0.00000000000E+00 -0.93499744224E+01  0.93499744224E+01  0.00000000000E+00 0. -1.
         23    2    1    2    0    0  0.61794903666E+01  0.32211967677E+01  0.51292291100E+03  0.52151364749E+03  0.94010689185E+02 0.  0.
          5    1    1    2  502    0 -0.46634672905E+01  0.36226309236E+02  0.70714868980E+02  0.79700429753E+02  0.41800000000E+01 0. -1.
         -5    1    1    2    0  502 -0.15160230761E+01 -0.39447506004E+02  0.70066820120E+03  0.70179185279E+03  0.41800000000E+01 0. -1.
        -11    1    3    3    0    0  0.42618041906E+02 -0.23741252350E+02  0.25092500662E+03  0.25562336260E+03  0.00000000000E+00 0.  1.
         11    1    3    3    0    0 -0.36438551539E+02  0.26962449118E+02  0.26199790437E+03  0.26589028489E+03  0.00000000000E+00 0. -1.
</event>
<event>
 7    1  0.4096326E-006  0.1277464E+03  0.7561462E-02  0.1230838E+00
          2   -1    0    0  501    0  0.00000000000E+00  0.00000000000E+00  0.25421304687E+03  0.25421304687E+03  0.00000000000E+00 0.  1.
         -2   -1    0    0    0  501 -0.00000000000E+00 -0.00000000000E+00 -0.79614421532E+02  0.79614421532E+02  0.00000000000E+00 0. -1.
         23    2    1    2    0    0 -0.41813859932E+02  0.71280375834E+02  0.12685473305E+03  0.17648399194E+03  0.90692807066E+02 0.  0.
          5    1    1    2  502    0  0.26662424509E+02 -0.10719788371E+03  0.31864906470E+02  0.11504397341E+03  0.41800000000E+01 0. -1.
         -5    1    1    2    0  502  0.15151435423E+02  0.35917507881E+02  0.15878985824E+02  0.42299503054E+02  0.41800000000E+01 0. -1.
        -11    1    3    3    0    0 -0.45982572465E+02  0.13653869315E+02  0.14444328100E+02  0.50094547927E+02  0.00000000000E+00 0. -1.
         11    1    3    3    0    0  0.41687125333E+01  0.57626506519E+02  0.11241040495E+03  0.12638944401E+03  0.00000000000E+00 0.  1.
</event>
<event>
 7    1  0.4096326E-006  0.2300059E+03  0.7561462E-02  0.1126636E+00
         -1   -1    0    0    0  501 -0.00000000000E+00  0.00000000000E+00  0.62287461633E+02  0.62287461633E+02  0.00000000000E+00 0.  1.
          1   -1    0    0  501    0  0.00000000000E+00 -0.00000000000E+00 -0.10702207230E+04  0.10702207230E+04  0.00000000000E+00 0. -1.
         23    2    1    2    0    0 -0.83560553927E+02 -0.20912130836E+03 -0.35334937633E+03  0.42905822623E+03  0.92309760899E+02 0.  0.
          5    1    1    2  502    0  0.53449722560E+02  0.83632192991E+02 -0.13231384728E+03  0.16545586459E+03  0.41800000000E+01 0. -1.
         -5    1    1    2    0  502  0.30110831367E+02  0.12548911536E+03 -0.52227003772E+03  0.53799409378E+03  0.41800000000E+01 0. -1.
        -11    1    3    3    0    0  0.41382301662E+00 -0.63136814994E+02 -0.16354055418E+03  0.17530528092E+03  0.00000000000E+00 0. -1.
         11    1    3    3    0    0 -0.83974376943E+02 -0.14598449336E+03 -0.18980882216E+03  0.25375294531E+03  0.00000000000E+00 0.  1.
</event>
<event>
 7    1  0.4096326E-006  0.1013084E+03  0.7561462E-02  0.1277568E+00
         -1   -1    0    0    0  501 -0.00000000000E+00  0.00000000000E+00  0.48206279556E+03  0.48206279556E+03  0.00000000000E+00 0.  1.
          1   -1    0    0  501    0  0.00000000000E+00 -0.00000000000E+00 -0.81853289612E+02  0.81853289612E+02  0.00000000000E+00 0. -1.
         23    2    1    2    0    0  0.11059248620E+02 -0.35707874290E+02 -0.38470306877E+02  0.10622170946E+03  0.91682756190E+02 0.  0.
          5    1    1    2  502    0 -0.14213741934E+02  0.82188567027E+02  0.26694580553E+03  0.27970435552E+03  0.41800000000E+01 0. -1.
         -5    1    1    2    0  502  0.31544933135E+01 -0.46480692737E+02  0.17173400730E+03  0.17799002019E+03  0.41800000000E+01 0. -1.
        -11    1    3    3    0    0 -0.20314024408E+02 -0.35562189018E+02 -0.56693892208E+02  0.69939447303E+02  0.00000000000E+00 0. -1.
         11    1    3    3    0    0  0.31373273029E+02 -0.14568527160E+00  0.18223585330E+02  0.36282262154E+02  0.00000000000E+00 0.  1.
</event>
<event>
 7    1  0.4096326E-006  0.1239536E+03  0.7561462E-02  0.1236714E+00
          2   -1    0    0  501    0  0.00000000000E+00  0.00000000000E+00  0.43062424662E+02  0.43062424662E+02  0.00000000000E+00 0. -1.
         -2   -1    0    0    0  501 -0.00000000000E+00 -0.00000000000E+00 -0.54230583405E+03  0.54230583405E+03  0.00000000000E+00 0.  1.
         23    2    1    2    0    0 -0.49310374077E+02  0.93127240814E+02 -0.23501606389E+03  0.27461424497E+03  0.95269288237E+02 0.  0.
          5    1    1    2  502    0  0.30516151295E+02 -0.27330368740E+02 -0.23086963303E+03  0.23451320731E+03  0.41800000000E+01 0. -1.
         -5    1    1    2    0  502  0.18794222782E+02 -0.65796872074E+02 -0.33357712465E+02  0.76240806433E+02  0.41800000000E+01 0. -1.
        -11    1    3    3    0    0 -0.90920269413E+01  0.97313354850E+02 -0.13442808300E+03  0.16620307905E+03  0.00000000000E+00 0. -1.
         11    1    3    3    0    0 -0.40218347135E+02 -0.41861140365E+01 -0.10058798089E+03  0.10841116592E+03  0.00000000000E+00 0.  1.
</event>
<event>
 7    1  0.4096326E-006  0.1106265E+03  0.7561462E-02  0.1259414E+00
          2   -1    0    0  501    0  0.00000000000E+00  0.00000000000E+00  0.57855336394E+03  0.57855336394E+03  0.00000000000E+00 0. -1.
         -2   -1    0    0    0  501 -0.00000000000E+00 -0.00000000000E+00 -0.53839045871E+02  0.53839045871E+02  0.00000000000E+00 0.  1.
         23    2    1    2    0    0  0.28301359747E+02 -0.20707646558E+02  0.48711033571E+03  0.49715890282E+03  0.93062999677E+02 0.  0.
          5    1    1    2  502    0 -0.43046549914E+02 -0.40855784685E+02 -0.35684047306E+01  0.59602068035E+02  0.41800000000E+01 0.  1.
         -5    1    1    2    0  502  0.14745190167E+02  0.61563431244E+02  0.41172387087E+02  0.75631438952E+02  0.41800000000E+01 0.  1.
        -11    1    3    3    0    0 -0.84583112113E+01  0.32534469883E+02  0.13271850110E+03  0.13690958803E+03  0.00000000000E+00 0. -1.
         11    1    3    3    0    0  0.36759670958E+02 -0.53242116441E+02  0.35439183461E+03  0.36024931479E+03  0.00000000000E+00 0.  1.
</event>
<event>
 7    1  0.4096326E-006  0.1039165E+03  0.7561462E-02  0.1272269E+00
          1   -1    0    0  501    0  0.00000000000E+00  0.00000000000E+00  0.28549080238E+02  0.28549080238E+02  0.00000000000E+00 0. -1.
         -1   -1    0    0    0  501 -0.00000000000E+00 -0.00000000000E+00 -0.61288624598E+03  0.61288624598E+03  0.00000000000E+00 0.  1.
         23    2    1    2    0    0 -0.96270795328E+01 -0.23345642095E+02 -0.78586997285E+02  0.11983337657E+03  0.86870146382E+02 0.  0.
          5    1    1    2  502    0 -0.54680680547E+02 -0.88921354306E+01 -0.21945742893E+03  0.22638039317E+03  0.41800000000E+01 0. -1.
         -5    1    1    2    0  502  0.64307760080E+02  0.32237777526E+02 -0.28629273953E+03  0.29522155648E+03  0.41800000000E+01 0. -1.
        -11    1    3    3    0    0 -0.23214826255E+02  0.22544256140E+02 -0.60612874771E+02  0.68710204708E+02  0.00000000000E+00 0.  1.
         11    1    3    3    0    0  0.13587746722E+02 -0.45889898235E+02 -0.17974122514E+02  0.51123171861E+02  0.00000000000E+00 0. -1.
</event>
<event>
 7    1  0.4096326E-006  0.1246221E+03  0.7561462E-02  0.1235661E+00
         -2   -1    0    0    0  501 -0.00000000000E+00  0.00000000000E+00  0.27682929671E+03  0.27682929671E+03  0.00000000000E+00 0.  1.
          2   -1    0    0  501    0  0.00000000000E+00 -0.00000000000E+00 -0.67435881682E+02  0.67435881682E+02  0.00000000000E+00 0. -1.
         23    2    1    2    0    0 -0.34984036449E+02  0.73252768171E+02  0.11311117264E+03  0.16676306589E+03  0.91792875102E+02 0.  0.
          5    1    1    2  502    0  0.80315767057E+02 -0.39962772103E+02  0.41692716575E+02  0.99012123538E+02  0.41800000000E+01 0.  1.
         -5    1    1    2    0  502 -0.45331730607E+02 -0.33289996068E+02  0.54589525810E+02  0.78489988956E+02  0.41800000000E+01 0.  1.
        -11    1    3    3    0    0 -0.50690140616E+02  0.70904037668E+02  0.12092599357E+03  0.14906364022E+03  0.00000000000E+00 0.  1.
         11    1    3    3    0    0  0.15706104167E+02  0.23487305031E+01 -0.78148209334E+01  0.17699425677E+02  0.00000000000E+00 0. -1.
</event>
<event>
 7    1  0.4096326E-006  0.1140284E+03  0.7561462E-02  0.1253287E+00
          1   -1    0    0  501    0  0.00000000000E+00  0.00000000000E+00  0.48298631828E+03  0.48298631828E+03  0.00000000000E+00 0. -1.
         -1   -1    0    0    0  501 -0.00000000000E+00 -0.00000000000E+00 -0.46188915331E+02  0.46188915331E+02  0.00000000000E+00 0.  1.
         23    2    1    2    0    0 -0.46490236976E+02 -0.41933287474E+02  0.34498608037E+03  0.36184865691E+03  0.89438873677E+02 0.  0.
          5    1    1    2  502    0 -0.39370478564E+02  0.32521946885E+02  0.48747027986E+02  0.70720978140E+02  0.41800000000E+01 0. -1.
         -5    1    1    2    0  502  0.85860715541E+02  0.94113405889E+01  0.43064294590E+02  0.96605598561E+02  0.41800000000E+01 0. -1.
        -11    1    3    3    0    0 -0.12472926881E+02 -0.53096620405E+02  0.29706414492E+03  0.30202968596E+03  0.00000000000E+00 0. -1.
         11    1    3    3    0    0 -0.34017310095E+02  0.11163332931E+02  0.47921935456E+02  0.59818970955E+02  0.00000000000E+00 0.  1.
</event>
<event>
 7    1  0.4096326E-006  0.9586449E+02  0.7561462E-02  0.1289241E+00
          1   -1    0    0  501    0  0.00000000000E+00  0.00000000000E+00  0.51540039208E+02  0.51540039208E+02  0.00000000000E+00 0. -1.
         -1   -1    0    0    0  501 -0.00000000000E+00 -0.00000000000E+00 -0.40551542164E+03  0.40551542164E+03  0.00000000000E+00 0.  1.
         23    2    1    2    0    0 -0.20145888308E+02 -0.84320093745E+02 -0.96479944677E+02  0.15794468017E+03  0.90124398714E+02 0.  0.
          5    1    1    2  502    0  0.39880005506E+02  0.58085782375E+02 -0.44235336919E+02  0.83298321626E+02  0.41800000000E+01 0.  1.
         -5    1    1    2    0  502 -0.19734117199E+02  0.26234311370E+02 -0.21326010084E+03  0.21581245906E+03  0.41800000000E+01 0.  1.
        -11    1    3    3    0    0 -0.15614989139E+01 -0.39534807134E+02 -0.10174911357E+03  0.10917106469E+03  0.00000000000E+00 0.  1.
         11    1    3    3    0    0 -0.18584389394E+02 -0.44785286611E+02  0.52691688895E+01  0.48773615478E+02  0.00000000000E+00 0. -1.
</event>
<event>
 7    1  0.4096326E-006  0.2640404E+03  0.7561462E-02  0.1104740E+00
          2   -1    0    0  501    0  0.00000000000E+00  0.00000000000E+00  0.18221380607E+04  0.18221380607E+04  0.00000000000E+00 0.  1.
         -2   -1    0    0    0  501 -0.00000000000E+00 -0.00000000000E+00 -0.46619360246E+02  0.46619360246E+02  0.00000000000E+00 0. -1.
         23    2    1    2    0    0 -0.23851283412E+03 -0.76326788414E+02  0.11935958129E+04  0.12230047309E+04  0.91408186486E+02 0.  0.
          5    1    1    2  502    0  0.16194799886E+03  0.10278943401E+03  0.33751357835E+03  0.38823409182E+03  0.41800000000E+01 0. -1.
         -5    1    1    2    0  502  0.76564835255E+02 -0.26462645593E+02  0.24440930917E+03  0.25751859820E+03  0.41800000000E+01 0. -1.
        -11    1    3    3    0    0 -0.20684219763E+03 -0.82763691728E+02  0.11290470676E+04  0.11508174504E+04  0.00000000000E+00 0.  1.
         11    1    3    3    0    0 -0.31670636485E+02  0.64369033137E+01  0.64548745312E+02  0.72187280466E+02  0.00000000000E+00 0. -1.
</event>
<event>
 7    1  0.4096326E-006  0.1306728E+03  0.7561462E-02  0.1226461E+00
          2   -1    0    0  501    0  0.00000000000E+00  0.00000000000E+00  0.29406010494E+03  0.29406010494E+03  0.00000000000E+00 0.  1.
         -2   -1    0    0    0  501 -0.00000000000E+00 -0.00000000000E+00 -0.91652512728E+02  0.91652512728E+02  0.00000000000E+00 0. -1.
         23    2    1    2    0    0 -0.10007963820E+03  0.12623774101E+02  0.17321981816E+03  0.22239147227E+03  0.96320132274E+02 0.  0.
          5    1    1    2  502    0  0.10680999290E+03  0.33683380082E+02  0.31080160019E+02  0.11630302413E+03  0.41800000000E+01 0.  1.
         -5    1    1    2    0  502 -0.67303547000E+01 -0.46307154183E+02 -0.18923859625E+01  0.47018121268E+02  0.41800000000E+01 0.  1.
        -11    1    3    3    0    0 -0.23322961492E+02 -0.42394000890E+01  0.13110508936E+03  0.13323091796E+03  0.00000000000E+00 0.  1.
         11    1    3    3    0    0 -0.76756676704E+02  0.16863174190E+02  0.42114728803E+02  0.89160554308E+02  0.00000000000E+00 0. -1.
</event>
<event>
 7    1  0.4096326E-006  0.1006714E+03  0.7561462E-02  0.1278890E+00
          2   -1    0    0  501    0  0.00000000000E+00  0.00000000000E+00  0.51331750891E+02  0.51331750891E+02  0.00000000000E+00 0. -1.
         -2   -1    0    0    0  501 -0.00000000000E+00 -0.00000000000E+00 -0.29237042614E+03  0.29237042614E+03  0.00000000000E+00 0.  1.
         23    2    1    2    0    0  0.42390061318E+02  0.24507885955E+02 -0.11429488656E+03  0.15901587819E+03  0.99122018993E+02 0.  0.
          5    1    1    2  502    0 -0.62636757175E+02 -0.59077893544E+02 -0.54543266223E+02  0.10200980906E+03  0.41800000000E+01 0. -1.
         -5    1    1    2    0  502  0.20246695856E+02  0.34570007589E+02 -0.72200522469E+02  0.82676489781E+02  0.41800000000E+01 0. -1.
        -11    1    3    3    0    0  0.54665946640E+02  0.95249539661E+01 -0.14492023631E+02  0.57350756045E+02  0.00000000000E+00 0. -1.
         11    1    3    3    0    0 -0.12275885321E+02  0.14982931989E+02 -0.99802862926E+02  0.10166512214E+03  0.00000000000E+00 0.  1.
</event>
<event>
 7    1  0.4096326E-006  0.8866573E+02  0.7561462E-02  0.1306115E+00
         -1   -1    0    0    0  501 -0.00000000000E+00  0.00000000000E+00  0.19539871812E+03  0.19539871812E+03  0.00000000000E+00 0.  1.
          1   -1    0    0  501    0  0.00000000000E+00 -0.00000000000E+00 -0.10607854918E+03  0.10607854918E+03  0.00000000000E+00 0. -1.
         23    2    1    2    0    0  0.53258414642E+02 -0.50909635230E+02 -0.19716688509E+02  0.11991475172E+03  0.92534048785E+02 0.  0.
          5    1    1    2  502    0  0.14288396665E+02  0.20362256214E+01 -0.21731642056E+02  0.26420468589E+02  0.41800000000E+01 0. -1.
         -5    1    1    2    0  502 -0.67546811307E+02  0.48873409609E+02  0.13076849950E+03  0.15514204699E+03  0.41800000000E+01 0. -1.
        -11    1    3    3    0    0  0.24961798085E+02 -0.42532760060E+02  0.33112690253E+02  0.59401829077E+02  0.00000000000E+00 0.  1.
         11    1    3    3    0    0  0.28296616557E+02 -0.83768751703E+01 -0.52829378762E+02  0.60512922641E+02  0.00000000000E+00 0. -1.
</event>
<event>
 7    1  0.4096326E-006  0.3245114E+03  0.7561462E-02  0.1073592E+00
          1   -1    0    0  501    0  0.00000000000E+00  0.00000000000E+00  0.10545708818E+03  0.10545708818E+03  0.00000000000E+00 0. -1.
         -1   -1    0    0    0  501 -0.00000000000E+00 -0.00000000000E+00 -0.10416053951E+04  0.10416053951E+04  0.00000000000E+00 0.  1.
         23    2    1    2    0    0 -0.72731849593E+02 -0.29712099787E+03 -0.34480170119E+03  0.46963334352E+03  0.89980302716E+02 0.  0.
          5    1    1    2  502    0 -0.22586919780E+02  0.16954576027E+03 -0.29866148227E+03  0.34419774428E+03  0.41800000000E+01 0.  1.
         -5    1    1    2    0  502  0.95318769373E+02  0.12757523760E+03 -0.29268512348E+03  0.33323139550E+03  0.41800000000E+01 0.  1.
        -11    1    3    3    0    0 -0.93031543574E+02 -0.26237607328E+03 -0.30701708593E+03  0.41443402730E+03  0.00000000000E+00 0.  1.
         11    1    3    3    0    0  0.20299693980E+02 -0.34744924592E+02 -0.37784615263E+02  0.55199316220E+02  0.00000000000E+00 0. -1.
</event>
<event>
 7    1  0.4096326E-006  0.9432864E+02  0.7561462E-02  0.1292695E+00
          1   -1    0    0  501    0  0.00000000000E+00  0.00000000000E+00  0.32355639907E+03  0.32355639907E+03  0.00000000000E+00 0. -1.
         -1   -1    0    0    0  501 -0.00000000000E+00 -0.00000000000E+00 -0.54122664881E+02  0.54122664881E+02  0.00000000000E+00 0.  1.
         23    2    1    2    0    0  0.41327300262E+02  0.59721812239E+02  0.15176002423E+03  0.19121467232E+03  0.90869716351E+02 0.  0.
          5    1    1    2  502    0 -0.45597292311E+02 -0.13870332150E+02  0.13007200534E+03  0.13859184014E+03  0.41800000000E+01 0.  1.
         -5    1    1    2    0  502  0.42699920485E+01 -0.45851480089E+02 -0.12398295381E+02  0.47872551497E+02  0.41800000000E+01 0.  1.
        -11    1    3    3    0    0 -0.62375369298E+01  0.44057862092E+02  0.17317248785E+02  0.47748185144E+02  0.00000000000E+00 0.  1.
         11    1    3    3    0    0  0.47564837192E+02  0.15663950147E+02  0.13444277545E+03  0.14346648717E+03  0.00000000000E+00 0. -1.
</event>
<event>
 7    1  0.4096326E-006  0.1515642E+03  0.7561462E-02  0.1198564E+00
         -1   -1    0    0    0  501 -0.00000000000E+00  0.00000000000E+00  0.25378321320E+03  0.25378321320E+03  0.00000000000E+00 0.  1.
          1   -1    0    0  501    0  0.00000000000E+00 -0.00000000000E+00 -0.10298374616E+03  0.10298374616E+03  0.00000000000E+00 0. -1.
         23    2    1    2    0    0  0.60917460376E+02  0.10551505487E+03  0.67134968057E+02  0.16313779329E+03  0.85220137768E+02 0.  0.
          5    1    1    2  502    0  0.35750490347E+02 -0.99393961510E+01  0.87278770996E+01  0.38347586555E+02  0.41800000000E+01 0.  1.
         -5    1    1    2    0  502 -0.96667950724E+02 -0.95575658722E+02  0.74936621878E+02  0.15528157951E+03  0.41800000000E+01 0.  1.
        -11    1    3    3    0    0  0.67192486606E+02  0.85115088579E+02  0.82987335124E+02  0.13655147876E+03  0.00000000000E+00 0.  1.
         11    1    3    3    0    0 -0.62750262296E+01  0.20399966293E+02 -0.15852367067E+02  0.26586314535E+02  0.00000000000E+00 0. -1.
</event>
<event>
 7    1  0.4096326E-006  0.1623986E+03  0.7561462E-02  0.1186015E+00
          2   -1    0    0  501    0  0.00000000000E+00  0.00000000000E+00  0.67546232432E+03  0.67546232432E+03  0.00000000000E+00 0. -1.
         -2   -1    0    0    0  501 -0.00000000000E+00 -0.00000000000E+00 -0.50504796483E+02  0.50504796483E+02  0.00000000000E+00 0.  1.
         23    2    1    2    0    0  0.11151726898E+03  0.89423775655E+02  0.37774381465E+03  0.41420639063E+03  0.91890323755E+02 0.  0.
          5    1    1    2  502    0 -0.82701248199E+02 -0.16238319963E+01  0.57894459191E+02  0.10105134383E+03  0.41800000000E+01 0.  1.
         -5    1    1    2    0  502 -0.28816020782E+02 -0.87799943659E+02  0.18931925399E+03  0.21070938634E+03  0.41800000000E+01 0.  1.
        -11    1    3    3    0    0  0.31463375185E+02  0.29024388856E+01  0.19645353233E+02  0.37206290236E+02  0.00000000000E+00 0.  1.
         11    1    3    3    0    0  0.80053893797E+02  0.86521336770E+02  0.35809846142E+03  0.37700010040E+03  0.00000000000E+00 0. -1.
</event>
<event>
 7    1  0.4096326E-006  0.9531940E+02  0.7561462E-02  0.1290458E+00
         -1   -1    0    0    0  501 -0.00000000000E+00  0.00000000000E+00  0.51848109821E+03  0.51848109821E+03  0.00000000000E+00 0.  1.
          1   -1    0    0  501    0  0.00000000000E+00 -0.00000000000E+00 -0.25650666428E+02  0.25650666428E+02  0.00000000000E+00 0. -1.
         23    2    1    2    0    0 -0.28435581565E+02  0.22842688905E+02  0.17672110487E+03  0.20221965674E+03  0.91280172721E+02 0.  0.
          5    1    1    2  502    0 -0.39627300975E+02  0.62741528516E+00  0.39708356049E+02  0.56257822323E+02  0.41800000000E+01 0.  1.
         -5    1    1    2    0  502  0.68062882540E+02 -0.23470104190E+02  0.27640097087E+03  0.28565428557E+03  0.41800000000E+01 0.  1.
        -11    1    3    3    0    0  0.22137368193E+02 -0.21806886089E+01  0.69309022071E+01  0.23299267773E+02  0.00000000000E+00 0. -1.
         11    1    3    3    0    0 -0.50572949758E+02  0.25023377514E+02  0.16979020266E+03  0.17892038897E+03  0.00000000000E+00 0.  1.
</event>
<event>
 7    1  0.4096326E-006  0.8000493E+02  0.7561462E-02  0.1329037E+00
          3   -1    0    0  501    0  0.00000000000E+00  0.00000000000E+00  0.26574923025E+03  0.26574923025E+03  0.00000000000E+00 0. -1.
         -3   -1    0    0    0  501 -0.00000000000E+00 -0.00000000000E+00 -0.70997662220E+02  0.70997662220E+02  0.00000000000E+00 0.  1.
         23    2    1    2    0    0  0.61392102237E+02 -0.16130910433E+01  0.15859070993E+03  0.19277954210E+03  0.90781861071E+02 0.  0.
          5    1    1    2  502    0 -0.21862311742E+00  0.12134812482E+02  0.71347997048E+02  0.72493520764E+02  0.41800000000E+01 0. -1.
         -5    1    1    2    0  502 -0.61173479120E+02 -0.10521721439E+02 -0.35187138949E+02  0.71473829596E+02  0.41800000000E+01 0. -1.
        -11    1    3    3    0    0  0.15279223091E+02 -0.27952523558E+02  0.12711785082E+03  0.13104864070E+03  0.00000000000E+00 0. -1.
         11    1    3    3    0    0  0.46112879146E+02  0.26339432514E+02  0.31472859107E+02  0.61730901408E+02  0.00000000000E+00 0.  1.
</event>
<event>
 7    1  0.4096326E-006  0.8296642E+02  0.7561462E-02  0.1320838E+00
         -4   -1    0    0    0  501 -0.00000000000E+00  0.00000000000E+00  0.37983513288E+03  0.37983513288E+03  0.00000000000E+00 0. -1.
          4   -1    0    0  501    0  0.00000000000E+00 -0.00000000000E+00 -0.44238597532E+02  0.44238597532E+02  0.00000000000E+00 0.  1.
         23    2    1    2    0    0 -0.41534030591E+02 -0.33096116027E+02  0.72517912797E+02  0.12796837700E+03  0.91085834479E+02 0.  0.
          5    1    1    2  502    0  0.84952339731E+01 -0.20150790044E+02 -0.32247887871E+01  0.22496555345E+02  0.41800000000E+01 0.  1.
         -5    1    1    2    0  502  0.33038796618E+02  0.53246906072E+02  0.26630341134E+03  0.27360879807E+03  0.41800000000E+01 0.  1.
        -11    1    3    3    0    0  0.88185789290E+01 -0.29040055707E+02 -0.93609509805E+01  0.31760345922E+02  0.00000000000E+00 0.  1.
         11    1    3    3    0    0 -0.50352609520E+02 -0.40560603201E+01  0.81878863777E+02  0.96208031080E+02  0.00000000000E+00 0. -1.
</event>
<event>
 7    1  0.4096326E-006  0.1263675E+03  0.7561462E-02  0.1232947E+00
          1   -1    0    0  501    0  0.00000000000E+00  0.00000000000E+00  0.44101253682E+02  0.44101253682E+02  0.00000000000E+00 0. -1.
         -1   -1    0    0    0  501 -0.00000000000E+00 -0.00000000000E+00 -0.42600577314E+03  0.42600577314E+03  0.00000000000E+00 0.  1.
         23    2    1    2    0    0  0.24323797332E+02 -0.79423204779E+02 -0.14601884222E+03  0.19048402262E+03  0.89794031085E+02 0.  0.
          5    1    1    2  502    0 -0.62836001418E+02  0.36170605261E+02 -0.19642125982E+03  0.20941695125E+03  0.41800000000E+01 0.  1.
         -5    1    1    2    0  502  0.38512204086E+02  0.43252599518E+02 -0.39464417414E+02  0.70206052947E+02  0.41800000000E+01 0.  1.
        -11    1    3    3    0    0  0.60595780535E+01 -0.96710022625E+02 -0.12090310109E+03  0.15494226930E+03  0.00000000000E+00 0.  1.
         11    1    3    3    0    0  0.18264219278E+02  0.17286817845E+02 -0.25115741128E+02  0.35541753326E+02  0.00000000000E+00 0. -1.
</event>
<event>
 7    1  0.4096326E-006  0.1463325E+03  0.7561462E-02  0.1205053E+00
          1   -1    0    0  501    0  0.00000000000E+00  0.00000000000E+00  0.62474887413E+03  0.62474887413E+03  0.00000000000E+00 0. -1.
         -1   -1    0    0    0  501 -0.00000000000E+00 -0.00000000000E+00 -0.48858021285E+02  0.48858021285E+02  0.00000000000E+00 0.  1.
         23    2    1    2    0    0 -0.13424736449E+03  0.20379197732E+02  0.29602143688E+03  0.33832836354E+03  0.91650007696E+02 0.  0.
          5    1    1    2  502    0  0.11996980193E+03 -0.20451997488E+02  0.29181233280E+03  0.31620080258E+03  0.41800000000E+01 0.  1.
         -5    1    1    2    0  502  0.14277562552E+02  0.72799756820E-01 -0.11942916842E+02  0.19077729291E+02  0.41800000000E+01 0.  1.
        -11    1    3    3    0    0 -0.26740325301E+02 -0.27474419941E+02  0.34604873556E+02  0.51646742609E+02  0.00000000000E+00 0.  1.
         11    1    3    3    0    0 -0.10750703918E+03  0.47853617673E+02  0.26141656333E+03  0.28668162093E+03  0.00000000000E+00 0. -1.
</event>
<event>
 7    1  0.4096326E-006  0.1224937E+03  0.7561462E-02  0.1239039E+00
         -3   -1    0    0    0  501 -0.00000000000E+00  0.00000000000E+00  0.22362651304E+03  0.22362651304E+03  0.00000000000E+00 0.  1.
          3   -1    0    0  501    0  0.00000000000E+00 -0.00000000000E+00 -0.86213403524E+02  0.86213403524E+02  0.00000000000E+00 0. -1.
         23    2    1    2    0    0  0.25326652473E+02 -0.56483915829E+02 -0.42565889121E+01  0.11096736046E+03  0.91998719915E+02 0.  0.
          5    1    1    2  502    0  0.44645814871E+02  0.47634099162E+02  0.90350287936E+02  0.11154776160E+03  0.41800000000E+01 0.  1.
         -5    1    1    2    0  502 -0.69972467345E+02  0.88498166671E+01  0.51319410496E+02  0.87324794503E+02  0.41800000000E+01 0.  1.
        -11    1    3    3    0    0 -0.33897652228E+02 -0.20340324100E+02  0.84661454658E+01  0.40428396333E+02  0.00000000000E+00 0.  1.
         11    1    3    3    0    0  0.59224304701E+02 -0.36143591729E+02 -0.12722734378E+02  0.70538964129E+02  0.00000000000E+00 0. -1.
</event>
<event>
 7    1  0.4096326E-006  0.7645340E+02  0.7561462E-02  0.1339429E+00
         -1   -1    0    0    0  501 -0.00000000000E+00  0.00000000000E+00  0.17472043724E+02  0.17472043724E+02  0.00000000000E+00 0.  1.
          1   -1    0    0  501    0  0.00000000000E+00 -0.00000000000E+00 -0.68836678267E+03  0.68836678267E+03  0.00000000000E+00 0. -1.
         23    2    1    2    0    0 -0.77114297009E+01 -0.33626449280E+01 -0.32066006353E+03  0.33384071696E+03  0.92498510408E+02 0.  0.
          5    1    1    2  502    0  0.23088694246E+02 -0.20671468279E+02 -0.13549382396E+02  0.34080134479E+02  0.41800000000E+01 0. -1.
         -5    1    1    2    0  502 -0.15377264545E+02  0.24034113207E+02 -0.33668529302E+03  0.33791797495E+03  0.41800000000E+01 0. -1.
        -11    1    3    3    0    0 -0.29957595326E+02  0.36456940248E+02 -0.15605975311E+03  0.16303745751E+03  0.00000000000E+00 0. -1.
         11    1    3    3    0    0  0.22246165626E+02 -0.39819585176E+02 -0.16460031043E+03  0.17080325946E+03  0.00000000000E+00 0.  1.
</event>
<event>
 7    1  0.4096326E-006  0.9215890E+02  0.7561462E-02  0.1297706E+00
          2   -1    0    0  501    0  0.00000000000E+00  0.00000000000E+00  0.21739860300E+03  0.21739860300E+03  0.00000000000E+00 0. -1.
         -2   -1    0    0    0  501 -0.00000000000E+00 -0.00000000000E+00 -0.63833349449E+02  0.63833349449E+02  0.00000000000E+00 0.  1.
         23    2    1    2    0    0  0.17344724625E+02 -0.38448031701E+02  0.42424468846E+02  0.10869894243E+03  0.90755351991E+02 0.  0.
          5    1    1    2  502    0 -0.71494082771E+02  0.19975403759E+02  0.57430021600E+02  0.93947327836E+02  0.41800000000E+01 0. -1.
         -5    1    1    2    0  502  0.54149358146E+02  0.18472627942E+02  0.53710763107E+02  0.78585682183E+02  0.41800000000E+01 0. -1.
        -11    1    3    3    0    0  0.24157847373E+02 -0.15593289893E+02  0.67939608314E+02  0.73773590513E+02  0.00000000000E+00 0. -1.
         11    1    3    3    0    0 -0.68131227477E+01 -0.22854741808E+02 -0.25515139467E+02  0.34925351919E+02  0.00000000000E+00 0.  1.
</event>
<event>
 7    1  0.4096326E-006  0.1003821E+03  0.7561462E-02  0.1279494E+00
         -1   -1    0    0    0  501 -0.00000000000E+00  0.00000000000E+00  0.29747980996E+02  0.29747980996E+02  0.00000000000E+00 0.  1.
          1   -1    0    0  501    0  0.00000000000E+00 -0.00000000000E+00 -0.58407400616E+03  0.58407400616E+03  0.00000000000E+00 0. -1.
         23    2    1    2    0    0 -0.26993075380E+01 -0.45729871014E+02 -0.37804841918E+03  0.39286874759E+03  0.96575039366E+02 0.  0.
          5    1    1    2  502    0  0.36992349098E+02  0.46235148181E+02 -0.17669585248E+03  0.18640015961E+03  0.41800000000E+01 0. -1.
         -5    1    1    2    0  502 -0.34293041560E+02 -0.50527716672E+00  0.41824648778E+00  0.34553079957E+02  0.41800000000E+01 0. -1.
        -11    1    3    3    0    0 -0.96576632482E+01 -0.75584523960E+02 -0.26498610745E+03  0.27572436937E+03  0.00000000000E+00 0. -1.
         11    1    3    3    0    0  0.69583557102E+01  0.29854652945E+02 -0.11306231172E+03  0.11714437822E+03  0.00000000000E+00 0.  1.
</event>
<event>
 7    1  0.4096326E-006  0.1433155E+03  0.7561462E-02  0.1208936E+00
          1   -1    0    0  501    0  0.00000000000E+00  0.00000000000E+00  0.42141221419E+03  0.42141221419E+03  0.00000000000E+00 0. -1.
         -1   -1    0    0    0  501 -0.00000000000E+00 -0.00000000000E+00 -0.72809134688E+02  0.72809134688E+02  0.00000000000E+00 0.  1.
         23    2    1    2    0    0  0.80052889533E+02  0.78608995127E+02  0.27455017377E+03  0.31058043163E+03  0.92165977195E+02 0.  0.
          5    1    1    2  502    0 -0.71862009411E+02 -0.98301254354E+02  0.94198291341E+02  0.15400673847E+03  0.41800000000E+01 0.  1.
         -5    1    1    2    0  502 -0.81908801223E+01  0.19692259227E+02 -0.20145385610E+02  0.29634178781E+02  0.41800000000E+01 0.  1.
        -11    1    3    3    0    0  0.98148869062E+02  0.77265308610E+02  0.25472913589E+03  0.28370770361E+03  0.00000000000E+00 0. -1.
         11    1    3    3    0    0 -0.18095979528E+02  0.13436865164E+01  0.19821037880E+02  0.26872728019E+02  0.00000000000E+00 0.  1.
</event>
<event>
 7    1  0.4096326E-006  0.1065681E+03  0.7561462E-02  0.1267061E+00
         -2   -1    0    0    0  501 -0.00000000000E+00  0.00000000000E+00  0.46834148965E+02  0.46834148965E+02  0.00000000000E+00 0.  1.
          2   -1    0    0  501    0  0.00000000000E+00 -0.00000000000E+00 -0.26811543647E+03  0.26811543647E+03  0.00000000000E+00 0. -1.
         23    2    1    2    0    0 -0.53769502362E+01  0.23188118896E+02 -0.12092775086E+03  0.15281983077E+03  0.90353634655E+02 0.  0.
          5    1    1    2  502    0  0.60100644660E+01  0.49339181976E+02 -0.19830434115E+02  0.53676757262E+02  0.41800000000E+01 0.  1.
         -5    1    1    2    0  502 -0.63311422976E+00 -0.72527300872E+02 -0.80523102524E+02  0.10845299740E+03  0.41800000000E+01 0.  1.
        -11    1    3    3    0    0 -0.26495703151E+02 -0.25971936012E+02 -0.31797552893E+02  0.48863566342E+02  0.00000000000E+00 0.  1.
         11    1    3    3    0    0  0.21118752915E+02  0.49160054908E+02 -0.89130197968E+02  0.10395626442E+03  0.00000000000E+00 0. -1.
</event>
<event>
 7    1  0.4096326E-006  0.1514019E+03  0.7561462E-02  0.1198761E+00
          2   -1    0    0  501    0  0.00000000000E+00  0.00000000000E+00  0.81605639014E+03  0.81605639014E+03  0.00000000000E+00 0. -1.
         -2   -1    0    0    0  501 -0.00000000000E+00 -0.00000000000E+00 -0.38449560517E+02  0.38449560517E+02  0.00000000000E+00 0.  1.
         23    2    1    2    0    0 -0.68898837141E+02 -0.84327679343E+02  0.57646936508E+03  0.59381136543E+03  0.91852063529E+02 0.  0.
          5    1    1    2  502    0 -0.45880314440E+01  0.86581612237E+02  0.75393509840E+02  0.11497425510E+03  0.41800000000E+01 0. -1.
         -5    1    1    2    0  502  0.73486868585E+02 -0.22539328938E+01  0.12574395470E+03  0.14572033013E+03  0.41800000000E+01 0. -1.
        -11    1    3    3    0    0  0.41611495200E+01  0.16965069917E+02  0.78373960956E+02  0.80296989473E+02  0.00000000000E+00 0. -1.
         11    1    3    3    0    0 -0.73059986661E+02 -0.10129274926E+03  0.49809540412E+03  0.51351437595E+03  0.00000000000E+00 0.  1.
</event>
<event>
 7    1  0.4096326E-006  0.1447713E+03  0.7561462E-02  0.1207049E+00
         -3   -1    0    0    0  501 -0.00000000000E+00  0.00000000000E+00  0.33881648239E+02  0.33881648239E+02  0.00000000000E+00 0.  1.
          3   -1    0    0  501    0  0.00000000000E+00 -0.00000000000E+00 -0.81593832892E+03  0.81593832892E+03  0.00000000000E+00 0. -1.
         23    2    1    2    0    0  0.10470326949E+03  0.69306976380E+02 -0.40415891321E+03  0.43242183094E+03  0.88757991950E+02 0.  0.
          5    1    1    2  502    0 -0.30809579874E+02  0.70674777220E+01 -0.85045117080E+01  0.32999675343E+02  0.41800000000E+01 0. -1.
         -5    1    1    2    0  502 -0.73893689612E+02 -0.76374454102E+02 -0.36939325576E+03  0.38439847087E+03  0.41800000000E+01 0. -1.
        -11    1    3    3    0    0  0.85599355103E+02  0.67142988142E+01 -0.19029560608E+03  0.20876960770E+03  0.00000000000E+00 0.  1.
         11    1    3    3    0    0  0.19103914384E+02  0.62592677566E+02 -0.21386330713E+03  0.22365222325E+03  0.00000000000E+00 0. -1.
</event>
<event>
 7    1  0.4096326E-006  0.8007453E+02  0.7561462E-02  0.1328840E+00
          1   -1    0    0  501    0  0.00000000000E+00  0.00000000000E+00  0.16581689986E+03  0.16581689986E+03  0.00000000000E+00 0. -1.
         -1   -1    0    0    0  501 -0.00000000000E+00 -0.00000000000E+00 -0.80880814118E+02  0.80880814118E+02  0.00000000000E+00 0.  1.
         23    2    1    2    0    0  0.13554784391E+02  0.15945663129E+02  0.69319699284E+02  0.11890638775E+03  0.94316021898E+02 0.  0.
          5    1    1    2  502    0 -0.45445851079E+01  0.41836052798E+02 -0.31372693632E+02  0.52655739224E+02  0.41800000000E+01 0. -1.
         -5    1    1    2    0  502 -0.90101992836E+01 -0.57781715927E+02  0.46989080090E+02  0.75135587003E+02  0.41800000000E+01 0. -1.
        -11    1    3    3    0    0 -0.24762907479E+01 -0.19852757320E+02  0.76463169884E+02  0.79037208565E+02  0.00000000000E+00 0. -1.
         11    1    3    3    0    0  0.16031075139E+02  0.35798420449E+02 -0.71434706001E+01  0.39869179186E+02  0.00000000000E+00 0.  1.
</event>
<event>
 7    1  0.4096326E-006  0.1768012E+03  0.7561462E-02  0.1170935E+00
          1   -1    0    0  501    0  0.00000000000E+00  0.00000000000E+00  0.74059199120E+03  0.74059199120E+03  0.00000000000E+00 0. -1.
         -1   -1    0    0    0  501 -0.00000000000E+00 -0.00000000000E+00 -0.51664823557E+02  0.51664823557E+02  0.00000000000E+00 0.  1.
         23    2    1    2    0    0 -0.60460675195E+02  0.12800112695E+03  0.49074211216E+03  0.51846599844E+03  0.89103249920E+02 0.  0.
          5    1    1    2  502    0  0.15090226570E+02 -0.14033859610E+03  0.13973517686E+03  0.19866058629E+03  0.41800000000E+01 0.  1.
         -5    1    1    2    0  502  0.45370448625E+02  0.12337469149E+02  0.58449878630E+02  0.75130230036E+02  0.41800000000E+01 0.  1.
        -11    1    3    3    0    0 -0.52110340553E+02  0.18388948329E+02  0.12765387278E+03  0.13910123022E+03  0.00000000000E+00 0.  1.
         11    1    3    3    0    0 -0.83503346428E+01  0.10961217862E+03  0.36308823938E+03  0.37936476822E+03  0.00000000000E+00 0. -1.
</event>
<event>
 7    1  0.4096326E-006  0.1682080E+03  0.7561462E-02  0.1179730E+00
         -1   -1    0    0    0  501 -0.00000000000E+00  0.00000000000E+00  0.44974291595E+02  0.44974291595E+02  0.00000000000E+00 0.  1.
          1   -1    0    0  501    0  0.00000000000E+00 -0.00000000000E+00 -0.65707367619E+03  0.65707367619E+03  0.00000000000E+00 0. -1.
         23    2    1    2    0    0  0.12623057800E+03  0.31114347603E+02 -0.29269420538E+03  0.33521069607E+03  0.98964900087E+02 0.  0.
          5    1    1    2  502    0 -0.10347929024E+03 -0.76958425099E+02 -0.23189673766E+03  0.26537545486E+03  0.41800000000E+01 0. -1.
         -5    1    1    2    0  502 -0.22751287765E+02  0.45844077497E+02 -0.87508441548E+02  0.10146181685E+03  0.41800000000E+01 0. -1.
        -11    1    3    3    0    0  0.10827600604E+03  0.58670362611E+02 -0.18212144129E+03  0.21985023155E+03  0.00000000000E+00 0.  1.
         11    1    3    3    0    0  0.17954571960E+02 -0.27556015008E+02 -0.11057276409E+03  0.11536046453E+03  0.00000000000E+00 0. -1.
</event>
<event>
 7    1  0.4096326E-006  0.1236333E+03  0.7561462E-02  0.1237221E+00
          2   -1    0    0  501    0  0.00000000000E+00  0.00000000000E+00  0.28727120253E+03  0.28727120253E+03  0.00000000000E+00 0.  1.
         -2   -1    0    0    0  501 -0.00000000000E+00 -0.00000000000E+00 -0.69247536586E+02  0.69247536586E+02  0.00000000000E+00 0. -1.
         23    2    1    2    0    0 -0.60021361290E+02 -0.75973644749E+01  0.14689878557E+03  0.18382115694E+03  0.92469891190E+02 0.  0.
          5    1    1    2  502    0 -0.99394567410E+01 -0.47095055569E+02 -0.13285855335E+02  0.50107119368E+02  0.41800000000E+01 0. -1.
         -5    1    1    2    0  502  0.69960818031E+02  0.54692420044E+02  0.84410735708E+02  0.12259046281E+03  0.41800000000E+01 0.  1.
        -11    1    3    3    0    0  0.85032089874E+01 -0.35174096854E+02  0.40713199565E+02  0.54470967234E+02  0.00000000000E+00 0. -1.
         11    1    3    3    0    0 -0.68524570278E+02  0.27576732379E+02  0.10618558601E+03  0.12935018970E+03  0.00000000000E+00 0.  1.
</event>
<event>
 7    1  0.4096326E-006  0.1874715E+03  0.7561462E-02  0.1160762E+00
         -1   -1    0    0    0  501 -0.00000000000E+00  0.00000000000E+00  0.52560468576E+02  0.52560468576E+02  0.00000000000E+00 0.  1.
          1   -1    0    0  501    0  0.00000000000E+00 -0.00000000000E+00 -0.83064858939E+03  0.83064858939E+03  0.00000000000E+00 0. -1.
         23    2    1    2    0    0  0.11602136976E+02 -0.17705931232E+03 -0.40273772122E+03  0.44959676610E+03  0.91950912628E+02 0.  0.
          5    1    1    2  502    0  0.20010636967E+02  0.12573606230E+03 -0.34120453771E+03  0.36420872026E+03  0.41800000000E+01 0. -1.
         -5    1    1    2    0  502 -0.31612773943E+02  0.51323250015E+02 -0.34145861883E+02  0.69403571610E+02  0.41800000000E+01 0. -1.
        -11    1    3    3    0    0 -0.23617443235E+02 -0.50242606706E+02 -0.56608077408E+02  0.79287940958E+02  0.00000000000E+00 0.  1.
         11    1    3    3    0    0  0.35219580211E+02 -0.12681670561E+03 -0.34612964381E+03  0.37030882514E+03  0.00000000000E+00 0. -1.
</event>
<event>
 7    1  0.4096326E-006  0.1100618E+03  0.7561462E-02  0.1260456E+00
          2   -1    0    0  501    0  0.00000000000E+00  0.00000000000E+00  0.47033184125E+02  0.47033184125E+02  0.00000000000E+00 0. -1.
         -2   -1    0    0    0  501 -0.00000000000E+00 -0.00000000000E+00 -0.49500633520E+03  0.49500633520E+03  0.00000000000E+00 0.  1.
         23    2    1    2    0    0 -0.99322814748E+01 -0.21508044216E+02 -0.25052227340E+02  0.10037096053E+03  0.94262768061E+02 0.  0.
          5    1    1    2  502    0 -0.49415913331E+02 -0.17602225571E+02 -0.13063716466E+03  0.14083789272E+03  0.41800000000E+01 0. -1.
         -5    1    1    2    0  502  0.59348194805E+02  0.39110269787E+02 -0.29228375907E+03  0.30083066607E+03  0.41800000000E+01 0. -1.
        -11    1    3    3    0    0  0.16112316811E+02 -0.53022901267E+02 -0.76699822923E+01  0.55945182457E+02  0.00000000000E+00 0.  1.
         11    1    3    3    0    0 -0.26044598286E+02  0.31514857051E+02 -0.17382245047E+02  0.44425778077E+02  0.00000000000E+00 0. -1.
</event>
<event>
 7    1  0.4096326E-006  0.1711185E+03  0.7561462E-02  0.1176686E+00
         -2   -1    0    0    0  501 -0.00000000000E+00  0.00000000000E+00  0.13248326580E+03  0.13248326580E+03  0.00000000000E+00 0.  1.
          2   -1    0    0  501    0  0.00000000000E+00 -0.00000000000E+00 -0.35950398287E+03  0.35950398287E+03  0.00000000000E+00 0. -1.
         23    2    1    2    0    0  0.40277098945E+02 -0.14004178310E+03 -0.24214604811E+03  0.30570969906E+03  0.11657515075E+03 0.  0.
          5    1    1    2  502    0 -0.29878296656E+02  0.58059415704E+01 -0.31242413145E+02  0.43817603172E+02  0.41800000000E+01 0. -1.
         -5    1    1    2    0  502 -0.10398802288E+02  0.13423584153E+03  0.46367744177E+02  0.14245994644E+03  0.41800000000E+01 0.  1.
        -11    1    3    3    0    0  0.22664671340E+02  0.10686368398E+02 -0.72996467586E+01  0.26099245953E+02  0.00000000000E+00 0.  1.
         11    1    3    3    0    0  0.17612427604E+02 -0.15072815149E+03 -0.23484640135E+03  0.27961045311E+03  0.00000000000E+00 0. -1.
</event>
<event>
 7    1  0.4096326E-006  0.1088340E+03  0.7561462E-02  0.1262745E+00
          3   -1    0    0  501    0  0.00000000000E+00  0.00000000000E+00  0.20002939108E+02  0.20002939108E+02  0.00000000000E+00 0. -1.
         -3   -1    0    0    0  501 -0.00000000000E+00 -0.00000000000E+00 -0.10488892079E+04  0.10488892079E+04  0.00000000000E+00 0.  1.
         23    2    1    2    0    0  0.28533314206E+02 -0.70047864034E+02 -0.25395203417E+03  0.28029140331E+03  0.91382612316E+02 0.  0.
          5    1    1    2  502    0  0.18164120344E+02  0.85255278461E+02 -0.34566506744E+03  0.35651116255E+03  0.41800000000E+01 0.  1.
         -5    1    1    2    0  502 -0.46697434550E+02 -0.15207414427E+02 -0.42926916721E+03  0.43208958118E+03  0.41800000000E+01 0.  1.
        -11    1    3    3    0    0  0.48119687118E+01 -0.49480618565E+02 -0.24142177887E+03  0.24648724504E+03  0.00000000000E+00 0.  1.
         11    1    3    3    0    0  0.23721345494E+02 -0.20567245469E+02 -0.12530255305E+02  0.33804158269E+02  0.00000000000E+00 0. -1.
</event>
<event>
 7    1  0.4096326E-006  0.9827946E+02  0.7561462E-02  0.1283956E+00
         -2   -1    0    0    0  501 -0.00000000000E+00  0.00000000000E+00  0.38104894844E+03  0.38104894844E+03  0.00000000000E+00 0.  1.
          2   -1    0    0  501    0  0.00000000000E+00 -0.00000000000E+00 -0.57490505216E+02  0.57490505216E+02  0.00000000000E+00 0. -1.
         23    2    1    2    0    0  0.31821245288E+02 -0.89842772008E+02  0.98745265710E+02  0.16418192026E+03  0.90115260120E+02 0.  0.
          5    1    1    2  502    0 -0.22765844463E+02  0.28011412910E+02  0.20568641530E+03  0.20887148385E+03  0.41800000000E+01 0.  1.
         -5    1    1    2    0  502 -0.90554008250E+01  0.61831359099E+02  0.19126762212E+02  0.65486049543E+02  0.41800000000E+01 0.  1.
        -11    1    3    3    0    0  0.25675036480E+02 -0.41087015378E+02  0.10402813139E+03  0.11475714553E+03  0.00000000000E+00 0.  1.
         11    1    3    3    0    0  0.61462088077E+01 -0.48755756630E+02 -0.52828656751E+01  0.49424774729E+02  0.00000000000E+00 0. -1.
</event>
<event>
 7    1  0.4096326E-006  0.9660887E+02  0.7561462E-02  0.1287593E+00
          1   -1    0    0  501    0  0.00000000000E+00  0.00000000000E+00  0.78202237674E+03  0.78202237674E+03  0.00000000000E+00 0.  1.
         -1   -1    0    0    0  501 -0.00000000000E+00 -0.00000000000E+00 -0.17051169507E+02  0.17051169507E+02  0.00000000000E+00 0. -1.
         23    2    1    2    0    0 -0.33085242486E+02  0.15600847325E+02  0.39960301539E+03  0.41115636691E+03  0.89604511242E+02 0.  0.
          5    1    1    2  502    0 -0.24914053227E+02  0.16547129314E+02  0.20013733653E+02  0.36228986619E+02  0.41800000000E+01 0.  1.
         -5    1    1    2    0  502  0.57999295713E+02 -0.32147976639E+02  0.34535445818E+03  0.35168819271E+03  0.41800000000E+01 0.  1.
        -11    1    3    3    0    0  0.25549951585E+02  0.26636415073E+02  0.13979483075E+03  0.14458524593E+03  0.00000000000E+00 0.  1.
         11    1    3    3    0    0 -0.58635194071E+02 -0.11035567748E+02  0.25980818464E+03  0.26657112099E+03  0.00000000000E+00 0. -1.
</event>
<event>
 7    1  0.4096326E-006  0.1190807E+03  0.7561462E-02  0.1244621E+00
          2   -1    0    0  501    0  0.00000000000E+00  0.00000000000E+00  0.19155835504E+02  0.19155835504E+02  0.00000000000E+00 0. -1.
         -2   -1    0    0    0  501 -0.00000000000E+00 -0.00000000000E+00 -0.90467189701E+03  0.90467189701E+03  0.00000000000E+00 0.  1.
         23    2    1    2    0    0  0.54839381041E+02 -0.46229611152E+00 -0.23025267961E+03  0.25447759181E+03  0.93461097971E+02 0.  0.
          5    1    1    2  502    0 -0.26600093405E+02 -0.62116628753E+02 -0.33880258671E+03  0.34550065948E+03  0.41800000000E+01 0.  1.
         -5    1    1    2    0  502 -0.28239287636E+02  0.62578924864E+02 -0.31646079518E+03  0.32384948123E+03  0.41800000000E+01 0.  1.
        -11    1    3    3    0    0  0.44738617010E+00 -0.36453017803E+02 -0.12887423820E+03  0.13393129557E+03  0.00000000000E+00 0.  1.
         11    1    3    3    0    0  0.54391994871E+02  0.35990721691E+02 -0.10137844141E+03  0.12054629624E+03  0.00000000000E+00 0. -1.
</event>
<event>
 7    1  0.4096326E-006  0.2127133E+03  0.7561462E-02  0.1139435E+00
          4   -1    0    0  501    0  0.00000000000E+00  0.00000000000E+00  0.27039716446E+03  0.27039716446E+03  0.00000000000E+00 0. -1.
         -4   -1    0    0    0  501 -0.00000000000E+00 -0.00000000000E+00 -0.22057710018E+03  0.22057710018E+03  0.00000000000E+00 0.  1.
         23    2    1    2    0    0  0.57338300082E+02  0.17367399714E+03  0.14439942694E+03  0.25005198415E+03  0.90688821460E+02 0.  0.
          5    1    1    2  502    0 -0.72215568093E+01 -0.17087951266E+03 -0.69579152287E+02  0.18469079447E+03  0.41800000000E+01 0. -1.
         -5    1    1    2    0  502 -0.50116743273E+02 -0.27944844828E+01 -0.25000210372E+02  0.56231486006E+02  0.41800000000E+01 0. -1.
        -11    1    3    3    0    0 -0.14948298369E+02  0.98711922178E+02  0.65594867332E+02  0.11945786631E+03  0.00000000000E+00 0. -1.
         11    1    3    3    0    0  0.72286598451E+02  0.74962074967E+02  0.78804559607E+02  0.13059411784E+03  0.00000000000E+00 0.  1.
</event>
<event>
 7    1  0.4096326E-006  0.9885499E+02  0.7561462E-02  0.1282722E+00
          3   -1    0    0  501    0  0.00000000000E+00  0.00000000000E+00  0.13825461534E+03  0.13825461534E+03  0.00000000000E+00 0. -1.
         -3   -1    0    0    0  501 -0.00000000000E+00 -0.00000000000E+00 -0.92043202286E+02  0.92043202286E+02  0.00000000000E+00 0.  1.
         23    2    1    2    0    0 -0.16101255229E+02  0.11251178725E+02  0.46773441555E+02  0.10367130960E+03  0.90410984708E+02 0.  0.
          5    1    1    2  502    0  0.70531748244E+01  0.54622314142E+02  0.16883597884E+02  0.57757014767E+02  0.41800000000E+01 0. -1.
         -5    1    1    2    0  502  0.90480804050E+01 -0.65873492867E+02 -0.17445626390E+02  0.68869493258E+02  0.41800000000E+01 0. -1.
        -11    1    3    3    0    0  0.15892843674E+02 -0.23657551904E+02 -0.95775409585E+01  0.30066451951E+02  0.00000000000E+00 0.  1.
         11    1    3    3    0    0 -0.31994098903E+02  0.34908730629E+02  0.56350982514E+02  0.73604857645E+02  0.00000000000E+00 0. -1.
</event>
<event>
 7    1  0.4096326E-006  0.9083966E+02  0.7561462E-02  0.1300831E+00
         -2   -1    0    0    0  501 -0.00000000000E+00  0.00000000000E+00  0.13678127588E+03  0.13678127588E+03  0.00000000000E+00 0.  1.
          2   -1    0    0  501    0  0.00000000000E+00 -0.00000000000E+00 -0.11125666544E+03  0.11125666544E+03  0.00000000000E+00 0. -1.
         23    2    1    2    0    0 -0.13971225411E+02 -0.47167912391E+02 -0.16491366355E+02  0.10721230935E+03  0.93821676675E+02 0.  0.
          5    1    1    2  502    0  0.63469269760E+02  0.75724632218E+01  0.43249195076E+02  0.77289427982E+02  0.41800000000E+01 0.  1.
         -5    1    1    2    0  502 -0.49498044349E+02  0.39595449169E+02 -0.12332182808E+01  0.63536203983E+02  0.41800000000E+01 0.  1.
        -11    1    3    3    0    0 -0.18319322849E+01 -0.39917390797E+02  0.35427267845E+02  0.53402671945E+02  0.00000000000E+00 0.  1.
         11    1    3    3    0    0 -0.12139293126E+02 -0.72505215938E+01 -0.51918634200E+02  0.53809637410E+02  0.00000000000E+00 0. -1.
</event>
<event>
 7    1  0.4096326E-006  0.1528895E+03  0.7561462E-02  0.1196967E+00
          3   -1    0    0  501    0  0.00000000000E+00  0.00000000000E+00  0.69455910063E+02  0.69455910063E+02  0.00000000000E+00 0. -1.
         -3   -1    0    0    0  501 -0.00000000000E+00 -0.00000000000E+00 -0.55981472614E+03  0.55981472614E+03  0.00000000000E+00 0.  1.
         23    2    1    2    0    0  0.94682878188E+02 -0.55125488482E+02 -0.40799996839E+02  0.14994551186E+03  0.93890094693E+02 0.  0.
          5    1    1    2  502    0  0.14851650564E+02  0.52184294925E+02 -0.18783737029E+03  0.19556104479E+03  0.41800000000E+01 0. -1.
         -5    1    1    2    0  502 -0.10953452875E+03  0.29411935566E+01 -0.26172144895E+03  0.28376407956E+03  0.41800000000E+01 0. -1.
        -11    1    3    3    0    0 -0.24338055785E+01  0.19237456399E+02  0.37835088225E+01  0.19756469252E+02  0.00000000000E+00 0. -1.
         11    1    3    3    0    0  0.97116683766E+02 -0.74362944881E+02 -0.44583505662E+02  0.13018904260E+03  0.00000000000E+00 0.  1.
</event>
<event>
 7    1  0.4096326E-006  0.1155169E+03  0.7561462E-02  0.1250682E+00
         -1   -1    0    0    0  501 -0.00000000000E+00  0.00000000000E+00  0.57707682437E+02  0.57707682437E+02  0.00000000000E+00 0.  1.
          1   -1    0    0  501    0  0.00000000000E+00 -0.00000000000E+00 -0.25119553284E+03  0.25119553284E+03  0.00000000000E+00 0. -1.
         23    2    1    2    0    0 -0.15032441537E+02 -0.42938965794E+02 -0.11276362162E+03  0.15323234628E+03  0.93245849789E+02 0.  0.
          5    1    1    2  502    0 -0.13698694169E+02 -0.41392845127E+02 -0.29650842405E+02  0.52892974060E+02  0.41800000000E+01 0.  1.
         -5    1    1    2    0  502  0.28731135705E+02  0.84331810920E+02 -0.51073386381E+02  0.10277789494E+03  0.41800000000E+01 0.  1.
        -11    1    3    3    0    0 -0.49929127132E+02 -0.38115600629E+02 -0.46386342175E+02  0.78085910943E+02  0.00000000000E+00 0.  1.
         11    1    3    3    0    0  0.34896685595E+02 -0.48233651653E+01 -0.66377279443E+02  0.75146435333E+02  0.00000000000E+00 0. -1.
</event>
<event>
 7    1  0.4096326E-006  0.9892747E+02  0.7561462E-02  0.1282568E+00
         -1   -1    0    0    0  501 -0.00000000000E+00  0.00000000000E+00  0.67832259282E+02  0.67832259282E+02  0.00000000000E+00 0.  1.
          1   -1    0    0  501    0  0.00000000000E+00 -0.00000000000E+00 -0.28540073386E+03  0.28540073386E+03  0.00000000000E+00 0. -1.
         23    2    1    2    0    0 -0.52306742686E+02  0.31421707758E+02 -0.17937585354E+03  0.20889584432E+03  0.87968505128E+02 0.  0.
          5    1    1    2  502    0  0.29669706274E+02 -0.59466570284E+02 -0.69618717771E+02  0.96336922910E+02  0.41800000000E+01 0. -1.
         -5    1    1    2    0  502  0.22637036412E+02  0.28044862527E+02  0.31426096729E+02  0.48000225909E+02  0.41800000000E+01 0. -1.
        -11    1    3    3    0    0 -0.68160961315E+02  0.37746262437E+02 -0.95260509898E+02  0.12306608680E+03  0.00000000000E+00 0.  1.
         11    1    3    3    0    0  0.15854218629E+02 -0.63245546797E+01 -0.84115343638E+02  0.85829757518E+02  0.00000000000E+00 0. -1.
</event>
<event>
 7    1  0.4096326E-006  0.1114546E+03  0.7561462E-02  0.1257900E+00
         -1   -1    0    0    0  501 -0.00000000000E+00  0.00000000000E+00  0.17851591592E+03  0.17851591592E+03  0.00000000000E+00 0.  1.
          1   -1    0    0  501    0  0.00000000000E+00 -0.00000000000E+00 -0.79421032874E+02  0.79421032874E+02  0.00000000000E+00 0. -1.
         23    2    1    2    0    0 -0.32907249238E+02 -0.15542746450E+02  0.59216647999E+01  0.97770560178E+02  0.90551379360E+02 0.  0.
          5    1    1    2  502    0  0.72090057327E+02  0.40092315040E+02  0.70050692262E+02  0.10830023997E+03  0.41800000000E+01 0.  1.
         -5    1    1    2    0  502 -0.39182808089E+02 -0.24549568590E+02  0.23122525986E+02  0.51866148649E+02  0.41800000000E+01 0.  1.
        -11    1    3    3    0    0 -0.62610568593E+02 -0.13926013542E+02 -0.85182640150E+01  0.64703770945E+02  0.00000000000E+00 0.  1.
         11    1    3    3    0    0  0.29703319355E+02 -0.16167329082E+01  0.14439928815E+02  0.33066789233E+02  0.00000000000E+00 0. -1.
</event>
<event>
 7    1  0.4096326E-006  0.1209510E+03  0.7561462E-02  0.1241536E+00
         -2   -1    0    0    0  501 -0.00000000000E+00  0.00000000000E+00  0.35060549899E+02  0.35060549899E+02  0.00000000000E+00 0.  1.
          2   -1    0    0  501    0  0.00000000000E+00 -0.00000000000E+00 -0.49938754232E+03  0.49938754232E+03  0.00000000000E+00 0. -1.
         23    2    1    2    0    0  0.70891375134E+02  0.22077907472E+02 -0.29379708498E+03  0.31030237213E+03  0.66766862577E+02 0.  0.
          5    1    1    2  502    0 -0.71806281999E+02 -0.66519300090E+02 -0.95372387385E+02  0.13672718857E+03  0.41800000000E+01 0.  1.
         -5    1    1    2    0  502  0.91490686535E+00  0.44441392617E+02 -0.75157520054E+02  0.87418531519E+02  0.41800000000E+01 0.  1.
        -11    1    3    3    0    0  0.63406166750E+02 -0.11880859759E+02 -0.17458427548E+03  0.18612137453E+03  0.00000000000E+00 0. -1.
         11    1    3    3    0    0  0.74852083841E+01  0.33958767232E+02 -0.11921280950E+03  0.12418099760E+03  0.00000000000E+00 0.  1.
</event>
<event>
 7    1  0.4096326E-006  0.1238200E+03  0.7561462E-02  0.1236925E+00
         -1   -1    0    0    0  501 -0.00000000000E+00  0.00000000000E+00  0.31804385363E+03  0.31804385363E+03  0.00000000000E+00 0.  1.
          1   -1    0    0  501    0  0.00000000000E+00 -0.00000000000E+00 -0.53260181132E+02  0.53260181132E+02  0.00000000000E+00 0. -1.
         23    2    1    2    0    0 -0.27417519343E+02  0.66417599005E+02  0.10908190362E+03  0.15904566522E+03  0.90739429706E+02 0.  0.
          5    1    1    2  502    0 -0.43659258494E+02 -0.30341802587E+02  0.24510471203E+02  0.58694049401E+02  0.41800000000E+01 0.  1.
         -5    1    1    2    0  502  0.71076777837E+02 -0.36075796418E+02  0.13119129767E+03  0.15356432014E+03  0.41800000000E+01 0.  1.
        -11    1    3    3    0    0 -0.64983485852E+01 -0.22358451330E+02  0.32328538451E+02  0.39840472871E+02  0.00000000000E+00 0. -1.
         11    1    3    3    0    0 -0.20919170758E+02  0.88776050335E+02  0.76753365172E+02  0.11920519235E+03  0.00000000000E+00 0.  1.
</event>
<event>
 7    1  0.4096326E-006  0.2668355E+03  0.7561462E-02  0.1103105E+00
         -1   -1    0    0    0  501 -0.00000000000E+00  0.00000000000E+00  0.91587689510E+02  0.91587689510E+02  0.00000000000E+00 0.  1.
          1   -1    0    0  501    0  0.00000000000E+00 -0.00000000000E+00 -0.86394760356E+03  0.86394760356E+03  0.00000000000E+00 0. -1.
         23    2    1    2    0    0  0.69463367787E+02  0.24695355947E+03 -0.44035123938E+03  0.51771256438E+03  0.91136520084E+02 0.  0.
          5    1    1    2  502    0 -0.57144801606E+02 -0.25398449701E+03 -0.27407633704E+03  0.37803301972E+03  0.41800000000E+01 0. -1.
         -5    1    1    2    0  502 -0.12318566181E+02  0.70309375410E+01 -0.57932337634E+02  0.59789708974E+02  0.41800000000E+01 0. -1.
        -11    1    3    3    0    0  0.16840505061E+02  0.11867833244E+03 -0.28671942039E+03  0.31076707552E+03  0.00000000000E+00 0. -1.
         11    1    3    3    0    0  0.52622862726E+02  0.12827522703E+03 -0.15363181900E+03  0.20694548886E+03  0.00000000000E+00 0.  1.
</event>
<event>
 7    1  0.4096326E-006  0.9337646E+02  0.7561462E-02  0.1294875E+00
         -2   -1    0    0    0  501 -0.00000000000E+00  0.00000000000E+00  0.27429123586E+02  0.27429123586E+02  0.00000000000E+00 0.  1.
          2   -1    0    0  501    0  0.00000000000E+00 -0.00000000000E+00 -0.57250487592E+03  0.57250487592E+03  0.00000000000E+00 0. -1.
         23    2    1    2    0    0  0.22237396624E+02  0.31002657814E+02 -0.23440063940E+03  0.25458887275E+03  0.91739673956E+02 0.  0.
          5    1    1    2  502    0 -0.70554267797E+01  0.26568634996E+02 -0.27375423476E+03  0.27516272433E+03  0.41800000000E+01 0. -1.
         -5    1    1    2    0  502 -0.15181969845E+02 -0.57571292809E+02 -0.36920878166E+02  0.70182402414E+02  0.41800000000E+01 0.  1.
        -11    1    3    3    0    0 -0.28793692540E+02 -0.13268026786E+02 -0.80155822785E+02  0.86197872312E+02  0.00000000000E+00 0.  1.
         11    1    3    3    0    0  0.51031089164E+02  0.44270684599E+02 -0.15424481662E+03  0.16839100044E+03  0.00000000000E+00 0. -1.
</event>
<event>
 7    1  0.4096326E-006  0.9938351E+02  0.7561462E-02  0.1281598E+00
          2   -1    0    0  501    0  0.00000000000E+00  0.00000000000E+00  0.24364609052E+03  0.24364609052E+03  0.00000000000E+00 0. -1.
         -2   -1    0    0    0  501 -0.00000000000E+00 -0.00000000000E+00 -0.57643081883E+02  0.57643081883E+02  0.00000000000E+00 0.  1.
         23    2    1    2    0    0  0.45718465302E+02  0.11632437500E+02  0.11091210419E+03  0.14795418197E+03  0.85810567153E+02 0.  0.
          5    1    1    2  502    0 -0.85153145423E+02  0.44961984274E+01  0.69649034811E+02  0.11018046300E+03  0.41800000000E+01 0.  1.
         -5    1    1    2    0  502  0.39434680121E+02 -0.16128635928E+02  0.54418696360E+01  0.43154527437E+02  0.41800000000E+01 0.  1.
        -11    1    3    3    0    0 -0.86412016298E+01 -0.89651185270E+01 -0.85464252852E+01  0.15102486582E+02  0.00000000000E+00 0.  1.
         11    1    3    3    0    0  0.54359666932E+02  0.20597556027E+02  0.11945852948E+03  0.13285169539E+03  0.00000000000E+00 0. -1.
</event>
<event>
 7    1  0.4096326E-006  0.8645386E+02  0.7561462E-02  0.1311674E+00
         -2   -1    0    0    0  501 -0.00000000000E+00  0.00000000000E+00  0.14521736408E+03  0.14521736408E+03  0.00000000000E+00 0.  1.
          2   -1    0    0  501    0  0.00000000000E+00 -0.00000000000E+00 -0.14232205943E+03  0.14232205943E+03  0.00000000000E+00 0. -1.
         23    2    1    2    0    0 -0.55120648220E+02 -0.24366246199E+02 -0.71466579975E+02  0.13002973909E+03  0.90378433154E+02 0.  0.
          5    1    1    2  502    0  0.36807345559E+02  0.36196103338E+02  0.10651411543E+03  0.11843845562E+03  0.41800000000E+01 0. -1.
         -5    1    1    2    0  502  0.18313302660E+02 -0.11829857139E+02 -0.32152230806E+02  0.39071228801E+02  0.41800000000E+01 0. -1.
        -11    1    3    3    0    0 -0.45633469710E+02  0.22655216875E+02 -0.97646208654E+01  0.51875044386E+02  0.00000000000E+00 0.  1.
         11    1    3    3    0    0 -0.94871785099E+01 -0.47021463074E+02 -0.61701959110E+02  0.78154694700E+02  0.00000000000E+00 0. -1.
</event>
<event>
 7    1  0.4096326E-006  0.1084016E+03  0.7561462E-02  0.1263559E+00
         -2   -1    0    0    0  501 -0.00000000000E+00  0.00000000000E+00  0.32491952654E+02  0.32491952654E+02  0.00000000000E+00 0.  1.
          2   -1    0    0  501    0  0.00000000000E+00 -0.00000000000E+00 -0.44260908105E+03  0.44260908105E+03  0.00000000000E+00 0. -1.
         23    2    1    2    0    0 -0.38986902179E+01  0.52967170773E+02 -0.17489166483E+03  0.20346575733E+03  0.89389591196E+02 0.  0.
          5    1    1    2  502    0 -0.28644727054E+02 -0.78968856427E+02 -0.10320791954E+03  0.13313882878E+03  0.41800000000E+01 0.  1.
         -5    1    1    2    0  502  0.32543417272E+02  0.26001685654E+02 -0.13201754403E+03  0.13849644759E+03  0.41800000000E+01 0.  1.
        -11    1    3    3    0    0 -0.38792686720E+02  0.30265605718E+02 -0.14239185402E+03  0.15065297715E+03  0.00000000000E+00 0. -1.
         11    1    3    3    0    0  0.34893996502E+02  0.22701565055E+02 -0.32499810806E+02  0.52812780179E+02  0.00000000000E+00 0.  1.
</event>
<event>
 7    1  0.4096326E-006  0.1436614E+03  0.7561462E-02  0.1208485E+00
          1   -1    0    0  501    0  0.00000000000E+00  0.00000000000E+00  0.85231800493E+03  0.85231800493E+03  0.00000000000E+00 0. -1.
         -1   -1    0    0    0  501 -0.00000000000E+00 -0.00000000000E+00 -0.25820996714E+02  0.25820996714E+02  0.00000000000E+00 0.  1.
         23    2    1    2    0    0  0.37284362180E+02  0.91029759792E+02  0.44983753613E+03  0.46924159227E+03  0.90317895085E+02 0.  0.
          5    1    1    2  502    0 -0.42632810211E+02  0.16807928903E+02  0.16439823485E+03  0.17071706125E+03  0.41800000000E+01 0. -1.
         -5    1    1    2    0  502  0.53484480313E+01 -0.10783768870E+03  0.21226123724E+03  0.23818034813E+03  0.41800000000E+01 0. -1.
        -11    1    3    3    0    0  0.48741782614E+02  0.10465734883E+03  0.37850920973E+03  0.39572483354E+03  0.00000000000E+00 0.  1.
         11    1    3    3    0    0 -0.11457420434E+02 -0.13627589034E+02  0.71328326405E+02  0.73516758726E+02  0.00000000000E+00 0. -1.
</event>
<event>
 7    1  0.4096326E-006  0.1054226E+03  0.7561462E-02  0.1269289E+00
          2   -1    0    0  501    0  0.00000000000E+00  0.00000000000E+00  0.10304704537E+03  0.10304704537E+03  0.00000000000E+00 0. -1.
         -2   -1    0    0    0  501 -0.00000000000E+00 -0.00000000000E+00 -0.21959496139E+03  0.21959496139E+03  0.00000000000E+00 0.  1.
         23    2    1    2    0    0 -0.17058394574E+02  0.11291814566E+02  0.55095209905E+02  0.10926709839E+03  0.92115811538E+02 0.  0.
          5    1    1    2  502    0 -0.48955040286E+02 -0.10954615131E+02 -0.11772877012E+03  0.12803958480E+03  0.41800000000E+01 0.  1.
         -5    1    1    2    0  502  0.66013434859E+02 -0.33719943512E+00 -0.53914355806E+02  0.85335323562E+02  0.41800000000E+01 0.  1.
        -11    1    3    3    0    0 -0.49029370147E+02  0.29841276569E+02  0.33287102471E+02  0.66350675318E+02  0.00000000000E+00 0.  1.
         11    1    3    3    0    0  0.31970975573E+02 -0.18549462004E+02  0.21808107435E+02  0.42916423076E+02  0.00000000000E+00 0. -1.
</event>
<event>
 7    1  0.5701210E-006  0.1737036E+03  0.7561462E-02  0.1174040E+00
         -2   -1    0    0    0  501 -0.00000000000E+00  0.00000000000E+00  0.20673963258E+03  0.20673963258E+03  0.00000000000E+00 0.  1.
          2   -1    0    0  501    0  0.00000000000E+00 -0.00000000000E+00 -0.15394418953E+03  0.15394418953E+03  0.00000000000E+00 0. -1.
         23    2    1    2    0    0  0.11210080098E+03  0.89933905994E+02  0.20655977052E+02  0.16745977544E+03  0.83435064416E+02 0.  0.
          5    1    1    2  502    0 -0.31890194776E+02  0.31270570888E+02  0.11982622117E+02  0.46431549181E+02  0.41800000000E+01 0. -1.
         -5    1    1    2    0  502 -0.80210606200E+02 -0.12120447688E+03  0.20156843885E+02  0.14679249749E+03  0.41800000000E+01 0. -1.
        -11    1    3    3    0    0  0.78853155759E+02  0.22562213397E+02 -0.16475368756E+02  0.83655910862E+02  0.00000000000E+00 0. -1.
         11    1    3    3    0    0  0.33247645217E+02  0.67371692598E+02  0.37131345808E+02  0.83803864574E+02  0.00000000000E+00 0.  1.
</event>
<event>
 7    1  0.4096326E-006  0.1829766E+03  0.7561462E-02  0.1164953E+00
         -1   -1    0    0    0  501 -0.00000000000E+00  0.00000000000E+00  0.43197923662E+03  0.43197923662E+03  0.00000000000E+00 0.  1.
          1   -1    0    0  501    0  0.00000000000E+00 -0.00000000000E+00 -0.92007753108E+02  0.92007753108E+02  0.00000000000E+00 0. -1.
         23    2    1    2    0    0 -0.92249780185E+02 -0.12822868996E+03  0.95468173493E+02  0.20715612488E+03  0.94057796341E+02 0.  0.
          5    1    1    2  502    0  0.11335520398E+03  0.10010940216E+03  0.23614426551E+03  0.28045121003E+03  0.41800000000E+01 0. -1.
         -5    1    1    2    0  502 -0.21105423793E+02  0.28119287798E+02  0.83590445036E+01  0.36379654819E+02  0.41800000000E+01 0. -1.
        -11    1    3    3    0    0 -0.84725807932E+02 -0.45468871977E+02  0.28097307910E+02  0.10017654197E+03  0.00000000000E+00 0. -1.
         11    1    3    3    0    0 -0.75239722529E+01 -0.82759817984E+02  0.67370865584E+02  0.10697958292E+03  0.00000000000E+00 0.  1.
</event>
<event>
 7    1  0.4096326E-006  0.1118898E+03  0.7561462E-02  0.1257110E+00
         -2   -1    0    0    0  501 -0.00000000000E+00  0.00000000000E+00  0.46339100770E+02  0.46339100770E+02  0.00000000000E+00 0.  1.
          2   -1    0    0  501    0  0.00000000000E+00 -0.00000000000E+00 -0.44792546069E+03  0.44792546069E+03  0.00000000000E+00 0. -1.
         23    2    1    2    0    0 -0.50060632649E+02 -0.79475819864E+02 -0.20641846550E+03  0.24414303982E+03  0.90414424231E+02 0.  0.
          5    1    1    2  502    0  0.46794144778E+01  0.54115885465E+02 -0.19006482560E+03  0.19771832568E+03  0.41800000000E+01 0.  1.
         -5    1    1    2    0  502  0.45381218171E+02  0.25359934399E+02 -0.51030688196E+01  0.52403195960E+02  0.41800000000E+01 0.  1.
        -11    1    3    3    0    0  0.88145221938E+01 -0.50983450604E+02 -0.40208576560E+02  0.65526617996E+02  0.00000000000E+00 0.  1.
         11    1    3    3    0    0 -0.58875154843E+02 -0.28492369260E+02 -0.16620988894E+03  0.17861642183E+03  0.00000000000E+00 0. -1.
</event>
<event>
 7    1  0.4096326E-006  0.2404550E+03  0.7561462E-02  0.1119490E+00
         -1   -1    0    0    0  501 -0.00000000000E+00  0.00000000000E+00  0.40937510831E+02  0.40937510831E+02  0.00000000000E+00 0.  1.
          1   -1    0    0  501    0  0.00000000000E+00 -0.00000000000E+00 -0.16883986388E+04  0.16883986388E+04  0.00000000000E+00 0. -1.
         23    2    1    2    0    0  0.20663360595E+03 -0.10954633225E+03 -0.96392756688E+03  0.99614849401E+03  0.91965329867E+02 0.  0.
          5    1    1    2  502    0 -0.15785620856E+03  0.81344543808E+02 -0.32632533942E+03  0.37153898441E+03  0.41800000000E+01 0.  1.
         -5    1    1    2    0  502 -0.48777397387E+02  0.28201788443E+02 -0.35720822170E+03  0.36164867125E+03  0.41800000000E+01 0.  1.
        -11    1    3    3    0    0  0.10642615992E+03 -0.10014051552E+03 -0.47506222188E+03  0.49702994378E+03  0.00000000000E+00 0. -1.
         11    1    3    3    0    0  0.10020744603E+03 -0.94058167327E+01 -0.48886534501E+03  0.49911855022E+03  0.00000000000E+00 0.  1.
</event>
<event>
 6    1  0.4096326E-006  0.1449973E+03  0.7561462E-02  0.1206759E+00
          1   -1    0    0  501    0  0.00000000000E+00  0.00000000000E+00  0.78174766517E+02  0.78174766517E+02  0.00000000000E+00 0. -1.
         -1   -1    0    0    0  501 -0.00000000000E+00 -0.00000000000E+00 -0.47010284641E+03  0.47010284641E+03  0.00000000000E+00 0.  1.
          5    1    1    2  502    0 -0.64668481780E+01 -0.28465726829E+02 -0.25121699707E+01  0.29595626826E+02  0.41800000000E+01 0.  1.
         -5    1    1    2    0  502 -0.65202523600E+02  0.58696340600E+01 -0.28962561357E+03  0.29696176543E+03  0.41800000000E+01 0.  1.
        -11    1    1    2    0    0  0.11878303541E+03  0.61542514024E+02 -0.86060696222E+02  0.15907021710E+03  0.00000000000E+00 0. -1.
         11    1    1    2    0    0 -0.47113663627E+02 -0.38946421255E+02 -0.13729600129E+02  0.62650003581E+02  0.00000000000E+00 0.  1.
</event>
<event>
 7    1  0.4096326E-006  0.7961382E+02  0.7561462E-02  0.1330151E+00
         -1   -1    0    0    0  501 -0.00000000000E+00  0.00000000000E+00  0.50661586939E+02  0.50661586939E+02  0.00000000000E+00 0.  1.
          1   -1    0    0  501    0  0.00000000000E+00 -0.00000000000E+00 -0.28652297717E+03  0.28652297717E+03  0.00000000000E+00 0. -1.
         23    2    1    2    0    0  0.26882299148E+02  0.16733775894E+02 -0.17851313268E+03  0.20072357946E+03  0.86141392783E+02 0.  0.
          5    1    1    2  502    0  0.28840300181E+02  0.17305453341E+01 -0.70371505194E+02  0.76186474160E+02  0.41800000000E+01 0. -1.
         -5    1    1    2    0  502 -0.55722599329E+02 -0.18464321228E+02  0.13023247647E+02  0.60274510480E+02  0.41800000000E+01 0.  1.
        -11    1    3    3    0    0  0.17799874928E+01  0.38147407722E+02 -0.29927359572E+02  0.48518449299E+02  0.00000000000E+00 0. -1.
         11    1    3    3    0    0  0.25102311655E+02 -0.21413631829E+02 -0.14858577311E+03  0.15220513017E+03  0.00000000000E+00 0.  1.
</event>
<event>
 7    1  0.4096326E-006  0.1598043E+03  0.7561462E-02  0.1188918E+00
          2   -1    0    0  501    0  0.00000000000E+00  0.00000000000E+00  0.98195011421E+03  0.98195011421E+03  0.00000000000E+00 0. -1.
         -2   -1    0    0    0  501 -0.00000000000E+00 -0.00000000000E+00 -0.31499222844E+02  0.31499222844E+02  0.00000000000E+00 0.  1.
         23    2    1    2    0    0 -0.36538766944E+02 -0.11868189454E+03  0.61796027134E+03  0.63712659252E+03  0.92924293708E+02 0.  0.
          5    1    1    2  502    0  0.83009588244E+02  0.69462659950E+02  0.19754984958E+03  0.22529773265E+03  0.41800000000E+01 0. -1.
         -5    1    1    2    0  502 -0.46470821300E+02  0.49219234592E+02  0.13494077044E+03  0.15102501188E+03  0.41800000000E+01 0. -1.
        -11    1    3    3    0    0 -0.57670039297E+02 -0.72165694944E+02  0.50172328320E+03  0.51015681302E+03  0.00000000000E+00 0.  1.
         11    1    3    3    0    0  0.21131272352E+02 -0.46516199598E+02  0.11623698814E+03  0.12696977950E+03  0.00000000000E+00 0. -1.
</event>
<event>
 7    1  0.4096326E-006  0.1390197E+03  0.7561462E-02  0.1214654E+00
         -3   -1    0    0    0  501 -0.00000000000E+00  0.00000000000E+00  0.10642034672E+03  0.10642034672E+03  0.00000000000E+00 0.  1.
          3   -1    0    0  501    0  0.00000000000E+00 -0.00000000000E+00 -0.30252436503E+03  0.30252436503E+03  0.00000000000E+00 0. -1.
         23    2    1    2    0    0  0.45416358696E+02 -0.89575357247E+02 -0.20703831234E+03  0.24815269662E+03  0.92889761543E+02 0.  0.
          5    1    1    2  502    0  0.34246894316E+01  0.96147343384E+02 -0.25198072950E+02  0.99541224716E+02  0.41800000000E+01 0. -1.
         -5    1    1    2    0  502 -0.48841048128E+02 -0.65719861378E+01  0.36132366978E+02  0.61250790423E+02  0.41800000000E+01 0. -1.
        -11    1    3    3    0    0 -0.36516864485E+01  0.15707480249E+02 -0.87492603697E+01  0.18346915454E+02  0.00000000000E+00 0.  1.
         11    1    3    3    0    0  0.49068045145E+02 -0.10528283750E+03 -0.19828905197E+03  0.22980578116E+03  0.00000000000E+00 0. -1.
</event>
<event>
 7    1  0.4096326E-006  0.6883291E+02  0.7561462E-02  0.1364107E+00
         -3   -1    0    0    0  501 -0.00000000000E+00  0.00000000000E+00  0.29476303761E+02  0.29476303761E+02  0.00000000000E+00 0.  1.
          3   -1    0    0  501    0  0.00000000000E+00 -0.00000000000E+00 -0.44192793153E+03  0.44192793153E+03  0.00000000000E+00 0. -1.
         23    2    1    2    0    0 -0.30988818474E+02 -0.16386272815E+00 -0.15467007180E+03  0.18320372038E+03  0.93168869955E+02 0.  0.
          5    1    1    2  502    0  0.28252302405E+02  0.37006408326E+02 -0.24417488337E+03  0.24860915695E+03  0.41800000000E+01 0.  1.
         -5    1    1    2    0  502  0.27365160693E+01 -0.36842545598E+02 -0.13606672598E+02  0.39591357965E+02  0.41800000000E+01 0.  1.
        -11    1    3    3    0    0  0.43503204116E+01 -0.14847929849E+02  0.70607297112E+01  0.17007063608E+02  0.00000000000E+00 0.  1.
         11    1    3    3    0    0 -0.35339138886E+02  0.14684067121E+02 -0.16173080152E+03  0.16619665678E+03  0.00000000000E+00 0. -1.
</event>
<event>
 7    1  0.4096326E-006  0.1223123E+03  0.7561462E-02  0.1239331E+00
         -4   -1    0    0    0  501 -0.00000000000E+00  0.00000000000E+00  0.65933862419E+03  0.65933862419E+03  0.00000000000E+00 0. -1.
          4   -1    0    0  501    0  0.00000000000E+00 -0.00000000000E+00 -0.35525073342E+02  0.35525073342E+02  0.00000000000E+00 0.  1.
         23    2    1    2    0    0  0.97071665048E+02  0.26231813739E+02  0.19775334185E+03  0.23957637335E+03  0.90440246824E+02 0.  0.
          5    1    1    2  502    0  0.22002516691E+02 -0.60308651481E+01  0.17019743069E+02  0.28768491954E+02  0.41800000000E+01 0. -1.
         -5    1    1    2    0  502 -0.11907418174E+03 -0.20200948591E+02  0.40904046592E+03  0.42651883223E+03  0.41800000000E+01 0. -1.
        -11    1    3    3    0    0  0.43301321074E+02  0.12952138221E+02  0.13487211349E+02  0.47166377445E+02  0.00000000000E+00 0.  1.
         11    1    3    3    0    0  0.53770343974E+02  0.13279675518E+02  0.18426613050E+03  0.19240999590E+03  0.00000000000E+00 0. -1.
</event>
<event>
 7    1  0.4096326E-006  0.1832695E+03  0.7561462E-02  0.1164676E+00
         -2   -1    0    0    0  501 -0.00000000000E+00  0.00000000000E+00  0.10282553366E+04  0.10282553366E+04  0.00000000000E+00 0.  1.
          2   -1    0    0  501    0  0.00000000000E+00 -0.00000000000E+00 -0.59185485131E+02  0.59185485131E+02  0.00000000000E+00 0. -1.
         23    2    1    2    0    0  0.16394222235E+03  0.33245894574E+01  0.14904338496E+03  0.24187639862E+03  0.96964717523E+02 0.  0.
          5    1    1    2  502    0 -0.10765977538E+03 -0.59131561446E+02  0.41418219251E+03  0.43203186200E+03  0.41800000000E+01 0. -1.
         -5    1    1    2    0  502 -0.56282446974E+02  0.55806971989E+02  0.40584427396E+03  0.41353256107E+03  0.41800000000E+01 0. -1.
        -11    1    3    3    0    0  0.84908364635E+02 -0.31728361301E+01  0.13764914785E+03  0.16176150710E+03  0.00000000000E+00 0.  1.
         11    1    3    3    0    0  0.79033857715E+02  0.64974255876E+01  0.11394237112E+02  0.80114891524E+02  0.00000000000E+00 0. -1.
</event>
<event>
 7    1  0.4096326E-006  0.8596047E+02  0.7561462E-02  0.1312940E+00
          4   -1    0    0  501    0  0.00000000000E+00  0.00000000000E+00  0.42573682605E+02  0.42573682605E+02  0.00000000000E+00 0. -1.
         -4   -1    0    0    0  501 -0.00000000000E+00 -0.00000000000E+00 -0.34750549637E+03  0.34750549637E+03  0.00000000000E+00 0.  1.
         23    2    1    2    0    0 -0.42561556492E+02 -0.18959043147E+01 -0.78086164317E+02  0.12754950748E+03  0.91413058455E+02 0.  0.
          5    1    1    2  502    0 -0.24057829847E+02  0.20129101383E+01 -0.17834326891E+03  0.18001840169E+03  0.41800000000E+01 0.  1.
         -5    1    1    2    0  502  0.66619386339E+02 -0.11700582356E+00 -0.48502380544E+02  0.82511269806E+02  0.41800000000E+01 0.  1.
        -11    1    3    3    0    0 -0.61600011659E+02 -0.19484159291E+01 -0.86927132762E+02  0.10655836040E+03  0.00000000000E+00 0.  1.
         11    1    3    3    0    0  0.19038455167E+02  0.52511614386E-01  0.88409684445E+01  0.20991147078E+02  0.00000000000E+00 0. -1.
</event>
<event>
 7    1  0.4096326E-006  0.9119802E+02  0.7561462E-02  0.1299976E+00
          1   -1    0    0  501    0  0.00000000000E+00  0.00000000000E+00  0.42284539891E+03  0.42284539891E+03  0.00000000000E+00 0. -1.
         -1   -1    0    0    0  501 -0.00000000000E+00 -0.00000000000E+00 -0.29857964067E+02  0.29857964067E+02  0.00000000000E+00 0.  1.
         23    2    1    2    0    0  0.13135280772E+02  0.15089012019E+02  0.21519025326E+03  0.23439265466E+03  0.90735095613E+02 0.  0.
          5    1    1    2  502    0  0.17030930923E+02 -0.44817010599E+02  0.16783929448E+03  0.17460274402E+03  0.41800000000E+01 0.  1.
         -5    1    1    2    0  502 -0.30166211695E+02  0.29727998581E+02  0.99578871047E+01  0.43707964300E+02  0.41800000000E+01 0.  1.
        -11    1    3    3    0    0  0.10615159842E+02 -0.37545350380E+02  0.73371753404E+02  0.83100837247E+02  0.00000000000E+00 0. -1.
         11    1    3    3    0    0  0.25201209304E+01  0.52634362399E+02  0.14181849985E+03  0.15129181741E+03  0.00000000000E+00 0.  1.
</event>
<event>
 7    1  0.4096326E-006  0.1571464E+03  0.7561462E-02  0.1191957E+00
         -1   -1    0    0    0  501 -0.00000000000E+00  0.00000000000E+00  0.85183891260E+02  0.85183891260E+02  0.00000000000E+00 0.  1.
          1   -1    0    0  501    0  0.00000000000E+00 -0.00000000000E+00 -0.32985876665E+03  0.32985876665E+03  0.00000000000E+00 0. -1.
         23    2    1    2    0    0  0.10509321443E+03 -0.62146454040E+02 -0.15905354438E+03  0.22040160870E+03  0.91499036441E+02 0.  0.
          5    1    1    2  502    0  0.67241596980E+01  0.60413574830E+02 -0.44360418856E+02  0.75367987293E+02  0.41800000000E+01 0. -1.
         -5    1    1    2    0  502 -0.11181737413E+03  0.17328792093E+01 -0.41260912156E+02  0.11927306192E+03  0.41800000000E+01 0. -1.
        -11    1    3    3    0    0  0.56672255223E+02  0.69322763650E+01 -0.10698717518E+03  0.12126853104E+03  0.00000000000E+00 0. -1.
         11    1    3    3    0    0  0.48420959208E+02 -0.69078730405E+02 -0.52066369199E+02  0.99133077661E+02  0.00000000000E+00 0.  1.
</event>
<event>
 7    1  0.4096326E-006  0.9985491E+02  0.7561462E-02  0.1280601E+00
         -2   -1    0    0    0  501 -0.00000000000E+00  0.00000000000E+00  0.32590527331E+02  0.32590527331E+02  0.00000000000E+00 0. -1.
          2   -1    0    0  501    0  0.00000000000E+00 -0.00000000000E+00 -0.52963104971E+03  0.52963104971E+03  0.00000000000E+00 0.  1.
         23    2    1    2    0    0  0.29050468036E+02 -0.60762161324E+01 -0.13746270635E+03  0.18035321927E+03  0.11291783726E+03 0.  0.
          5    1    1    2  502    0 -0.47001747328E+02  0.43809172446E+02 -0.31126809944E+03  0.31785800284E+03  0.41800000000E+01 0. -1.
         -5    1    1    2    0  502  0.17951279292E+02 -0.37732956314E+02 -0.48309716595E+02  0.64010354927E+02  0.41800000000E+01 0. -1.
        -11    1    3    3    0    0  0.91266218255E+01  0.41108056317E+02 -0.11846289097E+03  0.12572439722E+03  0.00000000000E+00 0.  1.
         11    1    3    3    0    0  0.19923846210E+02 -0.47184272449E+02 -0.18999815378E+02  0.54628822052E+02  0.00000000000E+00 0. -1.
</event>
<event>
 7    1  0.4096326E-006  0.9220791E+02  0.7561462E-02  0.1297591E+00
         -2   -1    0    0    0  501 -0.00000000000E+00  0.00000000000E+00  0.13340604949E+02  0.13340604949E+02  0.00000000000E+00 0. -1.
          2   -1    0    0  501    0  0.00000000000E+00 -0.00000000000E+00 -0.10469912978E+04  0.10469912978E+04  0.00000000000E+00 0.  1.
         23    2    1    2    0    0 -0.26476290712E+02  0.35281742799E+02 -0.50091235563E+03  0.51133005027E+03  0.92733149083E+02 0.  0.
          5    1    1    2  502    0 -0.16852131825E+02  0.91796342506E+01 -0.41813892702E+03  0.41859992203E+03  0.41800000000E+01 0.  1.
         -5    1    1    2    0  502  0.43328422538E+02 -0.44461377049E+02 -0.11459941023E+03  0.13040193048E+03  0.41800000000E+01 0.  1.
        -11    1    3    3    0    0  0.34499640991E+02  0.19242285351E+02 -0.20593961980E+03  0.20969410525E+03  0.00000000000E+00 0. -1.
         11    1    3    3    0    0 -0.60975931703E+02  0.16039457448E+02 -0.29497273584E+03  0.30163594502E+03  0.00000000000E+00 0.  1.
</event>
<event>
 7    1  0.4096326E-006  0.1951949E+03  0.7561462E-02  0.1153858E+00
         -1   -1    0    0    0  501 -0.00000000000E+00  0.00000000000E+00  0.51123427950E+03  0.51123427950E+03  0.00000000000E+00 0.  1.
          1   -1    0    0  501    0  0.00000000000E+00 -0.00000000000E+00 -0.95315008147E+02  0.95315008147E+02  0.00000000000E+00 0. -1.
         23    2    1    2    0    0 -0.16675176955E+03 -0.35940170595E+02  0.80591553489E+02  0.21007707855E+03  0.92409587840E+02 0.  0.
          5    1    1    2  502    0  0.18078274835E+03  0.17792579675E+02  0.25699307382E+03  0.31474098936E+03  0.41800000000E+01 0.  1.
         -5    1    1    2    0  502 -0.14030978800E+02  0.18147590920E+02  0.78334644046E+02  0.81731219740E+02  0.41800000000E+01 0.  1.
        -11    1    3    3    0    0  0.72012211391E+00 -0.16789878094E+02  0.29482782232E+02  0.33936013768E+02  0.00000000000E+00 0.  1.
         11    1    3    3    0    0 -0.16747189167E+03 -0.19150292501E+02  0.51108771257E+02  0.17614106478E+03  0.00000000000E+00 0. -1.
</event>
<event>
 7    1  0.4096326E-006  0.1286901E+03  0.7561462E-02  0.1229412E+00
          2   -1    0    0  501    0  0.00000000000E+00  0.00000000000E+00  0.60750085444E+03  0.60750085444E+03  0.00000000000E+00 0. -1.
         -2   -1    0    0    0  501 -0.00000000000E+00 -0.00000000000E+00 -0.35661904968E+02  0.35661904968E+02  0.00000000000E+00 0.  1.
         23    2    1    2    0    0  0.83432724908E+02  0.52044893592E+02  0.28449812638E+03  0.31470955465E+03  0.91832615875E+02 0.  0.
          5    1    1    2  502    0 -0.58729692943E+01 -0.77082495982E+02  0.13450686055E+03  0.15519591132E+03  0.41800000000E+01 0.  1.
         -5    1    1    2    0  502 -0.77559755614E+02  0.25037602390E+02  0.15283396254E+03  0.17325729344E+03  0.41800000000E+01 0.  1.
        -11    1    3    3    0    0  0.28593800575E+02  0.16767607717E+02  0.13189508673E+02  0.35675218835E+02  0.00000000000E+00 0.  1.
         11    1    3    3    0    0  0.54838924333E+02  0.35277285875E+02  0.27130861770E+03  0.27903433581E+03  0.00000000000E+00 0. -1.
</event>
<event>
 7    1  0.4096326E-006  0.1069299E+03  0.7561462E-02  0.1266363E+00
         -3   -1    0    0    0  501 -0.00000000000E+00  0.00000000000E+00  0.69703373986E+02  0.69703373986E+02  0.00000000000E+00 0.  1.
          3   -1    0    0  501    0  0.00000000000E+00 -0.00000000000E+00 -0.22134253085E+03  0.22134253085E+03  0.00000000000E+00 0. -1.
         23    2    1    2    0    0  0.19168072793E+02  0.22445039932E+02 -0.12929993891E+03  0.16059573520E+03  0.90561145820E+02 0.  0.
          5    1    1    2  502    0 -0.63637343615E+02  0.15717207109E+02 -0.28057552892E+02  0.71424371023E+02  0.41800000000E+01 0.  1.
         -5    1    1    2    0  502  0.44469270822E+02 -0.38162247041E+02  0.57183349375E+01  0.59025798606E+02  0.41800000000E+01 0.  1.
        -11    1    3    3    0    0  0.44837932669E+02 -0.12051776663E+02 -0.39213572663E+02  0.60773265568E+02  0.00000000000E+00 0.  1.
         11    1    3    3    0    0 -0.25669859876E+02  0.34496816595E+02 -0.90086366243E+02  0.99822469636E+02  0.00000000000E+00 0. -1.
</event>
<event>
 7    1  0.4096326E-006  0.6858408E+02  0.7561462E-02  0.1364975E+00
         -3   -1    0    0    0  501 -0.00000000000E+00  0.00000000000E+00  0.99563840296E+02  0.99563840296E+02  0.00000000000E+00 0.  1.
          3   -1    0    0  501    0  0.00000000000E+00 -0.00000000000E+00 -0.11769791581E+03  0.11769791581E+03  0.00000000000E+00 0. -1.
         23    2    1    2    0    0 -0.81045297618E+01 -0.26403506840E+01 -0.15475923061E+02  0.91854241831E+02  0.90139018706E+02 0.  0.
          5    1    1    2  502    0  0.32031942850E+02  0.27708622817E+02 -0.50591234345E+02  0.66111712530E+02  0.41800000000E+01 0.  1.
         -5    1    1    2    0  502 -0.23927413088E+02 -0.25068272133E+02  0.47933081892E+02  0.59295801744E+02  0.41800000000E+01 0.  1.
        -11    1    3    3    0    0 -0.65648873905E+01  0.28134289330E+02 -0.42149288546E+02  0.51099887549E+02  0.00000000000E+00 0. -1.
         11    1    3    3    0    0 -0.15396423713E+01 -0.30774640014E+02  0.26673365485E+02  0.40754354282E+02  0.00000000000E+00 0.  1.
</event>
<event>
 7    1  0.4096326E-006  0.1077534E+03  0.7561462E-02  0.1264788E+00
          2   -1    0    0  501    0  0.00000000000E+00  0.00000000000E+00  0.40228516470E+03  0.40228516470E+03  0.00000000000E+00 0. -1.
         -2   -1    0    0    0  501 -0.00000000000E+00 -0.00000000000E+00 -0.37384932381E+02  0.37384932381E+02  0.00000000000E+00 0.  1.
         23    2    1    2    0    0 -0.42622816347E+02  0.33961166594E+02  0.23455442665E+03  0.25096958446E+03  0.70709885828E+02 0.  0.
          5    1    1    2  502    0 -0.40550829892E+02 -0.15070882601E+02  0.75787785013E+02  0.87365680129E+02  0.41800000000E+01 0.  1.
         -5    1    1    2    0  502  0.83173646238E+02 -0.18890283993E+02  0.54558020657E+02  0.10133483249E+03  0.41800000000E+01 0.  1.
        -11    1    3    3    0    0 -0.43175897071E+02 -0.86514096277E+01  0.14928321329E+03  0.15564216249E+03  0.00000000000E+00 0. -1.
         11    1    3    3    0    0  0.55308072429E+00  0.42612576222E+02  0.85271213359E+02  0.95327421964E+02  0.00000000000E+00 0.  1.
</event>
<event>
 7    1  0.4096326E-006  0.8890927E+02  0.7561462E-02  0.1305515E+00
         -1   -1    0    0    0  501 -0.00000000000E+00  0.00000000000E+00  0.83364139977E+02  0.83364139977E+02  0.00000000000E+00 0.  1.
          1   -1    0    0  501    0  0.00000000000E+00 -0.00000000000E+00 -0.26531024585E+03  0.26531024585E+03  0.00000000000E+00 0. -1.
         23    2    1    2    0    0  0.38436364572E+02 -0.17476294372E+02 -0.19101724679E+03  0.21634003876E+03  0.92372337923E+02 0.  0.
          5    1    1    2  502    0 -0.57593605540E+02 -0.17129820601E+02 -0.37606684701E+02  0.71008374768E+02  0.41800000000E+01 0.  1.
         -5    1    1    2    0  502  0.19157240968E+02  0.34606114972E+02  0.46677825613E+02  0.61325972303E+02  0.41800000000E+01 0.  1.
        -11    1    3    3    0    0 -0.53030211807E+01 -0.31449962461E+02 -0.16551300176E+02  0.35932822182E+02  0.00000000000E+00 0.  1.
         11    1    3    3    0    0  0.43739385753E+02  0.13973668089E+02 -0.17446594661E+03  0.18040721658E+03  0.00000000000E+00 0. -1.
</event>
<event>
 7    1  0.4096326E-006  0.1066524E+03  0.7561462E-02  0.1266898E+00
          1   -1    0    0  501    0  0.00000000000E+00  0.00000000000E+00  0.43406855148E+03  0.43406855148E+03  0.00000000000E+00 0.  1.
         -1   -1    0    0    0  501 -0.00000000000E+00 -0.00000000000E+00 -0.48106718953E+02  0.48106718953E+02  0.00000000000E+00 0. -1.
         23    2    1    2    0    0  0.22333288073E+02  0.68379985675E+02  0.27872234867E+03  0.30239069789E+03  0.92624987595E+02 0.  0.
          5    1    1    2  502    0 -0.40652143588E+02 -0.16130541390E+02  0.11556861384E+03  0.12363805260E+03  0.41800000000E+01 0.  1.
         -5    1    1    2    0  502  0.18318855516E+02 -0.52249444286E+02 -0.83291299865E+01  0.56146519945E+02  0.41800000000E+01 0.  1.
        -11    1    3    3    0    0 -0.33121334629E+02  0.38730140513E+02  0.16173362236E+03  0.16957243642E+03  0.00000000000E+00 0. -1.
         11    1    3    3    0    0  0.55454622702E+02  0.29649845163E+02  0.11698872631E+03  0.13281826148E+03  0.00000000000E+00 0.  1.
</event>
<event>
 7    1  0.4096326E-006  0.1912133E+03  0.7561462E-02  0.1157372E+00
         -1   -1    0    0    0  501 -0.00000000000E+00  0.00000000000E+00  0.35687334923E+03  0.35687334923E+03  0.00000000000E+00 0.  1.
          1   -1    0    0  501    0  0.00000000000E+00 -0.00000000000E+00 -0.11755507540E+03  0.11755507540E+03  0.00000000000E+00 0. -1.
         23    2    1    2    0    0 -0.78127416521E+02  0.14804730367E+03  0.62138996447E+02  0.20045384407E+03  0.91096604684E+02 0.  0.
          5    1    1    2  502    0 -0.21717155468E+02 -0.85007337683E+02  0.53108024646E+02  0.10264412786E+03  0.41800000000E+01 0.  1.
         -5    1    1    2    0  502  0.99844571989E+02 -0.63039965990E+02  0.12407125274E+03  0.17133045271E+03  0.41800000000E+01 0.  1.
        -11    1    3    3    0    0 -0.65545540439E+02  0.15000663004E+03  0.76980618683E+02  0.18089837639E+03  0.00000000000E+00 0.  1.
         11    1    3    3    0    0 -0.12581876082E+02 -0.19593263655E+01 -0.14841622237E+02  0.19555467680E+02  0.00000000000E+00 0. -1.
</event>
<event>
 7    1  0.4096326E-006  0.1294507E+03  0.7561462E-02  0.1228273E+00
         -2   -1    0    0    0  501 -0.00000000000E+00  0.00000000000E+00  0.35936263044E+03  0.35936263044E+03  0.00000000000E+00 0.  1.
          2   -1    0    0  501    0  0.00000000000E+00 -0.00000000000E+00 -0.54621044919E+02  0.54621044919E+02  0.00000000000E+00 0. -1.
         23    2    1    2    0    0 -0.58430443251E+02 -0.64409582578E+02  0.11307722461E+03  0.16914694472E+03  0.90892899365E+02 0.  0.
          5    1    1    2  502    0 -0.34385704927E+02 -0.58496634238E+01  0.55048727231E+02  0.65302603587E+02  0.41800000000E+01 0. -1.
         -5    1    1    2    0  502  0.92816148178E+02  0.70259246002E+02  0.13661563368E+03  0.17953412705E+03  0.41800000000E+01 0. -1.
        -11    1    3    3    0    0 -0.21590067476E+02 -0.66964191804E+02  0.26784495466E+02  0.75284415352E+02  0.00000000000E+00 0. -1.
         11    1    3    3    0    0 -0.36840375774E+02  0.25546092256E+01  0.86292729144E+02  0.93862529364E+02  0.00000000000E+00 0.  1.
</event>
<event>
 7    1  0.4096326E-006  0.7110033E+02  0.7561462E-02  0.1356391E+00
         -2   -1    0    0    0  501 -0.00000000000E+00  0.00000000000E+00  0.21781571068E+02  0.21781571068E+02  0.00000000000E+00 0. -1.
          2   -1    0    0  501    0  0.00000000000E+00 -0.00000000000E+00 -0.59153294112E+03  0.59153294112E+03  0.00000000000E+00 0.  1.
         23    2    1    2    0    0 -0.33065747166E+01  0.26247884325E+02 -0.29884215148E+03  0.31375100209E+03  0.91832319723E+02 0.  0.
          5    1    1    2  502    0 -0.16138387088E+02 -0.22614989603E+02 -0.19585079421E+00  0.28096192804E+02  0.41800000000E+01 0. -1.
         -5    1    1    2    0  502  0.19444961805E+02 -0.36328947220E+01 -0.27071336778E+03  0.27146731729E+03  0.41800000000E+01 0. -1.
        -11    1    3    3    0    0  0.43350267145E+02  0.10066223567E+02 -0.17117430827E+03  0.17686497203E+03  0.00000000000E+00 0.  1.
         11    1    3    3    0    0 -0.46656841862E+02  0.16181660758E+02 -0.12766784321E+03  0.13688603006E+03  0.00000000000E+00 0. -1.
</event>
<event>
 7    1  0.4096326E-006  0.1064705E+03  0.7561462E-02  0.1267249E+00
          2   -1    0    0  501    0  0.00000000000E+00  0.00000000000E+00  0.42429452800E+03  0.42429452800E+03  0.00000000000E+00 0. -1.
         -2   -1    0    0    0  501 -0.00000000000E+00 -0.00000000000E+00 -0.52479615413E+02  0.52479615413E+02  0.00000000000E+00 0.  1.
         23    2    1    2    0    0 -0.61798122292E+02  0.43524440554E+02  0.28056638938E+03  0.30448379579E+03  0.90991747979E+02 0.  0.
          5    1    1    2  502    0  0.75785134660E+02 -0.17688204693E+02  0.11173578120E+03  0.13623001292E+03  0.41800000000E+01 0.  1.
         -5    1    1    2    0  502 -0.13987012368E+02 -0.25836235861E+02 -0.20487257999E+02  0.36060334701E+02  0.41800000000E+01 0.  1.
        -11    1    3    3    0    0  0.14633144943E+02 -0.42001738480E+01  0.75725739865E+01  0.17003360493E+02  0.00000000000E+00 0.  1.
         11    1    3    3    0    0 -0.76431267235E+02  0.47724614402E+02  0.27299381540E+03  0.28748043529E+03  0.00000000000E+00 0. -1.
</event>
<event>
 7    1  0.4096326E-006  0.1783689E+03  0.7561462E-02  0.1169391E+00
          4   -1    0    0  501    0  0.00000000000E+00  0.00000000000E+00  0.66190668114E+02  0.66190668114E+02  0.00000000000E+00 0. -1.
         -4   -1    0    0    0  501 -0.00000000000E+00 -0.00000000000E+00 -0.55562405488E+03  0.55562405488E+03  0.00000000000E+00 0.  1.
         23    2    1    2    0    0  0.36066607329E+02 -0.14383726458E+03 -0.14633539667E+03  0.22766483187E+03  0.91800155251E+02 0.  0.
          5    1    1    2  502    0  0.41780149157E+02  0.49284408952E+02 -0.17126190904E+03  0.18309191057E+03  0.41800000000E+01 0. -1.
         -5    1    1    2    0  502 -0.77846756486E+02  0.94552855629E+02 -0.17183608106E+03  0.21105798056E+03  0.41800000000E+01 0. -1.
        -11    1    3    3    0    0  0.35383425204E+01 -0.13592111243E+03 -0.13675230282E+03  0.19284258088E+03  0.00000000000E+00 0.  1.
         11    1    3    3    0    0  0.32528264809E+02 -0.79161521472E+01 -0.95830938520E+01  0.34822250991E+02  0.00000000000E+00 0. -1.
</event>
<event>
 7    1  0.4096326E-006  0.2644866E+03  0.7561462E-02  0.1104477E+00
          2   -1    0    0  501    0  0.00000000000E+00  0.00000000000E+00  0.12369811664E+04  0.12369811664E+04  0.00000000000E+00 0. -1.
         -2   -1    0    0    0  501 -0.00000000000E+00 -0.00000000000E+00 -0.81195820207E+02  0.81195820207E+02  0.00000000000E+00 0.  1.
         23    2    1    2    0    0 -0.93532380042E+02 -0.22884530016E+03  0.91181548799E+03  0.94900582935E+03  0.89922758381E+02 0.  0.
          5    1    1    2  502    0  0.10470744591E+03  0.13052991473E+03  0.20002087832E+03  0.26082088113E+03  0.41800000000E+01 0. -1.
         -5    1    1    2    0  502 -0.11175065865E+02  0.98315385436E+02  0.43948979920E+02  0.10835027617E+03  0.41800000000E+01 0. -1.
        -11    1    3    3    0    0  0.16558148286E+02 -0.48570106644E+02  0.20299866380E+03  0.20938406109E+03  0.00000000000E+00 0. -1.
         11    1    3    3    0    0 -0.11009052833E+03 -0.18027519352E+03  0.70881682419E+03  0.73962176826E+03  0.00000000000E+00 0.  1.
</event>
<event>
 7    1  0.4096326E-006  0.2587911E+03  0.7561462E-02  0.1107872E+00
          2   -1    0    0  501    0  0.00000000000E+00  0.00000000000E+00  0.62060353396E+03  0.62060353396E+03  0.00000000000E+00 0.  1.
         -2   -1    0    0    0  501 -0.00000000000E+00 -0.00000000000E+00 -0.11849819419E+03  0.11849819419E+03  0.00000000000E+00 0. -1.
         23    2    1    2    0    0  0.52415401916E+02  0.23614194280E+03  0.31985121017E+03  0.41142026777E+03  0.91931760450E+02 0.  0.
          5    1    1    2  502    0 -0.57071706585E+02 -0.60742802537E+02  0.14133046600E+02  0.84640907124E+02  0.41800000000E+01 0.  1.
         -5    1    1    2    0  502  0.46563046684E+01 -0.17539914027E+03  0.16812108301E+03  0.24304055326E+03  0.41800000000E+01 0.  1.
        -11    1    3    3    0    0  0.62853015723E+02  0.78180764748E+02  0.11725728362E+03  0.15431138689E+03  0.00000000000E+00 0.  1.
         11    1    3    3    0    0 -0.10437613806E+02  0.15796117805E+03  0.20259392655E+03  0.25710888088E+03  0.00000000000E+00 0. -1.
</event>
<event>
 7    1  0.4096326E-006  0.1374313E+03  0.7561462E-02  0.1216828E+00
          1   -1    0    0  501    0  0.00000000000E+00  0.00000000000E+00  0.48571915849E+03  0.48571915849E+03  0.00000000000E+00 0. -1.
         -1   -1    0    0    0  501 -0.00000000000E+00 -0.00000000000E+00 -0.61648949558E+02  0.61648949558E+02  0.00000000000E+00 0.  1.
         23    2    1    2    0    0  0.11679896339E+03  0.34053432013E+02  0.28323450751E+03  0.32312857923E+03  0.96895089623E+02 0.  0.
          5    1    1    2  502    0 -0.11002554478E+03 -0.37565358596E+02  0.39988233666E+02  0.12301751055E+03  0.41800000000E+01 0.  1.
         -5    1    1    2    0  502 -0.67734186096E+01  0.35119265828E+01  0.10084746776E+03  0.10122201827E+03  0.41800000000E+01 0.  1.
        -11    1    3    3    0    0  0.81970417834E+02  0.63918920556E+02  0.23277485852E+03  0.25492923050E+03  0.00000000000E+00 0.  1.
         11    1    3    3    0    0  0.34828545556E+02 -0.29865488543E+02  0.50459648988E+02  0.68199348732E+02  0.00000000000E+00 0. -1.
</event>
<event>
 7    1  0.4096326E-006  0.1023042E+03  0.7561462E-02  0.1275524E+00
          2   -1    0    0  501    0  0.00000000000E+00  0.00000000000E+00  0.91992236531E+02  0.91992236531E+02  0.00000000000E+00 0.  1.
         -2   -1    0    0    0  501 -0.00000000000E+00 -0.00000000000E+00 -0.17817533133E+03  0.17817533133E+03  0.00000000000E+00 0. -1.
         23    2    1    2    0    0  0.21939284397E+02 -0.61611750670E+02 -0.30274534383E+02  0.11835417449E+03  0.93881964010E+02 0.  0.
          5    1    1    2  502    0  0.27698681304E+02 -0.26089881449E+02 -0.43158645369E+01  0.38522693918E+02  0.41800000000E+01 0.  1.
         -5    1    1    2    0  502 -0.49637965700E+02  0.87701632119E+02 -0.51592695884E+02  0.11329069946E+03  0.41800000000E+01 0.  1.
        -11    1    3    3    0    0  0.17769132684E+02 -0.46146559022E+02  0.28746700658E+02  0.57198075008E+02  0.00000000000E+00 0.  1.
         11    1    3    3    0    0  0.41701517126E+01 -0.15465191648E+02 -0.59021235041E+02  0.61156099481E+02  0.00000000000E+00 0. -1.
</event>
<event>
 7    1  0.4096326E-006  0.6609678E+02  0.7561462E-02  0.1373893E+00
         -2   -1    0    0    0  501 -0.00000000000E+00  0.00000000000E+00  0.12613886701E+03  0.12613886701E+03  0.00000000000E+00 0.  1.
          2   -1    0    0  501    0  0.00000000000E+00 -0.00000000000E+00 -0.13061541549E+03  0.13061541549E+03  0.00000000000E+00 0. -1.
         23    2    1    2    0    0 -0.28465893513E+02 -0.25964416024E+02 -0.58113616192E+02  0.11530102349E+03  0.91829601103E+02 0.  0.
          5    1    1    2  502    0  0.25117971728E+02 -0.14429732353E+02  0.85087189574E+02  0.89980175090E+02  0.41800000000E+01 0.  1.
         -5    1    1    2    0  502  0.33479217854E+01  0.40394148377E+02 -0.31450121862E+02  0.51473083923E+02  0.41800000000E+01 0.  1.
        -11    1    3    3    0    0 -0.17399683553E+02 -0.40400801032E+02 -0.77251696177E+02  0.88897684301E+02  0.00000000000E+00 0. -1.
         11    1    3    3    0    0 -0.11066209960E+02  0.14436385009E+02  0.19138079985E+02  0.26403339193E+02  0.00000000000E+00 0.  1.
</event>
<event>
 7    1  0.4096326E-006  0.9916595E+02  0.7561462E-02  0.1282060E+00
         -2   -1    0    0    0  501 -0.00000000000E+00  0.00000000000E+00  0.59986279179E+02  0.59986279179E+02  0.00000000000E+00 0.  1.
          2   -1    0    0  501    0  0.00000000000E+00 -0.00000000000E+00 -0.41039498988E+03  0.41039498988E+03  0.00000000000E+00 0. -1.
         23    2    1    2    0    0  0.17924640153E+02  0.30946304591E+02 -0.32215313419E+03  0.33724337136E+03  0.93120798760E+02 0.  0.
          5    1    1    2  502    0  0.45495981343E+01 -0.65257594298E+02 -0.53658714927E+02  0.84711171308E+02  0.41800000000E+01 0.  1.
         -5    1    1    2    0  502 -0.22474238287E+02  0.34311289706E+02  0.25403138417E+02  0.48426726395E+02  0.41800000000E+01 0.  1.
        -11    1    3    3    0    0 -0.32903737380E+02  0.17808184563E+01 -0.58367789174E+02  0.67027054694E+02  0.00000000000E+00 0.  1.
         11    1    3    3    0    0  0.50828377533E+02  0.29165486135E+02 -0.26378534502E+03  0.27021631666E+03  0.00000000000E+00 0. -1.
</event>
<event>
 7    1  0.4096326E-006  0.9827042E+03  0.7561462E-02  0.9327721E-01
         -1   -1    0    0    0  501 -0.00000000000E+00  0.00000000000E+00  0.85842717882E+03  0.85842717882E+03  0.00000000000E+00 0.  1.
          1   -1    0    0  501    0  0.00000000000E+00 -0.00000000000E+00 -0.18924201824E+04  0.18924201824E+04  0.00000000000E+00 0. -1.
         23    2    1    2    0    0 -0.81648992263E+03  0.22661794583E+03 -0.13333962770E+04  0.15826830837E+04  0.94491400338E+02 0.  0.
          5    1    1    2  502    0 -0.10212207221E+03 -0.16839948935E+03 -0.95844949257E+01  0.19722231261E+03  0.41800000000E+01 0. -1.
         -5    1    1    2    0  502  0.91861199484E+03 -0.58218456478E+02  0.30898776840E+03  0.97094196488E+03  0.41800000000E+01 0.  1.
        -11    1    3    3    0    0 -0.35055095437E+02  0.16616753894E+02 -0.32217892844E+02  0.50427857830E+02  0.00000000000E+00 0.  1.
         11    1    3    3    0    0 -0.78143482720E+03  0.21000119194E+03 -0.13011783842E+04  0.15322552259E+04  0.00000000000E+00 0. -1.
</event>
<event>
 7    1  0.4096326E-006  0.1097983E+03  0.7561462E-02  0.1260944E+00
          1   -1    0    0  501    0  0.00000000000E+00  0.00000000000E+00  0.22937512482E+03  0.22937512482E+03  0.00000000000E+00 0. -1.
         -1   -1    0    0    0  501 -0.00000000000E+00 -0.00000000000E+00 -0.59718840719E+02  0.59718840719E+02  0.00000000000E+00 0.  1.
         23    2    1    2    0    0 -0.27309043545E+02 -0.34792584362E+02  0.73562018384E+02  0.12527111286E+03  0.91242388083E+02 0.  0.
          5    1    1    2  502    0  0.73212740750E+02 -0.14558132846E+01  0.45031780160E+02  0.86067173910E+02  0.41800000000E+01 0. -1.
         -5    1    1    2    0  502 -0.45903697205E+02  0.36248397646E+02  0.51062485555E+02  0.77755678764E+02  0.41800000000E+01 0. -1.
        -11    1    3    3    0    0 -0.16323193390E+01 -0.54945573278E+02  0.74538227389E+02  0.92615483757E+02  0.00000000000E+00 0. -1.
         11    1    3    3    0    0 -0.25676724206E+02  0.20152988916E+02 -0.97620900574E+00  0.32655629105E+02  0.00000000000E+00 0.  1.
</event>
<event>
 7    1  0.4096326E-006  0.1413233E+03  0.7561462E-02  0.1211559E+00
         -2   -1    0    0    0  501 -0.00000000000E+00  0.00000000000E+00  0.11928494954E+03  0.11928494954E+03  0.00000000000E+00 0.  1.
          2   -1    0    0  501    0  0.00000000000E+00 -0.00000000000E+00 -0.28988599100E+03  0.28988599100E+03  0.00000000000E+00 0. -1.
         23    2    1    2    0    0 -0.15446518952E+02 -0.12008722404E+03 -0.16138691476E+03  0.22207826803E+03  0.92808860297E+02 0.  0.
          5    1    1    2  502    0 -0.34365501507E+02  0.71590761178E+02 -0.61066408216E+02  0.10026366935E+03  0.41800000000E+01 0. -1.
         -5    1    1    2    0  502  0.49812020459E+02  0.48496462858E+02  0.51852281514E+02  0.86829003162E+02  0.41800000000E+01 0.  1.
        -11    1    3    3    0    0 -0.34888401500E+02 -0.98148568073E+02 -0.16218406029E+03  0.19275375843E+03  0.00000000000E+00 0.  1.
         11    1    3    3    0    0  0.19441882548E+02 -0.21938655963E+02  0.79714553060E+00  0.29324509603E+02  0.00000000000E+00 0. -1.
</event>
<event>
 7    1  0.4096326E-006  0.1258359E+03  0.7561462E-02  0.1233769E+00
         -2   -1    0    0    0  501 -0.00000000000E+00  0.00000000000E+00  0.15660527225E+03  0.15660527225E+03  0.00000000000E+00 0.  1.
          2   -1    0    0  501    0  0.00000000000E+00 -0.00000000000E+00 -0.10566324005E+03  0.10566324005E+03  0.00000000000E+00 0. -1.
         23    2    1    2    0    0 -0.48831330049E+02 -0.48695463933E+02  0.31139820600E+02  0.11806338540E+03  0.90628513963E+02 0.  0.
          5    1    1    2  502    0  0.86915119915E+02  0.10487782872E+02  0.35830886997E+01  0.87718541849E+02  0.41800000000E+01 0.  1.
         -5    1    1    2    0  502 -0.38083789866E+02  0.38207681061E+02  0.16219122900E+02  0.56486585047E+02  0.41800000000E+01 0.  1.
        -11    1    3    3    0    0 -0.48054358439E+02 -0.72020534506E+02  0.11075252190E+02  0.87285966607E+02  0.00000000000E+00 0. -1.
         11    1    3    3    0    0 -0.77697161034E+00  0.23325070572E+02  0.20064568410E+02  0.30777418793E+02  0.00000000000E+00 0.  1.
</event>
<event>
 7    1  0.4096326E-006  0.8881104E+02  0.7561462E-02  0.1305757E+00
          1   -1    0    0  501    0  0.00000000000E+00  0.00000000000E+00  0.20637428355E+03  0.20637428355E+03  0.00000000000E+00 0. -1.
         -1   -1    0    0    0  501 -0.00000000000E+00 -0.00000000000E+00 -0.67551931467E+02  0.67551931467E+02  0.00000000000E+00 0.  1.
         23    2    1    2    0    0  0.36842091963E+02  0.19187524777E+02  0.57573802288E+02  0.11909060947E+03  0.95615530683E+02 0.  0.
          5    1    1    2  502    0 -0.19038376821E+01 -0.38432297799E+02  0.10241611046E+03  0.10948606392E+03  0.41800000000E+01 0. -1.
         -5    1    1    2    0  502 -0.34938254281E+02  0.19244773022E+02 -0.21167560661E+02  0.45349541621E+02  0.41800000000E+01 0. -1.
        -11    1    3    3    0    0  0.50594471957E+02  0.46189598836E+02  0.21124918121E+02  0.71690597702E+02  0.00000000000E+00 0.  1.
         11    1    3    3    0    0 -0.13752379994E+02 -0.27002074059E+02  0.36448884167E+02  0.47400011772E+02  0.00000000000E+00 0. -1.
</event>
<event>
 7    1  0.4096326E-006  0.1302610E+03  0.7561462E-02  0.1227069E+00
         -2   -1    0    0    0  501 -0.00000000000E+00  0.00000000000E+00  0.56656284252E+02  0.56656284252E+02  0.00000000000E+00 0.  1.
          2   -1    0    0  501    0  0.00000000000E+00 -0.00000000000E+00 -0.35752773670E+03  0.35752773670E+03  0.00000000000E+00 0. -1.
         23    2    1    2    0    0  0.69620163552E+02  0.38307505133E+02 -0.20486700964E+03  0.23760570153E+03  0.90396601904E+02 0.  0.
          5    1    1    2  502    0  0.12529609079E+02 -0.55183022238E+02 -0.12390586432E+02  0.58078878081E+02  0.41800000000E+01 0.  1.
         -5    1    1    2    0  502 -0.82149772631E+02  0.16875517105E+02 -0.83613856370E+02  0.11849944134E+03  0.41800000000E+01 0.  1.
        -11    1    3    3    0    0  0.90324383331E+02  0.40504698506E+02 -0.16005961123E+03  0.18819724752E+03  0.00000000000E+00 0.  1.
         11    1    3    3    0    0 -0.20704219779E+02 -0.21971933729E+01 -0.44807398410E+02  0.49408454009E+02  0.00000000000E+00 0. -1.
</event>
<event>
 7    1  0.4096326E-006  0.2193431E+03  0.7561462E-02  0.1134374E+00
          2   -1    0    0  501    0  0.00000000000E+00  0.00000000000E+00  0.49493208258E+03  0.49493208258E+03  0.00000000000E+00 0. -1.
         -2   -1    0    0    0  501 -0.00000000000E+00 -0.00000000000E+00 -0.12537813199E+03  0.12537813199E+03  0.00000000000E+00 0.  1.
         23    2    1    2    0    0  0.22733685454E+02  0.19378711855E+03  0.31656840870E+03  0.38255546171E+03  0.89793408016E+02 0.  0.
          5    1    1    2  502    0 -0.69233237652E+02 -0.82267450614E+02  0.51189784938E+01  0.10772581384E+03  0.41800000000E+01 0.  1.
         -5    1    1    2    0  502  0.46499552198E+02 -0.11151966794E+03  0.47866563396E+02  0.13002893902E+03  0.41800000000E+01 0.  1.
        -11    1    3    3    0    0 -0.23328090384E+02  0.12655130321E+03  0.15388802941E+03  0.20060148987E+03  0.00000000000E+00 0.  1.
         11    1    3    3    0    0  0.46061775837E+02  0.67235815340E+02  0.16268037930E+03  0.18195397183E+03  0.00000000000E+00 0. -1.
</event>
<event>
 7    1  0.4096326E-006  0.1235504E+03  0.7561462E-02  0.1237352E+00
         -1   -1    0    0    0  501 -0.00000000000E+00  0.00000000000E+00  0.41075065116E+02  0.41075065116E+02  0.00000000000E+00 0.  1.
          1   -1    0    0  501    0  0.00000000000E+00 -0.00000000000E+00 -0.41719200118E+03  0.41719200118E+03  0.00000000000E+00 0. -1.
         23    2    1    2    0    0  0.53366760220E+02  0.48653073455E+02 -0.18014390096E+03  0.21481488060E+03  0.92078636076E+02 0.  0.
          5    1    1    2  502    0 -0.53861060519E+01 -0.80225717152E+02 -0.77644617073E+02  0.11185407812E+03  0.41800000000E+01 0. -1.
         -5    1    1    2    0  502 -0.47980654168E+02  0.31572643696E+02 -0.11832841803E+03  0.13159810758E+03  0.41800000000E+01 0. -1.
        -11    1    3    3    0    0  0.54030469076E+02  0.69560587359E+02 -0.10621729159E+03  0.13798579614E+03  0.00000000000E+00 0.  1.
         11    1    3    3    0    0 -0.66370885592E+00 -0.20907513904E+02 -0.73926609364E+02  0.76829084461E+02  0.00000000000E+00 0. -1.
</event>
<event>
 7    1  0.4096326E-006  0.8210832E+02  0.7561462E-02  0.1323173E+00
          1   -1    0    0  501    0  0.00000000000E+00  0.00000000000E+00  0.71774080762E+02  0.71774080762E+02  0.00000000000E+00 0. -1.
         -1   -1    0    0    0  501 -0.00000000000E+00 -0.00000000000E+00 -0.28361553864E+03  0.28361553864E+03  0.00000000000E+00 0.  1.
         23    2    1    2    0    0 -0.36291076277E+02  0.23967199681E+02  0.41232155008E+01  0.10206115398E+03  0.92238871239E+02 0.  0.
          5    1    1    2  502    0  0.46353455919E+02 -0.21666612696E+02 -0.17039189387E+02  0.54091509097E+02  0.41800000000E+01 0. -1.
         -5    1    1    2    0  502 -0.10062379642E+02 -0.23005869843E+01 -0.19892548399E+03  0.19923695633E+03  0.41800000000E+01 0. -1.
        -11    1    3    3    0    0  0.21637180295E+02  0.36539989005E+02  0.51385739113E+01  0.42775498938E+02  0.00000000000E+00 0. -1.
         11    1    3    3    0    0 -0.57928256572E+02 -0.12572789324E+02 -0.10153584104E+01  0.59285655041E+02  0.00000000000E+00 0.  1.
</event>
<event>
 7    1  0.4096326E-006  0.1206794E+03  0.7561462E-02  0.1241981E+00
         -2   -1    0    0    0  501 -0.00000000000E+00  0.00000000000E+00  0.72716138711E+02  0.72716138711E+02  0.00000000000E+00 0.  1.
          2   -1    0    0  501    0  0.00000000000E+00 -0.00000000000E+00 -0.36667098411E+03  0.36667098411E+03  0.00000000000E+00 0. -1.
         23    2    1    2    0    0 -0.27801654279E+02 -0.62379616463E+02 -0.28200515621E+03  0.30439550492E+03  0.92008514591E+02 0.  0.
          5    1    1    2  502    0 -0.53761267291E+01 -0.30866317248E+02 -0.16831370712E+02  0.35810609030E+02  0.41800000000E+01 0. -1.
         -5    1    1    2    0  502  0.33177781008E+02  0.93245933711E+02  0.48816815213E+01  0.99181008871E+02  0.41800000000E+01 0.  1.
        -11    1    3    3    0    0  0.15019493145E+02  0.15644348710E+02 -0.92826791086E+02  0.95326512389E+02  0.00000000000E+00 0.  1.
         11    1    3    3    0    0 -0.42821147424E+02 -0.78023965173E+02 -0.18917836512E+03  0.20906899253E+03  0.00000000000E+00 0. -1.
</event>
<event>
 7    1  0.4096326E-006  0.1010929E+03  0.7561462E-02  0.1278014E+00
          2   -1    0    0  501    0  0.00000000000E+00  0.00000000000E+00  0.67766318578E+03  0.67766318578E+03  0.00000000000E+00 0. -1.
         -2   -1    0    0    0  501 -0.00000000000E+00 -0.00000000000E+00 -0.18959245814E+02  0.18959245814E+02  0.00000000000E+00 0.  1.
         23    2    1    2    0    0  0.10971773681E+02 -0.33799828595E+02  0.27110879828E+03  0.28779388163E+03  0.89791589641E+02 0.  0.
          5    1    1    2  502    0 -0.34716679653E+02 -0.24388945041E+02  0.28694600714E+03  0.29009576333E+03  0.41800000000E+01 0.  1.
         -5    1    1    2    0  502  0.23744905972E+02  0.58188773637E+02  0.10064913455E+03  0.11873278664E+03  0.41800000000E+01 0.  1.
        -11    1    3    3    0    0  0.50480144377E+02 -0.23819958282E+02  0.15719298165E+03  0.16680907910E+03  0.00000000000E+00 0.  1.
         11    1    3    3    0    0 -0.39508370696E+02 -0.99798703129E+01  0.11391581663E+03  0.12098480253E+03  0.00000000000E+00 0. -1.
</event>
<event>
 7    1  0.4096326E-006  0.9698068E+02  0.7561462E-02  0.1286776E+00
          1   -1    0    0  501    0  0.00000000000E+00  0.00000000000E+00  0.98595064560E+02  0.98595064560E+02  0.00000000000E+00 0. -1.
         -1   -1    0    0    0  501 -0.00000000000E+00 -0.00000000000E+00 -0.15073519873E+03  0.15073519873E+03  0.00000000000E+00 0.  1.
         23    2    1    2    0    0 -0.17833505254E+02 -0.25594619833E+02  0.23866366235E+02  0.99667509154E+02  0.91601803856E+02 0.  0.
          5    1    1    2  502    0 -0.18169657398E+02  0.51092538444E+02 -0.88271253612E+02  0.10368158250E+03  0.41800000000E+01 0.  1.
         -5    1    1    2    0  502  0.36003162652E+02 -0.25497918611E+02  0.12264753204E+02  0.45981171642E+02  0.41800000000E+01 0.  1.
        -11    1    3    3    0    0 -0.52808490053E+02 -0.28774042006E+02  0.65000684056E+01  0.60489114759E+02  0.00000000000E+00 0.  1.
         11    1    3    3    0    0  0.34974984799E+02  0.31794221729E+01  0.17366297829E+02  0.39178394395E+02  0.00000000000E+00 0. -1.
</event>
<event>
 7    1  0.4096326E-006  0.1055460E+03  0.7561462E-02  0.1269048E+00
         -1   -1    0    0    0  501 -0.00000000000E+00  0.00000000000E+00  0.14732820458E+03  0.14732820458E+03  0.00000000000E+00 0.  1.
          1   -1    0    0  501    0  0.00000000000E+00 -0.00000000000E+00 -0.12407565010E+03  0.12407565010E+03  0.00000000000E+00 0. -1.
         23    2    1    2    0    0  0.59489240191E+02 -0.42231142163E+02 -0.22139836117E+02  0.11962933628E+03  0.92187671020E+02 0.  0.
          5    1    1    2  502    0  0.28492690517E+02  0.17786790194E+02  0.49850515615E+02  0.60255702016E+02  0.41800000000E+01 0.  1.
         -5    1    1    2    0  502 -0.87981930708E+02  0.24444351969E+02 -0.44581250117E+01  0.91518816387E+02  0.41800000000E+01 0.  1.
        -11    1    3    3    0    0  0.50565785486E+02 -0.89175809136E+01  0.28221653499E+02  0.58590815299E+02  0.00000000000E+00 0.  1.
         11    1    3    3    0    0  0.89234547054E+01 -0.33313561249E+02 -0.50361489616E+02  0.61038520979E+02  0.00000000000E+00 0. -1.
</event>
<event>
 7    1  0.4096326E-006  0.2140122E+03  0.7561462E-02  0.1138428E+00
         -1   -1    0    0    0  501 -0.00000000000E+00  0.00000000000E+00  0.56302905905E+03  0.56302905905E+03  0.00000000000E+00 0.  1.
          1   -1    0    0  501    0  0.00000000000E+00 -0.00000000000E+00 -0.11557630463E+03  0.11557630463E+03  0.00000000000E+00 0. -1.
         23    2    1    2    0    0 -0.76678202873E+02 -0.17692151077E+03  0.51302432540E+02  0.21961583363E+03  0.91751877509E+02 0.  0.
          5    1    1    2  502    0  0.99478403736E+01  0.15185480765E+03  0.32130266400E+03  0.35554425383E+03  0.41800000000E+01 0. -1.
         -5    1    1    2    0  502  0.66730362500E+02  0.25066703120E+02  0.74847657871E+02  0.10344527623E+03  0.41800000000E+01 0.  1.
        -11    1    3    3    0    0 -0.79380573475E+02 -0.10123289441E+03  0.91246641082E+00  0.12864760763E+03  0.00000000000E+00 0. -1.
         11    1    3    3    0    0  0.27023706011E+01 -0.75688616364E+02  0.50389966129E+02  0.90968225994E+02  0.00000000000E+00 0.  1.
</event>
<event>
 7    1  0.4096326E-006  0.1465224E+03  0.7561462E-02  0.1204813E+00
          3   -1    0    0  501    0  0.00000000000E+00  0.00000000000E+00  0.39843451268E+03  0.39843451268E+03  0.00000000000E+00 0. -1.
         -3   -1    0    0    0  501 -0.00000000000E+00 -0.00000000000E+00 -0.61998257374E+02  0.61998257374E+02  0.00000000000E+00 0.  1.
         23    2    1    2    0    0 -0.60158731063E+02 -0.91795353789E+02  0.16516797899E+03  0.22163231115E+03  0.98969491063E+02 0.  0.
          5    1    1    2  502    0  0.51693049238E+02 -0.11151569209E+01  0.10574931312E+02  0.52940688385E+02  0.41800000000E+01 0.  1.
         -5    1    1    2    0  502  0.84656818254E+01  0.92910510710E+02  0.16069334501E+03  0.18585977052E+03  0.41800000000E+01 0.  1.
        -11    1    3    3    0    0 -0.61220629935E+02 -0.54857761775E+01  0.67999646305E+02  0.91662485061E+02  0.00000000000E+00 0.  1.
         11    1    3    3    0    0  0.10618988718E+01 -0.86309577611E+02  0.97168332681E+02  0.12996982609E+03  0.00000000000E+00 0. -1.
</event>
<event>
 7    1  0.4096326E-006  0.9527198E+02  0.7561462E-02  0.1290565E+00
          3   -1    0    0  501    0  0.00000000000E+00  0.00000000000E+00  0.18333751645E+03  0.18333751645E+03  0.00000000000E+00 0. -1.
         -3   -1    0    0    0  501 -0.00000000000E+00 -0.00000000000E+00 -0.73321829435E+02  0.73321829435E+02  0.00000000000E+00 0.  1.
         23    2    1    2    0    0  0.24051795884E+02  0.56102834362E+01  0.84228131919E+02  0.12657282622E+03  0.91193957944E+02 0.  0.
          5    1    1    2  502    0 -0.64729258593E+02  0.21124654310E+02 -0.10776753323E+02  0.69063295243E+02  0.41800000000E+01 0.  1.
         -5    1    1    2    0  502  0.40677462709E+02 -0.26734937746E+02  0.36564308420E+02  0.61023224423E+02  0.41800000000E+01 0.  1.
        -11    1    3    3    0    0  0.16696285519E+02 -0.31493229197E+02  0.15802654053E+01  0.35680340163E+02  0.00000000000E+00 0. -1.
         11    1    3    3    0    0  0.73555103644E+01  0.37103512633E+02  0.82647866514E+02  0.90892486058E+02  0.00000000000E+00 0.  1.
</event>
<event>
 7    1  0.4096326E-006  0.9634485E+02  0.7561462E-02  0.1288176E+00
          1   -1    0    0  501    0  0.00000000000E+00  0.00000000000E+00  0.19061419477E+03  0.19061419477E+03  0.00000000000E+00 0. -1.
         -1   -1    0    0    0  501 -0.00000000000E+00 -0.00000000000E+00 -0.74597515086E+02  0.74597515086E+02  0.00000000000E+00 0.  1.
         23    2    1    2    0    0 -0.44469688868E+02 -0.23407811274E+02  0.42324355161E+02  0.11157722922E+03  0.90181196395E+02 0.  0.
          5    1    1    2  502    0  0.21827437001E+02 -0.39474308726E+02 -0.10058189506E+02  0.46403638129E+02  0.41800000000E+01 0. -1.
         -5    1    1    2    0  502  0.22642251867E+02  0.62882120000E+02  0.83750514033E+02  0.10723084251E+03  0.41800000000E+01 0. -1.
        -11    1    3    3    0    0  0.19127721172E+01  0.18088073291E+02 -0.17507609794E+02  0.25245860913E+02  0.00000000000E+00 0.  1.
         11    1    3    3    0    0 -0.46382460985E+02 -0.41495884564E+02  0.59831964955E+02  0.86331368304E+02  0.00000000000E+00 0. -1.
</event>
<event>
 7    1  0.4096326E-006  0.8519631E+02  0.7561462E-02  0.1314920E+00
         -1   -1    0    0    0  501 -0.00000000000E+00  0.00000000000E+00  0.27600117543E+03  0.27600117543E+03  0.00000000000E+00 0.  1.
          1   -1    0    0  501    0  0.00000000000E+00 -0.00000000000E+00 -0.53864136213E+02  0.53864136213E+02  0.00000000000E+00 0. -1.
         23    2    1    2    0    0  0.15895372775E+02 -0.10785754476E+01  0.23336113940E+02  0.94445497272E+02  0.90119651245E+02 0.  0.
          5    1    1    2  502    0 -0.22583423801E+02  0.36304458331E+02  0.11224339982E+02  0.44401384363E+02  0.41800000000E+01 0. -1.
         -5    1    1    2    0  502  0.66880510266E+01 -0.35225882884E+02  0.18757658530E+03  0.19101843001E+03  0.41800000000E+01 0. -1.
        -11    1    3    3    0    0 -0.35442377534E+02  0.13565647110E+02  0.67722509110E+01  0.38549348751E+02  0.00000000000E+00 0.  1.
         11    1    3    3    0    0  0.51337750308E+02 -0.14644222558E+02  0.16563863029E+02  0.55896148521E+02  0.00000000000E+00 0. -1.
</event>
<event>
 7    1  0.4096326E-006  0.1405310E+03  0.7561462E-02  0.1212616E+00
          3   -1    0    0  501    0  0.00000000000E+00  0.00000000000E+00  0.40903600999E+03  0.40903600999E+03  0.00000000000E+00 0. -1.
         -3   -1    0    0    0  501 -0.00000000000E+00 -0.00000000000E+00 -0.52182969719E+02  0.52182969719E+02  0.00000000000E+00 0.  1.
         23    2    1    2    0    0 -0.93904076207E+02  0.24492599986E+02  0.17772814258E+03  0.22215505445E+03  0.91365817289E+02 0.  0.
          5    1    1    2  502    0  0.71628295820E+02 -0.70001520592E+02  0.82280210625E+02  0.12968550847E+03  0.41800000000E+01 0.  1.
         -5    1    1    2    0  502  0.22275780387E+02  0.45508920606E+02  0.96844687059E+02  0.10937841678E+03  0.41800000000E+01 0.  1.
        -11    1    3    3    0    0 -0.10717875102E+03  0.61722996842E+01  0.16293598131E+03  0.19512436024E+03  0.00000000000E+00 0. -1.
         11    1    3    3    0    0  0.13274674810E+02  0.18320300302E+02  0.14792161277E+02  0.27030694215E+02  0.00000000000E+00 0.  1.
</event>
<event>
 7    1  0.4096326E-006  0.9934911E+02  0.7561462E-02  0.1281671E+00
          1   -1    0    0  501    0  0.00000000000E+00  0.00000000000E+00  0.52049208757E+02  0.52049208757E+02  0.00000000000E+00 0. -1.
         -1   -1    0    0    0  501 -0.00000000000E+00 -0.00000000000E+00 -0.24232908147E+03  0.24232908147E+03  0.00000000000E+00 0.  1.
         23    2    1    2    0    0 -0.16789709064E+02  0.24987530476E+02 -0.99655270137E+02  0.13700019507E+03  0.89059584400E+02 0.  0.
          5    1    1    2  502    0  0.19653001318E+02  0.48174711237E+02 -0.55070427244E+02  0.75876660578E+02  0.41800000000E+01 0. -1.
         -5    1    1    2    0  502 -0.28632922535E+01 -0.73162241713E+02 -0.35554175332E+02  0.81501434579E+02  0.41800000000E+01 0. -1.
        -11    1    3    3    0    0  0.80578037977E+01  0.42183577186E+02 -0.12459831467E+02  0.44717220245E+02  0.00000000000E+00 0. -1.
         11    1    3    3    0    0 -0.24847512862E+02 -0.17196046710E+02 -0.87195438670E+02  0.92282974826E+02  0.00000000000E+00 0.  1.
</event>
<event>
 7    1  0.4096326E-006  0.1559482E+03  0.7561462E-02  0.1193349E+00
          2   -1    0    0  501    0  0.00000000000E+00  0.00000000000E+00  0.92081986512E+02  0.92081986512E+02  0.00000000000E+00 0. -1.
         -2   -1    0    0    0  501 -0.00000000000E+00 -0.00000000000E+00 -0.51892299699E+03  0.51892299699E+03  0.00000000000E+00 0.  1.
         23    2    1    2    0    0 -0.76348226665E+02 -0.12215925896E+03 -0.31722936628E+02  0.17223661207E+03  0.88922266986E+02 0.  0.
          5    1    1    2  502    0  0.34049357773E+02  0.59961136156E+02 -0.49372372147E+02  0.84910542015E+02  0.41800000000E+01 0. -1.
         -5    1    1    2    0  502  0.42298868892E+02  0.62198122805E+02 -0.34574570170E+03  0.35385782941E+03  0.41800000000E+01 0. -1.
        -11    1    3    3    0    0 -0.81084907715E+02 -0.50201256567E+02 -0.55801486331E+01  0.95530447915E+02  0.00000000000E+00 0. -1.
         11    1    3    3    0    0  0.47366810509E+01 -0.71958002394E+02 -0.26142787995E+02  0.76706164159E+02  0.00000000000E+00 0.  1.
</event>
<event>
 7    1  0.4096326E-006  0.1782758E+03  0.7561462E-02  0.1169482E+00
         -2   -1    0    0    0  501 -0.00000000000E+00  0.00000000000E+00  0.34240995610E+02  0.34240995610E+02  0.00000000000E+00 0.  1.
          2   -1    0    0  501    0  0.00000000000E+00 -0.00000000000E+00 -0.98111203069E+03  0.98111203069E+03  0.00000000000E+00 0. -1.
         23    2    1    2    0    0  0.14888735250E+03 -0.18040682012E+02 -0.44938656421E+03  0.48090869049E+03  0.82655759386E+02 0.  0.
          5    1    1    2  502    0  0.80394435163E+01 -0.21808178679E+02 -0.14005750386E+03  0.14203452431E+03  0.41800000000E+01 0.  1.
         -5    1    1    2    0  502 -0.15692679602E+03  0.39848860691E+02 -0.35742696701E+03  0.39240981149E+03  0.41800000000E+01 0.  1.
        -11    1    3    3    0    0 -0.90213314823E+01  0.65693895506E+01 -0.36653610508E+02  0.38314859573E+02  0.00000000000E+00 0. -1.
         11    1    3    3    0    0  0.15790868399E+03 -0.24610071563E+02 -0.41273295370E+03  0.44259383092E+03  0.00000000000E+00 0.  1.
</event>
<event>
 7    1  0.4096326E-006  0.4298919E+03  0.7561462E-02  0.1033894E+00
          1   -1    0    0  501    0  0.00000000000E+00  0.00000000000E+00  0.19220752274E+04  0.19220752274E+04  0.00000000000E+00 0. -1.
         -1   -1    0    0    0  501 -0.00000000000E+00 -0.00000000000E+00 -0.10418244552E+03  0.10418244552E+03  0.00000000000E+00 0.  1.
         23    2    1    2    0    0  0.34336819473E+03  0.25544683130E+03  0.73601744655E+03  0.85610576393E+03  0.89669374062E+02 0.  0.
          5    1    1    2  502    0 -0.36663333049E+02 -0.40619388709E+02  0.57556520047E+02  0.79525845668E+02  0.41800000000E+01 0.  1.
         -5    1    1    2    0  502 -0.30670486168E+03 -0.21482744259E+03  0.10243188153E+04  0.10906260633E+04  0.41800000000E+01 0.  1.
        -11    1    3    3    0    0  0.17272648158E+03  0.15702356948E+03  0.32307484734E+03  0.39858273394E+03  0.00000000000E+00 0. -1.
         11    1    3    3    0    0  0.17064171315E+03  0.98423261816E+02  0.41294259921E+03  0.45752302999E+03  0.00000000000E+00 0.  1.
</event>
<event>
 7    1  0.4096326E-006  0.9937636E+02  0.7561462E-02  0.1281613E+00
         -2   -1    0    0    0  501 -0.00000000000E+00  0.00000000000E+00  0.26417827797E+02  0.26417827797E+02  0.00000000000E+00 0.  1.
          2   -1    0    0  501    0  0.00000000000E+00 -0.00000000000E+00 -0.45650813596E+03  0.45650813596E+03  0.00000000000E+00 0. -1.
         23    2    1    2    0    0  0.24830726072E+02 -0.71875981058E+01 -0.18679943198E+03  0.20814287753E+03  0.88097690964E+02 0.  0.
          5    1    1    2  502    0 -0.73070347023E+02 -0.12867749821E+02 -0.15932406345E+03  0.17580240099E+03  0.41800000000E+01 0.  1.
         -5    1    1    2    0  502  0.48239620952E+02  0.20055347927E+02 -0.83966812731E+02  0.98980685238E+02  0.41800000000E+01 0.  1.
        -11    1    3    3    0    0  0.26304641525E+02 -0.35220506432E+02 -0.16963769126E+03  0.17524087576E+03  0.00000000000E+00 0. -1.
         11    1    3    3    0    0 -0.14739154534E+01  0.28032908326E+02 -0.17161740718E+02  0.32902001770E+02  0.00000000000E+00 0.  1.
</event>
<event>
 7    1  0.4096326E-006  0.1014031E+03  0.7561462E-02  0.1277373E+00
         -2   -1    0    0    0  501 -0.00000000000E+00  0.00000000000E+00  0.52198546047E+02  0.52198546047E+02  0.00000000000E+00 0.  1.
          2   -1    0    0  501    0  0.00000000000E+00 -0.00000000000E+00 -0.25606498256E+03  0.25606498256E+03  0.00000000000E+00 0. -1.
         23    2    1    2    0    0  0.13302902007E+02 -0.17568758253E+01 -0.13994433366E+03  0.16714766759E+03  0.90409470987E+02 0.  0.
          5    1    1    2  502    0 -0.52684259554E+02  0.38956317232E+02 -0.55827484388E+02  0.86182401162E+02  0.41800000000E+01 0.  1.
         -5    1    1    2    0  502  0.39381357547E+02 -0.37199441406E+02 -0.80946184671E+01  0.54933459852E+02  0.41800000000E+01 0.  1.
        -11    1    3    3    0    0  0.46636072423E+02  0.95767491149E+01 -0.11360678231E+03  0.12317929356E+03  0.00000000000E+00 0.  1.
         11    1    3    3    0    0 -0.33333170416E+02 -0.11333624940E+02 -0.26337551350E+02  0.43968374036E+02  0.00000000000E+00 0. -1.
</event>
<event>
 7    1  0.4096326E-006  0.1161316E+03  0.7561462E-02  0.1249619E+00
          2   -1    0    0  501    0  0.00000000000E+00  0.00000000000E+00  0.11372704348E+03  0.11372704348E+03  0.00000000000E+00 0. -1.
         -2   -1    0    0    0  501 -0.00000000000E+00 -0.00000000000E+00 -0.12207810061E+03  0.12207810061E+03  0.00000000000E+00 0.  1.
         23    2    1    2    0    0  0.10045106706E+02 -0.18183673015E+02  0.44149041536E+01  0.10835846623E+03  0.10625683833E+03 0.  0.
          5    1    1    2  502    0  0.44352435232E+02  0.47289538795E+02 -0.62935711871E+01  0.65272662185E+02  0.41800000000E+01 0.  1.
         -5    1    1    2    0  502 -0.54397541938E+02 -0.29105865780E+02 -0.64723900997E+01  0.62174015676E+02  0.41800000000E+01 0.  1.
        -11    1    3    3    0    0 -0.35867600284E+02  0.23961501667E+02  0.13895905056E+02  0.45318147464E+02  0.00000000000E+00 0. -1.
         11    1    3    3    0    0  0.45912706990E+02 -0.42145174682E+02 -0.94810009022E+01  0.63040318767E+02  0.00000000000E+00 0.  1.
</event>
<event>
 7    1  0.4096326E-006  0.1145164E+03  0.7561462E-02  0.1252428E+00
         -3   -1    0    0    0  501 -0.00000000000E+00  0.00000000000E+00  0.20739152213E+03  0.20739152213E+03  0.00000000000E+00 0.  1.
          3   -1    0    0  501    0  0.00000000000E+00 -0.00000000000E+00 -0.11554739536E+03  0.11554739536E+03  0.00000000000E+00 0. -1.
         23    2    1    2    0    0 -0.51032447671E+02  0.76243924161E+02 -0.20805162459E+02  0.13122245212E+03  0.91482405246E+02 0.  0.
          5    1    1    2  502    0 -0.88426720095E+01 -0.94909783752E+01 -0.24362619044E+02  0.27915607203E+02  0.41800000000E+01 0. -1.
         -5    1    1    2    0  502  0.59875119681E+02 -0.66752945786E+02  0.13701190828E+03  0.16380085817E+03  0.41800000000E+01 0. -1.
        -11    1    3    3    0    0  0.24022657426E+02  0.12066484280E+02  0.85324610615E+01  0.28204450082E+02  0.00000000000E+00 0.  1.
         11    1    3    3    0    0 -0.75055105097E+02  0.64177439882E+02 -0.29337623521E+02  0.10301800204E+03  0.00000000000E+00 0. -1.
</event>
<event>
 7    1  0.4096326E-006  0.1528402E+03  0.7561462E-02  0.1197026E+00
          2   -1    0    0  501    0  0.00000000000E+00  0.00000000000E+00  0.26050627215E+03  0.26050627215E+03  0.00000000000E+00 0.  1.
         -2   -1    0    0    0  501 -0.00000000000E+00 -0.00000000000E+00 -0.10566019932E+03  0.10566019932E+03  0.00000000000E+00 0. -1.
         23    2    1    2    0    0  0.85827160894E+02 -0.72252373250E+02  0.11017319016E+03  0.19229968659E+03  0.11069928024E+03 0.  0.
          5    1    1    2  502    0 -0.10535967701E+03  0.16277378656E+02  0.41076925044E+02  0.11432585344E+03  0.41800000000E+01 0. -1.
         -5    1    1    2    0  502  0.19532516111E+02  0.55974994594E+02  0.35959576241E+01  0.59540931439E+02  0.41800000000E+01 0. -1.
        -11    1    3    3    0    0  0.16494062090E+02 -0.68133102114E+02  0.99969780769E+02  0.12209885648E+03  0.00000000000E+00 0.  1.
         11    1    3    3    0    0  0.69333098804E+02 -0.41192711363E+01  0.10203409392E+02  0.70200830106E+02  0.00000000000E+00 0. -1.
</event>
<event>
 7    1  0.4096326E-006  0.1224686E+03  0.7561462E-02  0.1239079E+00
          1   -1    0    0  501    0  0.00000000000E+00  0.00000000000E+00  0.23310426191E+03  0.23310426191E+03  0.00000000000E+00 0. -1.
         -1   -1    0    0    0  501 -0.00000000000E+00 -0.00000000000E+00 -0.10662955706E+03  0.10662955706E+03  0.00000000000E+00 0.  1.
         23    2    1    2    0    0  0.10028852377E+03 -0.54238084902E+02  0.57248383005E+02  0.15687026310E+03  0.91276197517E+02 0.  0.
          5    1    1    2  502    0 -0.61940085096E+02  0.23024230219E+02  0.10327860562E+03  0.12268101768E+03  0.41800000000E+01 0. -1.
         -5    1    1    2    0  502 -0.38348438676E+02  0.31213854683E+02 -0.34052283776E+02  0.60182538193E+02  0.41800000000E+01 0. -1.
        -11    1    3    3    0    0  0.22725701631E+02  0.13234416424E+02  0.46610843140E+02  0.53518015573E+02  0.00000000000E+00 0. -1.
         11    1    3    3    0    0  0.77562822141E+02 -0.67472501327E+02  0.10637539865E+02  0.10335224752E+03  0.00000000000E+00 0.  1.
</event>
<event>
 7    1  0.4096326E-006  0.2078829E+03  0.7561462E-02  0.1143254E+00
          2   -1    0    0  501    0  0.00000000000E+00  0.00000000000E+00  0.46380676225E+03  0.46380676225E+03  0.00000000000E+00 0.  1.
         -2   -1    0    0    0  501 -0.00000000000E+00 -0.00000000000E+00 -0.13216388260E+03  0.13216388260E+03  0.00000000000E+00 0. -1.
         23    2    1    2    0    0 -0.97848701883E+02  0.15835275834E+03  0.30706432949E+03  0.37036690844E+03  0.90736871724E+02 0.  0.
          5    1    1    2  502    0 -0.13224204052E+02  0.13239093646E+02  0.69663646935E+01  0.20399897314E+02  0.41800000000E+01 0.  1.
         -5    1    1    2    0  502  0.11107290593E+03 -0.17159185199E+03  0.17612185461E+02  0.20520383909E+03  0.41800000000E+01 0.  1.
        -11    1    3    3    0    0 -0.49341306889E+02  0.37664484004E+02  0.17198133097E+03  0.18284079447E+03  0.00000000000E+00 0.  1.
         11    1    3    3    0    0 -0.48507394994E+02  0.12068827434E+03  0.13508299852E+03  0.18752611397E+03  0.00000000000E+00 0. -1.
</event>
<event>
 7    1  0.4096326E-006  0.8010558E+02  0.7561462E-02  0.1328752E+00
         -1   -1    0    0    0  501 -0.00000000000E+00  0.00000000000E+00  0.15559267733E+03  0.15559267733E+03  0.00000000000E+00 0.  1.
          1   -1    0    0  501    0  0.00000000000E+00 -0.00000000000E+00 -0.94811518477E+02  0.94811518477E+02  0.00000000000E+00 0. -1.
         23    2    1    2    0    0 -0.35817290277E+02  0.28247797843E+02 -0.45649190081E+01  0.10208889204E+03  0.91216703663E+02 0.  0.
          5    1    1    2  502    0  0.51932392546E+02  0.73488963037E+01  0.88312671564E+02  0.10279873555E+03  0.41800000000E+01 0. -1.
         -5    1    1    2    0  502 -0.16115102269E+02 -0.35596694147E+02 -0.22966593705E+02  0.45516568211E+02  0.41800000000E+01 0. -1.
        -11    1    3    3    0    0 -0.21547196321E+02  0.42798941687E+02  0.33805520262E+02  0.58641659927E+02  0.00000000000E+00 0.  1.
         11    1    3    3    0    0 -0.14270093956E+02 -0.14551143844E+02 -0.38370439270E+02  0.43447232115E+02  0.00000000000E+00 0. -1.
</event>
<event>
 7    1  0.4096326E-006  0.1143476E+03  0.7561462E-02  0.1252724E+00
          1   -1    0    0  501    0  0.00000000000E+00  0.00000000000E+00  0.20970177232E+03  0.20970177232E+03  0.00000000000E+00 0. -1.
         -1   -1    0    0    0  501 -0.00000000000E+00 -0.00000000000E+00 -0.79678746604E+02  0.79678746604E+02  0.00000000000E+00 0.  1.
         23    2    1    2    0    0 -0.71306213638E+02 -0.36746628962E+01  0.91583910926E+02  0.14030714745E+03  0.78742641777E+02 0.  0.
          5    1    1    2  502    0  0.10293637808E+03  0.24306917916E+02  0.24910390938E+02  0.10874154757E+03  0.41800000000E+01 0.  1.
         -5    1    1    2    0  502 -0.31630164446E+02 -0.20632255020E+02  0.13528723848E+02  0.40331823900E+02  0.41800000000E+01 0.  1.
        -11    1    3    3    0    0 -0.61559638812E+02 -0.20940148398E+02  0.23090379754E+02  0.69001772317E+02  0.00000000000E+00 0.  1.
         11    1    3    3    0    0 -0.97465748251E+01  0.17265485501E+02  0.68493531171E+02  0.71305375132E+02  0.00000000000E+00 0. -1.
</event>
<event>
 7    1  0.4096326E-006  0.1303816E+03  0.7561462E-02  0.1226891E+00
         -1   -1    0    0    0  501 -0.00000000000E+00  0.00000000000E+00  0.23641321241E+03  0.23641321241E+03  0.00000000000E+00 0.  1.
          1   -1    0    0  501    0  0.00000000000E+00 -0.00000000000E+00 -0.86260176823E+02  0.86260176823E+02  0.00000000000E+00 0. -1.
         23    2    1    2    0    0  0.79552609667E+02 -0.27389468528E+02  0.11173239636E+03  0.16710119596E+03  0.91432382693E+02 0.  0.
          5    1    1    2  502    0 -0.58274209392E+02  0.70114735256E+02 -0.43171275465E+01  0.91367770962E+02  0.41800000000E+01 0.  1.
         -5    1    1    2    0  502 -0.21278400275E+02 -0.42725266728E+02  0.42737766779E+02  0.64204422312E+02  0.41800000000E+01 0.  1.
        -11    1    3    3    0    0 -0.11183629855E+02 -0.28738500013E+02  0.44596905530E+02  0.54220466086E+02  0.00000000000E+00 0.  1.
         11    1    3    3    0    0  0.90736239523E+02  0.13490314851E+01  0.67135490830E+02  0.11288072988E+03  0.00000000000E+00 0. -1.
</event>
<event>
 7    1  0.4096326E-006  0.2327603E+03  0.7561462E-02  0.1124712E+00
         -2   -1    0    0    0  501 -0.00000000000E+00  0.00000000000E+00  0.88847174211E+02  0.88847174211E+02  0.00000000000E+00 0. -1.
          2   -1    0    0  501    0  0.00000000000E+00 -0.00000000000E+00 -0.78241164490E+03  0.78241164490E+03  0.00000000000E+00 0.  1.
         23    2    1    2    0    0  0.20686766612E+03 -0.63597003901E+02 -0.50955043247E+03  0.56085979811E+03  0.89906950330E+02 0.  0.
          5    1    1    2  502    0 -0.26148101383E+02  0.48005109016E+02 -0.42524322670E+01  0.54988810477E+02  0.41800000000E+01 0. -1.
         -5    1    1    2    0  502 -0.18071956474E+03  0.15591894885E+02 -0.17976160595E+03  0.25541021052E+03  0.41800000000E+01 0. -1.
        -11    1    3    3    0    0  0.30710225625E+02 -0.41635585141E+02 -0.71923523817E+02  0.88598155659E+02  0.00000000000E+00 0. -1.
         11    1    3    3    0    0  0.17615744049E+03 -0.21961418760E+02 -0.43762690865E+03  0.47226164245E+03  0.00000000000E+00 0.  1.
</event>
<event>
 7    1  0.4096326E-006  0.1717731E+03  0.7561462E-02  0.1176011E+00
         -2   -1    0    0    0  501 -0.00000000000E+00  0.00000000000E+00  0.43731429714E+02  0.43731429714E+02  0.00000000000E+00 0.  1.
          2   -1    0    0  501    0  0.00000000000E+00 -0.00000000000E+00 -0.85540176555E+03  0.85540176555E+03  0.00000000000E+00 0. -1.
         23    2    1    2    0    0  0.85880763222E+02  0.13401188053E+03 -0.36109057396E+03  0.40516660246E+03  0.91863396044E+02 0.  0.
          5    1    1    2  502    0  0.53974918588E+01 -0.73540566843E+02 -0.86424842426E+02  0.11368409598E+03  0.41800000000E+01 0.  1.
         -5    1    1    2    0  502 -0.91278255081E+02 -0.60471313690E+02 -0.36415491945E+03  0.38028249682E+03  0.41800000000E+01 0.  1.
        -11    1    3    3    0    0  0.17454929099E+02  0.41742917123E+02 -0.21296560099E+03  0.21771883907E+03  0.00000000000E+00 0. -1.
         11    1    3    3    0    0  0.68425834123E+02  0.92268963410E+02 -0.14812497296E+03  0.18744776339E+03  0.00000000000E+00 0.  1.
</event>
<event>
 7    1  0.4096326E-006  0.1511699E+03  0.7561462E-02  0.1199043E+00
          1   -1    0    0  501    0  0.00000000000E+00  0.00000000000E+00  0.23296803263E+03  0.23296803263E+03  0.00000000000E+00 0. -1.
         -1   -1    0    0    0  501 -0.00000000000E+00 -0.00000000000E+00 -0.16705338568E+03  0.16705338568E+03  0.00000000000E+00 0.  1.
         23    2    1    2    0    0  0.73455179200E+02  0.11423492961E+03  0.12625774856E+03  0.20576812565E+03  0.89186433754E+02 0.  0.
          5    1    1    2  502    0 -0.66926655125E+02 -0.21315111362E+02  0.17818120554E+02  0.72584219764E+02  0.41800000000E+01 0.  1.
         -5    1    1    2    0  502 -0.65285240749E+01 -0.92919818251E+02 -0.78161222160E+02  0.12166907290E+03  0.41800000000E+01 0.  1.
        -11    1    3    3    0    0  0.33656639287E+02  0.77834698908E+02  0.12594542150E+03  0.15183299681E+03  0.00000000000E+00 0. -1.
         11    1    3    3    0    0  0.39798539914E+02  0.36400230705E+02  0.31232705719E+00  0.53935128838E+02  0.00000000000E+00 0.  1.
</event>
<event>
 7    1  0.4096326E-006  0.9731930E+02  0.7561462E-02  0.1286036E+00
         -2   -1    0    0    0  501 -0.00000000000E+00  0.00000000000E+00  0.93786640204E+02  0.93786640204E+02  0.00000000000E+00 0.  1.
          2   -1    0    0  501    0  0.00000000000E+00 -0.00000000000E+00 -0.15578393888E+03  0.15578393888E+03  0.00000000000E+00 0. -1.
         23    2    1    2    0    0  0.21554819920E+02  0.89948842818E+01 -0.75776642072E+02  0.12157104800E+03  0.92151516666E+02 0.  0.
          5    1    1    2  502    0  0.28792237973E+01  0.45321896192E+02  0.41965019970E+02  0.61974990966E+02  0.41800000000E+01 0.  1.
         -5    1    1    2    0  502 -0.24434043717E+02 -0.54316780474E+02 -0.28185676574E+02  0.66024540115E+02  0.41800000000E+01 0.  1.
        -11    1    3    3    0    0 -0.32378425670E+02 -0.68902023239E+01 -0.49403706833E+02  0.59469013660E+02  0.00000000000E+00 0. -1.
         11    1    3    3    0    0  0.53933245590E+02  0.15885086606E+02 -0.26372935240E+02  0.62102034343E+02  0.00000000000E+00 0.  1.
</event>
<event>
 7    1  0.4096326E-006  0.1109008E+03  0.7561462E-02  0.1258911E+00
          2   -1    0    0  501    0  0.00000000000E+00  0.00000000000E+00  0.20658307181E+02  0.20658307181E+02  0.00000000000E+00 0.  1.
         -2   -1    0    0    0  501 -0.00000000000E+00 -0.00000000000E+00 -0.82327242945E+03  0.82327242945E+03  0.00000000000E+00 0. -1.
         23    2    1    2    0    0  0.24326665548E+02 -0.46190740083E+02 -0.19557442590E+03  0.22194137884E+03  0.91012353278E+02 0.  0.
          5    1    1    2  502    0  0.31822618989E+02 -0.15283404814E+02 -0.69909703987E+02  0.78428952904E+02  0.41800000000E+01 0. -1.
         -5    1    1    2    0  502 -0.56149284537E+02  0.61474144897E+02 -0.53712999238E+03  0.54356040488E+03  0.41800000000E+01 0. -1.
        -11    1    3    3    0    0 -0.31819340141E+02 -0.31676563535E+02 -0.64257713447E+02  0.78389596388E+02  0.00000000000E+00 0. -1.
         11    1    3    3    0    0  0.56146005689E+02 -0.14514176548E+02 -0.13131671246E+03  0.14355178246E+03  0.00000000000E+00 0.  1.
</event>
<event>
 7    1  0.4096326E-006  0.1962811E+03  0.7561462E-02  0.1152915E+00
          2   -1    0    0  501    0  0.00000000000E+00  0.00000000000E+00  0.57204245541E+03  0.57204245541E+03  0.00000000000E+00 0. -1.
         -2   -1    0    0    0  501 -0.00000000000E+00 -0.00000000000E+00 -0.67499686039E+02  0.67499686039E+02  0.00000000000E+00 0.  1.
         23    2    1    2    0    0  0.64796027647E+01 -0.16364744092E+03  0.23634922749E+03  0.30131469503E+03  0.90039535404E+02 0.  0.
          5    1    1    2  502    0 -0.49723712936E+02  0.16402992337E+02  0.71162507383E+02  0.88448180552E+02  0.41800000000E+01 0. -1.
         -5    1    1    2    0  502  0.43244110172E+02  0.14724444858E+03  0.19703103449E+03  0.24977926586E+03  0.41800000000E+01 0. -1.
        -11    1    3    3    0    0  0.46440610048E+02 -0.63334667693E+02  0.10906035167E+03  0.13439557545E+03  0.00000000000E+00 0.  1.
         11    1    3    3    0    0 -0.39961007284E+02 -0.10031277322E+03  0.12728887582E+03  0.16691911958E+03  0.00000000000E+00 0. -1.
</event>
<event>
 7    1  0.4096326E-006  0.9698430E+02  0.7561462E-02  0.1286768E+00
         -2   -1    0    0    0  501 -0.00000000000E+00  0.00000000000E+00  0.67407059919E+02  0.67407059919E+02  0.00000000000E+00 0.  1.
          2   -1    0    0  501    0  0.00000000000E+00 -0.00000000000E+00 -0.34264525118E+03  0.34264525118E+03  0.00000000000E+00 0. -1.
         23    2    1    2    0    0 -0.55079680790E+02 -0.22496592801E+02 -0.26199853158E+03  0.28328915174E+03  0.89831202933E+02 0.  0.
          5    1    1    2  502    0  0.47824504476E+02  0.46296783477E+02 -0.49169691242E+02  0.82859557841E+02  0.41800000000E+01 0. -1.
         -5    1    1    2    0  502  0.72551763132E+01 -0.23800190676E+02  0.35930031552E+02  0.43903601525E+02  0.41800000000E+01 0.  1.
        -11    1    3    3    0    0 -0.64431900628E+02  0.12661437718E+02 -0.12095922897E+03  0.13763326958E+03  0.00000000000E+00 0. -1.
         11    1    3    3    0    0  0.93522198383E+01 -0.35158030519E+02 -0.14103930261E+03  0.14565588215E+03  0.00000000000E+00 0.  1.
</event>
<event>
 7    1  0.4096326E-006  0.1337516E+03  0.7561462E-02  0.1221993E+00
          2   -1    0    0  501    0  0.00000000000E+00  0.00000000000E+00  0.18077819106E+03  0.18077819106E+03  0.00000000000E+00 0. -1.
         -2   -1    0    0    0  501 -0.00000000000E+00 -0.00000000000E+00 -0.15022051872E+03  0.15022051872E+03  0.00000000000E+00 0.  1.
         23    2    1    2    0    0 -0.54427122258E+02  0.72313574699E+02  0.98695733549E+02  0.16223378204E+03  0.91582681178E+02 0.  0.
          5    1    1    2  502    0 -0.35035382716E+02 -0.45746320734E+02 -0.43016880403E+02  0.72028663061E+02  0.41800000000E+01 0.  1.
         -5    1    1    2    0  502  0.89462504974E+02 -0.26567253965E+02 -0.25121180802E+02  0.96736264680E+02  0.41800000000E+01 0.  1.
        -11    1    3    3    0    0 -0.53804021482E+02  0.10900891828E+02  0.12342094377E+02  0.56267481407E+02  0.00000000000E+00 0.  1.
         11    1    3    3    0    0 -0.62310077604E+00  0.61412682871E+02  0.86353639172E+02  0.10596630063E+03  0.00000000000E+00 0. -1.
</event>
<event>
 7    1  0.4096326E-006  0.1130530E+03  0.7561462E-02  0.1255018E+00
         -4   -1    0    0    0  501 -0.00000000000E+00  0.00000000000E+00  0.51539674668E+02  0.51539674668E+02  0.00000000000E+00 0.  1.
          4   -1    0    0  501    0  0.00000000000E+00 -0.00000000000E+00 -0.34641068492E+03  0.34641068492E+03  0.00000000000E+00 0. -1.
         23    2    1    2    0    0 -0.62419934769E+01 -0.59333368077E+02 -0.20460346045E+03  0.23256349942E+03  0.93079504636E+02 0.  0.
          5    1    1    2  502    0  0.89780071078E+01 -0.30425388316E+02 -0.64288271015E+02  0.71810605456E+02  0.41800000000E+01 0. -1.
         -5    1    1    2    0  502 -0.27360136309E+01  0.89758756393E+02 -0.25979278783E+02  0.93576254712E+02  0.41800000000E+01 0. -1.
        -11    1    3    3    0    0  0.62030101864E+01  0.21525113458E+02 -0.83234030181E+02  0.86195774983E+02  0.00000000000E+00 0. -1.
         11    1    3    3    0    0 -0.12445003663E+02 -0.80858481535E+02 -0.12136943027E+03  0.14636772444E+03  0.00000000000E+00 0.  1.
</event>
<event>
 7    1  0.4096326E-006  0.9852295E+02  0.7561462E-02  0.1283433E+00
         -1   -1    0    0    0  501 -0.00000000000E+00  0.00000000000E+00  0.41390996775E+02  0.41390996775E+02  0.00000000000E+00 0.  1.
          1   -1    0    0  501    0  0.00000000000E+00 -0.00000000000E+00 -0.40824638809E+03  0.40824638809E+03  0.00000000000E+00 0. -1.
         23    2    1    2    0    0  0.85259574092E+01 -0.48310097746E+02 -0.24867688570E+03  0.27634084571E+03  0.11007957137E+03 0.  0.
          5    1    1    2  502    0 -0.45152202226E+02  0.35358769722E+01 -0.10411846656E+03  0.11361932613E+03  0.41800000000E+01 0. -1.
         -5    1    1    2    0  502  0.36626244817E+02  0.44774220774E+02 -0.14060039051E+02  0.59677213017E+02  0.41800000000E+01 0.  1.
        -11    1    3    3    0    0  0.44293829395E+02 -0.28630550920E+02 -0.22054178933E+03  0.22676051819E+03  0.00000000000E+00 0.  1.
         11    1    3    3    0    0 -0.35767871986E+02 -0.19679546826E+02 -0.28135096374E+02  0.49580327526E+02  0.00000000000E+00 0. -1.
</event>
<event>
 7    1  0.4096326E-006  0.9600109E+02  0.7561462E-02  0.1288937E+00
         -2   -1    0    0    0  501 -0.00000000000E+00  0.00000000000E+00  0.96020178002E+02  0.96020178002E+02  0.00000000000E+00 0.  1.
          2   -1    0    0  501    0  0.00000000000E+00 -0.00000000000E+00 -0.15128377134E+03  0.15128377134E+03  0.00000000000E+00 0. -1.
         23    2    1    2    0    0  0.17078746257E+02  0.33967526703E+02 -0.63566589799E+02  0.11629879243E+03  0.89661704974E+02 0.  0.
          5    1    1    2  502    0  0.21563786081E+02 -0.72363580175E+02 -0.73712144832E+00  0.75627378335E+02  0.41800000000E+01 0.  1.
         -5    1    1    2    0  502 -0.38642532338E+02  0.38396053472E+02  0.90401179101E+01  0.55377778572E+02  0.41800000000E+01 0.  1.
        -11    1    3    3    0    0 -0.91203537214E+01 -0.80912292310E+01  0.17475654610E+02  0.21308386765E+02  0.00000000000E+00 0.  1.
         11    1    3    3    0    0  0.26199099978E+02  0.42058755934E+02 -0.81042244409E+02  0.94990405669E+02  0.00000000000E+00 0. -1.
</event>
<event>
 7    1  0.4096326E-006  0.9934610E+02  0.7561462E-02  0.1281677E+00
         -1   -1    0    0    0  501 -0.00000000000E+00  0.00000000000E+00  0.35709946814E+02  0.35709946814E+02  0.00000000000E+00 0.  1.
          1   -1    0    0  501    0  0.00000000000E+00 -0.00000000000E+00 -0.50413206271E+03  0.50413206271E+03  0.00000000000E+00 0. -1.
         23    2    1    2    0    0  0.59613075981E+02 -0.14736312388E+02 -0.28498740477E+03  0.30574094710E+03  0.92134836649E+02 0.  0.
          5    1    1    2  502    0  0.97087989742E+00  0.41960732448E+02 -0.35833985053E+01  0.42331534583E+02  0.41800000000E+01 0. -1.
         -5    1    1    2    0  502 -0.60583955879E+02 -0.27224420059E+02 -0.17985131262E+03  0.19176952784E+03  0.41800000000E+01 0.  1.
        -11    1    3    3    0    0 -0.38423314923E+01 -0.25336982235E+02 -0.18522891378E+02  0.31619988695E+02  0.00000000000E+00 0.  1.
         11    1    3    3    0    0  0.63455407474E+02  0.10600669847E+02 -0.26646451339E+03  0.27412095840E+03  0.00000000000E+00 0. -1.
</event>
<event>
 7    1  0.4096326E-006  0.1243875E+03  0.7561462E-02  0.1236030E+00
          4   -1    0    0  501    0  0.00000000000E+00  0.00000000000E+00  0.19026776193E+02  0.19026776193E+02  0.00000000000E+00 0. -1.
         -4   -1    0    0    0  501 -0.00000000000E+00 -0.00000000000E+00 -0.11745008891E+04  0.11745008891E+04  0.00000000000E+00 0.  1.
         23    2    1    2    0    0  0.78871622940E+02  0.21954004611E+02 -0.27866552054E+03  0.30406547025E+03  0.89992369863E+02 0.  0.
          5    1    1    2  502    0  0.14674060248E+02  0.21361453079E+02 -0.52246977025E+02  0.58471007603E+02  0.41800000000E+01 0.  1.
         -5    1    1    2    0  502 -0.93545683187E+02 -0.43315457690E+02 -0.82456161533E+03  0.83099118743E+03  0.41800000000E+01 0.  1.
        -11    1    3    3    0    0  0.79467412912E+02 -0.16276200094E+02 -0.21509819465E+03  0.22988522733E+03  0.00000000000E+00 0.  1.
         11    1    3    3    0    0 -0.59578997260E+00  0.38230204706E+02 -0.63567325891E+02  0.74180242912E+02  0.00000000000E+00 0. -1.
</event>
<event>
 7    1  0.4096326E-006  0.1312903E+03  0.7561462E-02  0.1225554E+00
         -2   -1    0    0    0  501 -0.00000000000E+00  0.00000000000E+00  0.99902740007E+02  0.99902740007E+02  0.00000000000E+00 0.  1.
          2   -1    0    0  501    0  0.00000000000E+00 -0.00000000000E+00 -0.27836805505E+03  0.27836805505E+03  0.00000000000E+00 0. -1.
         23    2    1    2    0    0 -0.66021783479E+02 -0.27239970320E+02 -0.17420710196E+03  0.21358788169E+03  0.10085026998E+03 0.  0.
          5    1    1    2  502    0 -0.24091698034E+02 -0.30113073740E+02 -0.36258377142E+02  0.53097546433E+02  0.41800000000E+01 0. -1.
         -5    1    1    2    0  502  0.90113481513E+02  0.57353044060E+02  0.32000164062E+02  0.11158536693E+03  0.41800000000E+01 0.  1.
        -11    1    3    3    0    0 -0.66564235126E+02  0.20112539547E+02 -0.67801735817E+02  0.97120476856E+02  0.00000000000E+00 0.  1.
         11    1    3    3    0    0  0.54245164704E+00 -0.47352509866E+02 -0.10640536615E+03  0.11646740484E+03  0.00000000000E+00 0. -1.
</event>
<event>
 7    1  0.4096326E-006  0.1423450E+03  0.7561462E-02  0.1210208E+00
         -2   -1    0    0    0  501 -0.00000000000E+00  0.00000000000E+00  0.96180261694E+02  0.96180261694E+02  0.00000000000E+00 0.  1.
          2   -1    0    0  501    0  0.00000000000E+00 -0.00000000000E+00 -0.25814119874E+03  0.25814119874E+03  0.00000000000E+00 0. -1.
         23    2    1    2    0    0  0.92072663210E+02  0.65620489799E+02 -0.92983850692E+02  0.17214607813E+03  0.90580636643E+02 0.  0.
          5    1    1    2  502    0 -0.51358422181E+02 -0.81079962250E+02  0.50339315689E+01  0.96200107455E+02  0.41800000000E+01 0. -1.
         -5    1    1    2    0  502 -0.40714241029E+02  0.15459472451E+02 -0.74011017926E+02  0.85975274849E+02  0.41800000000E+01 0. -1.
        -11    1    3    3    0    0  0.97215153507E+02  0.20366126058E+02 -0.64185564487E+02  0.11825967973E+03  0.00000000000E+00 0. -1.
         11    1    3    3    0    0 -0.51424902969E+01  0.45254363741E+02 -0.28798286205E+02  0.53886398399E+02  0.00000000000E+00 0.  1.
</event>
<event>
 7    1  0.4096326E-006  0.2470490E+03  0.7561462E-02  0.1115184E+00
         -1   -1    0    0    0  501 -0.00000000000E+00  0.00000000000E+00  0.27403793179E+03  0.27403793179E+03  0.00000000000E+00 0.  1.
          1   -1    0    0  501    0  0.00000000000E+00 -0.00000000000E+00 -0.36063936238E+03  0.36063936238E+03  0.00000000000E+00 0. -1.
         23    2    1    2    0    0  0.15269282492E+02 -0.23339648242E+01 -0.18088811538E+03  0.20587310383E+03  0.97080514085E+02 0.  0.
          5    1    1    2  502    0  0.10258791140E+03  0.17685854485E+03  0.20095210705E+02  0.20548604416E+03  0.41800000000E+01 0. -1.
         -5    1    1    2    0  502 -0.11785719389E+03 -0.17452458002E+03  0.74191474096E+02  0.22331814618E+03  0.41800000000E+01 0.  1.
        -11    1    3    3    0    0  0.45834612152E+02  0.83405481103E+01 -0.16161355772E+03  0.16819428781E+03  0.00000000000E+00 0. -1.
         11    1    3    3    0    0 -0.30565329660E+02 -0.10674512934E+02 -0.19274557667E+02  0.37678816023E+02  0.00000000000E+00 0.  1.
</event>
<event>
 7    1  0.4096326E-006  0.1234835E+03  0.7561462E-02  0.1237459E+00
         -2   -1    0    0    0  501 -0.00000000000E+00  0.00000000000E+00  0.17633720474E+03  0.17633720474E+03  0.00000000000E+00 0.  1.
          2   -1    0    0  501    0  0.00000000000E+00 -0.00000000000E+00 -0.10188826385E+03  0.10188826385E+03  0.00000000000E+00 0. -1.
         23    2    1    2    0    0  0.39654902181E+02  0.59249359824E+02  0.70574629112E+02  0.13418089250E+03  0.89110805918E+02 0.  0.
          5    1    1    2  502    0 -0.62796153075E+02  0.67131730741E+01 -0.25326669263E+02  0.68171373095E+02  0.41800000000E+01 0. -1.
         -5    1    1    2    0  502  0.23141250894E+02 -0.65962532898E+02  0.29200981038E+02  0.75873202996E+02  0.41800000000E+01 0. -1.
        -11    1    3    3    0    0 -0.16941515984E+02 -0.13366453960E+02  0.18395584419E+02  0.28356208869E+02  0.00000000000E+00 0. -1.
         11    1    3    3    0    0  0.56596418165E+02  0.72615813784E+02  0.52179044692E+02  0.10582468363E+03  0.00000000000E+00 0.  1.
</event>
<event>
 7    1  0.4096326E-006  0.1929355E+03  0.7561462E-02  0.1155840E+00
          1   -1    0    0  501    0  0.00000000000E+00  0.00000000000E+00  0.30634355682E+03  0.30634355682E+03  0.00000000000E+00 0. -1.
         -1   -1    0    0    0  501 -0.00000000000E+00 -0.00000000000E+00 -0.14631821148E+03  0.14631821148E+03  0.00000000000E+00 0.  1.
         23    2    1    2    0    0 -0.45920689604E+02  0.16625989515E+03  0.13546086344E+03  0.23817988796E+03  0.92892147313E+02 0.  0.
          5    1    1    2  502    0  0.83976364016E+02 -0.71117505733E+02  0.62299546154E+01  0.11029965580E+03  0.41800000000E+01 0. -1.
         -5    1    1    2    0  502 -0.38055674412E+02 -0.95142389422E+02  0.18334527288E+02  0.10418222454E+03  0.41800000000E+01 0. -1.
        -11    1    3    3    0    0 -0.44204851305E+02  0.13860980163E+03  0.59250201615E+02  0.15709020459E+03  0.00000000000E+00 0.  1.
         11    1    3    3    0    0 -0.17158382995E+01  0.27650093530E+02  0.76210661826E+02  0.81089683371E+02  0.00000000000E+00 0. -1.
</event>
<event>
 7    1  0.4096326E-006  0.1850491E+03  0.7561462E-02  0.1163004E+00
          2   -1    0    0  501    0  0.00000000000E+00  0.00000000000E+00  0.80237820391E+03  0.80237820391E+03  0.00000000000E+00 0. -1.
         -2   -1    0    0    0  501 -0.00000000000E+00 -0.00000000000E+00 -0.48467279777E+02  0.48467279777E+02  0.00000000000E+00 0.  1.
         23    2    1    2    0    0 -0.13199324613E+02 -0.16371160117E+03  0.34477783090E+03  0.39257325843E+03  0.90919195053E+02 0.  0.
          5    1    1    2  502    0  0.65786589162E+02  0.11947150007E+03  0.24829869091E+03  0.28332141986E+03  0.41800000000E+01 0.  1.
         -5    1    1    2    0  502 -0.52587264549E+02  0.44240101104E+02  0.16083440233E+03  0.17495080540E+03  0.41800000000E+01 0.  1.
        -11    1    3    3    0    0 -0.49241239462E+01 -0.12977475839E+03  0.16782189486E+03  0.21220255254E+03  0.00000000000E+00 0.  1.
         11    1    3    3    0    0 -0.82752006671E+01 -0.33936842784E+02  0.17695593603E+03  0.18037070589E+03  0.00000000000E+00 0. -1.
</event>
<event>
 7    1  0.4096326E-006  0.2026358E+03  0.7561462E-02  0.1147534E+00
         -1   -1    0    0    0  501 -0.00000000000E+00  0.00000000000E+00  0.10770524786E+03  0.10770524786E+03  0.00000000000E+00 0.  1.
          1   -1    0    0  501    0  0.00000000000E+00 -0.00000000000E+00 -0.42073755759E+03  0.42073755759E+03  0.00000000000E+00 0. -1.
         23    2    1    2    0    0  0.15933702471E+03 -0.89385301770E+02 -0.15212952807E+03  0.25473804310E+03  0.91488019305E+02 0.  0.
          5    1    1    2  502    0 -0.31039264245E+01  0.62308181000E+02 -0.39465026670E+02  0.73938518439E+02  0.41800000000E+01 0.  1.
         -5    1    1    2    0  502 -0.15623309828E+03  0.27077120770E+02 -0.12143775500E+03  0.19976624391E+03  0.41800000000E+01 0.  1.
        -11    1    3    3    0    0  0.12626752409E+02 -0.15100620408E+02  0.11463992760E+02  0.22779085651E+02  0.00000000000E+00 0.  1.
         11    1    3    3    0    0  0.14671027230E+03 -0.74284681362E+02 -0.16359352083E+03  0.23195895745E+03  0.00000000000E+00 0. -1.
</event>
<event>
 7    1  0.4096326E-006  0.1110503E+03  0.7561462E-02  0.1258637E+00
         -3   -1    0    0    0  501 -0.00000000000E+00  0.00000000000E+00  0.39928162347E+02  0.39928162347E+02  0.00000000000E+00 0.  1.
          3   -1    0    0  501    0  0.00000000000E+00 -0.00000000000E+00 -0.36967505248E+03  0.36967505248E+03  0.00000000000E+00 0. -1.
         23    2    1    2    0    0 -0.15189685720E+01  0.52045306217E+02 -0.11496129250E+03  0.15565095248E+03  0.91104879500E+02 0.  0.
          5    1    1    2  502    0  0.39493584639E+01  0.41462865904E+02 -0.67020384198E+02  0.79018801429E+02  0.41800000000E+01 0.  1.
         -5    1    1    2    0  502 -0.24303898920E+01 -0.93508172121E+02 -0.14776521344E+03  0.17493346092E+03  0.41800000000E+01 0.  1.
        -11    1    3    3    0    0  0.33775168094E+02  0.22545414096E+02 -0.11160182900E+02  0.42114218013E+02  0.00000000000E+00 0.  1.
         11    1    3    3    0    0 -0.35294136666E+02  0.29499892121E+02 -0.10380110960E+03  0.11353673446E+03  0.00000000000E+00 0. -1.
</event>
<event>
 7    1  0.4096326E-006  0.1658329E+03  0.7561462E-02  0.1182264E+00
         -1   -1    0    0    0  501 -0.00000000000E+00  0.00000000000E+00  0.87475034729E+02  0.87475034729E+02  0.00000000000E+00 0.  1.
          1   -1    0    0  501    0  0.00000000000E+00 -0.00000000000E+00 -0.34134764975E+03  0.34134764975E+03  0.00000000000E+00 0. -1.
         23    2    1    2    0    0  0.13971252107E+02 -0.13129535109E+03 -0.14964100859E+03  0.21918533556E+03  0.90642786628E+02 0.  0.
          5    1    1    2  502    0  0.33669159839E+02  0.12585386339E+03 -0.57210322284E+02  0.14234922069E+03  0.41800000000E+01 0.  1.
         -5    1    1    2    0  502 -0.47640411946E+02  0.54414877000E+01 -0.47021284146E+02  0.67288128236E+02  0.41800000000E+01 0.  1.
        -11    1    3    3    0    0 -0.31404104302E+02 -0.36916336650E+02 -0.19745666781E+02  0.52334740233E+02  0.00000000000E+00 0.  1.
         11    1    3    3    0    0  0.45375356408E+02 -0.94379014439E+02 -0.12989534181E+03  0.16685059532E+03  0.00000000000E+00 0. -1.
</event>
<event>
 7    1  0.4096326E-006  0.2019401E+03  0.7561462E-02  0.1148112E+00
         -1   -1    0    0    0  501 -0.00000000000E+00  0.00000000000E+00  0.27409360330E+02  0.27409360330E+02  0.00000000000E+00 0.  1.
          1   -1    0    0  501    0  0.00000000000E+00 -0.00000000000E+00 -0.19030912587E+04  0.19030912587E+04  0.00000000000E+00 0. -1.
         23    2    1    2    0    0  0.40429937605E+02 -0.18712353815E+03 -0.11515919327E+04  0.11711566698E+04  0.93777222208E+02 0.  0.
          5    1    1    2  502    0 -0.78224559627E+01  0.68656381415E+02 -0.49063467504E+03  0.49549444626E+03  0.41800000000E+01 0. -1.
         -5    1    1    2    0  502 -0.32607481642E+02  0.11846715674E+03 -0.23345529064E+03  0.26384950296E+03  0.41800000000E+01 0. -1.
        -11    1    3    3    0    0  0.66107918239E+02 -0.16523350018E+03 -0.10131658586E+04  0.10286775119E+04  0.00000000000E+00 0.  1.
         11    1    3    3    0    0 -0.25677980634E+02 -0.21890037979E+02 -0.13842607406E+03  0.14247915789E+03  0.00000000000E+00 0. -1.
</event>
<event>
 6    1  0.4096326E-006  0.1261440E+03  0.7561462E-02  0.1233292E+00
          1   -1    0    0  501    0  0.00000000000E+00  0.00000000000E+00  0.26738849971E+03  0.26738849971E+03  0.00000000000E+00 0. -1.
         -1   -1    0    0    0  501 -0.00000000000E+00 -0.00000000000E+00 -0.85644327693E+02  0.85644327693E+02  0.00000000000E+00 0.  1.
          5    1    1    2  502    0  0.56269875922E+02 -0.29013875640E+02  0.27259260896E+02  0.69055366342E+02  0.41800000000E+01 0. -1.
         -5    1    1    2    0  502 -0.37766656455E+01  0.78841489018E+02  0.26077872233E+02  0.83233235034E+02  0.41800000000E+01 0.  1.
        -11    1    1    2    0    0 -0.28033255150E+01 -0.59170971357E+02 -0.36392422490E+01  0.59349023324E+02  0.00000000000E+00 0.  1.
         11    1    1    2    0    0 -0.49689884762E+02  0.93433579797E+01  0.13204628114E+03  0.14139520271E+03  0.00000000000E+00 0. -1.
</event>
<event>
 7    1  0.4096326E-006  0.8940467E+02  0.7561462E-02  0.1304300E+00
          2   -1    0    0  501    0  0.00000000000E+00  0.00000000000E+00  0.58044045459E+03  0.58044045459E+03  0.00000000000E+00 0. -1.
         -2   -1    0    0    0  501 -0.00000000000E+00 -0.00000000000E+00 -0.25436701709E+02  0.25436701709E+02  0.00000000000E+00 0.  1.
         23    2    1    2    0    0 -0.55145789562E+02 -0.37327206306E+01  0.26119789351E+03  0.28180258543E+03  0.90185177666E+02 0.  0.
          5    1    1    2  502    0 -0.18813303154E+02  0.26260660887E+02  0.17198629520E+02  0.36835145488E+02  0.41800000000E+01 0.  1.
         -5    1    1    2    0  502  0.73959092716E+02 -0.22527940256E+02  0.27660722985E+03  0.28723942538E+03  0.41800000000E+01 0.  1.
        -11    1    3    3    0    0 -0.45482586543E+02  0.14865336672E+02  0.25569470278E+03  0.26013347524E+03  0.00000000000E+00 0. -1.
         11    1    3    3    0    0 -0.96632030196E+01 -0.18598057303E+02  0.55031907318E+01  0.21669110186E+02  0.00000000000E+00 0.  1.
</event>
<event>
 7    1  0.4096326E-006  0.1341004E+03  0.7561462E-02  0.1221495E+00
         -1   -1    0    0    0  501 -0.00000000000E+00  0.00000000000E+00  0.26357407826E+03  0.26357407826E+03  0.00000000000E+00 0.  1.
          1   -1    0    0  501    0  0.00000000000E+00 -0.00000000000E+00 -0.20513868189E+03  0.20513868189E+03  0.00000000000E+00 0. -1.
         23    2    1    2    0    0  0.89380734761E+02 -0.23346484205E+02 -0.15175249451E+03  0.20725594774E+03  0.10673440969E+03 0.  0.
          5    1    1    2  502    0  0.94041878067E+01 -0.37797674715E+02  0.49482590283E+02  0.63111822215E+02  0.41800000000E+01 0.  1.
         -5    1    1    2    0  502 -0.98784922568E+02  0.61144158920E+02  0.16070530060E+03  0.19834499020E+03  0.41800000000E+01 0.  1.
        -11    1    3    3    0    0  0.93195557397E+02 -0.42405619517E+01 -0.54444476814E+02  0.10801664381E+03  0.00000000000E+00 0.  1.
         11    1    3    3    0    0 -0.38148226358E+01 -0.19105922253E+02 -0.97308017693E+02  0.99239303928E+02  0.00000000000E+00 0. -1.
</event>
<event>
 7    1  0.4096326E-006  0.3825403E+02  0.7561462E-02  0.1521468E+00
         -1   -1    0    0    0  501 -0.00000000000E+00  0.00000000000E+00  0.16555293349E+03  0.16555293349E+03  0.00000000000E+00 0.  1.
          1   -1    0    0  501    0  0.00000000000E+00 -0.00000000000E+00 -0.71354881800E+02  0.71354881800E+02  0.00000000000E+00 0. -1.
         23    2    1    2    0    0 -0.58198572198E+01 -0.69830398149E+01  0.41048015298E+02  0.10069086081E+03  0.91493586161E+02 0.  0.
          5    1    1    2  502    0  0.17479666679E+02  0.18172056378E+02  0.91175050202E+02  0.94689622238E+02  0.41800000000E+01 0. -1.
         -5    1    1    2    0  502 -0.11659809460E+02 -0.11189016563E+02 -0.38025013805E+02  0.41527332242E+02  0.41800000000E+01 0. -1.
        -11    1    3    3    0    0  0.13596666702E+02  0.78799487067E-01  0.66518689075E+02  0.67894120150E+02  0.00000000000E+00 0.  1.
         11    1    3    3    0    0 -0.19416523921E+02 -0.70618393020E+01 -0.25470673777E+02  0.32796740664E+02  0.00000000000E+00 0. -1.
</event>
<event>
 7    1  0.4096326E-006  0.1484102E+03  0.7561462E-02  0.1202440E+00
          2   -1    0    0  501    0  0.00000000000E+00  0.00000000000E+00  0.10929426451E+03  0.10929426451E+03  0.00000000000E+00 0. -1.
         -2   -1    0    0    0  501 -0.00000000000E+00 -0.00000000000E+00 -0.26974026845E+03  0.26974026845E+03  0.00000000000E+00 0.  1.
         23    2    1    2    0    0  0.65337927072E+02  0.11667791673E+03 -0.66802502942E+02  0.17336719837E+03  0.87811332450E+02 0.  0.
          5    1    1    2  502    0 -0.16271128699E+02 -0.95851677198E+01 -0.85338412031E+02  0.87502811597E+02  0.41800000000E+01 0.  1.
         -5    1    1    2    0  502 -0.49066798372E+02 -0.10709274901E+03 -0.83050889711E+01  0.11816452300E+03  0.41800000000E+01 0.  1.
        -11    1    3    3    0    0  0.79731151309E+02  0.56472756504E+02 -0.46628467195E+02  0.10826099329E+03  0.00000000000E+00 0. -1.
         11    1    3    3    0    0 -0.14393224237E+02  0.60205160221E+02 -0.20174035747E+02  0.65106205077E+02  0.00000000000E+00 0.  1.
</event>
<event>
 7    1  0.4096326E-006  0.1022122E+03  0.7561462E-02  0.1275712E+00
         -1   -1    0    0    0  501 -0.00000000000E+00  0.00000000000E+00  0.48267509261E+03  0.48267509261E+03  0.00000000000E+00 0.  1.
          1   -1    0    0  501    0  0.00000000000E+00 -0.00000000000E+00 -0.26188006356E+02  0.26188006356E+02  0.00000000000E+00 0. -1.
         23    2    1    2    0    0 -0.23474344452E+02  0.17144788368E+02  0.11807282447E+03  0.14690085987E+03  0.82423795937E+02 0.  0.
          5    1    1    2  502    0  0.58859305560E+02 -0.49888330761E+02  0.17006830205E+03  0.18679925899E+03  0.41800000000E+01 0.  1.
         -5    1    1    2    0  502 -0.35384961108E+02  0.32743542393E+02  0.16834595973E+03  0.17516298011E+03  0.41800000000E+01 0.  1.
        -11    1    3    3    0    0 -0.10898167886E+02  0.46006671761E+02  0.37340117620E+02  0.60246728489E+02  0.00000000000E+00 0. -1.
         11    1    3    3    0    0 -0.12576176566E+02 -0.28861883393E+02  0.80732706849E+02  0.86654131379E+02  0.00000000000E+00 0.  1.
</event>
<event>
 7    1  0.4096326E-006  0.2148210E+03  0.7561462E-02  0.1137804E+00
         -1   -1    0    0    0  501 -0.00000000000E+00  0.00000000000E+00  0.70913630444E+03  0.70913630444E+03  0.00000000000E+00 0.  1.
          1   -1    0    0  501    0  0.00000000000E+00 -0.00000000000E+00 -0.11202033598E+03  0.11202033598E+03  0.00000000000E+00 0. -1.
         23    2    1    2    0    0 -0.51098934218E+02  0.20595360574E+03  0.72867838104E+02  0.24192327717E+03  0.90493985493E+02 0.  0.
          5    1    1    2  502    0 -0.19834244790E+00 -0.58845220705E+02  0.41974895898E+02  0.72402787413E+02  0.41800000000E+01 0.  1.
         -5    1    1    2    0  502  0.51297276666E+02 -0.14710838503E+03  0.48227323445E+03  0.50683057585E+03  0.41800000000E+01 0.  1.
        -11    1    3    3    0    0  0.47029431122E+01  0.24839147216E+02  0.43264646234E+02  0.50109186005E+02  0.00000000000E+00 0.  1.
         11    1    3    3    0    0 -0.55801877330E+02  0.18111445852E+03  0.29603191870E+02  0.19181409116E+03  0.00000000000E+00 0. -1.
</event>
<event>
 7    1  0.4096326E-006  0.1144400E+03  0.7561462E-02  0.1252562E+00
         -1   -1    0    0    0  501 -0.00000000000E+00  0.00000000000E+00  0.79755243878E+02  0.79755243878E+02  0.00000000000E+00 0.  1.
          1   -1    0    0  501    0  0.00000000000E+00 -0.00000000000E+00 -0.23668141606E+03  0.23668141606E+03  0.00000000000E+00 0. -1.
         23    2    1    2    0    0  0.67410395953E+02  0.44420157411E+02 -0.93134336401E+02  0.15446348440E+03  0.93100223028E+02 0.  0.
          5    1    1    2  502    0 -0.44648769053E+02 -0.64952807433E+02 -0.91220214214E+02  0.12062744154E+03  0.41800000000E+01 0.  1.
         -5    1    1    2    0  502 -0.22761626900E+02  0.20532650022E+02  0.27428378438E+02  0.41345733997E+02  0.41800000000E+01 0.  1.
        -11    1    3    3    0    0  0.45321870224E+02  0.71136652618E+02 -0.83025960554E+02  0.11835457487E+03  0.00000000000E+00 0. -1.
         11    1    3    3    0    0  0.22088525729E+02 -0.26716495207E+02 -0.10108375847E+02  0.36108909528E+02  0.00000000000E+00 0.  1.
</event>
<event>
 7    1  0.4096326E-006  0.6720937E+02  0.7561462E-02  0.1369848E+00
          1   -1    0    0  501    0  0.00000000000E+00  0.00000000000E+00  0.41137151541E+03  0.41137151541E+03  0.00000000000E+00 0. -1.
         -1   -1    0    0    0  501 -0.00000000000E+00 -0.00000000000E+00 -0.30008294947E+02  0.30008294947E+02  0.00000000000E+00 0.  1.
         23    2    1    2    0    0 -0.13121420239E+01  0.23788644985E+02  0.19608573575E+03  0.21656364411E+03  0.88783865874E+02 0.  0.
          5    1    1    2  502    0  0.25787949734E+02 -0.16814584460E+02  0.19484605703E+03  0.19730739201E+03  0.41800000000E+01 0.  1.
         -5    1    1    2    0  502 -0.24475807710E+02 -0.69740605243E+01 -0.95685723218E+01  0.27508774228E+02  0.41800000000E+01 0.  1.
        -11    1    3    3    0    0 -0.37131800012E+02  0.18038656200E+02  0.44509032856E+02  0.60705993901E+02  0.00000000000E+00 0.  1.
         11    1    3    3    0    0  0.35819657988E+02  0.57499887841E+01  0.15157670289E+03  0.15585765021E+03  0.00000000000E+00 0. -1.
</event>
<event>
 7    1  0.4096326E-006  0.1484343E+03  0.7561462E-02  0.1202410E+00
         -1   -1    0    0    0  501 -0.00000000000E+00  0.00000000000E+00  0.19157927392E+03  0.19157927392E+03  0.00000000000E+00 0.  1.
          1   -1    0    0  501    0  0.00000000000E+00 -0.00000000000E+00 -0.18403246584E+03  0.18403246584E+03  0.00000000000E+00 0. -1.
         23    2    1    2    0    0  0.27440546447E+02  0.32052723385E+02 -0.43237843999E+02  0.12222780089E+03  0.10625329872E+03 0.  0.
          5    1    1    2  502    0 -0.10295862838E+03 -0.75103965718E+01 -0.58117852235E+02  0.11854131079E+03  0.41800000000E+01 0. -1.
         -5    1    1    2    0  502  0.75518081936E+02 -0.24542326813E+02  0.10890250431E+03  0.13484262809E+03  0.41800000000E+01 0.  1.
        -11    1    3    3    0    0 -0.35515506842E+02  0.36494317031E+02 -0.15003544888E+02  0.53087595171E+02  0.00000000000E+00 0. -1.
         11    1    3    3    0    0  0.62956053290E+02 -0.44415936461E+01 -0.28234299111E+02  0.69140205714E+02  0.00000000000E+00 0.  1.
</event>
<event>
 7    1  0.4096326E-006  0.1578221E+03  0.7561462E-02  0.1191178E+00
          2   -1    0    0  501    0  0.00000000000E+00  0.00000000000E+00  0.83664647953E+03  0.83664647953E+03  0.00000000000E+00 0. -1.
         -2   -1    0    0    0  501 -0.00000000000E+00 -0.00000000000E+00 -0.41150770848E+02  0.41150770848E+02  0.00000000000E+00 0.  1.
         23    2    1    2    0    0  0.12620300525E+03  0.74665994711E+02  0.45468601364E+03  0.48625903080E+03  0.90588436002E+02 0.  0.
          5    1    1    2  502    0 -0.16761149669E+02 -0.86268768122E+01 -0.73281131911E+01  0.20652670159E+02  0.41800000000E+01 0. -1.
         -5    1    1    2    0  502 -0.10944185558E+03 -0.66039117899E+02  0.34813780823E+03  0.37088554941E+03  0.41800000000E+01 0. -1.
        -11    1    3    3    0    0  0.33792054312E+02  0.67829112042E+02  0.15428785704E+03  0.17189367121E+03  0.00000000000E+00 0. -1.
         11    1    3    3    0    0  0.92410950933E+02  0.68368826694E+01  0.30039815660E+03  0.31436535959E+03  0.00000000000E+00 0.  1.
</event>
<event>
 7    1  0.4096326E-006  0.1123501E+03  0.7561462E-02  0.1256279E+00
          1   -1    0    0  501    0  0.00000000000E+00  0.00000000000E+00  0.98561287695E+02  0.98561287695E+02  0.00000000000E+00 0. -1.
         -1   -1    0    0    0  501 -0.00000000000E+00 -0.00000000000E+00 -0.15849778688E+03  0.15849778688E+03  0.00000000000E+00 0.  1.
         23    2    1    2    0    0  0.17660528193E+02 -0.53069613713E+02  0.91590710775E+00  0.10713114990E+03  0.91367205485E+02 0.  0.
          5    1    1    2  502    0 -0.40977961023E+02 -0.27721138809E+02 -0.38474498471E+02  0.62812532659E+02  0.41800000000E+01 0. -1.
         -5    1    1    2    0  502  0.23317432830E+02  0.80790752522E+02 -0.22377907819E+02  0.87115392011E+02  0.41800000000E+01 0. -1.
        -11    1    3    3    0    0  0.45419398841E+02 -0.38312571873E+02  0.27952466207E+02  0.65666698727E+02  0.00000000000E+00 0. -1.
         11    1    3    3    0    0 -0.27758870648E+02 -0.14757041840E+02 -0.27036559099E+02  0.41464451177E+02  0.00000000000E+00 0.  1.
</event>
<event>
 7    1  0.4096326E-006  0.1004825E+03  0.7561462E-02  0.1279285E+00
         -2   -1    0    0    0  501 -0.00000000000E+00  0.00000000000E+00  0.18395020445E+03  0.18395020445E+03  0.00000000000E+00 0.  1.
          2   -1    0    0  501    0  0.00000000000E+00 -0.00000000000E+00 -0.84820553535E+02  0.84820553535E+02  0.00000000000E+00 0. -1.
         23    2    1    2    0    0  0.36356578241E+01 -0.36335657531E+02 -0.93787939893E+01  0.99199323635E+02  0.91755359609E+02 0.  0.
          5    1    1    2  502    0  0.45114659613E+02 -0.64046370321E+01  0.91671873936E+02  0.10245758517E+03  0.41800000000E+01 0.  1.
         -5    1    1    2    0  502 -0.48750317437E+02  0.42740294564E+02  0.16836570964E+02  0.67113849177E+02  0.41800000000E+01 0.  1.
        -11    1    3    3    0    0 -0.12385265064E+02  0.24433569719E+02  0.15655168291E+02  0.31551203054E+02  0.00000000000E+00 0.  1.
         11    1    3    3    0    0  0.16020922888E+02 -0.60769227250E+02 -0.25033962280E+02  0.67648120582E+02  0.00000000000E+00 0. -1.
</event>
<event>
 7    1  0.4096326E-006  0.1080070E+03  0.7561462E-02  0.1264306E+00
         -1   -1    0    0    0  501 -0.00000000000E+00  0.00000000000E+00  0.58305686334E+02  0.58305686334E+02  0.00000000000E+00 0.  1.
          1   -1    0    0  501    0  0.00000000000E+00 -0.00000000000E+00 -0.39528947650E+03  0.39528947650E+03  0.00000000000E+00 0. -1.
         23    2    1    2    0    0  0.34378801655E+02 -0.45750524073E+02 -0.28744396023E+03  0.30738924430E+03  0.92677423237E+02 0.  0.
          5    1    1    2  502    0 -0.24765346032E+02  0.84114713150E+02 -0.58432175920E+02  0.10545330206E+03  0.41800000000E+01 0. -1.
         -5    1    1    2    0  502 -0.96134556230E+01 -0.38364189078E+02  0.88923459891E+01  0.40752616478E+02  0.41800000000E+01 0. -1.
        -11    1    3    3    0    0 -0.72035282680E+01  0.13952487774E+02 -0.61921539509E+01  0.16879144088E+02  0.00000000000E+00 0.  1.
         11    1    3    3    0    0  0.41582329923E+02 -0.59703011847E+02 -0.28125180628E+03  0.29051010021E+03  0.00000000000E+00 0. -1.
</event>
<event>
 7    1  0.4096326E-006  0.1096590E+03  0.7561462E-02  0.1261203E+00
         -2   -1    0    0    0  501 -0.00000000000E+00  0.00000000000E+00  0.62604604733E+02  0.62604604733E+02  0.00000000000E+00 0.  1.
          2   -1    0    0  501    0  0.00000000000E+00 -0.00000000000E+00 -0.34088397265E+03  0.34088397265E+03  0.00000000000E+00 0. -1.
         23    2    1    2    0    0  0.28993489906E+01  0.55819365971E+02 -0.23843867635E+03  0.26080393258E+03  0.89674305280E+02 0.  0.
          5    1    1    2  502    0  0.10280264750E+01  0.38078017295E+02  0.46870739804E+01  0.38606130369E+02  0.41800000000E+01 0. -1.
         -5    1    1    2    0  502 -0.39273754656E+01 -0.93897383266E+02 -0.44527765548E+02  0.10407851443E+03  0.41800000000E+01 0. -1.
        -11    1    3    3    0    0  0.34126575993E+02  0.20628718353E+02 -0.38590001542E+02  0.55491940215E+02  0.00000000000E+00 0.  1.
         11    1    3    3    0    0 -0.31227227002E+02  0.35190647618E+02 -0.19984867481E+03  0.20531199236E+03  0.00000000000E+00 0. -1.
</event>
<event>
 7    1  0.4096326E-006  0.2616984E+03  0.7561462E-02  0.1106127E+00
          2   -1    0    0  501    0  0.00000000000E+00  0.00000000000E+00  0.84852182393E+03  0.84852182393E+03  0.00000000000E+00 0. -1.
         -2   -1    0    0    0  501 -0.00000000000E+00 -0.00000000000E+00 -0.97190825311E+02  0.97190825311E+02  0.00000000000E+00 0.  1.
         23    2    1    2    0    0  0.24281967135E+03 -0.34685087992E+01  0.54405961639E+03  0.60281046501E+03  0.91685152505E+02 0.  0.
          5    1    1    2  502    0 -0.22775594356E+03  0.34472710287E+02  0.14683580451E+03  0.27320205612E+03  0.41800000000E+01 0. -1.
         -5    1    1    2    0  502 -0.15063727798E+02 -0.31004201487E+02  0.60435577717E+02  0.69700128113E+02  0.41800000000E+01 0. -1.
        -11    1    3    3    0    0  0.20786452774E+03  0.29848632542E+02  0.46412471563E+03  0.50942158809E+03  0.00000000000E+00 0. -1.
         11    1    3    3    0    0  0.34955143617E+02 -0.33317141342E+02  0.79934900756E+02  0.93388876915E+02  0.00000000000E+00 0.  1.
</event>
<event>
 7    1  0.4096326E-006  0.1362096E+03  0.7561462E-02  0.1218522E+00
          1   -1    0    0  501    0  0.00000000000E+00  0.00000000000E+00  0.14009157723E+03  0.14009157723E+03  0.00000000000E+00 0. -1.
         -1   -1    0    0    0  501 -0.00000000000E+00 -0.00000000000E+00 -0.19532295092E+03  0.19532295092E+03  0.00000000000E+00 0.  1.
         23    2    1    2    0    0  0.12065325350E+03 -0.18978301853E+02 -0.16904650902E+01  0.15256969510E+03  0.91418109084E+02 0.  0.
          5    1    1    2  502    0 -0.25778289135E+02  0.52471647719E+01 -0.79166359512E+02  0.83527467382E+02  0.41800000000E+01 0. -1.
         -5    1    1    2    0  502 -0.94874964365E+02  0.13731137081E+02  0.25625450910E+02  0.99317365668E+02  0.41800000000E+01 0. -1.
        -11    1    3    3    0    0  0.66804276911E+01  0.26341203581E+02 -0.11536547007E+02  0.29522517459E+02  0.00000000000E+00 0.  1.
         11    1    3    3    0    0  0.11397282581E+03 -0.45319505434E+02  0.98460819170E+01  0.12304717764E+03  0.00000000000E+00 0. -1.
</event>
<event>
 7    1  0.4096326E-006  0.1589123E+03  0.7561462E-02  0.1189930E+00
          3   -1    0    0  501    0  0.00000000000E+00  0.00000000000E+00  0.35816266364E+02  0.35816266364E+02  0.00000000000E+00 0. -1.
         -3   -1    0    0    0  501 -0.00000000000E+00 -0.00000000000E+00 -0.76994650988E+03  0.76994650988E+03  0.00000000000E+00 0.  1.
         23    2    1    2    0    0  0.68242374064E+02  0.10497310332E+03 -0.33448910897E+03  0.36868519807E+03  0.91484628290E+02 0.  0.
          5    1    1    2  502    0 -0.13227237757E+02 -0.10862922905E+03 -0.18098294163E+03  0.21153620679E+03  0.41800000000E+01 0.  1.
         -5    1    1    2    0  502 -0.55015136307E+02  0.36561257288E+01 -0.21865819291E+03  0.22554137139E+03  0.41800000000E+01 0.  1.
        -11    1    3    3    0    0  0.46961448213E+02  0.10857851933E+01 -0.13199012758E+03  0.14009978704E+03  0.00000000000E+00 0. -1.
         11    1    3    3    0    0  0.21280925851E+02  0.10388731813E+03 -0.20249898139E+03  0.22858541103E+03  0.00000000000E+00 0.  1.
</event>
<event>
 7    1  0.4096326E-006  0.9241875E+02  0.7561462E-02  0.1297098E+00
          1   -1    0    0  501    0  0.00000000000E+00  0.00000000000E+00  0.34438963152E+03  0.34438963152E+03  0.00000000000E+00 0. -1.
         -1   -1    0    0    0  501 -0.00000000000E+00 -0.00000000000E+00 -0.52463080149E+02  0.52463080149E+02  0.00000000000E+00 0.  1.
         23    2    1    2    0    0  0.32685666758E+02  0.49906455638E+02  0.20838400503E+03  0.23503109994E+03  0.90866480387E+02 0.  0.
          5    1    1    2  502    0 -0.23174211712E+02  0.11478698590E+02 -0.25307544806E+02  0.36424563606E+02  0.41800000000E+01 0. -1.
         -5    1    1    2    0  502 -0.95114550458E+01 -0.61385154228E+02  0.10885009114E+03  0.12539704812E+03  0.41800000000E+01 0. -1.
        -11    1    3    3    0    0 -0.24628433871E+02  0.10195435970E+02  0.11747406516E+03  0.12046021192E+03  0.00000000000E+00 0. -1.
         11    1    3    3    0    0  0.57314100629E+02  0.39711019668E+02  0.90909939870E+02  0.11457088802E+03  0.00000000000E+00 0.  1.
</event>
<event>
 7    1  0.4096326E-006  0.1208438E+03  0.7561462E-02  0.1241712E+00
          2   -1    0    0  501    0  0.00000000000E+00  0.00000000000E+00  0.66637298655E+03  0.66637298655E+03  0.00000000000E+00 0. -1.
         -2   -1    0    0    0  501 -0.00000000000E+00 -0.00000000000E+00 -0.23533743988E+02  0.23533743988E+02  0.00000000000E+00 0.  1.
         23    2    1    2    0    0 -0.34247722194E+02  0.44909039004E+02  0.35256178802E+03  0.36881670498E+03  0.92391662174E+02 0.  0.
          5    1    1    2  502    0  0.38986087649E+02  0.37057769015E+02  0.13525586619E+03  0.14561873167E+03  0.41800000000E+01 0. -1.
         -5    1    1    2    0  502 -0.47383654547E+01 -0.81966808018E+02  0.15502158835E+03  0.17547129389E+03  0.41800000000E+01 0. -1.
        -11    1    3    3    0    0 -0.61289322891E+02  0.11187449746E+02  0.16582683315E+03  0.17714423142E+03  0.00000000000E+00 0.  1.
         11    1    3    3    0    0  0.27041600697E+02  0.33721589258E+02  0.18673495486E+03  0.19167247355E+03  0.00000000000E+00 0. -1.
</event>
<event>
 7    1  0.4096326E-006  0.1477112E+03  0.7561462E-02  0.1203314E+00
          1   -1    0    0  501    0  0.00000000000E+00  0.00000000000E+00  0.21264637510E+03  0.21264637510E+03  0.00000000000E+00 0. -1.
         -1   -1    0    0    0  501 -0.00000000000E+00 -0.00000000000E+00 -0.15825211038E+03  0.15825211038E+03  0.00000000000E+00 0.  1.
         23    2    1    2    0    0 -0.12273119541E+03  0.83559992094E+00  0.10777892063E+03  0.18770102712E+03  0.92475592973E+02 0.  0.
          5    1    1    2  502    0  0.12176160120E+03  0.27495021104E+02 -0.26440462708E+01  0.12492528605E+03  0.41800000000E+01 0. -1.
         -5    1    1    2    0  502  0.96959421205E+00 -0.28330621025E+02 -0.50740609629E+02  0.58272172314E+02  0.41800000000E+01 0. -1.
        -11    1    3    3    0    0 -0.82811783006E+02  0.34442821448E+02  0.31054793760E+02  0.94913115898E+02  0.00000000000E+00 0.  1.
         11    1    3    3    0    0 -0.39919412409E+02 -0.33607221527E+02  0.76724126865E+02  0.92787911222E+02  0.00000000000E+00 0. -1.
</event>
<event>
 7    1  0.4096326E-006  0.8701823E+02  0.7561462E-02  0.1310237E+00
         -3   -1    0    0    0  501 -0.00000000000E+00  0.00000000000E+00  0.42897312794E+03  0.42897312794E+03  0.00000000000E+00 0.  1.
          3   -1    0    0  501    0  0.00000000000E+00 -0.00000000000E+00 -0.39743667116E+02  0.39743667116E+02  0.00000000000E+00 0. -1.
         23    2    1    2    0    0  0.34046126506E+02 -0.29420275128E+02  0.71792899273E+02  0.12456785891E+03  0.91313962611E+02 0.  0.
          5    1    1    2  502    0  0.11486132141E+02  0.23645677646E+02  0.28851184716E+03  0.28973713544E+03  0.41800000000E+01 0. -1.
         -5    1    1    2    0  502 -0.45532258646E+02  0.57745974824E+01  0.28924714388E+02  0.54411800705E+02  0.41800000000E+01 0. -1.
        -11    1    3    3    0    0 -0.30794345902E+02 -0.17807412647E+01  0.16493819715E+02  0.34978691624E+02  0.00000000000E+00 0. -1.
         11    1    3    3    0    0  0.64840472407E+02 -0.27639533864E+02  0.55299079558E+02  0.89589167281E+02  0.00000000000E+00 0.  1.
</event>
<event>
 7    1  0.4096326E-006  0.6605420E+02  0.7561462E-02  0.1374049E+00
          2   -1    0    0  501    0  0.00000000000E+00  0.00000000000E+00  0.13499363784E+03  0.13499363784E+03  0.00000000000E+00 0. -1.
         -2   -1    0    0    0  501 -0.00000000000E+00 -0.00000000000E+00 -0.93729929063E+02  0.93729929063E+02  0.00000000000E+00 0.  1.
         23    2    1    2    0    0  0.12443082017E+02  0.28422823134E+02  0.21690353077E+02  0.98365176927E+02  0.90788487432E+02 0.  0.
          5    1    1    2  502    0  0.11703638107E+02 -0.14616554324E+02  0.70019592281E+02  0.72600513142E+02  0.41800000000E+01 0. -1.
         -5    1    1    2    0  502 -0.24146720125E+02 -0.13806268810E+02 -0.50446236581E+02  0.57757876835E+02  0.41800000000E+01 0. -1.
        -11    1    3    3    0    0  0.35395167021E+02  0.44435448886E+02  0.35672497714E+02  0.67080951538E+02  0.00000000000E+00 0. -1.
         11    1    3    3    0    0 -0.22952085004E+02 -0.16012625752E+02 -0.13982144637E+02  0.31284225388E+02  0.00000000000E+00 0.  1.
</event>
<event>
 7    1  0.4096326E-006  0.1177967E+03  0.7561462E-02  0.1246777E+00
          2   -1    0    0  501    0  0.00000000000E+00  0.00000000000E+00  0.62245688800E+03  0.62245688800E+03  0.00000000000E+00 0. -1.
         -2   -1    0    0    0  501 -0.00000000000E+00 -0.00000000000E+00 -0.37990918423E+02  0.37990918423E+02  0.00000000000E+00 0.  1.
         23    2    1    2    0    0  0.54151550492E+02  0.14933644782E+02  0.46901771293E+03  0.48118428260E+03  0.91680393845E+02 0.  0.
          5    1    1    2  502    0  0.35709943938E+02 -0.25427244633E+02  0.22367008219E+02  0.49391298043E+02  0.41800000000E+01 0.  1.
         -5    1    1    2    0  502 -0.89861494430E+02  0.10493599851E+02  0.93081248429E+02  0.12987222578E+03  0.41800000000E+01 0.  1.
        -11    1    3    3    0    0 -0.16966470335E+02  0.23897143350E+02  0.71806170212E+02  0.77556822114E+02  0.00000000000E+00 0.  1.
         11    1    3    3    0    0  0.71118020827E+02 -0.89634985679E+01  0.39721154272E+03  0.40362746049E+03  0.00000000000E+00 0. -1.
</event>
<event>
 6    1  0.4096326E-006  0.5641589E+02  0.7561462E-02  0.1413519E+00
          1   -1    0    0  501    0  0.00000000000E+00  0.00000000000E+00  0.10587798690E+03  0.10587798690E+03  0.00000000000E+00 0. -1.
         -1   -1    0    0    0  501 -0.00000000000E+00 -0.00000000000E+00 -0.88960102961E+02  0.88960102961E+02  0.00000000000E+00 0.  1.
          5    1    1    2  502    0 -0.14475797199E+02  0.11386552950E+02  0.65257023117E+02  0.67934922968E+02  0.41800000000E+01 0. -1.
         -5    1    1    2    0  502  0.47850711007E+02 -0.69361292741E+01 -0.59082605305E+02  0.76459316521E+02  0.41800000000E+01 0.  1.
        -11    1    1    2    0    0 -0.11806469130E+02 -0.16820772910E+02 -0.48228129967E+01  0.21109017974E+02  0.00000000000E+00 0. -1.
         11    1    1    2    0    0 -0.21568444678E+02  0.12370349234E+02  0.15566279120E+02  0.29334832395E+02  0.00000000000E+00 0.  1.
</event>
<event>
 7    1  0.4096326E-006  0.9346934E+02  0.7561462E-02  0.1294661E+00
         -3   -1    0    0    0  501 -0.00000000000E+00  0.00000000000E+00  0.76658280168E+02  0.76658280168E+02  0.00000000000E+00 0.  1.
          3   -1    0    0  501    0  0.00000000000E+00 -0.00000000000E+00 -0.17897503588E+03  0.17897503588E+03  0.00000000000E+00 0. -1.
         23    2    1    2    0    0 -0.32800876928E+02 -0.29879741787E+02 -0.40487528142E+02  0.10921696085E+03  0.91216271056E+02 0.  0.
          5    1    1    2  502    0 -0.24667859955E+01  0.49230718836E+02 -0.86062895659E+02  0.99267533058E+02  0.41800000000E+01 0. -1.
         -5    1    1    2    0  502  0.35267662924E+02 -0.19350977049E+02  0.24233668084E+02  0.47148822146E+02  0.41800000000E+01 0. -1.
        -11    1    3    3    0    0 -0.18017497633E+02 -0.60444529054E+02 -0.10546023595E+02  0.63948337955E+02  0.00000000000E+00 0.  1.
         11    1    3    3    0    0 -0.14783379296E+02  0.30564787267E+02 -0.29941504547E+02  0.45268622893E+02  0.00000000000E+00 0. -1.
</event>
<event>
 7    1  0.4096326E-006  0.1341035E+03  0.7561462E-02  0.1221491E+00
         -1   -1    0    0    0  501 -0.00000000000E+00  0.00000000000E+00  0.64784731901E+02  0.64784731901E+02  0.00000000000E+00 0.  1.
          1   -1    0    0  501    0  0.00000000000E+00 -0.00000000000E+00 -0.38730109084E+03  0.38730109084E+03  0.00000000000E+00 0. -1.
         23    2    1    2    0    0 -0.90884520498E+02  0.42040839195E+02 -0.23151825430E+03  0.26781600198E+03  0.89984891049E+02 0.  0.
          5    1    1    2  502    0  0.36754778051E+02  0.42232987296E+02 -0.13993008218E+02  0.57860311134E+02  0.41800000000E+01 0.  1.
         -5    1    1    2    0  502  0.54129742447E+02 -0.84273826491E+02 -0.77005096421E+02  0.12640950962E+03  0.41800000000E+01 0.  1.
        -11    1    3    3    0    0 -0.48625861411E+02 -0.46428761233E+01 -0.31507536546E+02  0.58127063885E+02  0.00000000000E+00 0.  1.
         11    1    3    3    0    0 -0.42258659087E+02  0.46683715319E+02 -0.20001071776E+03  0.20968893810E+03  0.00000000000E+00 0. -1.
</event>
<event>
 7    1  0.4096326E-006  0.9311994E+02  0.7561462E-02  0.1295467E+00
          1   -1    0    0  501    0  0.00000000000E+00  0.00000000000E+00  0.17034847115E+03  0.17034847115E+03  0.00000000000E+00 0. -1.
         -1   -1    0    0    0  501 -0.00000000000E+00 -0.00000000000E+00 -0.97158236623E+02  0.97158236623E+02  0.00000000000E+00 0.  1.
         23    2    1    2    0    0 -0.41861950031E+02  0.47895898425E+02  0.72902225513E+02  0.12717386049E+03  0.82534940240E+02 0.  0.
          5    1    1    2  502    0  0.47080849160E+02 -0.13900906226E+02  0.56086764332E+02  0.74652790201E+02  0.41800000000E+01 0.  1.
         -5    1    1    2    0  502 -0.52188991293E+01 -0.33994992199E+02 -0.55798755321E+02  0.65680057080E+02  0.41800000000E+01 0.  1.
        -11    1    3    3    0    0 -0.23242697147E+02 -0.20775826852E+02  0.11620505693E+02  0.33270018104E+02  0.00000000000E+00 0.  1.
         11    1    3    3    0    0 -0.18619252884E+02  0.68671725277E+02  0.61281719820E+02  0.93903842385E+02  0.00000000000E+00 0. -1.
</event>
<event>
 7    1  0.4096326E-006  0.1197183E+03  0.7561462E-02  0.1243563E+00
          2   -1    0    0  501    0  0.00000000000E+00  0.00000000000E+00  0.48932131456E+03  0.48932131456E+03  0.00000000000E+00 0. -1.
         -2   -1    0    0    0  501 -0.00000000000E+00 -0.00000000000E+00 -0.48091996039E+02  0.48091996039E+02  0.00000000000E+00 0.  1.
         23    2    1    2    0    0 -0.80030372289E+02  0.30402992847E+02  0.32388922608E+03  0.34572315427E+03  0.85387740132E+02 0.  0.
          5    1    1    2  502    0  0.22560213389E+02 -0.57718092263E+02  0.47462268074E+01  0.62292378920E+02  0.41800000000E+01 0.  1.
         -5    1    1    2    0  502  0.57470158900E+02  0.27315099416E+02  0.11259386563E+03  0.12939777741E+03  0.41800000000E+01 0.  1.
        -11    1    3    3    0    0 -0.53510358353E+02  0.55464059089E+02  0.15705448804E+03  0.17494494138E+03  0.00000000000E+00 0.  1.
         11    1    3    3    0    0 -0.26520013936E+02 -0.25061066242E+02  0.16683473804E+03  0.17077821289E+03  0.00000000000E+00 0. -1.
</event>
<event>
 7    1  0.4096326E-006  0.1240863E+03  0.7561462E-02  0.1236504E+00
         -2   -1    0    0    0  501 -0.00000000000E+00  0.00000000000E+00  0.11865202036E+03  0.11865202036E+03  0.00000000000E+00 0.  1.
          2   -1    0    0  501    0  0.00000000000E+00 -0.00000000000E+00 -0.21941525243E+03  0.21941525243E+03  0.00000000000E+00 0. -1.
         23    2    1    2    0    0 -0.10612179506E+03 -0.24727787422E+02 -0.95634808291E+02  0.17209472288E+03  0.92721508979E+02 0.  0.
          5    1    1    2  502    0  0.23680900100E+02  0.21875019071E+02  0.54944457989E+02  0.63840953569E+02  0.41800000000E+01 0. -1.
         -5    1    1    2    0  502  0.82440894960E+02  0.28527683515E+01 -0.60072881764E+02  0.10213159635E+03  0.41800000000E+01 0. -1.
        -11    1    3    3    0    0 -0.60126751836E+02  0.25190840488E+02 -0.15372764567E+02  0.66978553442E+02  0.00000000000E+00 0.  1.
         11    1    3    3    0    0 -0.45995043225E+02 -0.49918627910E+02 -0.80262043724E+02  0.10511616943E+03  0.00000000000E+00 0. -1.
</event>
<event>
 7    1  0.4096326E-006  0.9238461E+02  0.7561462E-02  0.1297178E+00
         -1   -1    0    0    0  501 -0.00000000000E+00  0.00000000000E+00  0.21338238919E+03  0.21338238919E+03  0.00000000000E+00 0.  1.
          1   -1    0    0  501    0  0.00000000000E+00 -0.00000000000E+00 -0.69390778834E+02  0.69390778834E+02  0.00000000000E+00 0. -1.
         23    2    1    2    0    0 -0.37905856799E+02  0.12244565486E+02  0.23130999277E+02  0.10432990419E+03  0.93610375587E+02 0.  0.
          5    1    1    2  502    0  0.74279585666E+02 -0.11062101948E+02  0.30908549018E+02  0.81318126814E+02  0.41800000000E+01 0. -1.
         -5    1    1    2    0  502 -0.36373728866E+02 -0.11824635384E+01  0.89952062059E+02  0.97125137016E+02  0.41800000000E+01 0. -1.
        -11    1    3    3    0    0 -0.46012704540E+02  0.28943716269E+02 -0.19565278637E+02  0.57772898652E+02  0.00000000000E+00 0. -1.
         11    1    3    3    0    0  0.81068477402E+01 -0.16699150783E+02  0.42696277914E+02  0.46557005540E+02  0.00000000000E+00 0.  1.
</event>
<event>
 7    1  0.4096326E-006  0.1329169E+03  0.7561462E-02  0.1223191E+00
         -1   -1    0    0    0  501 -0.00000000000E+00  0.00000000000E+00  0.25248704784E+03  0.25248704784E+03  0.00000000000E+00 0.  1.
          1   -1    0    0  501    0  0.00000000000E+00 -0.00000000000E+00 -0.10727847250E+03  0.10727847250E+03  0.00000000000E+00 0. -1.
         23    2    1    2    0    0  0.11491768528E+03 -0.11883090126E+02  0.14065236060E+02  0.14483894047E+03  0.86216040208E+02 0.  0.
          5    1    1    2  502    0  0.35072756870E+01 -0.22756657742E+02 -0.11667915419E+02  0.26149170246E+02  0.41800000000E+01 0. -1.
         -5    1    1    2    0  502 -0.11842496097E+03  0.34639747868E+02  0.14281125470E+03  0.18877740962E+03  0.41800000000E+01 0. -1.
        -11    1    3    3    0    0  0.45614563504E+02 -0.18778727421E+02  0.46698747810E+02  0.67927181999E+02  0.00000000000E+00 0.  1.
         11    1    3    3    0    0  0.69303121779E+02  0.68956372955E+01 -0.32633511749E+02  0.76911758471E+02  0.00000000000E+00 0. -1.
</event>
<event>
 7    1  0.4096326E-006  0.1232787E+03  0.7561462E-02  0.1237784E+00
         -2   -1    0    0    0  501 -0.00000000000E+00  0.00000000000E+00  0.93132960748E+02  0.93132960748E+02  0.00000000000E+00 0.  1.
          2   -1    0    0  501    0  0.00000000000E+00 -0.00000000000E+00 -0.25211355087E+03  0.25211355087E+03  0.00000000000E+00 0. -1.
         23    2    1    2    0    0  0.26854748077E+01 -0.68460913407E+02 -0.16752976775E+03  0.20236573063E+03  0.90507222987E+02 0.  0.
          5    1    1    2  502    0 -0.51204040452E+02  0.76604646844E+02 -0.25589847399E+01  0.92272132736E+02  0.41800000000E+01 0.  1.
         -5    1    1    2    0  502  0.48518565644E+02 -0.81437334369E+01  0.11108162367E+02  0.50608648249E+02  0.41800000000E+01 0.  1.
        -11    1    3    3    0    0  0.29707149529E+02 -0.71815411487E+02 -0.15274971070E+03  0.17138390292E+03  0.00000000000E+00 0.  1.
         11    1    3    3    0    0 -0.27021674722E+02  0.33544980800E+01 -0.14780057047E+02  0.30981827713E+02  0.00000000000E+00 0. -1.
</event>
<event>
 7    1  0.4096326E-006  0.2592482E+03  0.7561462E-02  0.1107596E+00
         -1   -1    0    0    0  501 -0.00000000000E+00  0.00000000000E+00  0.28934668359E+03  0.28934668359E+03  0.00000000000E+00 0.  1.
          1   -1    0    0  501    0  0.00000000000E+00 -0.00000000000E+00 -0.26502797079E+03  0.26502797079E+03  0.00000000000E+00 0. -1.
         23    2    1    2    0    0 -0.17724333838E+03 -0.16765694719E+03 -0.50848614428E+02  0.27008170347E+03  0.10408886597E+03 0.  0.
          5    1    1    2  502    0  0.14249586942E+03  0.75682257029E+02  0.89960550043E+02  0.18477892140E+03  0.41800000000E+01 0.  1.
         -5    1    1    2    0  502  0.34747468961E+02  0.91974690157E+02 -0.14793222818E+02  0.99514029513E+02  0.41800000000E+01 0.  1.
        -11    1    3    3    0    0 -0.12960123421E+03 -0.63864360414E+02  0.14085676747E+01  0.14448917089E+03  0.00000000000E+00 0. -1.
         11    1    3    3    0    0 -0.47642104163E+02 -0.10379258677E+03 -0.52257182103E+02  0.12559253258E+03  0.00000000000E+00 0.  1.
</event>
<event>
 7    1  0.4096326E-006  0.9707084E+02  0.7561462E-02  0.1286579E+00
          2   -1    0    0  501    0  0.00000000000E+00  0.00000000000E+00  0.24258815880E+03  0.24258815880E+03  0.00000000000E+00 0. -1.
         -2   -1    0    0    0  501 -0.00000000000E+00 -0.00000000000E+00 -0.49176881178E+02  0.49176881178E+02  0.00000000000E+00 0.  1.
         23    2    1    2    0    0  0.94178046387E+01  0.11591055851E+02  0.93506879861E+02  0.13097888190E+03  0.90492448871E+02 0.  0.
          5    1    1    2  502    0  0.55736862028E+02  0.58308453960E+01  0.60456610612E+02  0.82541327306E+02  0.41800000000E+01 0.  1.
         -5    1    1    2    0  502 -0.65154666667E+02 -0.17421901247E+02  0.39447787150E+02  0.78244830772E+02  0.41800000000E+01 0.  1.
        -11    1    3    3    0    0  0.28650921453E+02 -0.18898868676E+02  0.40860115934E+01  0.34564982686E+02  0.00000000000E+00 0.  1.
         11    1    3    3    0    0 -0.19233116814E+02  0.30489924527E+02  0.89420868268E+02  0.96413899215E+02  0.00000000000E+00 0. -1.
</event>
<event>
 7    1  0.4096326E-006  0.1203726E+03  0.7561462E-02  0.1242484E+00
         -4   -1    0    0    0  501 -0.00000000000E+00  0.00000000000E+00  0.22445033166E+03  0.22445033166E+03  0.00000000000E+00 0.  1.
          4   -1    0    0  501    0  0.00000000000E+00 -0.00000000000E+00 -0.78255012870E+02  0.78255012870E+02  0.00000000000E+00 0. -1.
         23    2    1    2    0    0 -0.15486142463E+02 -0.73089837735E+02  0.46664947206E+02  0.12626047905E+03  0.90455217002E+02 0.  0.
          5    1    1    2  502    0 -0.52915044011E+01 -0.24070280991E+02 -0.11392916642E+02  0.27470882684E+02  0.41800000000E+01 0. -1.
         -5    1    1    2    0  502  0.20777646864E+02  0.97160118725E+02  0.11092328822E+03  0.14897398280E+03  0.41800000000E+01 0. -1.
        -11    1    3    3    0    0 -0.41257434552E+02 -0.79657954239E+02  0.28783089275E+02  0.94212694514E+02  0.00000000000E+00 0.  1.
         11    1    3    3    0    0  0.25771292090E+02  0.65681165044E+01  0.17881857931E+02  0.32047784533E+02  0.00000000000E+00 0. -1.
</event>
<event>
 7    1  0.4096326E-006  0.1045572E+03  0.7561462E-02  0.1270995E+00
         -4   -1    0    0    0  501 -0.00000000000E+00  0.00000000000E+00  0.97375093350E+02  0.97375093350E+02  0.00000000000E+00 0.  1.
          4   -1    0    0  501    0  0.00000000000E+00 -0.00000000000E+00 -0.16055527576E+03  0.16055527576E+03  0.00000000000E+00 0. -1.
         23    2    1    2    0    0  0.39863526848E+02 -0.37814466037E+02 -0.58529685631E+02  0.12122600425E+03  0.90834934861E+02 0.  0.
          5    1    1    2  502    0  0.27782143390E+02 -0.39805984964E+01  0.37171177039E+02  0.46763890537E+02  0.41800000000E+01 0. -1.
         -5    1    1    2    0  502 -0.67645670238E+02  0.41795064533E+02 -0.41821673823E+02  0.89940474330E+02  0.41800000000E+01 0. -1.
        -11    1    3    3    0    0 -0.22697939781E+02 -0.30655078869E+02 -0.47916567046E+01  0.38443338886E+02  0.00000000000E+00 0.  1.
         11    1    3    3    0    0  0.62561466629E+02 -0.71593871680E+01 -0.53738028927E+02  0.82782665361E+02  0.00000000000E+00 0. -1.
</event>
<event>
 7    1  0.4096326E-006  0.1001886E+03  0.7561462E-02  0.1279900E+00
          1   -1    0    0  501    0  0.00000000000E+00  0.00000000000E+00  0.61615472248E+03  0.61615472248E+03  0.00000000000E+00 0. -1.
         -1   -1    0    0    0  501 -0.00000000000E+00 -0.00000000000E+00 -0.24857493950E+02  0.24857493950E+02  0.00000000000E+00 0.  1.
         23    2    1    2    0    0 -0.33949625362E+02  0.41675555057E+02  0.31294035969E+03  0.33114265924E+03  0.93991292638E+02 0.  0.
          5    1    1    2  502    0 -0.21030626872E+02 -0.34858099930E+02  0.23725796375E+03  0.24076168333E+03  0.41800000000E+01 0. -1.
         -5    1    1    2    0  502  0.54980252234E+02 -0.68174551272E+01  0.41098905090E+02  0.69107873862E+02  0.41800000000E+01 0. -1.
        -11    1    3    3    0    0  0.30180592655E+02  0.19971521543E+02  0.68161749976E+02  0.77173531768E+02  0.00000000000E+00 0.  1.
         11    1    3    3    0    0 -0.64130218017E+02  0.21704033514E+02  0.24477860972E+03  0.25396912747E+03  0.00000000000E+00 0. -1.
</event>
<event>
 7    1  0.4096326E-006  0.1274008E+03  0.7561462E-02  0.1231364E+00
          2   -1    0    0  501    0  0.00000000000E+00  0.00000000000E+00  0.48788623464E+03  0.48788623464E+03  0.00000000000E+00 0. -1.
         -2   -1    0    0    0  501 -0.00000000000E+00 -0.00000000000E+00 -0.36488817621E+02  0.36488817621E+02  0.00000000000E+00 0.  1.
         23    2    1    2    0    0 -0.68572615695E+02  0.39810879510E+02  0.21702551752E+03  0.24713475607E+03  0.87683536961E+02 0.  0.
          5    1    1    2  502    0  0.53431524041E+02 -0.80009594397E+02  0.20032043665E+03  0.22226608535E+03  0.41800000000E+01 0. -1.
         -5    1    1    2    0  502  0.15141091654E+02  0.40198714886E+02  0.34051462846E+02  0.54974210835E+02  0.41800000000E+01 0. -1.
        -11    1    3    3    0    0 -0.79609799279E+01 -0.25218509454E+02  0.29580305724E+02  0.39678015414E+02  0.00000000000E+00 0. -1.
         11    1    3    3    0    0 -0.60611635767E+02  0.65029388965E+02  0.18744521180E+03  0.20745674066E+03  0.00000000000E+00 0.  1.
</event>
<event>
 7    1  0.4096326E-006  0.1007611E+03  0.7561462E-02  0.1278704E+00
         -1   -1    0    0    0  501 -0.00000000000E+00  0.00000000000E+00  0.36320649894E+03  0.36320649894E+03  0.00000000000E+00 0.  1.
          1   -1    0    0  501    0  0.00000000000E+00 -0.00000000000E+00 -0.36151991489E+02  0.36151991489E+02  0.00000000000E+00 0. -1.
         23    2    1    2    0    0 -0.28449528836E+02  0.20802968045E+02  0.16080002516E+03  0.18833678671E+03  0.91498404175E+02 0.  0.
          5    1    1    2  502    0  0.10994727081E+02 -0.66850766832E+02  0.13874575443E+03  0.15445959285E+03  0.41800000000E+01 0.  1.
         -5    1    1    2    0  502  0.17454801755E+02  0.46047798788E+02  0.27508727855E+02  0.56562110866E+02  0.41800000000E+01 0.  1.
        -11    1    3    3    0    0 -0.10542724321E+02 -0.29234439643E+02  0.17876053697E+02  0.35851845045E+02  0.00000000000E+00 0. -1.
         11    1    3    3    0    0 -0.17906804515E+02  0.50037407687E+02  0.14292397146E+03  0.15248494167E+03  0.00000000000E+00 0.  1.
</event>
<event>
 7    1  0.4096326E-006  0.1162229E+03  0.7561462E-02  0.1249461E+00
          1   -1    0    0  501    0  0.00000000000E+00  0.00000000000E+00  0.13425791965E+04  0.13425791965E+04  0.00000000000E+00 0. -1.
         -1   -1    0    0    0  501 -0.00000000000E+00 -0.00000000000E+00 -0.11015588711E+02  0.11015588711E+02  0.00000000000E+00 0.  1.
         23    2    1    2    0    0 -0.54929177171E+02 -0.18493579932E+02  0.41848622665E+03  0.43181091057E+03  0.89278852977E+02 0.  0.
          5    1    1    2  502    0 -0.99768847125E+01  0.51864244550E+02  0.41593769610E+03  0.41929831568E+03  0.41800000000E+01 0. -1.
         -5    1    1    2    0  502  0.64906061883E+02 -0.33370664618E+02  0.49713968503E+03  0.50248555895E+03  0.41800000000E+01 0.  1.
        -11    1    3    3    0    0  0.15625981503E+02  0.20479652393E+02  0.10861180715E+03  0.11162487228E+03  0.00000000000E+00 0.  1.
         11    1    3    3    0    0 -0.70555158674E+02 -0.38973232325E+02  0.30987441950E+03  0.32018603829E+03  0.00000000000E+00 0. -1.
</event>
<event>
 7    1  0.5620073E-006  0.2736674E+03  0.7561462E-02  0.1099199E+00
          3   -1    0    0  501    0  0.00000000000E+00  0.00000000000E+00  0.40521891887E+03  0.40521891887E+03  0.00000000000E+00 0. -1.
         -3   -1    0    0    0  501 -0.00000000000E+00 -0.00000000000E+00 -0.22482446034E+03  0.22482446034E+03  0.00000000000E+00 0.  1.
         23    2    1    2    0    0 -0.25472216212E+03  0.47830094567E+02  0.20308674736E+03  0.34136737361E+03  0.90090837437E+02 0.  0.
          5    1    1    2  502    0  0.24440124515E+03 -0.64102451052E+01 -0.24514337070E+02  0.24574679040E+03  0.41800000000E+01 0.  1.
         -5    1    1    2    0  502  0.10320916977E+02 -0.41419849462E+02  0.18220482451E+01  0.42929215186E+02  0.41800000000E+01 0.  1.
        -11    1    3    3    0    0 -0.15559801622E+03  0.19400736058E+02  0.66737356273E+02  0.17041421870E+03  0.00000000000E+00 0.  1.
         11    1    3    3    0    0 -0.99124145903E+02  0.28429358509E+02  0.13634939108E+03  0.17095315491E+03  0.00000000000E+00 0. -1.
</event>
<event>
 7    1  0.4096326E-006  0.1248207E+03  0.7561462E-02  0.1235350E+00
         -1   -1    0    0    0  501 -0.00000000000E+00  0.00000000000E+00  0.27908598142E+02  0.27908598142E+02  0.00000000000E+00 0.  1.
          1   -1    0    0  501    0  0.00000000000E+00 -0.00000000000E+00 -0.60312163756E+03  0.60312163756E+03  0.00000000000E+00 0. -1.
         23    2    1    2    0    0 -0.44015215135E+02  0.69201661782E+02 -0.28395200921E+03  0.30851175766E+03  0.88456497343E+02 0.  0.
          5    1    1    2  502    0 -0.24303558471E+02 -0.64697976864E+02 -0.13037314324E+03  0.14761815621E+03  0.41800000000E+01 0. -1.
         -5    1    1    2    0  502  0.68318773605E+02 -0.45036849182E+01 -0.16088788697E+03  0.17490032184E+03  0.41800000000E+01 0.  1.
        -11    1    3    3    0    0 -0.11287675716E+02 -0.16544750306E+02 -0.17159967759E+02  0.26374322347E+02  0.00000000000E+00 0. -1.
         11    1    3    3    0    0 -0.32727539418E+02  0.85746412088E+02 -0.26679204145E+03  0.28213743531E+03  0.00000000000E+00 0.  1.
</event>
<event>
 7    1  0.4096326E-006  0.9344190E+02  0.7561462E-02  0.1294724E+00
         -1   -1    0    0    0  501 -0.00000000000E+00  0.00000000000E+00  0.25791473199E+03  0.25791473199E+03  0.00000000000E+00 0.  1.
          1   -1    0    0  501    0  0.00000000000E+00 -0.00000000000E+00 -0.61814352910E+02  0.61814352910E+02  0.00000000000E+00 0. -1.
         23    2    1    2    0    0  0.10151816761E+02  0.41899965890E+02  0.47268830197E+02  0.11201585272E+03  0.91948585780E+02 0.  0.
          5    1    1    2  502    0  0.37963449729E+02 -0.53197570861E+02  0.14361236139E+03  0.15783912000E+03  0.41800000000E+01 0. -1.
         -5    1    1    2    0  502 -0.48115266489E+02  0.11297604972E+02  0.52191874983E+01  0.49874112178E+02  0.41800000000E+01 0.  1.
        -11    1    3    3    0    0  0.30042629087E+02  0.58276871468E+01 -0.17503333762E+02  0.35254619452E+02  0.00000000000E+00 0. -1.
         11    1    3    3    0    0 -0.19890812326E+02  0.36072278743E+02  0.64772163959E+02  0.76761233266E+02  0.00000000000E+00 0.  1.
</event>
<event>
 7    1  0.4096326E-006  0.1417801E+03  0.7561462E-02  0.1210954E+00
          1   -1    0    0  501    0  0.00000000000E+00  0.00000000000E+00  0.63995098539E+03  0.63995098539E+03  0.00000000000E+00 0. -1.
         -1   -1    0    0    0  501 -0.00000000000E+00 -0.00000000000E+00 -0.66867326263E+02  0.66867326263E+02  0.00000000000E+00 0.  1.
         23    2    1    2    0    0  0.26608683913E+02 -0.12043599285E+03  0.48797158711E+03  0.51161434922E+03  0.91761223143E+02 0.  0.
          5    1    1    2  502    0 -0.43606004042E+02  0.12319856623E+02  0.71617819737E+02  0.84851911938E+02  0.41800000000E+01 0. -1.
         -5    1    1    2    0  502  0.16997320128E+02  0.10811613623E+03  0.13494252288E+02  0.11035205050E+03  0.41800000000E+01 0. -1.
        -11    1    3    3    0    0 -0.90728135042E+01 -0.20573076320E+02  0.15309213017E+02  0.27201827464E+02  0.00000000000E+00 0.  1.
         11    1    3    3    0    0  0.35681497417E+02 -0.99862916529E+02  0.47266237409E+03  0.48441252176E+03  0.00000000000E+00 0. -1.
</event>
<event>
 7    1  0.4096326E-006  0.8217423E+02  0.7561462E-02  0.1322992E+00
          2   -1    0    0  501    0  0.00000000000E+00  0.00000000000E+00  0.46631608703E+03  0.46631608703E+03  0.00000000000E+00 0.  1.
         -2   -1    0    0    0  501 -0.00000000000E+00 -0.00000000000E+00 -0.34242291793E+02  0.34242291793E+02  0.00000000000E+00 0. -1.
         23    2    1    2    0    0  0.42814990100E+02  0.52598855263E+02  0.19582000232E+03  0.22477264283E+03  0.87048863886E+02 0.  0.
          5    1    1    2  502    0  0.53546049728E+01  0.29120938780E+01 -0.13509782657E+02  0.15399308836E+02  0.41800000000E+01 0.  1.
         -5    1    1    2    0  502 -0.48169595072E+02 -0.55510949141E+02  0.24976357558E+03  0.26038642716E+03  0.41800000000E+01 0.  1.
        -11    1    3    3    0    0  0.46883583928E+01  0.44011270346E+02  0.17496140292E+03  0.18047289307E+03  0.00000000000E+00 0.  1.
         11    1    3    3    0    0  0.38126631707E+02  0.85875849171E+01  0.20858599408E+02  0.44299749765E+02  0.00000000000E+00 0. -1.
</event>
<event>
 7    1  0.4096326E-006  0.1995652E+03  0.7561462E-02  0.1150106E+00
          1   -1    0    0  501    0  0.00000000000E+00  0.00000000000E+00  0.11889338746E+04  0.11889338746E+04  0.00000000000E+00 0. -1.
         -1   -1    0    0    0  501 -0.00000000000E+00 -0.00000000000E+00 -0.44459086045E+02  0.44459086045E+02  0.00000000000E+00 0.  1.
         23    2    1    2    0    0  0.11250800939E+03 -0.14979245953E+03  0.75227068912E+03  0.78057046290E+03  0.91012222972E+02 0.  0.
          5    1    1    2  502    0 -0.14904142197E+02 -0.33894680159E+01 -0.45178818648E+01  0.16477427123E+02  0.41800000000E+01 0. -1.
         -5    1    1    2    0  502 -0.97603867192E+02  0.15318192754E+03  0.39672198135E+03  0.43634507067E+03  0.41800000000E+01 0.  1.
        -11    1    3    3    0    0 -0.45017547418E+01 -0.42842703243E+02  0.92750778008E+02  0.10226666044E+03  0.00000000000E+00 0.  1.
         11    1    3    3    0    0  0.11700976413E+03 -0.10694975628E+03  0.65951991111E+03  0.67830380245E+03  0.00000000000E+00 0. -1.
</event>
<event>
 7    1  0.4096326E-006  0.9728940E+02  0.7561462E-02  0.1286101E+00
         -1   -1    0    0    0  501 -0.00000000000E+00  0.00000000000E+00  0.69104758283E+02  0.69104758283E+02  0.00000000000E+00 0.  1.
          1   -1    0    0  501    0  0.00000000000E+00 -0.00000000000E+00 -0.19496390527E+03  0.19496390527E+03  0.00000000000E+00 0. -1.
         23    2    1    2    0    0  0.19767761452E+00 -0.12039187753E+02 -0.10119172583E+03  0.13600366288E+03  0.90068028858E+02 0.  0.
          5    1    1    2  502    0  0.54600912916E+02  0.34898661116E+02 -0.40082083850E+01  0.65059314271E+02  0.41800000000E+01 0.  1.
         -5    1    1    2    0  502 -0.54798590531E+02 -0.22859473364E+02 -0.20659212771E+02  0.63005686402E+02  0.41800000000E+01 0.  1.
        -11    1    3    3    0    0 -0.22868380920E+02  0.20177868380E+02 -0.36425790780E+01  0.30714452634E+02  0.00000000000E+00 0.  1.
         11    1    3    3    0    0  0.23066058535E+02 -0.32217056133E+02 -0.97549146754E+02  0.10528921025E+03  0.00000000000E+00 0. -1.
</event>
<event>
 7    1  0.4096326E-006  0.8362265E+02  0.7561462E-02  0.1319074E+00
         -1   -1    0    0    0  501 -0.00000000000E+00  0.00000000000E+00  0.31866588644E+03  0.31866588644E+03  0.00000000000E+00 0.  1.
          1   -1    0    0  501    0  0.00000000000E+00 -0.00000000000E+00 -0.41593837231E+02  0.41593837231E+02  0.00000000000E+00 0. -1.
         23    2    1    2    0    0 -0.10883863437E+02  0.35538830624E+02  0.93082842966E+02  0.13468909979E+03  0.89973723841E+02 0.  0.
          5    1    1    2  502    0  0.17091137830E+02 -0.65402560157E+02  0.40710699442E+02  0.79021739518E+02  0.41800000000E+01 0. -1.
         -5    1    1    2    0  502 -0.62072743928E+01  0.29863729533E+02  0.14327850680E+03  0.14654888436E+03  0.41800000000E+01 0. -1.
        -11    1    3    3    0    0 -0.49317301013E+01  0.51479198069E+02  0.10281402591E+03  0.11508759151E+03  0.00000000000E+00 0.  1.
         11    1    3    3    0    0 -0.59521333360E+01 -0.15940367446E+02 -0.97311829395E+01  0.19601508283E+02  0.00000000000E+00 0. -1.
</event>
<event>
 7    1  0.4096326E-006  0.7110096E+02  0.7561462E-02  0.1356389E+00
         -2   -1    0    0    0  501 -0.00000000000E+00  0.00000000000E+00  0.14686827226E+03  0.14686827226E+03  0.00000000000E+00 0.  1.
          2   -1    0    0  501    0  0.00000000000E+00 -0.00000000000E+00 -0.85777922689E+02  0.85777922689E+02  0.00000000000E+00 0. -1.
         23    2    1    2    0    0  0.27192785090E+02 -0.65652221677E+01 -0.10836415952E+01  0.99074126395E+02  0.95036616831E+02 0.  0.
          5    1    1    2  502    0 -0.29978557774E+02 -0.33577631164E+02 -0.13997148740E+02  0.47324029981E+02  0.41800000000E+01 0. -1.
         -5    1    1    2    0  502  0.27857726837E+01  0.40142853332E+02  0.76171139904E+02  0.86248038571E+02  0.41800000000E+01 0.  1.
        -11    1    3    3    0    0  0.15659654793E+02  0.21268015205E+02 -0.41178982318E+02  0.48920975499E+02  0.00000000000E+00 0.  1.
         11    1    3    3    0    0  0.11533130297E+02 -0.27833237373E+02  0.40095340723E+02  0.50153150896E+02  0.00000000000E+00 0. -1.
</event>
<event>
 7    1  0.4096326E-006  0.1365406E+03  0.7561462E-02  0.1218061E+00
         -1   -1    0    0    0  501 -0.00000000000E+00  0.00000000000E+00  0.55060400342E+03  0.55060400342E+03  0.00000000000E+00 0.  1.
          1   -1    0    0  501    0  0.00000000000E+00 -0.00000000000E+00 -0.41673532482E+02  0.41673532482E+02  0.00000000000E+00 0. -1.
         23    2    1    2    0    0 -0.35010969815E+02  0.10347701881E+03  0.21965996714E+03  0.25872361004E+03  0.82183598098E+02 0.  0.
          5    1    1    2  502    0  0.79024651296E+02 -0.57207024942E+02  0.21063184675E+03  0.23216542913E+03  0.41800000000E+01 0.  1.
         -5    1    1    2    0  502 -0.44013681481E+02 -0.46269993865E+02  0.78638657045E+02  0.10138849674E+03  0.41800000000E+01 0.  1.
        -11    1    3    3    0    0 -0.16142660271E+02  0.78454096860E+02  0.71764947144E+02  0.10754458812E+03  0.00000000000E+00 0. -1.
         11    1    3    3    0    0 -0.18868309543E+02  0.25022921947E+02  0.14789502000E+03  0.15117902192E+03  0.00000000000E+00 0.  1.
</event>
<event>
 7    1  0.4096326E-006  0.1204879E+03  0.7561462E-02  0.1242294E+00
          3   -1    0    0  501    0  0.00000000000E+00  0.00000000000E+00  0.39091409918E+02  0.39091409918E+02  0.00000000000E+00 0. -1.
         -3   -1    0    0    0  501 -0.00000000000E+00 -0.00000000000E+00 -0.69244160425E+03  0.69244160425E+03  0.00000000000E+00 0.  1.
         23    2    1    2    0    0  0.35576264303E+02 -0.35692405628E+02 -0.92677382899E+02  0.15487020359E+03  0.11338458563E+03 0.  0.
          5    1    1    2  502    0  0.34424257434E+02 -0.89325687327E+01 -0.32089196548E+03  0.32288379673E+03  0.41800000000E+01 0. -1.
         -5    1    1    2    0  502 -0.70000521737E+02  0.44624974361E+02 -0.23978084596E+03  0.25377901385E+03  0.41800000000E+01 0. -1.
        -11    1    3    3    0    0 -0.29591492855E+02  0.20499172276E+02 -0.15180200002E+02  0.39068030223E+02  0.00000000000E+00 0. -1.
         11    1    3    3    0    0  0.65167757158E+02 -0.56191577904E+02 -0.77497182896E+02  0.11580217337E+03  0.00000000000E+00 0.  1.
</event>
<event>
 7    1  0.4096326E-006  0.8559925E+02  0.7561462E-02  0.1313873E+00
          2   -1    0    0  501    0  0.00000000000E+00  0.00000000000E+00  0.42327922741E+03  0.42327922741E+03  0.00000000000E+00 0.  1.
         -2   -1    0    0    0  501 -0.00000000000E+00 -0.00000000000E+00 -0.36106308234E+02  0.36106308234E+02  0.00000000000E+00 0. -1.
         23    2    1    2    0    0 -0.48550188647E+02 -0.23796677655E+02  0.20680538397E+03  0.23332890015E+03  0.93544139959E+02 0.  0.
          5    1    1    2  502    0  0.10613935298E+02  0.40860398049E+02  0.15864782791E+01  0.42452527187E+02  0.41800000000E+01 0.  1.
         -5    1    1    2    0  502  0.37936253349E+02 -0.17063720393E+02  0.17878105693E+03  0.18360410831E+03  0.41800000000E+01 0.  1.
        -11    1    3    3    0    0  0.10428422747E+02 -0.25933371573E+02  0.14577437128E+03  0.14842998041E+03  0.00000000000E+00 0.  1.
         11    1    3    3    0    0 -0.58978611394E+02  0.21366939179E+01  0.61031012686E+02  0.84898919737E+02  0.00000000000E+00 0. -1.
</event>
<event>
 7    1  0.4096326E-006  0.1013112E+03  0.7561462E-02  0.1277563E+00
          2   -1    0    0  501    0  0.00000000000E+00  0.00000000000E+00  0.49729633676E+02  0.49729633676E+02  0.00000000000E+00 0. -1.
         -2   -1    0    0    0  501 -0.00000000000E+00 -0.00000000000E+00 -0.30392833346E+03  0.30392833346E+03  0.00000000000E+00 0.  1.
         23    2    1    2    0    0 -0.36112097740E+02 -0.46596687960E+02 -0.81330999700E+02  0.13228309841E+03  0.86074105749E+02 0.  0.
          5    1    1    2  502    0  0.39814573524E+02 -0.23508575333E+02 -0.15394785397E+02  0.48911401498E+02  0.41800000000E+01 0.  1.
         -5    1    1    2    0  502 -0.37024757847E+01  0.70105263293E+02 -0.15747291468E+03  0.17246346723E+03  0.41800000000E+01 0.  1.
        -11    1    3    3    0    0  0.11866410251E+01 -0.48507372341E+02 -0.69033239612E+01  0.49010500610E+02  0.00000000000E+00 0. -1.
         11    1    3    3    0    0 -0.37298738765E+02  0.19106843810E+01 -0.74427675739E+02  0.83272597799E+02  0.00000000000E+00 0.  1.
</event>
<event>
 7    1  0.4096326E-006  0.1901482E+03  0.7561462E-02  0.1158328E+00
         -2   -1    0    0    0  501 -0.00000000000E+00  0.00000000000E+00  0.50967751430E+02  0.50967751430E+02  0.00000000000E+00 0.  1.
          2   -1    0    0  501    0  0.00000000000E+00 -0.00000000000E+00 -0.10538129835E+04  0.10538129835E+04  0.00000000000E+00 0. -1.
         23    2    1    2    0    0  0.10535649094E+03  0.12223573824E+03 -0.78304075907E+03  0.80477512105E+03  0.92024992320E+02 0.  0.
          5    1    1    2  502    0  0.16597955567E+02  0.12373924262E+02 -0.13331467525E+02  0.24976119735E+02  0.41800000000E+01 0.  1.
         -5    1    1    2    0  502 -0.12195444650E+03 -0.13460966250E+03 -0.20647300549E+03  0.27502949416E+03  0.41800000000E+01 0.  1.
        -11    1    3    3    0    0  0.79968191719E+02  0.36190072050E+02 -0.50640799943E+03  0.51395884553E+03  0.00000000000E+00 0.  1.
         11    1    3    3    0    0  0.25388299220E+02  0.86045666190E+02 -0.27663275963E+03  0.29081627552E+03  0.00000000000E+00 0. -1.
</event>
<event>
 7    1  0.4096326E-006  0.1013881E+03  0.7561462E-02  0.1277404E+00
         -2   -1    0    0    0  501 -0.00000000000E+00  0.00000000000E+00  0.12197510542E+03  0.12197510542E+03  0.00000000000E+00 0.  1.
          2   -1    0    0  501    0  0.00000000000E+00 -0.00000000000E+00 -0.18223710589E+03  0.18223710589E+03  0.00000000000E+00 0. -1.
         23    2    1    2    0    0 -0.74868954376E+02  0.41421502391E+02 -0.85255435366E+02  0.15061151915E+03  0.89967990142E+02 0.  0.
          5    1    1    2  502    0  0.31092714060E+02  0.12116918679E+02  0.65295796255E+02  0.73447872634E+02  0.41800000000E+01 0. -1.
         -5    1    1    2    0  502  0.43776240316E+02 -0.53538421071E+02 -0.40302361363E+02  0.80152819529E+02  0.41800000000E+01 0. -1.
        -11    1    3    3    0    0 -0.56684150914E+02  0.53569786255E+02 -0.18210816237E+02  0.80090254040E+02  0.00000000000E+00 0.  1.
         11    1    3    3    0    0 -0.18184803462E+02 -0.12148283864E+02 -0.67044619130E+02  0.70521265105E+02  0.00000000000E+00 0. -1.
</event>
<event>
 7    1  0.4096326E-006  0.2207046E+03  0.7561462E-02  0.1133359E+00
         -1   -1    0    0    0  501 -0.00000000000E+00  0.00000000000E+00  0.17220084889E+03  0.17220084889E+03  0.00000000000E+00 0.  1.
          1   -1    0    0  501    0  0.00000000000E+00 -0.00000000000E+00 -0.49928149251E+03  0.49928149251E+03  0.00000000000E+00 0. -1.
         23    2    1    2    0    0  0.16191135008E+03  0.12845849213E+03 -0.36096703858E+03  0.42753004352E+03  0.98832513296E+02 0.  0.
          5    1    1    2  502    0 -0.43675999402E+02  0.13094193273E+02  0.37879471077E+02  0.59425394827E+02  0.41800000000E+01 0.  1.
         -5    1    1    2    0  502 -0.11823535068E+03 -0.14155268540E+03 -0.39930761235E+01  0.18452690306E+03  0.41800000000E+01 0.  1.
        -11    1    3    3    0    0  0.89612717317E+02  0.97684436126E+02 -0.13905339902E+03  0.19211594402E+03  0.00000000000E+00 0. -1.
         11    1    3    3    0    0  0.72298632765E+02  0.30774056005E+02 -0.22191363955E+03  0.23541409950E+03  0.00000000000E+00 0.  1.
</event>
<event>
 7    1  0.4096326E-006  0.8306699E+02  0.7561462E-02  0.1320566E+00
         -1   -1    0    0    0  501 -0.00000000000E+00  0.00000000000E+00  0.39563275544E+02  0.39563275544E+02  0.00000000000E+00 0.  1.
          1   -1    0    0  501    0  0.00000000000E+00 -0.00000000000E+00 -0.31927090996E+03  0.31927090996E+03  0.00000000000E+00 0. -1.
         23    2    1    2    0    0 -0.13040283331E+02 -0.24237928915E+01 -0.86379353725E+02  0.12336640332E+03  0.87074410459E+02 0.  0.
          5    1    1    2  502    0 -0.38004925388E+02 -0.19391796893E+02 -0.10203008598E+02  0.44068014761E+02  0.41800000000E+01 0. -1.
         -5    1    1    2    0  502  0.51045208719E+02  0.21815589785E+02 -0.18312527209E+03  0.19139976742E+03  0.41800000000E+01 0.  1.
        -11    1    3    3    0    0 -0.26220694258E+02  0.25587922454E+02 -0.84791395473E+02  0.92367999486E+02  0.00000000000E+00 0. -1.
         11    1    3    3    0    0  0.13180410927E+02 -0.28011715346E+02 -0.15879582525E+01  0.30998403834E+02  0.00000000000E+00 0.  1.
</event>
<event>
 7    1  0.4096326E-006  0.1861290E+03  0.7561462E-02  0.1162000E+00
          2   -1    0    0  501    0  0.00000000000E+00  0.00000000000E+00  0.24307076115E+03  0.24307076115E+03  0.00000000000E+00 0. -1.
         -2   -1    0    0    0  501 -0.00000000000E+00 -0.00000000000E+00 -0.14992908868E+03  0.14992908868E+03  0.00000000000E+00 0.  1.
         23    2    1    2    0    0 -0.14656793843E+03  0.48041275283E+02  0.11945451150E+02  0.17845431257E+03  0.88955737115E+02 0.  0.
          5    1    1    2  502    0  0.85635728478E+02 -0.87004720926E+02  0.29837584285E+02  0.12574201084E+03  0.41800000000E+01 0. -1.
         -5    1    1    2    0  502  0.60932209955E+02  0.38963445643E+02  0.51358637035E+02  0.88803526419E+02  0.41800000000E+01 0. -1.
        -11    1    3    3    0    0 -0.46618305267E+02  0.61109778381E+02 -0.69463196794E+00  0.76864516607E+02  0.00000000000E+00 0.  1.
         11    1    3    3    0    0 -0.99949633166E+02 -0.13068503098E+02  0.12640083118E+02  0.10158979597E+03  0.00000000000E+00 0. -1.
</event>
<event>
 7    1  0.4096326E-006  0.1821729E+03  0.7561462E-02  0.1165717E+00
         -2   -1    0    0    0  501 -0.00000000000E+00  0.00000000000E+00  0.41521827521E+02  0.41521827521E+02  0.00000000000E+00 0.  1.
          2   -1    0    0  501    0  0.00000000000E+00 -0.00000000000E+00 -0.10575933239E+04  0.10575933239E+04  0.00000000000E+00 0. -1.
         23    2    1    2    0    0 -0.65183003362E+02  0.15126199527E+03 -0.65991863142E+03  0.68726390862E+03  0.98539661360E+02 0.  0.
          5    1    1    2  502    0 -0.15588853724E+02  0.79873621223E+01 -0.86876905134E+02  0.88723612188E+02  0.41800000000E+01 0. -1.
         -5    1    1    2    0  502  0.80771857087E+02 -0.15924935740E+03 -0.26927595987E+03  0.32312763066E+03  0.41800000000E+01 0. -1.
        -11    1    3    3    0    0 -0.22886920878E+02  0.22098150420E+02 -0.33219871452E+02  0.45996730955E+02  0.00000000000E+00 0.  1.
         11    1    3    3    0    0 -0.42296082485E+02  0.12916384485E+03 -0.62669875997E+03  0.64126717767E+03  0.00000000000E+00 0. -1.
</event>
<event>
 7    1  0.4096326E-006  0.9753133E+02  0.7561462E-02  0.1285575E+00
         -1   -1    0    0    0  501 -0.00000000000E+00  0.00000000000E+00  0.41440764921E+03  0.41440764921E+03  0.00000000000E+00 0.  1.
          1   -1    0    0  501    0  0.00000000000E+00 -0.00000000000E+00 -0.35858143239E+02  0.35858143239E+02  0.00000000000E+00 0. -1.
         23    2    1    2    0    0 -0.36114121964E+02 -0.13093882046E+02  0.93377578417E+02  0.13650531464E+03  0.91862120707E+02 0.  0.
          5    1    1    2  502    0 -0.30849529072E+02  0.13297528350E+02  0.18095561371E+02  0.38385406674E+02  0.41800000000E+01 0.  1.
         -5    1    1    2    0  502  0.66963651036E+02 -0.20364630422E+00  0.26707636619E+03  0.27537507114E+03  0.41800000000E+01 0.  1.
        -11    1    3    3    0    0 -0.37111488118E+01  0.35508733182E+02  0.14929387373E+02  0.38697924557E+02  0.00000000000E+00 0. -1.
         11    1    3    3    0    0 -0.32402973152E+02 -0.48602615228E+02  0.78448191043E+02  0.97807390079E+02  0.00000000000E+00 0.  1.
</event>
<event>
 7    1  0.4096326E-006  0.1468174E+03  0.7561462E-02  0.1204439E+00
         -3   -1    0    0    0  501 -0.00000000000E+00  0.00000000000E+00  0.60369032074E+03  0.60369032074E+03  0.00000000000E+00 0.  1.
          3   -1    0    0  501    0  0.00000000000E+00 -0.00000000000E+00 -0.67956133853E+02  0.67956133853E+02  0.00000000000E+00 0. -1.
         23    2    1    2    0    0  0.47952193846E+02 -0.13339987650E+03  0.97614169185E+02  0.19447605556E+03  0.90539881906E+02 0.  0.
          5    1    1    2  502    0 -0.52598103993E+02  0.76542475752E+02  0.10964653990E+03  0.14375377299E+03  0.41800000000E+01 0.  1.
         -5    1    1    2    0  502  0.46459101469E+01  0.56857400746E+02  0.32847347780E+03  0.33341662604E+03  0.41800000000E+01 0.  1.
        -11    1    3    3    0    0  0.29977893195E+02 -0.51237930193E+02 -0.75225937761E+01  0.59838022928E+02  0.00000000000E+00 0. -1.
         11    1    3    3    0    0  0.17974300651E+02 -0.82161946305E+02  0.10513676296E+03  0.13463803263E+03  0.00000000000E+00 0.  1.
</event>
<event>
 7    1  0.4096326E-006  0.1521238E+03  0.7561462E-02  0.1197887E+00
          1   -1    0    0  501    0  0.00000000000E+00  0.00000000000E+00  0.37491715445E+03  0.37491715445E+03  0.00000000000E+00 0. -1.
         -1   -1    0    0    0  501 -0.00000000000E+00 -0.00000000000E+00 -0.65955244345E+02  0.65955244345E+02  0.00000000000E+00 0.  1.
         23    2    1    2    0    0 -0.90438111138E+02  0.57987763366E+02  0.18301903453E+03  0.23338501924E+03  0.97113168822E+02 0.  0.
          5    1    1    2  502    0 -0.29308033272E+02 -0.11217220440E+02  0.72739951755E+01  0.32483384283E+02  0.41800000000E+01 0.  1.
         -5    1    1    2    0  502  0.11974614441E+03 -0.46770542926E+02  0.11866888040E+03  0.17500399527E+03  0.41800000000E+01 0.  1.
        -11    1    3    3    0    0  0.77970306718E+01  0.44063720779E+02  0.45569905271E+02  0.63867217276E+02  0.00000000000E+00 0.  1.
         11    1    3    3    0    0 -0.98235141810E+02  0.13924042587E+02  0.13744912926E+03  0.16951780197E+03  0.00000000000E+00 0. -1.
</event>
<event>
 7    1  0.4096326E-006  0.1017508E+03  0.7561462E-02  0.1276657E+00
         -1   -1    0    0    0  501 -0.00000000000E+00  0.00000000000E+00  0.12430884619E+03  0.12430884619E+03  0.00000000000E+00 0.  1.
          1   -1    0    0  501    0  0.00000000000E+00 -0.00000000000E+00 -0.14883040128E+03  0.14883040128E+03  0.00000000000E+00 0. -1.
         23    2    1    2    0    0  0.63841287202E+02 -0.33533708378E+02 -0.50490129113E+02  0.12643253991E+03  0.90750837242E+02 0.  0.
          5    1    1    2  502    0 -0.40780944147E+02  0.50295646504E+02  0.69130116763E+02  0.94811301576E+02  0.41800000000E+01 0.  1.
         -5    1    1    2    0  502 -0.23060343055E+02 -0.16761938126E+02 -0.43161542741E+02  0.51895405995E+02  0.41800000000E+01 0.  1.
        -11    1    3    3    0    0  0.21821564091E+02 -0.57448700599E+02 -0.48074508656E+02  0.78023664631E+02  0.00000000000E+00 0. -1.
         11    1    3    3    0    0  0.42019723111E+02  0.23914992221E+02 -0.24156204564E+01  0.48408875275E+02  0.00000000000E+00 0.  1.
</event>
<event>
 7    1  0.4096326E-006  0.1840978E+03  0.7561462E-02  0.1163895E+00
          1   -1    0    0  501    0  0.00000000000E+00  0.00000000000E+00  0.44573189638E+03  0.44573189638E+03  0.00000000000E+00 0. -1.
         -1   -1    0    0    0  501 -0.00000000000E+00 -0.00000000000E+00 -0.16399066043E+03  0.16399066043E+03  0.00000000000E+00 0.  1.
         23    2    1    2    0    0  0.10519465683E+03 -0.13827879482E+02  0.32890513034E+03  0.35747006278E+03  0.91373600931E+02 0.  0.
          5    1    1    2  502    0  0.46252323809E+02  0.56061541782E+02  0.27919218748E+02  0.77968770031E+02  0.41800000000E+01 0. -1.
         -5    1    1    2    0  502 -0.15144698064E+03 -0.42233662300E+02 -0.75083113132E+02  0.17428372401E+03  0.41800000000E+01 0.  1.
        -11    1    3    3    0    0  0.18640919361E+02 -0.42928478067E+02  0.85014876356E+02  0.97045696997E+02  0.00000000000E+00 0.  1.
         11    1    3    3    0    0  0.86553737468E+02  0.29100598585E+02  0.24389025398E+03  0.26042436578E+03  0.00000000000E+00 0. -1.
</event>
<event>
 7    1  0.4096326E-006  0.1266405E+03  0.7561462E-02  0.1232528E+00
         -3   -1    0    0    0  501 -0.00000000000E+00  0.00000000000E+00  0.95170539878E+03  0.95170539878E+03  0.00000000000E+00 0.  1.
          3   -1    0    0  501    0  0.00000000000E+00 -0.00000000000E+00 -0.29186107389E+02  0.29186107389E+02  0.00000000000E+00 0. -1.
         23    2    1    2    0    0  0.11056988547E+03  0.11844102825E+02  0.25530590498E+03  0.29299268655E+03  0.91091310836E+02 0.  0.
          5    1    1    2  502    0 -0.44943084130E+02  0.30408648325E+02  0.88248586465E+02  0.10368149361E+03  0.41800000000E+01 0. -1.
         -5    1    1    2    0  502 -0.65626801335E+02 -0.42252751151E+02  0.57896479994E+03  0.58421732601E+03  0.41800000000E+01 0. -1.
        -11    1    3    3    0    0  0.21579467193E+02  0.22369238815E+02  0.15669499645E+03  0.15974785808E+03  0.00000000000E+00 0.  1.
         11    1    3    3    0    0  0.88990418273E+02 -0.10525135989E+02  0.98610908532E+02  0.13324482847E+03  0.00000000000E+00 0. -1.
</event>
<event>
 7    1  0.4096326E-006  0.1187868E+03  0.7561462E-02  0.1245112E+00
          1   -1    0    0  501    0  0.00000000000E+00  0.00000000000E+00  0.33366320734E+02  0.33366320734E+02  0.00000000000E+00 0. -1.
         -1   -1    0    0    0  501 -0.00000000000E+00 -0.00000000000E+00 -0.44148565574E+03  0.44148565574E+03  0.00000000000E+00 0.  1.
         23    2    1    2    0    0  0.16812487158E+02 -0.51342727695E+02 -0.17677145277E+03  0.20636033586E+03  0.91748058772E+02 0.  0.
          5    1    1    2  502    0 -0.65963913897E+02  0.54436286913E+02 -0.12896950188E+03  0.15480682183E+03  0.41800000000E+01 0.  1.
         -5    1    1    2    0  502  0.49151426739E+02 -0.30935592179E+01 -0.10237838035E+03  0.11368481879E+03  0.41800000000E+01 0.  1.
        -11    1    3    3    0    0  0.38584269075E+02  0.79168443795E+01 -0.96556252945E+02  0.10428102525E+03  0.00000000000E+00 0.  1.
         11    1    3    3    0    0 -0.21771781916E+02 -0.59259572075E+02 -0.80215199827E+02  0.10207931060E+03  0.00000000000E+00 0. -1.
</event>
<event>
 7    1  0.4096326E-006  0.1523022E+03  0.7561462E-02  0.1197672E+00
          3   -1    0    0  501    0  0.00000000000E+00  0.00000000000E+00  0.40635123460E+03  0.40635123460E+03  0.00000000000E+00 0. -1.
         -3   -1    0    0    0  501 -0.00000000000E+00 -0.00000000000E+00 -0.18784213284E+03  0.18784213284E+03  0.00000000000E+00 0.  1.
         23    2    1    2    0    0 -0.54081896831E+01  0.10727692371E+03  0.35380703717E+03  0.38090672090E+03  0.91503680789E+02 0.  0.
          5    1    1    2  502    0  0.17045422361E+02  0.25667153670E+02 -0.30466768227E+02  0.43532121097E+02  0.41800000000E+01 0.  1.
         -5    1    1    2    0  502 -0.11637232678E+02 -0.13294407738E+03 -0.10483116718E+03  0.16975452544E+03  0.41800000000E+01 0.  1.
        -11    1    3    3    0    0  0.34531340501E+02  0.11788524897E+02  0.72547667790E+02  0.81206815587E+02  0.00000000000E+00 0.  1.
         11    1    3    3    0    0 -0.39939530184E+02  0.95488398815E+02  0.28125936938E+03  0.29969990531E+03  0.00000000000E+00 0. -1.
</event>
<event>
 7    1  0.4096326E-006  0.9667077E+02  0.7561462E-02  0.1287457E+00
          2   -1    0    0  501    0  0.00000000000E+00  0.00000000000E+00  0.34791953714E+03  0.34791953714E+03  0.00000000000E+00 0.  1.
         -2   -1    0    0    0  501 -0.00000000000E+00 -0.00000000000E+00 -0.63753794883E+02  0.63753794883E+02  0.00000000000E+00 0. -1.
         23    2    1    2    0    0  0.13397249253E+02 -0.49911429139E+02  0.25173773811E+03  0.27250106340E+03  0.90632796057E+02 0.  0.
          5    1    1    2  502    0 -0.33101561389E+02  0.58364055802E+02 -0.29566336359E+02  0.73441929589E+02  0.41800000000E+01 0. -1.
         -5    1    1    2    0  502  0.19704312136E+02 -0.84526266634E+01  0.61994340510E+02  0.65730339034E+02  0.41800000000E+01 0. -1.
        -11    1    3    3    0    0 -0.38227206836E+02 -0.11490009071E+02  0.91861484524E+02  0.10015923317E+03  0.00000000000E+00 0.  1.
         11    1    3    3    0    0  0.51624456089E+02 -0.38421420068E+02  0.15987625359E+03  0.17234183023E+03  0.00000000000E+00 0. -1.
</event>
<event>
 7    1  0.4096326E-006  0.2304495E+03  0.7561462E-02  0.1126324E+00
          2   -1    0    0  501    0  0.00000000000E+00  0.00000000000E+00  0.84572946887E+03  0.84572946887E+03  0.00000000000E+00 0. -1.
         -2   -1    0    0    0  501 -0.00000000000E+00 -0.00000000000E+00 -0.93964821441E+02  0.93964821441E+02  0.00000000000E+00 0.  1.
         23    2    1    2    0    0  0.22647475904E+03 -0.13025566686E+02  0.57854895452E+03  0.62806454536E+03  0.91025812240E+02 0.  0.
          5    1    1    2  502    0 -0.21619922594E+03  0.18168493572E+01  0.19053062542E+03  0.28820964221E+03  0.41800000000E+01 0. -1.
         -5    1    1    2    0  502 -0.10275533091E+02  0.11208717329E+02 -0.17314932512E+02  0.23420102740E+02  0.41800000000E+01 0. -1.
        -11    1    3    3    0    0  0.15044994467E+03  0.57966736605E+01  0.26404030032E+03  0.30395076488E+03  0.00000000000E+00 0.  1.
         11    1    3    3    0    0  0.76024814362E+02 -0.18822240346E+02  0.31450865420E+03  0.32411378048E+03  0.00000000000E+00 0. -1.
</event>
<event>
 7    1  0.4096326E-006  0.1990821E+03  0.7561462E-02  0.1150516E+00
         -1   -1    0    0    0  501 -0.00000000000E+00  0.00000000000E+00  0.49132166437E+02  0.49132166437E+02  0.00000000000E+00 0.  1.
          1   -1    0    0  501    0  0.00000000000E+00 -0.00000000000E+00 -0.11333431139E+04  0.11333431139E+04  0.00000000000E+00 0. -1.
         23    2    1    2    0    0  0.15600762601E+03 -0.11894128435E+03 -0.70930470870E+03  0.74124186583E+03  0.88548999915E+02 0.  0.
          5    1    1    2  502    0 -0.77791951319E+02  0.41958404493E+02 -0.28768954478E+03  0.30098977054E+03  0.41800000000E+01 0. -1.
         -5    1    1    2    0  502 -0.78215674688E+02  0.76982879862E+02 -0.87216693965E+02  0.14024364394E+03  0.41800000000E+01 0. -1.
        -11    1    3    3    0    0  0.75687516447E+02 -0.81538572791E+02 -0.25248366187E+03  0.27590784423E+03  0.00000000000E+00 0.  1.
         11    1    3    3    0    0  0.80320109560E+02 -0.37402711563E+02 -0.45682104683E+03  0.46533402160E+03  0.00000000000E+00 0. -1.
</event>
<event>
 7    1  0.4096326E-006  0.1029185E+03  0.7561462E-02  0.1274276E+00
         -1   -1    0    0    0  501 -0.00000000000E+00  0.00000000000E+00  0.23630975628E+03  0.23630975628E+03  0.00000000000E+00 0. -1.
          1   -1    0    0  501    0  0.00000000000E+00 -0.00000000000E+00 -0.87967625429E+02  0.87967625429E+02  0.00000000000E+00 0.  1.
         23    2    1    2    0    0  0.22978770655E+02  0.43982482960E+02 -0.25394104778E+02  0.10451994123E+03  0.88414223116E+02 0.  0.
          5    1    1    2  502    0 -0.53306785447E+02 -0.62497369556E+02  0.63645195323E+02  0.10399864357E+03  0.41800000000E+01 0.  1.
         -5    1    1    2    0  502  0.30328014792E+02  0.18514886597E+02  0.11009104031E+03  0.11575879691E+03  0.41800000000E+01 0.  1.
        -11    1    3    3    0    0  0.48275688669E+02  0.17934935513E+02 -0.40175417350E+02  0.65316676183E+02  0.00000000000E+00 0.  1.
         11    1    3    3    0    0 -0.25296918015E+02  0.26047547447E+02  0.14781312572E+02  0.39203265048E+02  0.00000000000E+00 0. -1.
</event>
<event>
 7    1  0.4096326E-006  0.1748902E+03  0.7561462E-02  0.1172842E+00
         -2   -1    0    0    0  501 -0.00000000000E+00  0.00000000000E+00  0.98105135569E+02  0.98105135569E+02  0.00000000000E+00 0.  1.
          2   -1    0    0  501    0  0.00000000000E+00 -0.00000000000E+00 -0.33273590169E+03  0.33273590169E+03  0.00000000000E+00 0. -1.
         23    2    1    2    0    0  0.13772470877E+03 -0.48451558337E+02 -0.10990472010E+03  0.20166871897E+03  0.85296985879E+02 0.  0.
          5    1    1    2  502    0 -0.41636755040E+02 -0.36557679453E+02 -0.88931650713E+01  0.56272942719E+02  0.41800000000E+01 0. -1.
         -5    1    1    2    0  502 -0.96087953731E+02  0.85009237790E+02 -0.11583288094E+03  0.17289937556E+03  0.41800000000E+01 0. -1.
        -11    1    3    3    0    0  0.44707596591E+02  0.21363310086E+02 -0.15632167960E+02  0.51956952239E+02  0.00000000000E+00 0.  1.
         11    1    3    3    0    0  0.93017112181E+02 -0.69814868423E+02 -0.94272552142E+02  0.14971176673E+03  0.00000000000E+00 0. -1.
</event>
<event>
 7    1  0.4096326E-006  0.7614524E+02  0.7561462E-02  0.1340361E+00
         -1   -1    0    0    0  501 -0.00000000000E+00  0.00000000000E+00  0.61089861944E+02  0.61089861944E+02  0.00000000000E+00 0.  1.
          1   -1    0    0  501    0  0.00000000000E+00 -0.00000000000E+00 -0.22764452845E+03  0.22764452845E+03  0.00000000000E+00 0. -1.
         23    2    1    2    0    0 -0.34961243257E+01  0.42629512016E+02 -0.94995032421E+02  0.13841022695E+03  0.91125389223E+02 0.  0.
          5    1    1    2  502    0 -0.19944075421E+01 -0.44347715146E+02 -0.10608462690E+03  0.11507440186E+03  0.41800000000E+01 0. -1.
         -5    1    1    2    0  502  0.54905318679E+01  0.17182031298E+01  0.34524992814E+02  0.35249761574E+02  0.41800000000E+01 0. -1.
        -11    1    3    3    0    0  0.43778632038E+02  0.18717734991E+02 -0.42314815156E+02  0.63698240227E+02  0.00000000000E+00 0.  1.
         11    1    3    3    0    0 -0.47274756364E+02  0.23911777025E+02 -0.52680217265E+02  0.74711986728E+02  0.00000000000E+00 0. -1.
</event>
<event>
 6    1  0.4096326E-006  0.4376266E+02  0.7561462E-02  0.1482217E+00
         -2   -1    0    0    0  501 -0.00000000000E+00  0.00000000000E+00  0.20719215295E+02  0.20719215295E+02  0.00000000000E+00 0. -1.
          2   -1    0    0  501    0  0.00000000000E+00 -0.00000000000E+00 -0.36482479736E+03  0.36482479736E+03  0.00000000000E+00 0.  1.
          5    1    1    2  502    0  0.43221125535E+01  0.89958656532E+01  0.11933147809E+02  0.16108341703E+02  0.41800000000E+01 0. -1.
         -5    1    1    2    0  502  0.24518504958E+02  0.15516841788E+02 -0.25624970096E+03  0.25792113350E+03  0.41800000000E+01 0.  1.
        -11    1    1    2    0    0 -0.27875232415E+02 -0.55751150368E+01 -0.75673515228E+02  0.80836819562E+02  0.00000000000E+00 0.  1.
         11    1    1    2    0    0 -0.96538509651E+00 -0.18937592405E+02 -0.24115513685E+02  0.30677717887E+02  0.00000000000E+00 0. -1.
</event>
<event>
 7    1  0.4096326E-006  0.9895989E+02  0.7561462E-02  0.1282498E+00
          2   -1    0    0  501    0  0.00000000000E+00  0.00000000000E+00  0.13627378379E+03  0.13627378379E+03  0.00000000000E+00 0. -1.
         -2   -1    0    0    0  501 -0.00000000000E+00 -0.00000000000E+00 -0.17099054933E+03  0.17099054933E+03  0.00000000000E+00 0.  1.
         23    2    1    2    0    0 -0.31708886305E+01  0.18284472147E+02  0.14299912759E+02  0.93019288621E+02  0.90020687035E+02 0.  0.
          5    1    1    2  502    0  0.52422239206E+02 -0.22424220181E+02  0.66996257862E+02  0.88073309133E+02  0.41800000000E+01 0. -1.
         -5    1    1    2    0  502 -0.49251350575E+02  0.41397480348E+01 -0.11601293617E+03  0.12617173537E+03  0.41800000000E+01 0.  1.
        -11    1    3    3    0    0 -0.82798929240E+01 -0.35839618372E+02  0.11672226927E+02  0.38591135684E+02  0.00000000000E+00 0.  1.
         11    1    3    3    0    0  0.51090042935E+01  0.54124090519E+02  0.26276858315E+01  0.54428152938E+02  0.00000000000E+00 0. -1.
</event>
<event>
 7    1  0.4096326E-006  0.9064112E+02  0.7561462E-02  0.1301307E+00
          1   -1    0    0  501    0  0.00000000000E+00  0.00000000000E+00  0.75444563304E+03  0.75444563304E+03  0.00000000000E+00 0. -1.
         -1   -1    0    0    0  501 -0.00000000000E+00 -0.00000000000E+00 -0.16354021395E+02  0.16354021395E+02  0.00000000000E+00 0.  1.
         23    2    1    2    0    0  0.41970124117E+02 -0.19025256672E+02  0.35366460347E+03  0.36633283105E+03  0.83651895672E+02 0.  0.
          5    1    1    2  502    0  0.23247744107E+02  0.19144494488E+02  0.27742583981E+03  0.27908697259E+03  0.41800000000E+01 0. -1.
         -5    1    1    2    0  502 -0.65217868224E+02 -0.11923781603E+00  0.10700116837E+03  0.12537985079E+03  0.41800000000E+01 0.  1.
        -11    1    3    3    0    0 -0.20208110080E+02  0.91395132955E+00  0.30237204685E+02  0.36379823628E+02  0.00000000000E+00 0.  1.
         11    1    3    3    0    0  0.62178234198E+02 -0.19939208001E+02  0.32342739878E+03  0.32995300742E+03  0.00000000000E+00 0. -1.
</event>
<event>
 7    1  0.4096326E-006  0.1075351E+03  0.7561462E-02  0.1265204E+00
         -1   -1    0    0    0  501 -0.00000000000E+00  0.00000000000E+00  0.41806796465E+02  0.41806796465E+02  0.00000000000E+00 0.  1.
          1   -1    0    0  501    0  0.00000000000E+00 -0.00000000000E+00 -0.40051432803E+03  0.40051432803E+03  0.00000000000E+00 0. -1.
         23    2    1    2    0    0  0.68180232873E+02  0.17050638000E+02 -0.17620031518E+03  0.21016022601E+03  0.90451650711E+02 0.  0.
          5    1    1    2  502    0 -0.75654205948E+02 -0.33289608034E+02 -0.46517115686E+02  0.94937196780E+02  0.41800000000E+01 0. -1.
         -5    1    1    2    0  502  0.74739730754E+01  0.16238970034E+02 -0.13599010070E+03  0.13722370170E+03  0.41800000000E+01 0. -1.
        -11    1    3    3    0    0  0.72134614090E+02 -0.21443820877E+02 -0.10593963316E+03  0.12994785830E+03  0.00000000000E+00 0. -1.
         11    1    3    3    0    0 -0.39543812174E+01  0.38494458877E+02 -0.70260682019E+02  0.80212367705E+02  0.00000000000E+00 0.  1.
</event>
<event>
 7    1  0.4096326E-006  0.1227462E+03  0.7561462E-02  0.1238634E+00
          1   -1    0    0  501    0  0.00000000000E+00  0.00000000000E+00  0.29603519405E+03  0.29603519405E+03  0.00000000000E+00 0. -1.
         -1   -1    0    0    0  501 -0.00000000000E+00 -0.00000000000E+00 -0.92629413325E+02  0.92629413325E+02  0.00000000000E+00 0.  1.
         23    2    1    2    0    0 -0.38787492194E+02  0.75302734383E+02  0.19667488081E+03  0.23743336114E+03  0.10256032801E+03 0.  0.
          5    1    1    2  502    0 -0.20882387958E+02 -0.33910568481E+02 -0.46298084792E+02  0.61212628084E+02  0.41800000000E+01 0. -1.
         -5    1    1    2    0  502  0.59669880152E+02 -0.41392165901E+02  0.53028984702E+02  0.90018618151E+02  0.41800000000E+01 0. -1.
        -11    1    3    3    0    0  0.25374370474E+02 -0.88605242644E+01  0.46616199020E+02  0.53809270375E+02  0.00000000000E+00 0.  1.
         11    1    3    3    0    0 -0.64161862668E+02  0.84163258647E+02  0.15005868179E+03  0.18362409076E+03  0.00000000000E+00 0. -1.
</event>
<event>
 7    1  0.4096326E-006  0.1087549E+03  0.7561462E-02  0.1262893E+00
         -3   -1    0    0    0  501 -0.00000000000E+00  0.00000000000E+00  0.11884983113E+03  0.11884983113E+03  0.00000000000E+00 0.  1.
          3   -1    0    0  501    0  0.00000000000E+00 -0.00000000000E+00 -0.15334416492E+03  0.15334416492E+03  0.00000000000E+00 0. -1.
         23    2    1    2    0    0  0.57434624499E+02 -0.57470308881E+02 -0.24905482331E+02  0.12272861235E+03  0.88546353650E+02 0.  0.
          5    1    1    2  502    0  0.12839961677E+02 -0.12439481997E+02  0.35898628895E+02  0.40321077425E+02  0.41800000000E+01 0.  1.
         -5    1    1    2    0  502 -0.70274586176E+02  0.69909790878E+02 -0.45487480360E+02  0.10914430627E+03  0.41800000000E+01 0.  1.
        -11    1    3    3    0    0  0.49585254101E+02 -0.84604650718E+01  0.21570365637E+02  0.54731687049E+02  0.00000000000E+00 0.  1.
         11    1    3    3    0    0  0.78493703975E+01 -0.49009843809E+02 -0.46475847968E+02  0.67996925300E+02  0.00000000000E+00 0. -1.
</event>
<event>
 7    1  0.4096326E-006  0.3102428E+03  0.7561462E-02  0.1080230E+00
          3   -1    0    0  501    0  0.00000000000E+00  0.00000000000E+00  0.15678580537E+03  0.15678580537E+03  0.00000000000E+00 0. -1.
         -3   -1    0    0    0  501 -0.00000000000E+00 -0.00000000000E+00 -0.72243550501E+03  0.72243550501E+03  0.00000000000E+00 0.  1.
         23    2    1    2    0    0  0.65306017022E+02  0.40929631458E+02 -0.27438653029E+02  0.12181819569E+03  0.90258974795E+02 0.  0.
          5    1    1    2  502    0  0.92152387993E+02  0.20878027631E+03 -0.30618837885E+03  0.38190321043E+03  0.41800000000E+01 0. -1.
         -5    1    1    2    0  502 -0.15745840502E+03 -0.24970990777E+03 -0.23202266776E+03  0.37549990427E+03  0.41800000000E+01 0.  1.
        -11    1    3    3    0    0  0.49258003423E+01 -0.14325711981E+02  0.21616555031E+02  0.26396306260E+02  0.00000000000E+00 0.  1.
         11    1    3    3    0    0  0.60380216680E+02  0.55255343439E+02 -0.49055208060E+02  0.95421889432E+02  0.00000000000E+00 0. -1.
</event>
<event>
 7    1  0.4096326E-006  0.1798008E+03  0.7561462E-02  0.1167996E+00
         -1   -1    0    0    0  501 -0.00000000000E+00  0.00000000000E+00  0.70645757063E+02  0.70645757063E+02  0.00000000000E+00 0.  1.
          1   -1    0    0  501    0  0.00000000000E+00 -0.00000000000E+00 -0.58371453739E+03  0.58371453739E+03  0.00000000000E+00 0. -1.
         23    2    1    2    0    0 -0.68158409550E+02 -0.13897487731E+03 -0.36423176940E+03  0.40584598769E+03  0.89925516782E+02 0.  0.
          5    1    1    2  502    0 -0.21154016759E+02  0.73374174371E+02 -0.21054903600E+02  0.79322400715E+02  0.41800000000E+01 0. -1.
         -5    1    1    2    0  502  0.89312426309E+02  0.65600702937E+02 -0.12778210733E+03  0.16919190605E+03  0.41800000000E+01 0. -1.
        -11    1    3    3    0    0 -0.63503910244E+02 -0.44272298864E+02 -0.22015538829E+03  0.23336918832E+03  0.00000000000E+00 0. -1.
         11    1    3    3    0    0 -0.46544993056E+01 -0.94702578444E+02 -0.14407638111E+03  0.17247679937E+03  0.00000000000E+00 0.  1.
</event>
<event>
 7    1  0.4096326E-006  0.1123792E+03  0.7561462E-02  0.1256226E+00
         -2   -1    0    0    0  501 -0.00000000000E+00  0.00000000000E+00  0.41505945238E+02  0.41505945238E+02  0.00000000000E+00 0. -1.
          2   -1    0    0  501    0  0.00000000000E+00 -0.00000000000E+00 -0.38220711065E+03  0.38220711065E+03  0.00000000000E+00 0.  1.
         23    2    1    2    0    0  0.17282488077E+02  0.56537858245E+02 -0.19160960846E+03  0.22031286420E+03  0.91259532483E+02 0.  0.
          5    1    1    2  502    0 -0.41176611202E+02  0.26890929322E+02 -0.71702489074E+02  0.87048002443E+02  0.41800000000E+01 0. -1.
         -5    1    1    2    0  502  0.23894123125E+02 -0.83428787567E+02 -0.77389067876E+02  0.11635218924E+03  0.41800000000E+01 0. -1.
        -11    1    3    3    0    0 -0.19933389255E+02 -0.10389152692E+01 -0.37170849851E+01  0.20303597536E+02  0.00000000000E+00 0. -1.
         11    1    3    3    0    0  0.37215877332E+02  0.57576773514E+02 -0.18789252347E+03  0.20000926666E+03  0.00000000000E+00 0.  1.
</event>
<event>
 7    1  0.4096326E-006  0.1240972E+03  0.7561462E-02  0.1236487E+00
         -4   -1    0    0    0  501 -0.00000000000E+00  0.00000000000E+00  0.16791163722E+03  0.16791163722E+03  0.00000000000E+00 0.  1.
          4   -1    0    0  501    0  0.00000000000E+00 -0.00000000000E+00 -0.11308608856E+03  0.11308608856E+03  0.00000000000E+00 0. -1.
         23    2    1    2    0    0 -0.78816967342E+01  0.75481747733E+02 -0.78698275355E+01  0.12182277475E+03  0.94969673470E+02 0.  0.
          5    1    1    2  502    0 -0.54818517879E+02 -0.59427575774E+02  0.28303054919E+02  0.85762707412E+02  0.41800000000E+01 0. -1.
         -5    1    1    2    0  502  0.62700214613E+02 -0.16054171960E+02  0.34392321276E+02  0.73412243615E+02  0.41800000000E+01 0. -1.
        -11    1    3    3    0    0  0.92348901567E+01  0.83122717669E+02  0.22071869017E+02  0.86497611474E+02  0.00000000000E+00 0.  1.
         11    1    3    3    0    0 -0.17116586891E+02 -0.76409699351E+01 -0.29941696552E+02  0.35325163280E+02  0.00000000000E+00 0. -1.
</event>
<event>
 7    1  0.4096326E-006  0.9565914E+02  0.7561462E-02  0.1289698E+00
         -2   -1    0    0    0  501 -0.00000000000E+00  0.00000000000E+00  0.38907987972E+02  0.38907987972E+02  0.00000000000E+00 0.  1.
          2   -1    0    0  501    0  0.00000000000E+00 -0.00000000000E+00 -0.37187693862E+03  0.37187693862E+03  0.00000000000E+00 0. -1.
         23    2    1    2    0    0  0.76509954472E+01  0.15160489901E+02 -0.21485643572E+03  0.23790700527E+03  0.10073766425E+03 0.  0.
          5    1    1    2  502    0 -0.15647591190E+02  0.48234220182E+02 -0.89042656788E+02  0.10255464024E+03  0.41800000000E+01 0.  1.
         -5    1    1    2    0  502  0.79965957426E+01 -0.63394710083E+02 -0.29069858132E+02  0.70323281079E+02  0.41800000000E+01 0.  1.
        -11    1    3    3    0    0  0.10550862657E+02  0.45103285254E+02 -0.19815886590E+03  0.20350076948E+03  0.00000000000E+00 0. -1.
         11    1    3    3    0    0 -0.28998672096E+01 -0.29942795353E+02 -0.16697569827E+02  0.34406235794E+02  0.00000000000E+00 0.  1.
</event>
<event>
 7    1  0.4096326E-006  0.1322646E+03  0.7561462E-02  0.1224134E+00
          1   -1    0    0  501    0  0.00000000000E+00  0.00000000000E+00  0.23505858175E+03  0.23505858175E+03  0.00000000000E+00 0. -1.
         -1   -1    0    0    0  501 -0.00000000000E+00 -0.00000000000E+00 -0.10835287038E+03  0.10835287038E+03  0.00000000000E+00 0.  1.
         23    2    1    2    0    0  0.69227626302E+02  0.85813336339E+02  0.39992917088E+02  0.15546773764E+03  0.10205092402E+03 0.  0.
          5    1    1    2  502    0 -0.57349147017E+02 -0.87075630651E+02  0.11600701656E+03  0.15603265815E+03  0.41800000000E+01 0. -1.
         -5    1    1    2    0  502 -0.11878479285E+02  0.12622943126E+01 -0.29294222282E+02  0.31911056331E+02  0.41800000000E+01 0. -1.
        -11    1    3    3    0    0  0.74063374265E+01  0.85381917315E+02  0.37629716683E+02  0.93599792821E+02  0.00000000000E+00 0.  1.
         11    1    3    3    0    0  0.61821288876E+02  0.43141902402E+00  0.23632004044E+01  0.61867944824E+02  0.00000000000E+00 0. -1.
</event>
<event>
 7    1  0.4096326E-006  0.1558024E+03  0.7561462E-02  0.1193519E+00
          1   -1    0    0  501    0  0.00000000000E+00  0.00000000000E+00  0.48177623531E+03  0.48177623531E+03  0.00000000000E+00 0. -1.
         -1   -1    0    0    0  501 -0.00000000000E+00 -0.00000000000E+00 -0.68624121058E+02  0.68624121058E+02  0.00000000000E+00 0.  1.
         23    2    1    2    0    0  0.11598142950E+03  0.70560678454E+02  0.27243334849E+03  0.31828419841E+03  0.93029029113E+02 0.  0.
          5    1    1    2  502    0 -0.33332176761E+02  0.10698256852E+02 -0.14695797817E+02  0.38195884344E+02  0.41800000000E+01 0. -1.
         -5    1    1    2    0  502 -0.82649252736E+02 -0.81258935307E+02  0.15541456358E+03  0.19392027362E+03  0.41800000000E+01 0. -1.
        -11    1    3    3    0    0  0.35578700338E+02 -0.18734643652E+02  0.10298080058E+03  0.11055259418E+03  0.00000000000E+00 0.  1.
         11    1    3    3    0    0  0.80402729158E+02  0.89295322106E+02  0.16945254790E+03  0.20773160423E+03  0.00000000000E+00 0. -1.
</event>
<event>
 7    1  0.4096326E-006  0.1704379E+03  0.7561462E-02  0.1177392E+00
         -1   -1    0    0    0  501 -0.00000000000E+00  0.00000000000E+00  0.32518253926E+03  0.32518253926E+03  0.00000000000E+00 0.  1.
          1   -1    0    0  501    0  0.00000000000E+00 -0.00000000000E+00 -0.11293517930E+03  0.11293517930E+03  0.00000000000E+00 0. -1.
         23    2    1    2    0    0 -0.15303650867E+03  0.34162340086E+02  0.66946944469E+02  0.19046928334E+03  0.84908280259E+02 0.  0.
          5    1    1    2  502    0  0.97434253594E+02  0.15556692350E+02  0.14187622704E+03  0.17286347402E+03  0.41800000000E+01 0. -1.
         -5    1    1    2    0  502  0.55602255080E+02 -0.49719032435E+02  0.34241884518E+01  0.74784961208E+02  0.41800000000E+01 0. -1.
        -11    1    3    3    0    0 -0.33554847977E+02 -0.16788749275E+02  0.45242705499E+02  0.58776630780E+02  0.00000000000E+00 0.  1.
         11    1    3    3    0    0 -0.11948166070E+03  0.50951089361E+02  0.21704238970E+02  0.13169265256E+03  0.00000000000E+00 0. -1.
</event>
<event>
 7    1  0.4301076E-006  0.1373327E+03  0.7561462E-02  0.1216964E+00
          2   -1    0    0  501    0  0.00000000000E+00  0.00000000000E+00  0.23910943337E+03  0.23910943337E+03  0.00000000000E+00 0.  1.
         -2   -1    0    0    0  501 -0.00000000000E+00 -0.00000000000E+00 -0.10121776676E+03  0.10121776676E+03  0.00000000000E+00 0. -1.
         23    2    1    2    0    0  0.21254002357E+02 -0.10984907161E+03  0.69720405903E+02  0.15918230231E+03  0.89216137663E+02 0.  0.
          5    1    1    2  502    0 -0.27595339709E+02  0.12755998874E+03  0.84795364223E+02  0.15569450760E+03  0.41800000000E+01 0. -1.
         -5    1    1    2    0  502  0.63413373521E+01 -0.17710917139E+02 -0.16624103517E+02  0.25450390233E+02  0.41800000000E+01 0. -1.
        -11    1    3    3    0    0 -0.14470614021E+02 -0.69216340750E+02 -0.27595128118E+00  0.70713341359E+02  0.00000000000E+00 0. -1.
         11    1    3    3    0    0  0.35724616378E+02 -0.40632730855E+02  0.69996357184E+02  0.88468960948E+02  0.00000000000E+00 0.  1.
</event>
<event>
 7    1  0.4096326E-006  0.1260383E+03  0.7561462E-02  0.1233455E+00
         -1   -1    0    0    0  501 -0.00000000000E+00  0.00000000000E+00  0.10900969642E+04  0.10900969642E+04  0.00000000000E+00 0.  1.
          1   -1    0    0  501    0  0.00000000000E+00 -0.00000000000E+00 -0.16712854198E+02  0.16712854198E+02  0.00000000000E+00 0. -1.
         23    2    1    2    0    0  0.43819697230E+01 -0.64520464284E+02  0.28894785946E+03  0.30983467957E+03  0.91239088181E+02 0.  0.
          5    1    1    2  502    0  0.60123224895E+02  0.30028214960E+02  0.39765304483E+03  0.40331366494E+03  0.41800000000E+01 0. -1.
         -5    1    1    2    0  502 -0.64505194618E+02  0.34492249324E+02  0.38678320573E+03  0.39366147390E+03  0.41800000000E+01 0. -1.
        -11    1    3    3    0    0 -0.43251673713E+02 -0.31855228108E+02  0.15165995993E+03  0.16089190869E+03  0.00000000000E+00 0. -1.
         11    1    3    3    0    0  0.47633643436E+02 -0.32665236176E+02  0.13728789952E+03  0.14894277088E+03  0.00000000000E+00 0.  1.
</event>
<event>
 7    1  0.4096326E-006  0.1486696E+03  0.7561462E-02  0.1202117E+00
          2   -1    0    0  501    0  0.00000000000E+00  0.00000000000E+00  0.66857731142E+03  0.66857731142E+03  0.00000000000E+00 0. -1.
         -2   -1    0    0    0  501 -0.00000000000E+00 -0.00000000000E+00 -0.34594966789E+02  0.34594966789E+02  0.00000000000E+00 0.  1.
         23    2    1    2    0    0 -0.93282395951E+02  0.42957895617E+02  0.25090442601E+03  0.28730806319E+03  0.95109967900E+02 0.  0.
          5    1    1    2  502    0  0.10943032263E+03 -0.69828494599E+02  0.29684876835E+03  0.32401802085E+03  0.41800000000E+01 0. -1.
         -5    1    1    2    0  502 -0.16147926675E+02  0.26870598982E+02  0.86229150270E+02  0.91846194161E+02  0.41800000000E+01 0. -1.
        -11    1    3    3    0    0 -0.10656711033E+03  0.53153439986E+02  0.19080019287E+03  0.22491454108E+03  0.00000000000E+00 0.  1.
         11    1    3    3    0    0  0.13284714381E+02 -0.10195544369E+02  0.60104233138E+02  0.62393522118E+02  0.00000000000E+00 0. -1.
</event>
<event>
 7    1  0.4096326E-006  0.8483640E+02  0.7561462E-02  0.1315861E+00
          2   -1    0    0  501    0  0.00000000000E+00  0.00000000000E+00  0.38079089932E+03  0.38079089932E+03  0.00000000000E+00 0. -1.
         -2   -1    0    0    0  501 -0.00000000000E+00 -0.00000000000E+00 -0.36679997762E+02  0.36679997762E+02  0.00000000000E+00 0.  1.
         23    2    1    2    0    0  0.32360183973E+02  0.51099317882E+01  0.24153416683E+03  0.25241742731E+03  0.65593528315E+02 0.  0.
          5    1    1    2  502    0 -0.78641402045E+00 -0.45061718507E+02  0.10454494582E+03  0.11392232010E+03  0.41800000000E+01 0.  1.
         -5    1    1    2    0  502 -0.31573769953E+02  0.39951786719E+02 -0.19682110879E+01  0.51131149664E+02  0.41800000000E+01 0.  1.
        -11    1    3    3    0    0  0.23617313520E+02 -0.29403498624E+02  0.12323706781E+03  0.12887869534E+03  0.00000000000E+00 0.  1.
         11    1    3    3    0    0  0.87428704538E+01  0.34513430412E+02  0.11829709902E+03  0.12353873198E+03  0.00000000000E+00 0. -1.
</event>
<event>
 7    1  0.4096326E-006  0.1245105E+03  0.7561462E-02  0.1235836E+00
         -1   -1    0    0    0  501 -0.00000000000E+00  0.00000000000E+00  0.12127449859E+03  0.12127449859E+03  0.00000000000E+00 0.  1.
          1   -1    0    0  501    0  0.00000000000E+00 -0.00000000000E+00 -0.22805495905E+03  0.22805495905E+03  0.00000000000E+00 0. -1.
         23    2    1    2    0    0  0.23910414246E+02  0.86405077783E+02 -0.14268033355E+03  0.19129733868E+03  0.90550807996E+02 0.  0.
          5    1    1    2  502    0  0.11700032186E+02 -0.97553313658E+02 -0.98653086807E+01  0.98834895023E+02  0.41800000000E+01 0. -1.
         -5    1    1    2    0  502 -0.35610446432E+02  0.11148235875E+02  0.45765181775E+02  0.59197223931E+02  0.41800000000E+01 0. -1.
        -11    1    3    3    0    0 -0.14727646654E+02 -0.36192621477E+01  0.32723831286E+01  0.15514867895E+02  0.00000000000E+00 0.  1.
         11    1    3    3    0    0  0.38638060900E+02  0.90024339931E+02 -0.14595271668E+03  0.17578247079E+03  0.00000000000E+00 0. -1.
</event>
<event>
 7    1  0.4096326E-006  0.1816048E+03  0.7561462E-02  0.1166259E+00
          2   -1    0    0  501    0  0.00000000000E+00  0.00000000000E+00  0.12481216022E+04  0.12481216022E+04  0.00000000000E+00 0.  1.
         -2   -1    0    0    0  501 -0.00000000000E+00 -0.00000000000E+00 -0.32061336105E+02  0.32061336105E+02  0.00000000000E+00 0. -1.
         23    2    1    2    0    0 -0.15726220326E+03 -0.58134229996E+02  0.54994375765E+03  0.58199257802E+03  0.90367223143E+02 0.  0.
          5    1    1    2  502    0  0.22684039192E+02 -0.12073984209E+02  0.30947231077E+03  0.31056550076E+03  0.41800000000E+01 0.  1.
         -5    1    1    2    0  502  0.13457816407E+03  0.70208214205E+02  0.35664419763E+03  0.38762485948E+03  0.41800000000E+01 0.  1.
        -11    1    3    3    0    0 -0.10614846222E+03  0.23020195643E+01  0.24646297579E+03  0.26835944880E+03  0.00000000000E+00 0. -1.
         11    1    3    3    0    0 -0.51113741040E+02 -0.60436249560E+02  0.30348078186E+03  0.31363312922E+03  0.00000000000E+00 0.  1.
</event>
<event>
 7    1  0.4096326E-006  0.1169067E+03  0.7561462E-02  0.1248289E+00
          2   -1    0    0  501    0  0.00000000000E+00  0.00000000000E+00  0.74913617709E+02  0.74913617709E+02  0.00000000000E+00 0.  1.
         -2   -1    0    0    0  501 -0.00000000000E+00 -0.00000000000E+00 -0.25074579087E+03  0.25074579087E+03  0.00000000000E+00 0. -1.
         23    2    1    2    0    0 -0.14894431969E+01  0.82289344870E+02 -0.70507503310E+02  0.14258689948E+03  0.92660461681E+02 0.  0.
          5    1    1    2  502    0  0.25900368474E+02  0.26967301979E+02 -0.29241515524E+02  0.47650845672E+02  0.41800000000E+01 0. -1.
         -5    1    1    2    0  502 -0.24410925277E+02 -0.10925664685E+03 -0.76083154323E+02  0.13542166343E+03  0.41800000000E+01 0. -1.
        -11    1    3    3    0    0 -0.72299363203E+01  0.72137659579E+02 -0.92600240773E+02  0.11760492549E+03  0.00000000000E+00 0. -1.
         11    1    3    3    0    0  0.57404931233E+01  0.10151685291E+02  0.22092737463E+02  0.24981973984E+02  0.00000000000E+00 0.  1.
</event>
<event>
 7    1  0.4096326E-006  0.1487853E+03  0.7561462E-02  0.1201974E+00
          1   -1    0    0  501    0  0.00000000000E+00  0.00000000000E+00  0.51825838767E+03  0.51825838767E+03  0.00000000000E+00 0. -1.
         -1   -1    0    0    0  501 -0.00000000000E+00 -0.00000000000E+00 -0.57593074232E+02  0.57593074232E+02  0.00000000000E+00 0.  1.
         23    2    1    2    0    0  0.76425347617E+02 -0.11015203021E+03  0.21998795335E+03  0.27327591562E+03  0.91163166469E+02 0.  0.
          5    1    1    2  502    0 -0.42141438725E+02  0.91975693173E+02  0.24322859674E+03  0.26346356800E+03  0.41800000000E+01 0.  1.
         -5    1    1    2    0  502 -0.34283908892E+02  0.18176337041E+02 -0.25512366417E+01  0.39111978288E+02  0.41800000000E+01 0.  1.
        -11    1    3    3    0    0  0.68136247491E+02 -0.26317730929E+02  0.13568391515E+03  0.15409508757E+03  0.00000000000E+00 0. -1.
         11    1    3    3    0    0  0.82891001265E+01 -0.83834299285E+02  0.84304038196E+02  0.11918082805E+03  0.00000000000E+00 0.  1.
</event>
<event>
 7    1  0.4096326E-006  0.1199220E+03  0.7561462E-02  0.1243226E+00
         -4   -1    0    0    0  501 -0.00000000000E+00  0.00000000000E+00  0.12902164157E+03  0.12902164157E+03  0.00000000000E+00 0.  1.
          4   -1    0    0  501    0  0.00000000000E+00 -0.00000000000E+00 -0.24083959711E+03  0.24083959711E+03  0.00000000000E+00 0. -1.
         23    2    1    2    0    0 -0.28829672899E+02  0.77051465819E+02 -0.16961427150E+03  0.20937686436E+03  0.91113071555E+02 0.  0.
          5    1    1    2  502    0  0.76114371513E+02 -0.27503696961E+02  0.29035986072E+02  0.86083748666E+02  0.41800000000E+01 0. -1.
         -5    1    1    2    0  502 -0.47284698614E+02 -0.49547768858E+02  0.28760329898E+02  0.74400625654E+02  0.41800000000E+01 0. -1.
        -11    1    3    3    0    0 -0.28599270875E+02  0.24564699626E+02 -0.14780749174E+03  0.15253982227E+03  0.00000000000E+00 0. -1.
         11    1    3    3    0    0 -0.23040202403E+00  0.52486766193E+02 -0.21806779760E+02  0.56837042094E+02  0.00000000000E+00 0.  1.
</event>
<event>
 7    1  0.4096326E-006  0.8313190E+02  0.7561462E-02  0.1320391E+00
          2   -1    0    0  501    0  0.00000000000E+00  0.00000000000E+00  0.94271564245E+02  0.94271564245E+02  0.00000000000E+00 0. -1.
         -2   -1    0    0    0  501 -0.00000000000E+00 -0.00000000000E+00 -0.14035567994E+03  0.14035567994E+03  0.00000000000E+00 0.  1.
         23    2    1    2    0    0  0.33335962107E+02 -0.57243234370E+01 -0.10003610234E+02  0.10011132353E+03  0.93691785299E+02 0.  0.
          5    1    1    2  502    0 -0.65828998780E+01 -0.47840723498E+02 -0.53329436850E+02  0.72066432063E+02  0.41800000000E+01 0.  1.
         -5    1    1    2    0  502 -0.26753062229E+02  0.53565046935E+02  0.17248931388E+02  0.62449488595E+02  0.41800000000E+01 0.  1.
        -11    1    3    3    0    0  0.11256956507E+02  0.20562776791E+02  0.35847975742E+02  0.42832513631E+02  0.00000000000E+00 0. -1.
         11    1    3    3    0    0  0.22079005600E+02 -0.26287100228E+02 -0.45851585976E+02  0.57278809897E+02  0.00000000000E+00 0.  1.
</event>
<event>
 7    1  0.4096326E-006  0.9610959E+02  0.7561462E-02  0.1288696E+00
         -1   -1    0    0    0  501 -0.00000000000E+00  0.00000000000E+00  0.79636197019E+02  0.79636197019E+02  0.00000000000E+00 0.  1.
          1   -1    0    0  501    0  0.00000000000E+00 -0.00000000000E+00 -0.15209306429E+03  0.15209306429E+03  0.00000000000E+00 0. -1.
         23    2    1    2    0    0  0.35621489338E+01  0.92147748370E+00 -0.51424122057E+02  0.10482959686E+03  0.91275769083E+02 0.  0.
          5    1    1    2  502    0 -0.62052196200E+02  0.10582326067E+02 -0.22897649443E+02  0.67113600918E+02  0.41800000000E+01 0. -1.
         -5    1    1    2    0  502  0.58490047266E+02 -0.11503803551E+02  0.18649042292E+01  0.59786063536E+02  0.41800000000E+01 0. -1.
        -11    1    3    3    0    0  0.55680313560E+01  0.34898204318E+02  0.81051793034E+01  0.36257158871E+02  0.00000000000E+00 0.  1.
         11    1    3    3    0    0 -0.20058824222E+01 -0.33976726835E+02 -0.59529301360E+02  0.68572437984E+02  0.00000000000E+00 0. -1.
</event>
<event>
 7    1  0.4096326E-006  0.1075788E+03  0.7561462E-02  0.1265120E+00
         -1   -1    0    0    0  501 -0.00000000000E+00  0.00000000000E+00  0.18316047170E+03  0.18316047170E+03  0.00000000000E+00 0.  1.
          1   -1    0    0  501    0  0.00000000000E+00 -0.00000000000E+00 -0.30003410926E+03  0.30003410926E+03  0.00000000000E+00 0. -1.
         23    2    1    2    0    0  0.36856843560E+02 -0.73917148064E+01 -0.26963777830E+03  0.28699776328E+03  0.90830172702E+02 0.  0.
          5    1    1    2  502    0  0.30561924491E+02 -0.30714695622E+02  0.72648250334E+02  0.84691584188E+02  0.41800000000E+01 0. -1.
         -5    1    1    2    0  502 -0.67418768051E+02  0.38106410428E+02  0.80115890410E+02  0.11150523350E+03  0.41800000000E+01 0.  1.
        -11    1    3    3    0    0 -0.25599929454E+02 -0.17211027165E+02 -0.53007797562E+02  0.61330273492E+02  0.00000000000E+00 0.  1.
         11    1    3    3    0    0  0.62456773015E+02  0.98193123590E+01 -0.21662998074E+03  0.22566748978E+03  0.00000000000E+00 0. -1.
</event>
<event>
 7    1  0.4096326E-006  0.1198757E+03  0.7561462E-02  0.1243302E+00
          1   -1    0    0  501    0  0.00000000000E+00  0.00000000000E+00  0.52442336310E+03  0.52442336310E+03  0.00000000000E+00 0. -1.
         -1   -1    0    0    0  501 -0.00000000000E+00 -0.00000000000E+00 -0.73976402987E+02  0.73976402987E+02  0.00000000000E+00 0.  1.
         23    2    1    2    0    0  0.43162803734E+02 -0.75408577472E+02  0.43728320235E+03  0.45469707766E+03  0.89349606547E+02 0.  0.
          5    1    1    2  502    0  0.25977983345E+02  0.25846847986E+02  0.39993586453E+02  0.54404728902E+02  0.41800000000E+01 0. -1.
         -5    1    1    2    0  502 -0.69140787079E+02  0.49561729486E+02 -0.26829828694E+02  0.89297959525E+02  0.41800000000E+01 0.  1.
        -11    1    3    3    0    0 -0.55340159558E+01  0.14459350989E+02  0.21251430083E+02  0.26292992301E+02  0.00000000000E+00 0.  1.
         11    1    3    3    0    0  0.48696819690E+02 -0.89867928460E+02  0.41603177227E+03  0.42840408536E+03  0.00000000000E+00 0. -1.
</event>
<event>
 7    1  0.4096326E-006  0.1277092E+03  0.7561462E-02  0.1230895E+00
         -1   -1    0    0    0  501 -0.00000000000E+00  0.00000000000E+00  0.76692728393E+03  0.76692728393E+03  0.00000000000E+00 0.  1.
          1   -1    0    0  501    0  0.00000000000E+00 -0.00000000000E+00 -0.38518801978E+02  0.38518801978E+02  0.00000000000E+00 0. -1.
         23    2    1    2    0    0 -0.46839496809E+02 -0.59947628682E+02  0.86837004222E+02  0.14738151961E+03  0.91613265269E+02 0.  0.
          5    1    1    2  502    0  0.77103715385E+02  0.17607856210E+01  0.41621496319E+03  0.42332074279E+03  0.41800000000E+01 0. -1.
         -5    1    1    2    0  502 -0.30264218576E+02  0.58186843061E+02  0.22535651454E+03  0.23474382351E+03  0.41800000000E+01 0. -1.
        -11    1    3    3    0    0  0.21941636653E+02 -0.30664810236E+02  0.53688389067E+02  0.65606471681E+02  0.00000000000E+00 0.  1.
         11    1    3    3    0    0 -0.68781133462E+02 -0.29282818446E+02  0.33148615155E+02  0.81775047925E+02  0.00000000000E+00 0. -1.
</event>
<event>
 7    1  0.4096326E-006  0.1250275E+03  0.7561462E-02  0.1235026E+00
          1   -1    0    0  501    0  0.00000000000E+00  0.00000000000E+00  0.12083770969E+03  0.12083770969E+03  0.00000000000E+00 0. -1.
         -1   -1    0    0    0  501 -0.00000000000E+00 -0.00000000000E+00 -0.16430617159E+03  0.16430617159E+03  0.00000000000E+00 0.  1.
         23    2    1    2    0    0 -0.49652386524E+02  0.55248941708E+02  0.33085362484E+02  0.12074697267E+03  0.89260210347E+02 0.  0.
          5    1    1    2  502    0  0.55829494647E+02 -0.87828484397E+02 -0.32516360633E+02  0.10911260813E+03  0.41800000000E+01 0.  1.
         -5    1    1    2    0  502 -0.61771081229E+01  0.32579542689E+02 -0.44037463749E+02  0.55284300484E+02  0.41800000000E+01 0.  1.
        -11    1    3    3    0    0 -0.21439384904E+02  0.75022129866E+02  0.36471850714E+02  0.86128758782E+02  0.00000000000E+00 0.  1.
         11    1    3    3    0    0 -0.28213001620E+02 -0.19773188158E+02 -0.33864882308E+01  0.34618213889E+02  0.00000000000E+00 0. -1.
</event>
<event>
 7    1  0.4096326E-006  0.2347416E+03  0.7561462E-02  0.1123346E+00
         -1   -1    0    0    0  501 -0.00000000000E+00  0.00000000000E+00  0.65095877007E+02  0.65095877007E+02  0.00000000000E+00 0.  1.
          1   -1    0    0  501    0  0.00000000000E+00 -0.00000000000E+00 -0.94813488570E+03  0.94813488570E+03  0.00000000000E+00 0. -1.
         23    2    1    2    0    0 -0.19655459588E+03 -0.10546675668E+03 -0.41840314512E+03  0.48285665729E+03  0.91282055833E+02 0.  0.
          5    1    1    2  502    0  0.20621292114E+03  0.85492189800E+02 -0.36225681440E+03  0.42553513996E+03  0.41800000000E+01 0. -1.
         -5    1    1    2    0  502 -0.96583252593E+01  0.19974566879E+02 -0.10237904918E+03  0.10483896547E+03  0.41800000000E+01 0. -1.
        -11    1    3    3    0    0 -0.15676207696E+03 -0.76614241825E+02 -0.38703820664E+03  0.42454995492E+03  0.00000000000E+00 0. -1.
         11    1    3    3    0    0 -0.39792518919E+02 -0.28852514853E+02 -0.31364938478E+02  0.58306702368E+02  0.00000000000E+00 0.  1.
</event>
<event>
 7    1  0.4096326E-006  0.2243934E+03  0.7561462E-02  0.1130649E+00
         -2   -1    0    0    0  501 -0.00000000000E+00  0.00000000000E+00  0.36554565076E+02  0.36554565076E+02  0.00000000000E+00 0.  1.
          2   -1    0    0  501    0  0.00000000000E+00 -0.00000000000E+00 -0.16954998969E+04  0.16954998969E+04  0.00000000000E+00 0. -1.
         23    2    1    2    0    0 -0.69684561654E+01  0.19849131850E+03 -0.11638799328E+04  0.11841634296E+04  0.90438747267E+02 0.  0.
          5    1    1    2  502    0  0.45066466466E+02 -0.15674975332E+02 -0.97277969366E+02  0.10843047070E+03  0.41800000000E+01 0.  1.
         -5    1    1    2    0  502 -0.38098010301E+02 -0.18281634317E+03 -0.39778742960E+03  0.43946056167E+03  0.41800000000E+01 0.  1.
        -11    1    3    3    0    0 -0.36772247110E+02  0.46856926860E+02 -0.23019403839E+03  0.23777524065E+03  0.00000000000E+00 0.  1.
         11    1    3    3    0    0  0.29803790945E+02  0.15163439164E+03 -0.93368589445E+03  0.94638818894E+03  0.00000000000E+00 0. -1.
</event>
<event>
 7    1  0.4096326E-006  0.1048298E+03  0.7561462E-02  0.1270455E+00
          1   -1    0    0  501    0  0.00000000000E+00  0.00000000000E+00  0.35676197820E+03  0.35676197820E+03  0.00000000000E+00 0. -1.
         -1   -1    0    0    0  501 -0.00000000000E+00 -0.00000000000E+00 -0.49662166815E+02  0.49662166815E+02  0.00000000000E+00 0.  1.
         23    2    1    2    0    0  0.59562314198E+02  0.11802838893E+02  0.21166378899E+03  0.23777096697E+03  0.89702268013E+02 0.  0.
          5    1    1    2  502    0 -0.20163850277E+02  0.46753071085E+02  0.82113963205E+02  0.96708871708E+02  0.41800000000E+01 0. -1.
         -5    1    1    2    0  502 -0.39398463921E+02 -0.58555909978E+02  0.13322059189E+02  0.71944306333E+02  0.41800000000E+01 0. -1.
        -11    1    3    3    0    0  0.46862118523E+01  0.29764644618E+02  0.16727879590E+02  0.34463264592E+02  0.00000000000E+00 0.  1.
         11    1    3    3    0    0  0.54876102346E+02 -0.17961805724E+02  0.19493590940E+03  0.20330770238E+03  0.00000000000E+00 0. -1.
</event>
<event>
 7    1  0.4096326E-006  0.1636194E+03  0.7561462E-02  0.1184670E+00
         -2   -1    0    0    0  501 -0.00000000000E+00  0.00000000000E+00  0.15301804327E+04  0.15301804327E+04  0.00000000000E+00 0. -1.
          2   -1    0    0  501    0  0.00000000000E+00 -0.00000000000E+00 -0.22969445172E+02  0.22969445172E+02  0.00000000000E+00 0.  1.
         23    2    1    2    0    0 -0.18228947471E+02 -0.13824542044E+03  0.43180781081E+03  0.46155317362E+03  0.84434920518E+02 0.  0.
          5    1    1    2  502    0  0.47784830434E+02  0.14643975657E+03  0.82293555373E+03  0.83723855042E+03  0.41800000000E+01 0.  1.
         -5    1    1    2    0  502 -0.29555882963E+02 -0.81943361309E+01  0.25246762302E+03  0.25435815386E+03  0.41800000000E+01 0.  1.
        -11    1    3    3    0    0  0.23409436798E+01 -0.86117500752E+02  0.36160872496E+03  0.37172916744E+03  0.00000000000E+00 0. -1.
         11    1    3    3    0    0 -0.20569891151E+02 -0.52127919688E+02  0.70199085843E+02  0.89824006179E+02  0.00000000000E+00 0.  1.
</event>
<event>
 7    1  0.4096326E-006  0.1210033E+03  0.7561462E-02  0.1241451E+00
          1   -1    0    0  501    0  0.00000000000E+00  0.00000000000E+00  0.76126329539E+03  0.76126329539E+03  0.00000000000E+00 0. -1.
         -1   -1    0    0    0  501 -0.00000000000E+00 -0.00000000000E+00 -0.21777615927E+02  0.21777615927E+02  0.00000000000E+00 0.  1.
         23    2    1    2    0    0 -0.14767697041E+02  0.57508410203E+02  0.28472636976E+03  0.30512637073E+03  0.92237163664E+02 0.  0.
          5    1    1    2  502    0 -0.25880865619E+02 -0.89141207181E+02  0.33113849137E+03  0.34392753145E+03  0.41800000000E+01 0. -1.
         -5    1    1    2    0  502  0.40648562660E+02  0.31632796978E+02  0.12362081833E+03  0.13398700913E+03  0.41800000000E+01 0.  1.
        -11    1    3    3    0    0  0.31816332297E+02  0.27005464440E+02  0.56713747358E+02  0.70413232065E+02  0.00000000000E+00 0.  1.
         11    1    3    3    0    0 -0.46584029338E+02  0.30502945763E+02  0.22801262240E+03  0.23471313867E+03  0.00000000000E+00 0. -1.
</event>
<event>
 7    1  0.4096326E-006  0.1327307E+03  0.7561462E-02  0.1223459E+00
          1   -1    0    0  501    0  0.00000000000E+00  0.00000000000E+00  0.22945394537E+03  0.22945394537E+03  0.00000000000E+00 0. -1.
         -1   -1    0    0    0  501 -0.00000000000E+00 -0.00000000000E+00 -0.99304752310E+02  0.99304752310E+02  0.00000000000E+00 0.  1.
         23    2    1    2    0    0  0.12242715748E+02 -0.95882153450E+02  0.10482682293E+03  0.16866134787E+03  0.90081718569E+02 0.  0.
          5    1    1    2  502    0 -0.47397667693E+02  0.84903611478E+02  0.55730845921E+02  0.11215418731E+03  0.41800000000E+01 0.  1.
         -5    1    1    2    0  502  0.35154951945E+02  0.10978541971E+02 -0.30408475792E+02  0.47943162496E+02  0.41800000000E+01 0.  1.
        -11    1    3    3    0    0 -0.28417128735E+02 -0.84046594100E+02  0.80646409459E+02  0.11989664943E+03  0.00000000000E+00 0.  1.
         11    1    3    3    0    0  0.40659844483E+02 -0.11835559350E+02  0.24180413470E+02  0.48764698441E+02  0.00000000000E+00 0. -1.
</event>
<event>
 7    1  0.4096326E-006  0.2789956E+03  0.7561462E-02  0.1096239E+00
         -2   -1    0    0    0  501 -0.00000000000E+00  0.00000000000E+00  0.24614189734E+03  0.24614189734E+03  0.00000000000E+00 0.  1.
          2   -1    0    0  501    0  0.00000000000E+00 -0.00000000000E+00 -0.72366959018E+03  0.72366959018E+03  0.00000000000E+00 0. -1.
         23    2    1    2    0    0 -0.25697855281E+03  0.78930678408E+02 -0.58806815541E+03  0.65336997096E+03  0.93809034433E+02 0.  0.
          5    1    1    2  502    0  0.45731474790E+02  0.25851404377E+02  0.50694323520E+02  0.73123523793E+02  0.41800000000E+01 0. -1.
         -5    1    1    2    0  502  0.21124707802E+03 -0.10478208278E+03  0.59846139046E+02  0.24331799277E+03  0.41800000000E+01 0. -1.
        -11    1    3    3    0    0 -0.11056680800E+03  0.43464807469E+02 -0.15801063092E+03  0.19769058653E+03  0.00000000000E+00 0.  1.
         11    1    3    3    0    0 -0.14641174482E+03  0.35465870938E+02 -0.43005752449E+03  0.45567938442E+03  0.00000000000E+00 0. -1.
</event>
<event>
 7    1  0.4096326E-006  0.1135633E+03  0.7561462E-02  0.1254110E+00
          3   -1    0    0  501    0  0.00000000000E+00  0.00000000000E+00  0.53534451485E+02  0.53534451485E+02  0.00000000000E+00 0. -1.
         -3   -1    0    0    0  501 -0.00000000000E+00 -0.00000000000E+00 -0.30111213006E+03  0.30111213006E+03  0.00000000000E+00 0.  1.
         23    2    1    2    0    0 -0.25243166275E+02 -0.51694637743E+02 -0.73128566842E+02  0.13241297373E+03  0.94211757802E+02 0.  0.
          5    1    1    2  502    0 -0.50434602293E+02  0.16640016197E+02 -0.55832752799E+02  0.77170641650E+02  0.41800000000E+01 0.  1.
         -5    1    1    2    0  502  0.75677768567E+02  0.35054621546E+02 -0.11861635894E+03  0.14506296617E+03  0.41800000000E+01 0.  1.
        -11    1    3    3    0    0  0.23934679733E+02 -0.10262872670E+02  0.94911776105E+01  0.27717826426E+02  0.00000000000E+00 0. -1.
         11    1    3    3    0    0 -0.49177846008E+02 -0.41431765073E+02 -0.82619744453E+02  0.10469514730E+03  0.00000000000E+00 0.  1.
</event>
<event>
 7    1  0.4096326E-006  0.7233949E+02  0.7561462E-02  0.1352313E+00
         -3   -1    0    0    0  501 -0.00000000000E+00  0.00000000000E+00  0.31696374869E+03  0.31696374869E+03  0.00000000000E+00 0.  1.
          3   -1    0    0  501    0  0.00000000000E+00 -0.00000000000E+00 -0.44647581594E+02  0.44647581594E+02  0.00000000000E+00 0. -1.
         23    2    1    2    0    0  0.22519297916E+02 -0.36186861222E+02  0.11985648188E+03  0.15984711149E+03  0.96793156262E+02 0.  0.
          5    1    1    2  502    0 -0.25411890346E+02  0.11225122968E+02  0.16904717569E+03  0.17136565457E+03  0.41800000000E+01 0.  1.
         -5    1    1    2    0  502  0.28925924301E+01  0.24961738254E+02 -0.16587490465E+02  0.30398564235E+02  0.41800000000E+01 0.  1.
        -11    1    3    3    0    0  0.52870247092E+02 -0.18679058951E+02  0.30422234045E+02  0.63794063949E+02  0.00000000000E+00 0. -1.
         11    1    3    3    0    0 -0.30350949175E+02 -0.17507802271E+02  0.89434247830E+02  0.96053047537E+02  0.00000000000E+00 0.  1.
</event>
<event>
 7    1  0.4096326E-006  0.1389916E+03  0.7561462E-02  0.1214692E+00
          1   -1    0    0  501    0  0.00000000000E+00  0.00000000000E+00  0.25479509057E+03  0.25479509057E+03  0.00000000000E+00 0. -1.
         -1   -1    0    0    0  501 -0.00000000000E+00 -0.00000000000E+00 -0.12514405934E+03  0.12514405934E+03  0.00000000000E+00 0.  1.
         23    2    1    2    0    0 -0.91470634952E+02 -0.68777599850E+02  0.14898372130E+03  0.20929891872E+03  0.92264038871E+02 0.  0.
          5    1    1    2  502    0 -0.62371771445E+01  0.38949597712E+02 -0.50066968567E+02  0.63876030576E+02  0.41800000000E+01 0.  1.
         -5    1    1    2    0  502  0.97707812096E+02  0.29828002137E+02  0.30734278497E+02  0.10676420061E+03  0.41800000000E+01 0.  1.
        -11    1    3    3    0    0 -0.92837181505E+02 -0.30426227397E+02  0.66083396632E+02  0.11794707666E+03  0.00000000000E+00 0. -1.
         11    1    3    3    0    0  0.13665465529E+01 -0.38351372453E+02  0.82900324663E+02  0.91351842060E+02  0.00000000000E+00 0.  1.
</event>
<event>
 7    1  0.4096326E-006  0.1231741E+03  0.7561462E-02  0.1237951E+00
         -1   -1    0    0    0  501 -0.00000000000E+00  0.00000000000E+00  0.19312421299E+03  0.19312421299E+03  0.00000000000E+00 0.  1.
          1   -1    0    0  501    0  0.00000000000E+00 -0.00000000000E+00 -0.16056681004E+03  0.16056681004E+03  0.00000000000E+00 0. -1.
         23    2    1    2    0    0 -0.55805396444E+02  0.10238677809E+03 -0.59999257737E+02  0.15927860526E+03  0.90401706648E+02 0.  0.
          5    1    1    2  502    0  0.42597048463E+02 -0.10393737378E+03  0.11951097119E+03  0.16406654394E+03  0.41800000000E+01 0.  1.
         -5    1    1    2    0  502  0.13208347981E+02  0.15505956885E+01 -0.26954310508E+02  0.30345873827E+02  0.41800000000E+01 0.  1.
        -11    1    3    3    0    0 -0.48065605977E+02  0.59821916574E+02  0.95910915023E+01  0.77336622739E+02  0.00000000000E+00 0.  1.
         11    1    3    3    0    0 -0.77397904662E+01  0.42564861521E+02 -0.69590349239E+02  0.81941982524E+02  0.00000000000E+00 0. -1.
</event>
<event>
 7    1  0.4096326E-006  0.2280100E+03  0.7561462E-02  0.1128048E+00
          2   -1    0    0  501    0  0.00000000000E+00  0.00000000000E+00  0.15029932289E+04  0.15029932289E+04  0.00000000000E+00 0. -1.
         -2   -1    0    0    0  501 -0.00000000000E+00 -0.00000000000E+00 -0.47157710418E+02  0.47157710418E+02  0.00000000000E+00 0.  1.
         23    2    1    2    0    0  0.84072443003E+02 -0.18898531814E+03  0.10799041060E+04  0.11032106073E+04  0.89984108955E+02 0.  0.
          5    1    1    2  502    0 -0.10415633937E+03  0.12105626367E+03  0.31589157664E+03  0.35398887355E+03  0.41800000000E+01 0.  1.
         -5    1    1    2    0  502  0.20083896365E+02  0.67929054472E+02  0.60039835845E+02  0.92951458422E+02  0.41800000000E+01 0.  1.
        -11    1    3    3    0    0  0.64718314847E+02 -0.42217887822E+02  0.34567569963E+03  0.35420685996E+03  0.00000000000E+00 0. -1.
         11    1    3    3    0    0  0.19354128156E+02 -0.14676743032E+03  0.73422840635E+03  0.74900374737E+03  0.00000000000E+00 0.  1.
</event>
<event>
 7    1  0.4096326E-006  0.1089402E+03  0.7561462E-02  0.1262545E+00
         -1   -1    0    0    0  501 -0.00000000000E+00  0.00000000000E+00  0.14595167227E+04  0.14595167227E+04  0.00000000000E+00 0.  1.
          1   -1    0    0  501    0  0.00000000000E+00 -0.00000000000E+00 -0.11385245555E+02  0.11385245555E+02  0.00000000000E+00 0. -1.
         23    2    1    2    0    0  0.13142967651E+02 -0.35147332182E+02  0.32713232270E+03  0.34232067219E+03  0.93593875305E+02 0.  0.
          5    1    1    2  502    0 -0.67531255876E+02  0.26482173535E+02  0.52039909051E+03  0.52544691629E+03  0.41800000000E+01 0.  1.
         -5    1    1    2    0  502  0.54388288225E+02  0.86651586464E+01  0.60060006398E+03  0.60313437982E+03  0.41800000000E+01 0.  1.
        -11    1    3    3    0    0 -0.22906086669E+01 -0.60373224581E+02  0.28173923113E+03  0.28814435183E+03  0.00000000000E+00 0.  1.
         11    1    3    3    0    0  0.15433576318E+02  0.25225892399E+02  0.45393091574E+02  0.54176320362E+02  0.00000000000E+00 0. -1.
</event>
<event>
 7    1  0.4096326E-006  0.1123180E+03  0.7561462E-02  0.1256337E+00
          1   -1    0    0  501    0  0.00000000000E+00  0.00000000000E+00  0.40332229904E+03  0.40332229904E+03  0.00000000000E+00 0. -1.
         -1   -1    0    0    0  501 -0.00000000000E+00 -0.00000000000E+00 -0.38500021902E+02  0.38500021902E+02  0.00000000000E+00 0.  1.
         23    2    1    2    0    0  0.32193046882E+02  0.26090618676E+02  0.24331821630E+03  0.26257654343E+03  0.89585568737E+02 0.  0.
          5    1    1    2  502    0  0.61599786714E+01  0.44741416801E+02  0.19928412256E+02  0.49541434473E+02  0.41800000000E+01 0. -1.
         -5    1    1    2    0  502 -0.38353025553E+02 -0.70832035477E+02  0.10157564859E+03  0.12970434305E+03  0.41800000000E+01 0. -1.
        -11    1    3    3    0    0  0.52273427656E+02  0.46520315345E+02  0.17744487050E+03  0.19074415599E+03  0.00000000000E+00 0.  1.
         11    1    3    3    0    0 -0.20080380774E+02 -0.20429696669E+02  0.65873345796E+02  0.71832387434E+02  0.00000000000E+00 0. -1.
</event>
<event>
 7    1  0.4096326E-006  0.3218548E+03  0.7561462E-02  0.1074799E+00
         -1   -1    0    0    0  501 -0.00000000000E+00  0.00000000000E+00  0.40694925985E+03  0.40694925985E+03  0.00000000000E+00 0.  1.
          1   -1    0    0  501    0  0.00000000000E+00 -0.00000000000E+00 -0.33622392057E+03  0.33622392057E+03  0.00000000000E+00 0. -1.
         23    2    1    2    0    0 -0.30501895257E+03 -0.10369890811E+02 -0.14378218360E+03  0.34971977573E+03  0.92122251129E+02 0.  0.
          5    1    1    2  502    0 -0.88319311496E+01 -0.86978051950E+01  0.51800378920E+00  0.13091812364E+02  0.41800000000E+01 0.  1.
         -5    1    1    2    0  502  0.31385088372E+03  0.19067696006E+02  0.21398951909E+03  0.38036159233E+03  0.41800000000E+01 0.  1.
        -11    1    3    3    0    0 -0.29280873871E+03  0.93711958391E+01 -0.14415463627E+03  0.32650472574E+03  0.00000000000E+00 0. -1.
         11    1    3    3    0    0 -0.12210213865E+02 -0.19741086650E+02  0.37245267874E+00  0.23215049984E+02  0.00000000000E+00 0.  1.
</event>
<event>
 7    1  0.4096326E-006  0.9657949E+02  0.7561462E-02  0.1287658E+00
          1   -1    0    0  501    0  0.00000000000E+00  0.00000000000E+00  0.49876826987E+03  0.49876826987E+03  0.00000000000E+00 0. -1.
         -1   -1    0    0    0  501 -0.00000000000E+00 -0.00000000000E+00 -0.37361564472E+02  0.37361564472E+02  0.00000000000E+00 0.  1.
         23    2    1    2    0    0  0.35545603062E+02 -0.55877004859E+02  0.24698873774E+03  0.27920884035E+03  0.11210892199E+03 0.  0.
          5    1    1    2  502    0 -0.30807475981E+02 -0.25019682681E+02  0.16811647468E+02  0.43303452384E+02  0.41800000000E+01 0. -1.
         -5    1    1    2    0  502 -0.47381270807E+01  0.80896687540E+02  0.19760632019E+03  0.21361754161E+03  0.41800000000E+01 0. -1.
        -11    1    3    3    0    0  0.16572000793E+02 -0.42534510767E+01 -0.76185882317E+01  0.18728746434E+02  0.00000000000E+00 0.  1.
         11    1    3    3    0    0  0.18973602268E+02 -0.51623553783E+02  0.25460732597E+03  0.26048009391E+03  0.00000000000E+00 0. -1.
</event>
<event>
 7    1  0.4096326E-006  0.9509120E+02  0.7561462E-02  0.1290971E+00
          1   -1    0    0  501    0  0.00000000000E+00  0.00000000000E+00  0.49359220400E+02  0.49359220400E+02  0.00000000000E+00 0. -1.
         -1   -1    0    0    0  501 -0.00000000000E+00 -0.00000000000E+00 -0.26008352184E+03  0.26008352184E+03  0.00000000000E+00 0.  1.
         23    2    1    2    0    0 -0.16858033081E+02  0.33860777093E+02 -0.62274031108E+02  0.11166245754E+03  0.84615033940E+02 0.  0.
          5    1    1    2  502    0 -0.21315202428E+02  0.26778255548E+02 -0.11218270345E+03  0.11736202187E+03  0.41800000000E+01 0.  1.
         -5    1    1    2    0  502  0.38173235509E+02 -0.60639032641E+02 -0.36267566885E+02  0.80418262830E+02  0.41800000000E+01 0.  1.
        -11    1    3    3    0    0  0.13408719310E+02 -0.18856788050E+02 -0.41332271905E+02  0.47368015685E+02  0.00000000000E+00 0.  1.
         11    1    3    3    0    0 -0.30266752392E+02  0.52717565143E+02 -0.20941759204E+02  0.64294441855E+02  0.00000000000E+00 0. -1.
</event>
<event>
 7    1  0.4096326E-006  0.1805826E+03  0.7561462E-02  0.1167240E+00
          2   -1    0    0  501    0  0.00000000000E+00  0.00000000000E+00  0.15369570699E+03  0.15369570699E+03  0.00000000000E+00 0. -1.
         -2   -1    0    0    0  501 -0.00000000000E+00 -0.00000000000E+00 -0.25156236894E+03  0.25156236894E+03  0.00000000000E+00 0.  1.
         23    2    1    2    0    0  0.93019388776E+02  0.12867031039E+03 -0.60517835082E+01  0.18325216140E+03  0.91302109008E+02 0.  0.
          5    1    1    2  502    0 -0.63652575804E+02  0.48404749491E+01 -0.41616258721E+02  0.76318189144E+02  0.41800000000E+01 0. -1.
         -5    1    1    2    0  502 -0.29366812972E+02 -0.13351078534E+03 -0.50198619722E+02  0.14568772538E+03  0.41800000000E+01 0. -1.
        -11    1    3    3    0    0  0.48956831360E+02  0.86733525270E+02  0.39617800556E+02  0.10718696685E+03  0.00000000000E+00 0. -1.
         11    1    3    3    0    0  0.44062557416E+02  0.41936785118E+02 -0.45669584065E+02  0.76065194542E+02  0.00000000000E+00 0.  1.
</event>
<event>
 7    1  0.4096326E-006  0.1153473E+03  0.7561462E-02  0.1250976E+00
         -2   -1    0    0    0  501 -0.00000000000E+00  0.00000000000E+00  0.49179179953E+03  0.49179179953E+03  0.00000000000E+00 0.  1.
          2   -1    0    0  501    0  0.00000000000E+00 -0.00000000000E+00 -0.40581805758E+02  0.40581805758E+02  0.00000000000E+00 0. -1.
         23    2    1    2    0    0 -0.88741329431E+02  0.58657133004E+01  0.17401050308E+03  0.21551932594E+03  0.90881761248E+02 0.  0.
          5    1    1    2  502    0  0.20299100499E+02  0.38305153364E+02  0.19951883008E+03  0.20421697827E+03  0.41800000000E+01 0. -1.
         -5    1    1    2    0  502  0.68442228932E+02 -0.44170866665E+02  0.77680660610E+02  0.11263730109E+03  0.41800000000E+01 0. -1.
        -11    1    3    3    0    0 -0.41328464499E+01  0.19450584585E+02  0.10100917454E+03  0.10294784603E+03  0.00000000000E+00 0.  1.
         11    1    3    3    0    0 -0.84608482981E+02 -0.13584871284E+02  0.73001328546E+02  0.11257147991E+03  0.00000000000E+00 0. -1.
</event>
<event>
 7    1  0.4096326E-006  0.6972002E+02  0.7561462E-02  0.1361048E+00
         -2   -1    0    0    0  501 -0.00000000000E+00  0.00000000000E+00  0.58220251072E+02  0.58220251072E+02  0.00000000000E+00 0.  1.
          2   -1    0    0  501    0  0.00000000000E+00 -0.00000000000E+00 -0.21191091478E+03  0.21191091478E+03  0.00000000000E+00 0. -1.
         23    2    1    2    0    0  0.41815616941E+01 -0.35330112711E+02 -0.46696683463E+02  0.10172622990E+03  0.83077934976E+02 0.  0.
          5    1    1    2  502    0 -0.20748899168E+02  0.57490673481E+01  0.24303101153E+02  0.32736550180E+02  0.41800000000E+01 0. -1.
         -5    1    1    2    0  502  0.16567337474E+02  0.29581045363E+02 -0.13129708140E+03  0.13566838578E+03  0.41800000000E+01 0. -1.
        -11    1    3    3    0    0 -0.34843376103E+02 -0.81355132182E+01 -0.40038813736E+02  0.53696871780E+02  0.00000000000E+00 0.  1.
         11    1    3    3    0    0  0.39024937797E+02 -0.27194599493E+02 -0.66578697273E+01  0.48029358115E+02  0.00000000000E+00 0. -1.
</event>
<event>
 7    1  0.4096326E-006  0.8914239E+02  0.7561462E-02  0.1304942E+00
         -2   -1    0    0    0  501 -0.00000000000E+00  0.00000000000E+00  0.49200723308E+02  0.49200723308E+02  0.00000000000E+00 0.  1.
          2   -1    0    0  501    0  0.00000000000E+00 -0.00000000000E+00 -0.32653536204E+03  0.32653536204E+03  0.00000000000E+00 0. -1.
         23    2    1    2    0    0 -0.39090801753E+02  0.37965959431E+02 -0.18079183487E+03  0.20858176108E+03  0.88606764089E+02 0.  0.
          5    1    1    2  502    0 -0.29369590432E+02 -0.10822033128E+02  0.13771653535E+02  0.34450255213E+02  0.41800000000E+01 0. -1.
         -5    1    1    2    0  502  0.68460392184E+02 -0.27143926303E+02 -0.11031445739E+03  0.13270406905E+03  0.41800000000E+01 0. -1.
        -11    1    3    3    0    0 -0.43530952310E+02  0.10049617931E+02 -0.17381706468E+03  0.17946673955E+03  0.00000000000E+00 0. -1.
         11    1    3    3    0    0  0.44401505579E+01  0.27916341500E+02 -0.69747701917E+01  0.29115021534E+02  0.00000000000E+00 0.  1.
</event>
<event>
 7    1  0.4096326E-006  0.1007480E+03  0.7561462E-02  0.1278731E+00
         -3   -1    0    0    0  501 -0.00000000000E+00  0.00000000000E+00  0.15368714920E+03  0.15368714920E+03  0.00000000000E+00 0.  1.
          3   -1    0    0  501    0  0.00000000000E+00 -0.00000000000E+00 -0.10419874100E+03  0.10419874100E+03  0.00000000000E+00 0. -1.
         23    2    1    2    0    0 -0.42973146141E+02 -0.40242143207E+02 -0.18461211731E+02  0.10383622337E+03  0.83516606531E+02 0.  0.
          5    1    1    2  502    0  0.85532259911E+02  0.13840484984E+02  0.32888545577E+02  0.92770983289E+02  0.41800000000E+01 0.  1.
         -5    1    1    2    0  502 -0.42559113771E+02  0.26401658224E+02  0.35061074352E+02  0.61278683542E+02  0.41800000000E+01 0.  1.
        -11    1    3    3    0    0 -0.80827070189E+00 -0.15669731067E+02  0.30754788295E+02  0.34526088343E+02  0.00000000000E+00 0.  1.
         11    1    3    3    0    0 -0.42164875439E+02 -0.24572412140E+02 -0.49216000026E+02  0.69310135029E+02  0.00000000000E+00 0. -1.
</event>
<event>
 7    1  0.4096326E-006  0.9966441E+02  0.7561462E-02  0.1281003E+00
          1   -1    0    0  501    0  0.00000000000E+00  0.00000000000E+00  0.11581041656E+03  0.11581041656E+03  0.00000000000E+00 0. -1.
         -1   -1    0    0    0  501 -0.00000000000E+00 -0.00000000000E+00 -0.10351401637E+03  0.10351401637E+03  0.00000000000E+00 0.  1.
         23    2    1    2    0    0 -0.15010095226E+02  0.19191950857E+02  0.23918670056E+02  0.98400349759E+02  0.92287009482E+02 0.  0.
          5    1    1    2  502    0 -0.23853856730E+02 -0.49119778750E+02  0.24367782079E+02  0.59941808021E+02  0.41800000000E+01 0. -1.
         -5    1    1    2    0  502  0.38863951955E+02  0.29927827894E+02 -0.35990051941E+02  0.60982275152E+02  0.41800000000E+01 0.  1.
        -11    1    3    3    0    0 -0.53471289161E+02  0.19372329457E+02  0.11893286283E+02  0.58102634808E+02  0.00000000000E+00 0. -1.
         11    1    3    3    0    0  0.38461193935E+02 -0.18037860002E+00  0.12025383773E+02  0.40297714951E+02  0.00000000000E+00 0.  1.
</event>
<event>
 7    1  0.4096326E-006  0.1607941E+03  0.7561462E-02  0.1187803E+00
          2   -1    0    0  501    0  0.00000000000E+00  0.00000000000E+00  0.48879014904E+03  0.48879014904E+03  0.00000000000E+00 0. -1.
         -2   -1    0    0    0  501 -0.00000000000E+00 -0.00000000000E+00 -0.70537403387E+02  0.70537403387E+02  0.00000000000E+00 0.  1.
         23    2    1    2    0    0  0.44499869356E+02 -0.14107984816E+03  0.23918206934E+03  0.29551553731E+03  0.90761272411E+02 0.  0.
          5    1    1    2  502    0  0.88323555747E+01  0.68253766060E+02  0.68050579250E+01  0.69284690226E+02  0.41800000000E+01 0. -1.
         -5    1    1    2    0  502 -0.53332224930E+02  0.72826082099E+02  0.17226561839E+03  0.19452732489E+03  0.41800000000E+01 0. -1.
        -11    1    3    3    0    0 -0.17550371204E+02 -0.23534589553E+02  0.10821394558E+02  0.31288896034E+02  0.00000000000E+00 0.  1.
         11    1    3    3    0    0  0.62050240559E+02 -0.11754525861E+03  0.22836067478E+03  0.26422664128E+03  0.00000000000E+00 0. -1.
</event>
<event>
 7    1  0.4096326E-006  0.7057471E+02  0.7561462E-02  0.1358150E+00
         -2   -1    0    0    0  501 -0.00000000000E+00  0.00000000000E+00  0.23686833044E+03  0.23686833044E+03  0.00000000000E+00 0.  1.
          2   -1    0    0  501    0  0.00000000000E+00 -0.00000000000E+00 -0.52403262831E+02  0.52403262831E+02  0.00000000000E+00 0. -1.
         23    2    1    2    0    0 -0.17565978647E+02 -0.11110868080E+02  0.55870595772E+02  0.10867263166E+03  0.90863647324E+02 0.  0.
          5    1    1    2  502    0  0.44231549588E+02 -0.11239461423E+02 -0.15144883549E+01  0.45853261029E+02  0.41800000000E+01 0. -1.
         -5    1    1    2    0  502 -0.26665570941E+02  0.22350329502E+02  0.13010896019E+03  0.13474570058E+03  0.41800000000E+01 0. -1.
        -11    1    3    3    0    0 -0.10203883101E+02  0.23115903516E+02  0.67265901556E+02  0.71855171963E+02  0.00000000000E+00 0.  1.
         11    1    3    3    0    0 -0.73620955465E+01 -0.34226771596E+02 -0.11395305784E+02  0.36817459698E+02  0.00000000000E+00 0. -1.
</event>
<event>
 7    1  0.4096326E-006  0.1053569E+03  0.7561462E-02  0.1269418E+00
          2   -1    0    0  501    0  0.00000000000E+00  0.00000000000E+00  0.28245211171E+03  0.28245211171E+03  0.00000000000E+00 0. -1.
         -2   -1    0    0    0  501 -0.00000000000E+00 -0.00000000000E+00 -0.90666329650E+02  0.90666329650E+02  0.00000000000E+00 0.  1.
         23    2    1    2    0    0 -0.28117470915E+02  0.96386066382E+02  0.16032232784E+03  0.20964897293E+03  0.90380180812E+02 0.  0.
          5    1    1    2  502    0  0.95187753808E+01  0.15400886443E+01  0.59036724403E+02  0.59964874602E+02  0.41800000000E+01 0. -1.
         -5    1    1    2    0  502  0.18598695534E+02 -0.97926155026E+02 -0.27573270187E+02  0.10350459382E+03  0.41800000000E+01 0. -1.
        -11    1    3    3    0    0 -0.13262577538E+02  0.40695345728E+02  0.14329163781E+03  0.14954765325E+03  0.00000000000E+00 0. -1.
         11    1    3    3    0    0 -0.14854893377E+02  0.55690720653E+02  0.17030690029E+02  0.60101319678E+02  0.00000000000E+00 0.  1.
</event>
<event>
 7    1  0.4096326E-006  0.8883092E+02  0.7561462E-02  0.1305708E+00
          2   -1    0    0  501    0  0.00000000000E+00  0.00000000000E+00  0.26295202367E+03  0.26295202367E+03  0.00000000000E+00 0. -1.
         -2   -1    0    0    0  501 -0.00000000000E+00 -0.00000000000E+00 -0.61862272126E+02  0.61862272126E+02  0.00000000000E+00 0.  1.
         23    2    1    2    0    0  0.25528803083E+02  0.63622104405E+02  0.94728496762E+02  0.14688264417E+03  0.88890556896E+02 0.  0.
          5    1    1    2  502    0  0.11258801080E+02 -0.39002143026E+02  0.12366185028E+03  0.13022155496E+03  0.41800000000E+01 0.  1.
         -5    1    1    2    0  502 -0.36787604163E+02 -0.24619961379E+02 -0.17300595500E+02  0.47710096657E+02  0.41800000000E+01 0.  1.
        -11    1    3    3    0    0  0.72763024003E+00  0.67311664298E+02  0.23386046599E+02  0.71262169290E+02  0.00000000000E+00 0.  1.
         11    1    3    3    0    0  0.24801172843E+02 -0.36895598936E+01  0.71342450163E+02  0.75620474885E+02  0.00000000000E+00 0. -1.
</event>
<event>
 7    1  0.4096326E-006  0.3591188E+03  0.7561462E-02  0.1058933E+00
          1   -1    0    0  501    0  0.00000000000E+00  0.00000000000E+00  0.38508845953E+03  0.38508845953E+03  0.00000000000E+00 0. -1.
         -1   -1    0    0    0  501 -0.00000000000E+00 -0.00000000000E+00 -0.42180483859E+03  0.42180483859E+03  0.00000000000E+00 0.  1.
         23    2    1    2    0    0  0.22721708031E+03  0.25781620878E+03  0.16015314635E+03  0.39155984947E+03  0.97843172169E+02 0.  0.
          5    1    1    2  502    0 -0.18394312124E+03 -0.26400177972E+03 -0.17402402984E+03  0.36583308613E+03  0.41800000000E+01 0.  1.
         -5    1    1    2    0  502 -0.43273959069E+02  0.61855709421E+01 -0.22845495566E+02  0.49500362514E+02  0.41800000000E+01 0.  1.
        -11    1    3    3    0    0  0.96048516670E+02  0.16814159745E+03  0.56007511186E+02  0.20157816265E+03  0.00000000000E+00 0. -1.
         11    1    3    3    0    0  0.13116856364E+03  0.89674611325E+02  0.10414563517E+03  0.18998168682E+03  0.00000000000E+00 0.  1.
</event>
<event>
 7    1  0.4096326E-006  0.9834619E+02  0.7561462E-02  0.1283813E+00
          1   -1    0    0  501    0  0.00000000000E+00  0.00000000000E+00  0.17327355064E+03  0.17327355064E+03  0.00000000000E+00 0. -1.
         -1   -1    0    0    0  501 -0.00000000000E+00 -0.00000000000E+00 -0.10629689941E+03  0.10629689941E+03  0.00000000000E+00 0.  1.
         23    2    1    2    0    0 -0.20375774279E+02  0.77674353407E+02  0.57334111061E+02  0.13061098441E+03  0.85577751801E+02 0.  0.
          5    1    1    2  502    0  0.39675846927E+02 -0.75185419794E+02 -0.41052133193E+02  0.94497461441E+02  0.41800000000E+01 0.  1.
         -5    1    1    2    0  502 -0.19300072648E+02 -0.24889336127E+01  0.50694673355E+02  0.54462004198E+02  0.41800000000E+01 0.  1.
        -11    1    3    3    0    0 -0.23752644956E+02  0.13322730046E+02  0.60235051381E+02  0.66105557203E+02  0.00000000000E+00 0. -1.
         11    1    3    3    0    0  0.33768706770E+01  0.64351623361E+02 -0.29009403195E+01  0.64505427209E+02  0.00000000000E+00 0.  1.
</event>
<event>
 7    1  0.4096326E-006  0.1125266E+03  0.7561462E-02  0.1255961E+00
          1   -1    0    0  501    0  0.00000000000E+00  0.00000000000E+00  0.26882559305E+02  0.26882559305E+02  0.00000000000E+00 0. -1.
         -1   -1    0    0    0  501 -0.00000000000E+00 -0.00000000000E+00 -0.70469101818E+03  0.70469101818E+03  0.00000000000E+00 0.  1.
         23    2    1    2    0    0  0.67431349102E+02  0.49211744890E+02 -0.32789005494E+03  0.35070787066E+03  0.92278598504E+02 0.  0.
          5    1    1    2  502    0 -0.22681747964E+02  0.33599232300E+02 -0.19761602790E+03  0.20177447060E+03  0.41800000000E+01 0. -1.
         -5    1    1    2    0  502 -0.44749601139E+02 -0.82810977190E+02 -0.15230237604E+03  0.17909123622E+03  0.41800000000E+01 0. -1.
        -11    1    3    3    0    0  0.25616052820E+02  0.15243540873E+00 -0.11964376137E+02  0.28272808403E+02  0.00000000000E+00 0. -1.
         11    1    3    3    0    0  0.41815296282E+02  0.49059309481E+02 -0.31592567880E+03  0.32243506226E+03  0.00000000000E+00 0.  1.
</event>
<event>
 7    1  0.4096326E-006  0.1682426E+03  0.7561462E-02  0.1179693E+00
          2   -1    0    0  501    0  0.00000000000E+00  0.00000000000E+00  0.31985039673E+03  0.31985039673E+03  0.00000000000E+00 0. -1.
         -2   -1    0    0    0  501 -0.00000000000E+00 -0.00000000000E+00 -0.10182561903E+03  0.10182561903E+03  0.00000000000E+00 0.  1.
         23    2    1    2    0    0 -0.11015215143E+03  0.85564341408E+02  0.15261332883E+03  0.22323002289E+03  0.84178750276E+02 0.  0.
          5    1    1    2  502    0 -0.66525037650E+01  0.17235343722E+02 -0.14142849308E+02  0.23639066523E+02  0.41800000000E+01 0.  1.
         -5    1    1    2    0  502  0.11680465519E+03 -0.10279968513E+03  0.79554298176E+02  0.17480692634E+03  0.41800000000E+01 0.  1.
        -11    1    3    3    0    0 -0.10843790252E+03  0.38917585609E+02  0.96861994449E+02  0.15051778347E+03  0.00000000000E+00 0. -1.
         11    1    3    3    0    0 -0.17142489079E+01  0.46646755799E+02  0.55751334380E+02  0.72712239417E+02  0.00000000000E+00 0.  1.
</event>
<event>
 7    1  0.4096326E-006  0.1338087E+03  0.7561462E-02  0.1221911E+00
          3   -1    0    0  501    0  0.00000000000E+00  0.00000000000E+00  0.22001397049E+03  0.22001397049E+03  0.00000000000E+00 0. -1.
         -3   -1    0    0    0  501 -0.00000000000E+00 -0.00000000000E+00 -0.10338425167E+03  0.10338425167E+03  0.00000000000E+00 0.  1.
         23    2    1    2    0    0  0.92343775882E+02  0.46953851717E+02  0.39392384587E+02  0.14354974973E+03  0.91229017032E+02 0.  0.
          5    1    1    2  502    0 -0.16282409440E+01  0.18584463849E+02  0.64335989598E+02  0.67116506336E+02  0.41800000000E+01 0. -1.
         -5    1    1    2    0  502 -0.90715534938E+02 -0.65538315567E+02  0.12901344632E+02  0.11273196610E+03  0.41800000000E+01 0. -1.
        -11    1    3    3    0    0 -0.12396835569E+02  0.27239867672E+02  0.14233231078E-01  0.29928115969E+02  0.00000000000E+00 0.  1.
         11    1    3    3    0    0  0.10474061145E+03  0.19713984046E+02  0.39378151356E+02  0.11362163376E+03  0.00000000000E+00 0. -1.
</event>
<event>
 7    1  0.6406625E-006  0.2267389E+03  0.7561462E-02  0.1128956E+00
         -2   -1    0    0    0  501 -0.00000000000E+00  0.00000000000E+00  0.36695755116E+03  0.36695755116E+03  0.00000000000E+00 0. -1.
          2   -1    0    0  501    0  0.00000000000E+00 -0.00000000000E+00 -0.15937900957E+03  0.15937900957E+03  0.00000000000E+00 0.  1.
         23    2    1    2    0    0  0.15806741292E+03  0.13028009672E+03  0.26743883471E+02  0.22582537148E+03  0.91234053241E+02 0.  0.
          5    1    1    2  502    0 -0.13867171855E+03 -0.50462675635E+02  0.15558240299E+03  0.21447536846E+03  0.41800000000E+01 0.  1.
         -5    1    1    2    0  502 -0.19395694370E+02 -0.79817421089E+02  0.25252255130E+02  0.86035820788E+02  0.41800000000E+01 0.  1.
        -11    1    3    3    0    0  0.12847897497E+03  0.49688654710E+02  0.82161864293E+01  0.13799751858E+03  0.00000000000E+00 0.  1.
         11    1    3    3    0    0  0.29588437950E+02  0.80591442015E+02  0.18527697041E+02  0.87827852895E+02  0.00000000000E+00 0. -1.
</event>
<event>
 7    1  0.4096326E-006  0.9042237E+02  0.7561462E-02  0.1301832E+00
          2   -1    0    0  501    0  0.00000000000E+00  0.00000000000E+00  0.73038841387E+02  0.73038841387E+02  0.00000000000E+00 0. -1.
         -2   -1    0    0    0  501 -0.00000000000E+00 -0.00000000000E+00 -0.25485177769E+03  0.25485177769E+03  0.00000000000E+00 0.  1.
         23    2    1    2    0    0  0.39676415438E+02  0.21348240649E+02  0.15374082113E+01  0.10140591971E+03  0.90834088357E+02 0.  0.
          5    1    1    2  502    0 -0.47857206232E+01  0.23090598523E+02 -0.16529870124E+03  0.16702458469E+03  0.41800000000E+01 0. -1.
         -5    1    1    2    0  502 -0.34890694815E+02 -0.44438839171E+02 -0.18051643277E+02  0.59460114670E+02  0.41800000000E+01 0. -1.
        -11    1    3    3    0    0  0.57820268671E+02 -0.14897595901E+02 -0.65719567716E+01  0.60069230465E+02  0.00000000000E+00 0. -1.
         11    1    3    3    0    0 -0.18143853233E+02  0.36245836550E+02  0.81093649829E+01  0.41336689246E+02  0.00000000000E+00 0.  1.
</event>
<event>
 7    1  0.4096326E-006  0.1156809E+03  0.7561462E-02  0.1250397E+00
         -2   -1    0    0    0  501 -0.00000000000E+00  0.00000000000E+00  0.46251840103E+02  0.46251840103E+02  0.00000000000E+00 0.  1.
          2   -1    0    0  501    0  0.00000000000E+00 -0.00000000000E+00 -0.40571130571E+03  0.40571130571E+03  0.00000000000E+00 0. -1.
         23    2    1    2    0    0  0.37883844003E+02 -0.15844290528E+02 -0.28206695988E+03  0.29924227592E+03  0.91093043982E+02 0.  0.
          5    1    1    2  502    0  0.46238431469E+02  0.68087824853E+01 -0.29045367942E+02  0.55185667184E+02  0.41800000000E+01 0. -1.
         -5    1    1    2    0  502 -0.84122275472E+02  0.90355080422E+01 -0.48347137786E+02  0.97535202713E+02  0.41800000000E+01 0. -1.
        -11    1    3    3    0    0  0.25020685687E+02 -0.53972148574E+02 -0.15905818149E+03  0.16981911739E+03  0.00000000000E+00 0. -1.
         11    1    3    3    0    0  0.12863158316E+02  0.38127858046E+02 -0.12300877840E+03  0.12942315853E+03  0.00000000000E+00 0.  1.
</event>
<event>
 7    1  0.4096326E-006  0.9867504E+02  0.7561462E-02  0.1283107E+00
         -1   -1    0    0    0  501 -0.00000000000E+00  0.00000000000E+00  0.99420161660E+02  0.99420161660E+02  0.00000000000E+00 0.  1.
          1   -1    0    0  501    0  0.00000000000E+00 -0.00000000000E+00 -0.15542747495E+03  0.15542747495E+03  0.00000000000E+00 0. -1.
         23    2    1    2    0    0  0.40224032549E+02 -0.44059574785E+02 -0.71134532102E+01  0.10788959104E+03  0.89612185069E+02 0.  0.
          5    1    1    2  502    0 -0.46523096074E+02  0.35909116990E+00 -0.80102997583E+02  0.92728043421E+02  0.41800000000E+01 0.  1.
         -5    1    1    2    0  502  0.62990635252E+01  0.43700483615E+02  0.31209137505E+02  0.54230002151E+02  0.41800000000E+01 0.  1.
        -11    1    3    3    0    0 -0.20033786997E+02 -0.41376213893E+02  0.54016345230E+01  0.46287377903E+02  0.00000000000E+00 0.  1.
         11    1    3    3    0    0  0.60257819546E+02 -0.26833608915E+01 -0.12515087733E+02  0.61602213135E+02  0.00000000000E+00 0. -1.
</event>
<event>
 6    1  0.4096326E-006  0.1450013E+03  0.7561462E-02  0.1206753E+00
         -2   -1    0    0    0  501 -0.00000000000E+00  0.00000000000E+00  0.41844164275E+03  0.41844164275E+03  0.00000000000E+00 0.  1.
          2   -1    0    0  501    0  0.00000000000E+00 -0.00000000000E+00 -0.11880702823E+03  0.11880702823E+03  0.00000000000E+00 0. -1.
          5    1    1    2  502    0 -0.77579375147E+02 -0.35602049533E+01 -0.12471937279E+02  0.78767100537E+02  0.41800000000E+01 0. -1.
         -5    1    1    2    0  502  0.97912889404E+01 -0.88211241223E+02  0.32249647200E+03  0.33451239031E+03  0.41800000000E+01 0.  1.
        -11    1    1    2    0    0  0.67327832247E+02  0.55915684053E+02 -0.10185814371E+02  0.88109883286E+02  0.00000000000E+00 0. -1.
         11    1    1    2    0    0  0.46025395978E+00  0.35855762123E+02 -0.20410582233E+00  0.35859296847E+02  0.00000000000E+00 0.  1.
</event>
<event>
 7    1  0.4096326E-006  0.1629855E+03  0.7561462E-02  0.1185367E+00
          2   -1    0    0  501    0  0.00000000000E+00  0.00000000000E+00  0.23448402669E+03  0.23448402669E+03  0.00000000000E+00 0. -1.
         -2   -1    0    0    0  501 -0.00000000000E+00 -0.00000000000E+00 -0.13917942186E+03  0.13917942186E+03  0.00000000000E+00 0.  1.
         23    2    1    2    0    0 -0.19745441389E+02  0.13695232903E+03  0.86066631560E+02  0.18690427303E+03  0.91541899297E+02 0.  0.
          5    1    1    2  502    0  0.50986652471E+02 -0.78878174993E+02  0.52595953153E+02  0.10772748910E+03  0.41800000000E+01 0. -1.
         -5    1    1    2    0  502 -0.31241211083E+02 -0.58074154040E+02 -0.43357979883E+02  0.79031686410E+02  0.41800000000E+01 0. -1.
        -11    1    3    3    0    0 -0.42494634540E+02  0.20418287888E+02  0.26058957042E+02  0.53868076697E+02  0.00000000000E+00 0. -1.
         11    1    3    3    0    0  0.22749193151E+02  0.11653404114E+03  0.60007674518E+02  0.13303619634E+03  0.00000000000E+00 0.  1.
</event>
<event>
 7    1  0.4096326E-006  0.8727084E+02  0.7561462E-02  0.1309599E+00
         -1   -1    0    0    0  501 -0.00000000000E+00  0.00000000000E+00  0.79725482800E+02  0.79725482800E+02  0.00000000000E+00 0.  1.
          1   -1    0    0  501    0  0.00000000000E+00 -0.00000000000E+00 -0.18020763857E+03  0.18020763857E+03  0.00000000000E+00 0. -1.
         23    2    1    2    0    0  0.38374917249E+02  0.27790709684E+02 -0.72007157606E+02  0.12317613369E+03  0.87990745789E+02 0.  0.
          5    1    1    2  502    0 -0.30532864931E+02 -0.72825616450E+02  0.60653467437E+01  0.79310069243E+02  0.41800000000E+01 0. -1.
         -5    1    1    2    0  502 -0.78420523185E+01  0.45034906766E+02 -0.34540344907E+02  0.57446918440E+02  0.41800000000E+01 0. -1.
        -11    1    3    3    0    0  0.18061940657E+02  0.21947142430E+02  0.16033273019E+02  0.32633979299E+02  0.00000000000E+00 0.  1.
         11    1    3    3    0    0  0.20312976593E+02  0.58435672535E+01 -0.88040430625E+02  0.90542154387E+02  0.00000000000E+00 0. -1.
</event>
<event>
 7    1  0.4096326E-006  0.1044066E+03  0.7561462E-02  0.1271293E+00
          2   -1    0    0  501    0  0.00000000000E+00  0.00000000000E+00  0.48376853350E+03  0.48376853350E+03  0.00000000000E+00 0. -1.
         -2   -1    0    0    0  501 -0.00000000000E+00 -0.00000000000E+00 -0.27879483310E+02  0.27879483310E+02  0.00000000000E+00 0.  1.
         23    2    1    2    0    0 -0.31413436196E+02 -0.15350201767E+02  0.24999832911E+03  0.26821192463E+03  0.90642370259E+02 0.  0.
          5    1    1    2  502    0  0.30142758937E+02 -0.46346136130E+02  0.46144793822E+02  0.72134351369E+02  0.41800000000E+01 0. -1.
         -5    1    1    2    0  502  0.12706772584E+01  0.61696337897E+02  0.15974592726E+03  0.17130174081E+03  0.41800000000E+01 0. -1.
        -11    1    3    3    0    0 -0.58540297318E+02  0.32448924607E+01  0.11280574603E+03  0.12713234079E+03  0.00000000000E+00 0. -1.
         11    1    3    3    0    0  0.27126861122E+02 -0.18595094228E+02  0.13719258307E+03  0.14107958383E+03  0.00000000000E+00 0.  1.
</event>
<event>
 7    1  0.4096326E-006  0.1116275E+03  0.7561462E-02  0.1257585E+00
         -1   -1    0    0    0  501 -0.00000000000E+00  0.00000000000E+00  0.40025375978E+02  0.40025375978E+02  0.00000000000E+00 0. -1.
          1   -1    0    0  501    0  0.00000000000E+00 -0.00000000000E+00 -0.55027612101E+03  0.55027612101E+03  0.00000000000E+00 0.  1.
         23    2    1    2    0    0  0.40512408636E+02  0.81734399045E+02 -0.32062895961E+03  0.34550436935E+03  0.90821650809E+02 0.  0.
          5    1    1    2  502    0 -0.24295165729E+02 -0.84612038850E+02 -0.44580997474E+02  0.98764315073E+02  0.41800000000E+01 0. -1.
         -5    1    1    2    0  502 -0.16217242907E+02  0.28776398054E+01 -0.14504078795E+03  0.14603281257E+03  0.41800000000E+01 0. -1.
        -11    1    3    3    0    0 -0.44791701186E+01  0.71949517350E+02 -0.25729116494E+03  0.26719943781E+03  0.00000000000E+00 0. -1.
         11    1    3    3    0    0  0.44991578755E+02  0.97848816950E+01 -0.63337794673E+02  0.78304931535E+02  0.00000000000E+00 0.  1.
</event>
<event>
 7    1  0.4096326E-006  0.1030825E+03  0.7561462E-02  0.1273944E+00
          2   -1    0    0  501    0  0.00000000000E+00  0.00000000000E+00  0.95581554974E+02  0.95581554974E+02  0.00000000000E+00 0.  1.
         -2   -1    0    0    0  501 -0.00000000000E+00 -0.00000000000E+00 -0.15692227999E+03  0.15692227999E+03  0.00000000000E+00 0. -1.
         23    2    1    2    0    0  0.33294413307E+02  0.40119589738E+02 -0.23536328593E+01  0.10471113742E+03  0.90778760042E+02 0.  0.
          5    1    1    2  502    0 -0.77783880232E+02 -0.63914511539E+01 -0.23939869544E+02  0.81742109255E+02  0.41800000000E+01 0. -1.
         -5    1    1    2    0  502  0.44489466925E+02 -0.33728138584E+02 -0.35047222608E+02  0.66050588280E+02  0.41800000000E+01 0. -1.
        -11    1    3    3    0    0  0.22431105800E+02 -0.71318314837E+01 -0.37884920964E+02  0.44601398680E+02  0.00000000000E+00 0. -1.
         11    1    3    3    0    0  0.10863307506E+02  0.47251421222E+02  0.35531288105E+02  0.60109738744E+02  0.00000000000E+00 0.  1.
</event>
<event>
 7    1  0.4096326E-006  0.8245470E+02  0.7561462E-02  0.1322226E+00
         -4   -1    0    0    0  501 -0.00000000000E+00  0.00000000000E+00  0.27982563727E+03  0.27982563727E+03  0.00000000000E+00 0.  1.
          4   -1    0    0  501    0  0.00000000000E+00 -0.00000000000E+00 -0.52762790765E+02  0.52762790765E+02  0.00000000000E+00 0. -1.
         23    2    1    2    0    0 -0.26479015041E+02 -0.46843460888E+02  0.86528284331E+02  0.13690565048E+03  0.91436125671E+02 0.  0.
          5    1    1    2  502    0  0.16145379597E+02  0.47870495477E+02  0.16293627573E+03  0.17063985457E+03  0.41800000000E+01 0.  1.
         -5    1    1    2    0  502  0.10333635444E+02 -0.10270345882E+01 -0.22401713554E+02  0.25042922987E+02  0.41800000000E+01 0.  1.
        -11    1    3    3    0    0  0.14134493723E-01 -0.68686188872E+02  0.72337767866E+02  0.99752420529E+02  0.00000000000E+00 0. -1.
         11    1    3    3    0    0 -0.26493149535E+02  0.21842727984E+02  0.14190516465E+02  0.37153229948E+02  0.00000000000E+00 0.  1.
</event>
<event>
 7    1  0.4096326E-006  0.1228998E+03  0.7561462E-02  0.1238389E+00
         -1   -1    0    0    0  501 -0.00000000000E+00  0.00000000000E+00  0.14036025436E+03  0.14036025436E+03  0.00000000000E+00 0.  1.
          1   -1    0    0  501    0  0.00000000000E+00 -0.00000000000E+00 -0.16512163826E+03  0.16512163826E+03  0.00000000000E+00 0. -1.
         23    2    1    2    0    0  0.34293729941E+02 -0.67028188629E+02 -0.85117841412E+02  0.14749938261E+03  0.94032882338E+02 0.  0.
          5    1    1    2  502    0 -0.69987989112E+02  0.36285928630E+02  0.74573524468E+02  0.10859866568E+03  0.41800000000E+01 0. -1.
         -5    1    1    2    0  502  0.35694259171E+02  0.30742259999E+02 -0.14217066957E+02  0.49383844327E+02  0.41800000000E+01 0. -1.
        -11    1    3    3    0    0  0.66588041525E+02 -0.42320557322E+02 -0.47428452076E+02  0.92056802642E+02  0.00000000000E+00 0.  1.
         11    1    3    3    0    0 -0.32294311584E+02 -0.24707631307E+02 -0.37689389336E+02  0.55442579973E+02  0.00000000000E+00 0. -1.
</event>
<event>
 7    1  0.4096326E-006  0.7481513E+02  0.7561462E-02  0.1344444E+00
         -2   -1    0    0    0  501 -0.00000000000E+00  0.00000000000E+00  0.33834276504E+03  0.33834276504E+03  0.00000000000E+00 0. -1.
          2   -1    0    0  501    0  0.00000000000E+00 -0.00000000000E+00 -0.47272926209E+02  0.47272926209E+02  0.00000000000E+00 0.  1.
         23    2    1    2    0    0 -0.32386196511E+02 -0.57935423645E+02  0.12582342055E+03  0.16799287431E+03  0.89357112891E+02 0.  0.
          5    1    1    2  502    0  0.30492698990E+02  0.66442173337E+02  0.18316733684E+03  0.19726153395E+03  0.41800000000E+01 0. -1.
         -5    1    1    2    0  502  0.18934975212E+01 -0.85067496920E+01 -0.17920918556E+02  0.20361282992E+02  0.41800000000E+01 0. -1.
        -11    1    3    3    0    0 -0.84818699155E+01 -0.95557120972E+01 -0.13497716085E+02  0.18586072486E+02  0.00000000000E+00 0.  1.
         11    1    3    3    0    0 -0.23904326595E+02 -0.48379711547E+02  0.13932113663E+03  0.14940680183E+03  0.00000000000E+00 0. -1.
</event>
<event>
 7    1  0.4096326E-006  0.8972927E+02  0.7561462E-02  0.1303509E+00
         -2   -1    0    0    0  501 -0.00000000000E+00  0.00000000000E+00  0.39014360252E+02  0.39014360252E+02  0.00000000000E+00 0.  1.
          2   -1    0    0  501    0  0.00000000000E+00 -0.00000000000E+00 -0.34865900557E+03  0.34865900557E+03  0.00000000000E+00 0. -1.
         23    2    1    2    0    0  0.30638776688E+02 -0.73241069120E+01 -0.18168575205E+03  0.20597802013E+03  0.91787009432E+02 0.  0.
          5    1    1    2  502    0 -0.32766588074E+02 -0.54520357937E+02 -0.44622735953E+02  0.77812464860E+02  0.41800000000E+01 0. -1.
         -5    1    1    2    0  502  0.21278113861E+01  0.61844464849E+02 -0.83336157320E+02  0.10388288084E+03  0.41800000000E+01 0. -1.
        -11    1    3    3    0    0  0.41711257193E+01  0.17144772805E+02  0.29211463242E+01  0.17885039004E+02  0.00000000000E+00 0.  1.
         11    1    3    3    0    0  0.26467650969E+02 -0.24468879717E+02 -0.18460689837E+03  0.18809298113E+03  0.00000000000E+00 0. -1.
</event>
<event>
 7    1  0.4096326E-006  0.7525571E+02  0.7561462E-02  0.1343081E+00
          1   -1    0    0  501    0  0.00000000000E+00  0.00000000000E+00  0.13807433555E+03  0.13807433555E+03  0.00000000000E+00 0. -1.
         -1   -1    0    0    0  501 -0.00000000000E+00 -0.00000000000E+00 -0.10318366377E+03  0.10318366377E+03  0.00000000000E+00 0.  1.
         23    2    1    2    0    0  0.16054605813E+02 -0.39719239737E+02  0.41198508625E+02  0.10887954708E+03  0.91225381805E+02 0.  0.
          5    1    1    2  502    0  0.64224315519E+01  0.33147438847E+02  0.56089117240E+02  0.65600775924E+02  0.41800000000E+01 0. -1.
         -5    1    1    2    0  502 -0.22477037365E+02  0.65718008907E+01 -0.62396954082E+02  0.66777676318E+02  0.41800000000E+01 0. -1.
        -11    1    3    3    0    0  0.41047953384E+02  0.51210974473E+01 -0.25312442992E+01  0.41443543692E+02  0.00000000000E+00 0.  1.
         11    1    3    3    0    0 -0.24993347571E+02 -0.44840337185E+02  0.43729752925E+02  0.67436003384E+02  0.00000000000E+00 0. -1.
</event>
<event>
 7    1  0.4096326E-006  0.1391408E+03  0.7561462E-02  0.1214490E+00
         -2   -1    0    0    0  501 -0.00000000000E+00  0.00000000000E+00  0.23969115466E+03  0.23969115466E+03  0.00000000000E+00 0.  1.
          2   -1    0    0  501    0  0.00000000000E+00 -0.00000000000E+00 -0.89041515102E+02  0.89041515102E+02  0.00000000000E+00 0. -1.
         23    2    1    2    0    0 -0.59093766748E+02 -0.67015416153E+02  0.34950997946E+02  0.13633449927E+03  0.96862707806E+02 0.  0.
          5    1    1    2  502    0 -0.30848454193E+02  0.46345921321E+02  0.19791192476E+02  0.59234578152E+02  0.41800000000E+01 0.  1.
         -5    1    1    2    0  502  0.89942220941E+02  0.20669494833E+02  0.95907449133E+02  0.13316359234E+03  0.41800000000E+01 0.  1.
        -11    1    3    3    0    0 -0.78085743560E+01  0.24198268483E+02  0.15850576937E+02  0.29962823970E+02  0.00000000000E+00 0.  1.
         11    1    3    3    0    0 -0.51285192392E+02 -0.91213684636E+02  0.19100421010E+02  0.10637167530E+03  0.00000000000E+00 0. -1.
</event>
<event>
 7    1  0.4096326E-006  0.6741883E+02  0.7561462E-02  0.1369097E+00
         -1   -1    0    0    0  501 -0.00000000000E+00  0.00000000000E+00  0.21836497190E+02  0.21836497190E+02  0.00000000000E+00 0.  1.
          1   -1    0    0  501    0  0.00000000000E+00 -0.00000000000E+00 -0.53828321451E+03  0.53828321451E+03  0.00000000000E+00 0. -1.
         23    2    1    2    0    0  0.64060536160E+01  0.64385425017E+01 -0.23859090273E+03  0.25526949053E+03  0.90301725215E+02 0.  0.
          5    1    1    2  502    0 -0.28423483981E+02 -0.11553866597E+02 -0.54076988843E+01  0.31434087902E+02  0.41800000000E+01 0.  1.
         -5    1    1    2    0  502  0.22017430365E+02  0.51153240953E+01 -0.27244811571E+03  0.27341613327E+03  0.41800000000E+01 0.  1.
        -11    1    3    3    0    0 -0.33560366351E+02 -0.13557761100E+02 -0.51708471306E+02  0.63117961632E+02  0.00000000000E+00 0.  1.
         11    1    3    3    0    0  0.39966419967E+02  0.19996303602E+02 -0.18688243142E+03  0.19215152890E+03  0.00000000000E+00 0. -1.
</event>
<event>
 7    1  0.4096326E-006  0.7677150E+02  0.7561462E-02  0.1338471E+00
         -1   -1    0    0    0  501 -0.00000000000E+00  0.00000000000E+00  0.11372629479E+03  0.11372629479E+03  0.00000000000E+00 0.  1.
          1   -1    0    0  501    0  0.00000000000E+00 -0.00000000000E+00 -0.13123970645E+03  0.13123970645E+03  0.00000000000E+00 0. -1.
         23    2    1    2    0    0 -0.21018396959E+02  0.29839756609E+02 -0.49791233144E+02  0.11072139009E+03  0.91912323656E+02 0.  0.
          5    1    1    2  502    0  0.35793668387E+02  0.96580652246E+01  0.68823396625E+02  0.78285357785E+02  0.41800000000E+01 0.  1.
         -5    1    1    2    0  502 -0.14775271428E+02 -0.39497821834E+02 -0.36545575145E+02  0.55959253373E+02  0.41800000000E+01 0.  1.
        -11    1    3    3    0    0 -0.41680187465E+02  0.32728139729E+02  0.38820335377E+01  0.53136045597E+02  0.00000000000E+00 0.  1.
         11    1    3    3    0    0  0.20661790506E+02 -0.28883831201E+01 -0.53673266681E+02  0.57585344491E+02  0.00000000000E+00 0. -1.
</event>
<event>
 7    1  0.4096326E-006  0.7696613E+02  0.7561462E-02  0.1337888E+00
         -2   -1    0    0    0  501 -0.00000000000E+00  0.00000000000E+00  0.46214526981E+02  0.46214526981E+02  0.00000000000E+00 0.  1.
          2   -1    0    0  501    0  0.00000000000E+00 -0.00000000000E+00 -0.34747859520E+03  0.34747859520E+03  0.00000000000E+00 0. -1.
         23    2    1    2    0    0  0.37252223872E+02 -0.38698254890E+02 -0.19959797264E+03  0.22385889835E+03  0.85954479656E+02 0.  0.
          5    1    1    2  502    0  0.18783807700E+02  0.19653003698E+02  0.20311535299E+02  0.34192146061E+02  0.41800000000E+01 0. -1.
         -5    1    1    2    0  502 -0.56036031572E+02  0.19045251192E+02 -0.12197763088E+03  0.13564207777E+03  0.41800000000E+01 0. -1.
        -11    1    3    3    0    0  0.10916789474E+02  0.79649485248E+01  0.33782919335E+01  0.13929449157E+02  0.00000000000E+00 0.  1.
         11    1    3    3    0    0  0.26335434398E+02 -0.46663203414E+02 -0.20297626457E+03  0.20992944919E+03  0.00000000000E+00 0. -1.
</event>
<event>
 7    1  0.4096326E-006  0.1125350E+03  0.7561462E-02  0.1255946E+00
         -2   -1    0    0    0  501 -0.00000000000E+00  0.00000000000E+00  0.52855404230E+02  0.52855404230E+02  0.00000000000E+00 0. -1.
          2   -1    0    0  501    0  0.00000000000E+00 -0.00000000000E+00 -0.32129827426E+03  0.32129827426E+03  0.00000000000E+00 0.  1.
         23    2    1    2    0    0  0.16973297324E+02 -0.27070639703E+02 -0.21295184483E+03  0.23362881289E+03  0.90625722820E+02 0.  0.
          5    1    1    2  502    0 -0.68836253837E+02 -0.29590360708E+01 -0.30140866390E+02  0.75320182976E+02  0.41800000000E+01 0. -1.
         -5    1    1    2    0  502  0.51862956513E+02  0.30029675774E+02 -0.25350158811E+02  0.65204682632E+02  0.41800000000E+01 0. -1.
        -11    1    3    3    0    0  0.77495276702E+01  0.33660348189E+02 -0.82441817620E+02  0.89385275699E+02  0.00000000000E+00 0.  1.
         11    1    3    3    0    0  0.92237696537E+01 -0.60730987892E+02 -0.13051002721E+03  0.14424353719E+03  0.00000000000E+00 0. -1.
</event>
<event>
 7    1  0.4096326E-006  0.1060653E+03  0.7561462E-02  0.1268035E+00
          2   -1    0    0  501    0  0.00000000000E+00  0.00000000000E+00  0.38975387173E+03  0.38975387173E+03  0.00000000000E+00 0. -1.
         -2   -1    0    0    0  501 -0.00000000000E+00 -0.00000000000E+00 -0.46905027177E+02  0.46905027177E+02  0.00000000000E+00 0.  1.
         23    2    1    2    0    0  0.40375855543E+02  0.61511463851E+02  0.20701959831E+03  0.23788046933E+03  0.91192838041E+02 0.  0.
          5    1    1    2  502    0  0.28513058223E+02  0.37087232102E+01  0.87564776455E+02  0.92259479690E+02  0.41800000000E+01 0.  1.
         -5    1    1    2    0  502 -0.68888913766E+02 -0.65220187062E+02  0.48264469788E+02  0.10651894988E+03  0.41800000000E+01 0.  1.
        -11    1    3    3    0    0  0.13198150433E+02  0.59411002461E+02  0.20093706060E+03  0.20995132939E+03  0.00000000000E+00 0. -1.
         11    1    3    3    0    0  0.27177705110E+02  0.21004613907E+01  0.60825377070E+01  0.27929139945E+02  0.00000000000E+00 0.  1.
</event>
<event>
 7    1  0.4096326E-006  0.1670208E+03  0.7561462E-02  0.1180991E+00
         -2   -1    0    0    0  501 -0.00000000000E+00  0.00000000000E+00  0.26064886685E+02  0.26064886685E+02  0.00000000000E+00 0.  1.
          2   -1    0    0  501    0  0.00000000000E+00 -0.00000000000E+00 -0.12233754557E+04  0.12233754557E+04  0.00000000000E+00 0. -1.
         23    2    1    2    0    0  0.32196306962E+02  0.10637333076E+03 -0.52215086965E+03  0.54122830091E+03  0.89076682416E+02 0.  0.
          5    1    1    2  502    0 -0.93847351431E+02 -0.85174587738E+02 -0.57364891800E+03  0.58749688450E+03  0.41800000000E+01 0. -1.
         -5    1    1    2    0  502  0.61651044469E+02 -0.21198743022E+02 -0.10151078131E+03  0.12071515693E+03  0.41800000000E+01 0.  1.
        -11    1    3    3    0    0  0.28358537973E+02  0.12229050062E+03 -0.47530459320E+03  0.49160312198E+03  0.00000000000E+00 0.  1.
         11    1    3    3    0    0  0.38377689890E+01 -0.15917169859E+02 -0.46846276446E+02  0.49625178932E+02  0.00000000000E+00 0. -1.
</event>
<event>
 7    1  0.4096326E-006  0.5840151E+02  0.7561462E-02  0.1404665E+00
          3   -1    0    0  501    0  0.00000000000E+00  0.00000000000E+00  0.78789141101E+02  0.78789141101E+02  0.00000000000E+00 0. -1.
         -3   -1    0    0    0  501 -0.00000000000E+00 -0.00000000000E+00 -0.15686620709E+03  0.15686620709E+03  0.00000000000E+00 0.  1.
         23    2    1    2    0    0  0.13784199004E+02  0.15282292878E+02 -0.29608647657E+02  0.99924259470E+02  0.93191378339E+02 0.  0.
          5    1    1    2  502    0 -0.33456955819E+02 -0.28926267807E+02 -0.82624954571E+02  0.93810726358E+02  0.41800000000E+01 0.  1.
         -5    1    1    2    0  502  0.19672756815E+02  0.13643974929E+02  0.34156536241E+02  0.41920362362E+02  0.41800000000E+01 0.  1.
        -11    1    3    3    0    0 -0.51620363762E+01 -0.13025947494E+02 -0.55434241135E+02  0.57177591921E+02  0.00000000000E+00 0.  1.
         11    1    3    3    0    0  0.18946235380E+02  0.28308240372E+02  0.25825593478E+02  0.42746667549E+02  0.00000000000E+00 0. -1.
</event>
<event>
 7    1  0.4096326E-006  0.2805206E+03  0.7561462E-02  0.1095405E+00
          2   -1    0    0  501    0  0.00000000000E+00  0.00000000000E+00  0.26112764819E+03  0.26112764819E+03  0.00000000000E+00 0. -1.
         -2   -1    0    0    0  501 -0.00000000000E+00 -0.00000000000E+00 -0.33456638225E+03  0.33456638225E+03  0.00000000000E+00 0.  1.
         23    2    1    2    0    0  0.23408188972E+03  0.13297774579E+03  0.17524865764E+02  0.28521282100E+03  0.92530105204E+02 0.  0.
          5    1    1    2  502    0 -0.36350540010E+02  0.15322911402E+02 -0.43305788013E+02  0.58728332585E+02  0.41800000000E+01 0.  1.
         -5    1    1    2    0  502 -0.19773134971E+03 -0.14830065719E+03 -0.47657811811E+02  0.25175287686E+03  0.41800000000E+01 0.  1.
        -11    1    3    3    0    0  0.21539786118E+03  0.10278464982E+03 -0.12098746017E+02  0.23897134241E+03  0.00000000000E+00 0.  1.
         11    1    3    3    0    0  0.18684028545E+02  0.30193095962E+02  0.29623611781E+02  0.46241478582E+02  0.00000000000E+00 0. -1.
</event>
<event>
 7    1  0.4096326E-006  0.1007585E+03  0.7561462E-02  0.1278709E+00
         -1   -1    0    0    0  501 -0.00000000000E+00  0.00000000000E+00  0.54505804402E+02  0.54505804402E+02  0.00000000000E+00 0.  1.
          1   -1    0    0  501    0  0.00000000000E+00 -0.00000000000E+00 -0.44997955994E+03  0.44997955994E+03  0.00000000000E+00 0. -1.
         23    2    1    2    0    0 -0.27877044727E+02 -0.57661344247E+01 -0.37330190570E+03  0.38555540391E+03  0.92131855257E+02 0.  0.
          5    1    1    2  502    0 -0.17013043308E+02 -0.43184647507E+02 -0.23867772833E+02  0.52359339214E+02  0.41800000000E+01 0. -1.
         -5    1    1    2    0  502  0.44890088035E+02  0.48950781932E+02  0.16959229925E+01  0.66570621225E+02  0.41800000000E+01 0.  1.
        -11    1    3    3    0    0  0.28294021767E+02 -0.14043434173E+02 -0.67474687743E+02  0.74502370412E+02  0.00000000000E+00 0.  1.
         11    1    3    3    0    0 -0.56171066493E+02  0.82772997478E+01 -0.30582721796E+03  0.31105303350E+03  0.00000000000E+00 0. -1.
</event>
<event>
 7    1  0.4096326E-006  0.1152833E+03  0.7561462E-02  0.1251087E+00
          1   -1    0    0  501    0  0.00000000000E+00  0.00000000000E+00  0.11829271739E+03  0.11829271739E+03  0.00000000000E+00 0. -1.
         -1   -1    0    0    0  501 -0.00000000000E+00 -0.00000000000E+00 -0.13122970337E+03  0.13122970337E+03  0.00000000000E+00 0.  1.
         23    2    1    2    0    0  0.34256458946E+02 -0.36230618328E+02  0.19915053163E+02  0.11090544308E+03  0.97042492132E+02 0.  0.
          5    1    1    2  502    0 -0.21985367602E+02 -0.39211456961E+02  0.15896044313E+02  0.47864928397E+02  0.41800000000E+01 0. -1.
         -5    1    1    2    0  502 -0.12271091344E+02  0.75442075289E+02 -0.48748083464E+02  0.90752049278E+02  0.41800000000E+01 0. -1.
        -11    1    3    3    0    0  0.50464494017E+02 -0.61062818889E+02  0.17691991611E+02  0.81168587361E+02  0.00000000000E+00 0.  1.
         11    1    3    3    0    0 -0.16208035072E+02  0.24832200561E+02  0.22230615526E+01  0.29736855722E+02  0.00000000000E+00 0. -1.
</event>
<event>
 7    1  0.4096326E-006  0.1133744E+03  0.7561462E-02  0.1254446E+00
         -1   -1    0    0    0  501 -0.00000000000E+00  0.00000000000E+00  0.64876031882E+03  0.64876031882E+03  0.00000000000E+00 0.  1.
          1   -1    0    0  501    0  0.00000000000E+00 -0.00000000000E+00 -0.44198492301E+02  0.44198492301E+02  0.00000000000E+00 0. -1.
         23    2    1    2    0    0 -0.31198591696E+02  0.68843005816E+02  0.68203661423E+02  0.13704688482E+03  0.91746376672E+02 0.  0.
          5    1    1    2  502    0 -0.25481063937E+02 -0.62619593441E+01  0.35306544291E+03  0.35406380235E+03  0.41800000000E+01 0.  1.
         -5    1    1    2    0  502  0.56679655632E+02 -0.62581046472E+02  0.18329272218E+03  0.20184812396E+03  0.41800000000E+01 0.  1.
        -11    1    3    3    0    0 -0.44198884186E+02 -0.13852915759E+01  0.11070379109E+02  0.45585235435E+02  0.00000000000E+00 0. -1.
         11    1    3    3    0    0  0.13000292490E+02  0.70228297392E+02  0.57133282314E+02  0.91461649380E+02  0.00000000000E+00 0.  1.
</event>
<event>
 7    1  0.4096326E-006  0.2307160E+03  0.7561462E-02  0.1126137E+00
          1   -1    0    0  501    0  0.00000000000E+00  0.00000000000E+00  0.51609446317E+03  0.51609446317E+03  0.00000000000E+00 0. -1.
         -1   -1    0    0    0  501 -0.00000000000E+00 -0.00000000000E+00 -0.11908624840E+03  0.11908624840E+03  0.00000000000E+00 0.  1.
         23    2    1    2    0    0  0.52556362772E+02  0.21058629239E+03  0.24682665140E+03  0.34310074312E+03  0.98417306790E+02 0.  0.
          5    1    1    2  502    0 -0.19655745214E+02 -0.15669191441E+02 -0.19058463083E+02  0.31820894007E+02  0.41800000000E+01 0.  1.
         -5    1    1    2    0  502 -0.32900617558E+02 -0.19491710095E+03  0.16924002646E+03  0.26025907445E+03  0.41800000000E+01 0.  1.
        -11    1    3    3    0    0  0.78618487043E+02  0.11608425737E+03  0.14073141894E+03  0.19864982656E+03  0.00000000000E+00 0.  1.
         11    1    3    3    0    0 -0.26062124272E+02  0.94502035016E+02  0.10609523246E+03  0.14445091656E+03  0.00000000000E+00 0. -1.
</event>
<event>
 7    1  0.4096326E-006  0.1071687E+03  0.7561462E-02  0.1265905E+00
          2   -1    0    0  501    0  0.00000000000E+00  0.00000000000E+00  0.12790820390E+03  0.12790820390E+03  0.00000000000E+00 0. -1.
         -2   -1    0    0    0  501 -0.00000000000E+00 -0.00000000000E+00 -0.98873742484E+02  0.98873742484E+02  0.00000000000E+00 0.  1.
         23    2    1    2    0    0 -0.20068393418E+02 -0.15863627529E+02  0.22330226578E+02  0.98920651207E+02  0.92909962455E+02 0.  0.
          5    1    1    2  502    0  0.54772269497E+02 -0.35417640925E+02 -0.67297951589E+00  0.65363109596E+02  0.41800000000E+01 0. -1.
         -5    1    1    2    0  502 -0.34703876080E+02  0.51281268454E+02  0.73772143531E+01  0.62498185581E+02  0.41800000000E+01 0. -1.
        -11    1    3    3    0    0  0.32691851185E+02 -0.65009357631E+01 -0.11835270549E+02  0.35370792028E+02  0.00000000000E+00 0.  1.
         11    1    3    3    0    0 -0.52760244603E+02 -0.93626917660E+01  0.34165497128E+02  0.63549859179E+02  0.00000000000E+00 0. -1.
</event>
<event>
 7    1  0.4096326E-006  0.9729712E+02  0.7561462E-02  0.1286085E+00
         -2   -1    0    0    0  501 -0.00000000000E+00  0.00000000000E+00  0.70944710311E+02  0.70944710311E+02  0.00000000000E+00 0.  1.
          2   -1    0    0  501    0  0.00000000000E+00 -0.00000000000E+00 -0.24289148785E+03  0.24289148785E+03  0.00000000000E+00 0. -1.
         23    2    1    2    0    0  0.70473368984E+02  0.46586102254E+01 -0.10528475896E+03  0.15547162880E+03  0.89990824572E+02 0.  0.
          5    1    1    2  502    0 -0.78198942486E+02 -0.22263891840E+02  0.73850384599E+01  0.81748190677E+02  0.41800000000E+01 0. -1.
         -5    1    1    2    0  502  0.77255735027E+01  0.17605281615E+02 -0.74047057042E+02  0.76616378688E+02  0.41800000000E+01 0. -1.
        -11    1    3    3    0    0  0.41407127934E+02 -0.27846760889E+02 -0.99725542460E+02  0.11151312100E+03  0.00000000000E+00 0. -1.
         11    1    3    3    0    0  0.29066241049E+02  0.32505371115E+02 -0.55592165008E+01  0.43958507802E+02  0.00000000000E+00 0.  1.
</event>
<event>
 7    1  0.4096326E-006  0.9473428E+02  0.7561462E-02  0.1291776E+00
         -2   -1    0    0    0  501 -0.00000000000E+00  0.00000000000E+00  0.99515428032E+02  0.99515428032E+02  0.00000000000E+00 0.  1.
          2   -1    0    0  501    0  0.00000000000E+00 -0.00000000000E+00 -0.13343354943E+03  0.13343354943E+03  0.00000000000E+00 0. -1.
         23    2    1    2    0    0  0.16451264192E+02 -0.18354939896E+02 -0.47599950686E+02  0.10471626892E+03  0.89956621546E+02 0.  0.
          5    1    1    2  502    0 -0.84023574476E+00  0.69170826730E+02  0.25086583387E+02  0.73702905863E+02  0.41800000000E+01 0. -1.
         -5    1    1    2    0  502 -0.15611028447E+02 -0.50815886833E+02 -0.11404754101E+02  0.54529802677E+02  0.41800000000E+01 0. -1.
        -11    1    3    3    0    0  0.23756512307E+02  0.17971848154E+02  0.13934545006E+02  0.32886634787E+02  0.00000000000E+00 0.  1.
         11    1    3    3    0    0 -0.73052481152E+01 -0.36326788051E+02 -0.61534495693E+02  0.71829634137E+02  0.00000000000E+00 0. -1.
</event>
<event>
 7    1  0.4096326E-006  0.1069306E+03  0.7561462E-02  0.1266362E+00
          4   -1    0    0  501    0  0.00000000000E+00  0.00000000000E+00  0.45607277842E+03  0.45607277842E+03  0.00000000000E+00 0. -1.
         -4   -1    0    0    0  501 -0.00000000000E+00 -0.00000000000E+00 -0.35149443552E+02  0.35149443552E+02  0.00000000000E+00 0.  1.
         23    2    1    2    0    0 -0.14732877219E+02  0.50306740393E+02  0.26219508629E+03  0.28244107889E+03  0.90988317777E+02 0.  0.
          5    1    1    2  502    0 -0.35109743136E+02 -0.46900886147E+02  0.21273671947E+02  0.62469422140E+02  0.41800000000E+01 0. -1.
         -5    1    1    2    0  502  0.49842620354E+02 -0.34058542467E+01  0.13745457663E+03  0.14631172093E+03  0.41800000000E+01 0. -1.
        -11    1    3    3    0    0 -0.52940447440E+02  0.21489569424E+02  0.14512230217E+03  0.15596465996E+03  0.00000000000E+00 0.  1.
         11    1    3    3    0    0  0.38207570221E+02  0.28817170969E+02  0.11707278412E+03  0.12647641893E+03  0.00000000000E+00 0. -1.
</event>
<event>
 7    1  0.4096326E-006  0.1685614E+03  0.7561462E-02  0.1179356E+00
         -1   -1    0    0    0  501 -0.00000000000E+00  0.00000000000E+00  0.32271625476E+03  0.32271625476E+03  0.00000000000E+00 0.  1.
          1   -1    0    0  501    0  0.00000000000E+00 -0.00000000000E+00 -0.14027908761E+03  0.14027908761E+03  0.00000000000E+00 0. -1.
         23    2    1    2    0    0 -0.13862845040E+03 -0.59246883767E+02 -0.24463702885E+02  0.17806906688E+03  0.91553696411E+02 0.  0.
          5    1    1    2  502    0  0.13896785305E+03  0.13589505180E+02  0.19050406997E+03  0.23623296110E+03  0.41800000000E+01 0. -1.
         -5    1    1    2    0  502 -0.33940265131E+00  0.45657378587E+02  0.16396800061E+02  0.48693314386E+02  0.41800000000E+01 0. -1.
        -11    1    3    3    0    0 -0.10798154827E+03 -0.53064545976E+02 -0.56835817614E+02  0.13306453686E+03  0.00000000000E+00 0. -1.
         11    1    3    3    0    0 -0.30646902126E+02 -0.61823377906E+01  0.32372114728E+02  0.45004530022E+02  0.00000000000E+00 0.  1.
</event>
<event>
 7    1  0.4096326E-006  0.7822522E+02  0.7561462E-02  0.1334165E+00
          1   -1    0    0  501    0  0.00000000000E+00  0.00000000000E+00  0.72096354468E+02  0.72096354468E+02  0.00000000000E+00 0. -1.
         -1   -1    0    0    0  501 -0.00000000000E+00 -0.00000000000E+00 -0.25174361857E+03  0.25174361857E+03  0.00000000000E+00 0.  1.
         23    2    1    2    0    0 -0.11097017923E+02  0.13853924243E+02  0.12750168850E+02  0.93674532059E+02  0.91089385370E+02 0.  0.
          5    1    1    2  502    0  0.36199614738E+02 -0.12579643113E+02 -0.25704119906E+01  0.38635979938E+02  0.41800000000E+01 0. -1.
         -5    1    1    2    0  502 -0.25102596814E+02 -0.12742811303E+01 -0.18982702096E+03  0.19152946104E+03  0.41800000000E+01 0. -1.
        -11    1    3    3    0    0  0.12418100847E+02 -0.35576335055E+02  0.93856448605E+01  0.38832656026E+02  0.00000000000E+00 0. -1.
         11    1    3    3    0    0 -0.23515118771E+02  0.49430259298E+02  0.33645239894E+01  0.54841876032E+02  0.00000000000E+00 0.  1.
</event>
<event>
 7    1  0.4096326E-006  0.8739310E+02  0.7561462E-02  0.1309290E+00
         -2   -1    0    0    0  501 -0.00000000000E+00  0.00000000000E+00  0.42665192616E+03  0.42665192616E+03  0.00000000000E+00 0.  1.
          2   -1    0    0  501    0  0.00000000000E+00 -0.00000000000E+00 -0.31417132598E+02  0.31417132598E+02  0.00000000000E+00 0. -1.
         23    2    1    2    0    0 -0.12011572434E+02 -0.12939156176E+02  0.94874205995E+02  0.13222306655E+03  0.90388742268E+02 0.  0.
          5    1    1    2  502    0  0.41711118039E+02  0.39617256743E+02  0.64225242245E+02  0.86323221333E+02  0.41800000000E+01 0. -1.
         -5    1    1    2    0  502 -0.29699545605E+02 -0.26678100566E+02  0.23613534533E+03  0.23952277088E+03  0.41800000000E+01 0. -1.
        -11    1    3    3    0    0  0.18174785476E+02 -0.35095449575E+02  0.84627638869E+02  0.93401556028E+02  0.00000000000E+00 0.  1.
         11    1    3    3    0    0 -0.30186357910E+02  0.22156293398E+02  0.10246567126E+02  0.38821510518E+02  0.00000000000E+00 0. -1.
</event>
<event>
 7    1  0.4096326E-006  0.1477938E+03  0.7561462E-02  0.1203211E+00
         -1   -1    0    0    0  501 -0.00000000000E+00  0.00000000000E+00  0.19654312719E+03  0.19654312719E+03  0.00000000000E+00 0.  1.
          1   -1    0    0  501    0  0.00000000000E+00 -0.00000000000E+00 -0.12657479190E+03  0.12657479190E+03  0.00000000000E+00 0. -1.
         23    2    1    2    0    0 -0.89080585261E+02 -0.47731393550E+02 -0.22329363384E+02  0.13770457172E+03  0.90831228119E+02 0.  0.
          5    1    1    2  502    0  0.11701926967E+03  0.58100051298E+02  0.75023884349E+02  0.15071556342E+03  0.41800000000E+01 0.  1.
         -5    1    1    2    0  502 -0.27938684405E+02 -0.10368657748E+02  0.17273814327E+02  0.34697783952E+02  0.41800000000E+01 0.  1.
        -11    1    3    3    0    0  0.15138324901E+02 -0.23216684435E+02  0.24082001049E+01  0.27820545370E+02  0.00000000000E+00 0.  1.
         11    1    3    3    0    0 -0.10421891016E+03 -0.24514709116E+02 -0.24737563489E+02  0.10988402635E+03  0.00000000000E+00 0. -1.
</event>
<event>
 7    1  0.4096326E-006  0.1069418E+03  0.7561462E-02  0.1266340E+00
          3   -1    0    0  501    0  0.00000000000E+00  0.00000000000E+00  0.44150691309E+02  0.44150691309E+02  0.00000000000E+00 0. -1.
         -3   -1    0    0    0  501 -0.00000000000E+00 -0.00000000000E+00 -0.28088368047E+03  0.28088368047E+03  0.00000000000E+00 0.  1.
         23    2    1    2    0    0  0.13873503335E+02  0.71078761036E+01 -0.93624550445E+02  0.13432509228E+03  0.95050923048E+02 0.  0.
          5    1    1    2  502    0  0.25328494478E+02  0.48545688255E+02 -0.84539720736E+02  0.10080998593E+03  0.41800000000E+01 0.  1.
         -5    1    1    2    0  502 -0.39201997814E+02 -0.55653564359E+02 -0.58568717975E+02  0.89899293566E+02  0.41800000000E+01 0.  1.
        -11    1    3    3    0    0 -0.25562028118E+02  0.34363221104E+02 -0.66919165452E+02  0.79450758026E+02  0.00000000000E+00 0.  1.
         11    1    3    3    0    0  0.39435531453E+02 -0.27255345000E+02 -0.26705384992E+02  0.54874334252E+02  0.00000000000E+00 0. -1.
</event>
<event>
 7    1  0.4096326E-006  0.1305786E+03  0.7561462E-02  0.1226600E+00
          2   -1    0    0  501    0  0.00000000000E+00  0.00000000000E+00  0.30360665363E+03  0.30360665363E+03  0.00000000000E+00 0. -1.
         -2   -1    0    0    0  501 -0.00000000000E+00 -0.00000000000E+00 -0.61289835705E+02  0.61289835705E+02  0.00000000000E+00 0.  1.
         23    2    1    2    0    0 -0.37150279544E+02  0.72278561107E+02  0.93988259449E+02  0.15453082693E+03  0.91878451731E+02 0.  0.
          5    1    1    2  502    0  0.12163613946E+02 -0.10610062284E+03  0.10839114484E+03  0.15222157650E+03  0.41800000000E+01 0.  1.
         -5    1    1    2    0  502  0.24986665598E+02  0.33822061735E+02  0.39937413638E+02  0.58144085906E+02  0.41800000000E+01 0.  1.
        -11    1    3    3    0    0  0.23213562256E+02  0.99562098311E+01 -0.17594593615E+01  0.25319780490E+02  0.00000000000E+00 0.  1.
         11    1    3    3    0    0 -0.60363841800E+02  0.62322351276E+02  0.95747718811E+02  0.12921104644E+03  0.00000000000E+00 0. -1.
</event>
<event>
 7    1  0.4096326E-006  0.1070545E+03  0.7561462E-02  0.1266124E+00
         -2   -1    0    0    0  501 -0.00000000000E+00  0.00000000000E+00  0.31687201630E+03  0.31687201630E+03  0.00000000000E+00 0.  1.
          2   -1    0    0  501    0  0.00000000000E+00 -0.00000000000E+00 -0.46227877674E+02  0.46227877674E+02  0.00000000000E+00 0. -1.
         23    2    1    2    0    0  0.30479849874E+01  0.44781047702E+02  0.65610139436E+02  0.11876147632E+03  0.88232451036E+02 0.  0.
          5    1    1    2  502    0 -0.22048492480E+02 -0.80178332361E+02  0.17566828191E+03  0.19440040810E+03  0.41800000000E+01 0.  1.
         -5    1    1    2    0  502  0.19000507493E+02  0.35397284659E+02  0.29365717274E+02  0.49938009544E+02  0.41800000000E+01 0.  1.
        -11    1    3    3    0    0  0.61467208602E-02  0.67518263328E+02  0.24767675401E+02  0.71917686736E+02  0.00000000000E+00 0. -1.
         11    1    3    3    0    0  0.30418382665E+01 -0.22737215626E+02  0.40842464035E+02  0.46843789587E+02  0.00000000000E+00 0.  1.
</event>
<event>
 7    1  0.4096326E-006  0.8295580E+02  0.7561462E-02  0.1320867E+00
         -1   -1    0    0    0  501 -0.00000000000E+00  0.00000000000E+00  0.14432403510E+03  0.14432403510E+03  0.00000000000E+00 0.  1.
          1   -1    0    0  501    0  0.00000000000E+00 -0.00000000000E+00 -0.99111416183E+02  0.99111416183E+02  0.00000000000E+00 0. -1.
         23    2    1    2    0    0 -0.35646469860E+02  0.11515707809E+02 -0.15898773382E+02  0.99251137086E+02  0.90524774940E+02 0.  0.
          5    1    1    2  502    0 -0.34749659125E+02  0.27481667005E+02  0.42379079324E+02  0.61451115491E+02  0.41800000000E+01 0.  1.
         -5    1    1    2    0  502  0.70396128986E+02 -0.38997374814E+02  0.18732312973E+02  0.82733198705E+02  0.41800000000E+01 0.  1.
        -11    1    3    3    0    0 -0.87617547532E+01  0.10834019393E+02  0.37203516355E+02  0.39727143765E+02  0.00000000000E+00 0.  1.
         11    1    3    3    0    0 -0.26884715107E+02  0.68168841584E+00 -0.53102289737E+02  0.59523993321E+02  0.00000000000E+00 0. -1.
</event>
<event>
 7    1  0.4096326E-006  0.3275868E+03  0.7561462E-02  0.1072210E+00
          1   -1    0    0  501    0  0.00000000000E+00  0.00000000000E+00  0.11955735550E+04  0.11955735550E+04  0.00000000000E+00 0. -1.
         -1   -1    0    0    0  501 -0.00000000000E+00 -0.00000000000E+00 -0.62713433280E+03  0.62713433280E+03  0.00000000000E+00 0.  1.
         23    2    1    2    0    0  0.68315837312E+02 -0.21205966996E+03  0.11093351761E+04  0.11351544047E+04  0.91184605968E+02 0.  0.
          5    1    1    2  502    0  0.89335116867E+02 -0.60356073145E+02 -0.16671045246E+03  0.19857861423E+03  0.41800000000E+01 0. -1.
         -5    1    1    2    0  502 -0.15765095418E+03  0.27241574311E+03 -0.37418550146E+03  0.48897486883E+03  0.41800000000E+01 0.  1.
        -11    1    3    3    0    0  0.81723625535E+02 -0.17642914322E+03  0.10144733029E+04  0.10329385634E+04  0.00000000000E+00 0. -1.
         11    1    3    3    0    0 -0.13407788222E+02 -0.35630526743E+02  0.94861873216E+02  0.10221584129E+03  0.00000000000E+00 0.  1.
</event>
<event>
 7    1  0.4096326E-006  0.1354297E+03  0.7561462E-02  0.1219614E+00
          1   -1    0    0  501    0  0.00000000000E+00  0.00000000000E+00  0.12217630408E+04  0.12217630408E+04  0.00000000000E+00 0. -1.
         -1   -1    0    0    0  501 -0.00000000000E+00 -0.00000000000E+00 -0.17016441836E+02  0.17016441836E+02  0.00000000000E+00 0.  1.
         23    2    1    2    0    0 -0.21252237009E+02  0.91650651644E+02  0.53366762464E+03  0.54968649135E+03  0.92209574655E+02 0.  0.
          5    1    1    2  502    0 -0.17832059389E+02 -0.97658483858E+02  0.30307205319E+03  0.31894404468E+03  0.41800000000E+01 0.  1.
         -5    1    1    2    0  502  0.39084296398E+02  0.60078322137E+01  0.36800692113E+03  0.37014894660E+03  0.41800000000E+01 0.  1.
        -11    1    3    3    0    0  0.32510711038E+02  0.62808466928E+02  0.28587212544E+03  0.29449061437E+03  0.00000000000E+00 0. -1.
         11    1    3    3    0    0 -0.53762948048E+02  0.28842184716E+02  0.24779549920E+03  0.25519587698E+03  0.00000000000E+00 0.  1.
</event>
<event>
 7    1  0.4096326E-006  0.1372520E+03  0.7561462E-02  0.1217075E+00
          2   -1    0    0  501    0  0.00000000000E+00  0.00000000000E+00  0.43239866594E+02  0.43239866594E+02  0.00000000000E+00 0. -1.
         -2   -1    0    0    0  501 -0.00000000000E+00 -0.00000000000E+00 -0.59805484818E+03  0.59805484818E+03  0.00000000000E+00 0.  1.
         23    2    1    2    0    0  0.16897688723E+02  0.88745397031E+02 -0.13269243332E+03  0.19185466603E+03  0.10506975606E+03 0.  0.
          5    1    1    2  502    0  0.49757106370E+02 -0.65584516696E+02 -0.19928909894E+03  0.21566343181E+03  0.41800000000E+01 0.  1.
         -5    1    1    2    0  502 -0.66654795094E+02 -0.23160880335E+02 -0.22283344933E+03  0.23377661694E+03  0.41800000000E+01 0.  1.
        -11    1    3    3    0    0 -0.17830363616E+02  0.84546421111E+02 -0.13087609084E+03  0.15682656134E+03  0.00000000000E+00 0.  1.
         11    1    3    3    0    0  0.34728052340E+02  0.41989759196E+01 -0.18163424847E+01  0.35028104689E+02  0.00000000000E+00 0. -1.
</event>
<event>
 7    1  0.4096326E-006  0.3210409E+03  0.7561462E-02  0.1075171E+00
          1   -1    0    0  501    0  0.00000000000E+00  0.00000000000E+00  0.29877872244E+03  0.29877872244E+03  0.00000000000E+00 0. -1.
         -1   -1    0    0    0  501 -0.00000000000E+00 -0.00000000000E+00 -0.37513567847E+03  0.37513567847E+03  0.00000000000E+00 0.  1.
         23    2    1    2    0    0 -0.31285175802E+03  0.50355404262E+00  0.10353006652E+02  0.32600817613E+03  0.91091547874E+02 0.  0.
          5    1    1    2  502    0  0.33512803982E+02 -0.15025615340E+02 -0.55139426024E+02  0.66383023804E+02  0.41800000000E+01 0. -1.
         -5    1    1    2    0  502  0.27933895404E+03  0.14522061298E+02 -0.31570536655E+02  0.28152320098E+03  0.41800000000E+01 0. -1.
        -11    1    3    3    0    0 -0.10931996512E+03  0.42958748348E+02  0.12180625488E+02  0.11808757966E+03  0.00000000000E+00 0.  1.
         11    1    3    3    0    0 -0.20353179290E+03 -0.42455194305E+02 -0.18276188352E+01  0.20792059646E+03  0.00000000000E+00 0. -1.
</event>
<event>
 7    1  0.4096326E-006  0.1204751E+03  0.7561462E-02  0.1242315E+00
         -2   -1    0    0    0  501 -0.00000000000E+00  0.00000000000E+00  0.43439782412E+02  0.43439782412E+02  0.00000000000E+00 0.  1.
          2   -1    0    0  501    0  0.00000000000E+00 -0.00000000000E+00 -0.42457201500E+03  0.42457201500E+03  0.00000000000E+00 0. -1.
         23    2    1    2    0    0  0.98382314445E+01  0.80811036624E+02 -0.15876413722E+03  0.20020145295E+03  0.90814955028E+02 0.  0.
          5    1    1    2  502    0 -0.46529432778E+02 -0.33425218853E+01 -0.26141908183E+02  0.53637974707E+02  0.41800000000E+01 0. -1.
         -5    1    1    2    0  502  0.36691201334E+02 -0.77468514738E+02 -0.19622618718E+03  0.21417236976E+03  0.41800000000E+01 0. -1.
        -11    1    3    3    0    0 -0.20522396360E+02 -0.14849992957E+01 -0.21403648274E+01  0.20687076566E+02  0.00000000000E+00 0.  1.
         11    1    3    3    0    0  0.30360627804E+02  0.82296035919E+02 -0.15662377240E+03  0.17951437638E+03  0.00000000000E+00 0. -1.
</event>
<event>
 7    1  0.4096326E-006  0.1074272E+03  0.7561462E-02  0.1265410E+00
          4   -1    0    0  501    0  0.00000000000E+00  0.00000000000E+00  0.26995364578E+02  0.26995364578E+02  0.00000000000E+00 0.  1.
         -4   -1    0    0    0  501 -0.00000000000E+00 -0.00000000000E+00 -0.58850563706E+03  0.58850563706E+03  0.00000000000E+00 0. -1.
         23    2    1    2    0    0 -0.10388605913E+02  0.57523167188E+02 -0.18826335153E+03  0.21753111454E+03  0.91977488361E+02 0.  0.
          5    1    1    2  502    0 -0.27971293784E+02 -0.61133109949E+02 -0.91767409208E+02  0.11383488130E+03  0.41800000000E+01 0.  1.
         -5    1    1    2    0  502  0.38359899696E+02  0.36099427612E+01 -0.28147951174E+03  0.28413500580E+03  0.41800000000E+01 0.  1.
        -11    1    3    3    0    0 -0.51334053876E+02  0.31782299901E+02 -0.11164660388E+03  0.12692621412E+03  0.00000000000E+00 0.  1.
         11    1    3    3    0    0  0.40945447964E+02  0.25740867287E+02 -0.76616747655E+02  0.90604900413E+02  0.00000000000E+00 0. -1.
</event>
<event>
 7    1  0.4096326E-006  0.8197668E+02  0.7561462E-02  0.1323534E+00
         -2   -1    0    0    0  501 -0.00000000000E+00  0.00000000000E+00  0.78179917971E+03  0.78179917971E+03  0.00000000000E+00 0.  1.
          2   -1    0    0  501    0  0.00000000000E+00 -0.00000000000E+00 -0.18061235386E+02  0.18061235386E+02  0.00000000000E+00 0. -1.
         23    2    1    2    0    0 -0.27746179618E+02 -0.38714626796E+02  0.32177741017E+03  0.33807573743E+03  0.92118563452E+02 0.  0.
          5    1    1    2  502    0 -0.11370101813E+02 -0.11941780297E+01  0.37176576982E+03  0.37196500546E+03  0.41800000000E+01 0. -1.
         -5    1    1    2    0  502  0.39116281431E+02  0.39908804826E+02  0.70194764342E+02  0.89819672214E+02  0.41800000000E+01 0. -1.
        -11    1    3    3    0    0  0.29602610903E+02 -0.78970233502E+01  0.50260743792E+02  0.58862720941E+02  0.00000000000E+00 0. -1.
         11    1    3    3    0    0 -0.57348790521E+02 -0.30817603446E+02  0.27151666638E+03  0.27921301649E+03  0.00000000000E+00 0.  1.
</event>
<event>
 7    1  0.4096326E-006  0.1325220E+03  0.7561462E-02  0.1223761E+00
          2   -1    0    0  501    0  0.00000000000E+00  0.00000000000E+00  0.15606213349E+03  0.15606213349E+03  0.00000000000E+00 0. -1.
         -2   -1    0    0    0  501 -0.00000000000E+00 -0.00000000000E+00 -0.19484389781E+03  0.19484389781E+03  0.00000000000E+00 0.  1.
         23    2    1    2    0    0 -0.44247777194E+02  0.33078787770E+02  0.81435965647E+02  0.13337924559E+03  0.90034075029E+02 0.  0.
          5    1    1    2  502    0 -0.61860784874E+02 -0.30661244536E+02 -0.21280439969E+02  0.72368488632E+02  0.41800000000E+01 0. -1.
         -5    1    1    2    0  502  0.10610856207E+03 -0.24175432344E+01 -0.98937289996E+02  0.14515829708E+03  0.41800000000E+01 0.  1.
        -11    1    3    3    0    0 -0.13115735266E+02  0.51728987809E+02  0.11504328432E+02  0.54591760037E+02  0.00000000000E+00 0. -1.
         11    1    3    3    0    0 -0.31132041928E+02 -0.18650200039E+02  0.69931637216E+02  0.78787485553E+02  0.00000000000E+00 0.  1.
</event>
<event>
 7    1  0.4096326E-006  0.1316649E+03  0.7561462E-02  0.1225006E+00
         -1   -1    0    0    0  501 -0.00000000000E+00  0.00000000000E+00  0.39099780247E+02  0.39099780247E+02  0.00000000000E+00 0.  1.
          1   -1    0    0  501    0  0.00000000000E+00 -0.00000000000E+00 -0.47556287442E+03  0.47556287442E+03  0.00000000000E+00 0. -1.
         23    2    1    2    0    0  0.74707054743E+02 -0.24222863275E+02 -0.23781205052E+03  0.26712011462E+03  0.92901523816E+02 0.  0.
          5    1    1    2  502    0 -0.36199081612E+02  0.73687570644E+02 -0.13533942941E+03  0.15834918734E+03  0.41800000000E+01 0. -1.
         -5    1    1    2    0  502 -0.38507973131E+02 -0.49464707369E+02 -0.63311614237E+02  0.89193352707E+02  0.41800000000E+01 0. -1.
        -11    1    3    3    0    0  0.41693204288E+02  0.32367467152E+02 -0.75841580328E+02  0.92400874024E+02  0.00000000000E+00 0.  1.
         11    1    3    3    0    0  0.33013850456E+02 -0.56590330427E+02 -0.16197047019E+03  0.17471924060E+03  0.00000000000E+00 0. -1.
</event>
<event>
 7    1  0.4096326E-006  0.1103863E+03  0.7561462E-02  0.1259856E+00
         -2   -1    0    0    0  501 -0.00000000000E+00  0.00000000000E+00  0.66815696562E+02  0.66815696562E+02  0.00000000000E+00 0. -1.
          2   -1    0    0  501    0  0.00000000000E+00 -0.00000000000E+00 -0.21746173473E+03  0.21746173473E+03  0.00000000000E+00 0.  1.
         23    2    1    2    0    0  0.52468013439E+02 -0.60262220597E+00 -0.70029716490E+02  0.12648364448E+03  0.91327408483E+02 0.  0.
          5    1    1    2  502    0  0.30349561568E+02 -0.33716541566E+02 -0.32532846005E+02  0.55979992245E+02  0.41800000000E+01 0.  1.
         -5    1    1    2    0  502 -0.82817575008E+02  0.34319163772E+02 -0.48083475670E+02  0.10181379457E+03  0.41800000000E+01 0.  1.
        -11    1    3    3    0    0 -0.83685890142E+01 -0.19949108272E+02 -0.57489278293E+02  0.61424891710E+02  0.00000000000E+00 0.  1.
         11    1    3    3    0    0  0.60836602453E+02  0.19346486066E+02 -0.12540438197E+02  0.65058752765E+02  0.00000000000E+00 0. -1.
</event>
<event>
 7    1  0.4096326E-006  0.1335224E+03  0.7561462E-02  0.1222321E+00
          1   -1    0    0  501    0  0.00000000000E+00  0.00000000000E+00  0.17305007103E+03  0.17305007103E+03  0.00000000000E+00 0. -1.
         -1   -1    0    0    0  501 -0.00000000000E+00 -0.00000000000E+00 -0.20524362608E+03  0.20524362608E+03  0.00000000000E+00 0.  1.
         23    2    1    2    0    0 -0.17192768929E+02  0.57315087299E+02  0.10653162699E+03  0.16860077529E+03  0.11617496866E+03 0.  0.
          5    1    1    2  502    0  0.25805736396E+02  0.45956571498E+02 -0.37946964762E+02  0.65079851178E+02  0.41800000000E+01 0. -1.
         -5    1    1    2    0  502 -0.86129674667E+01 -0.10327165880E+03 -0.10077821728E+03  0.14461307063E+03  0.41800000000E+01 0.  1.
        -11    1    3    3    0    0  0.36446750017E+02  0.74067175424E+01  0.84132439485E+02  0.91986370867E+02  0.00000000000E+00 0.  1.
         11    1    3    3    0    0 -0.53639518946E+02  0.49908369757E+02  0.22399187507E+02  0.76614404426E+02  0.00000000000E+00 0. -1.
</event>
<event>
 7    1  0.4096326E-006  0.9077620E+02  0.7561462E-02  0.1300983E+00
          1   -1    0    0  501    0  0.00000000000E+00  0.00000000000E+00  0.42883327963E+02  0.42883327963E+02  0.00000000000E+00 0. -1.
         -1   -1    0    0    0  501 -0.00000000000E+00 -0.00000000000E+00 -0.31281146330E+03  0.31281146330E+03  0.00000000000E+00 0.  1.
         23    2    1    2    0    0 -0.86440520642E+01 -0.32543918992E+02 -0.79010815138E+02  0.12497446433E+03  0.90785910391E+02 0.  0.
          5    1    1    2  502    0  0.13062149940E+02  0.59071361448E+02 -0.30258036170E+02  0.67772167276E+02  0.41800000000E+01 0. -1.
         -5    1    1    2    0  502 -0.44180978761E+01 -0.26527442456E+02 -0.16065928402E+03  0.16294815966E+03  0.41800000000E+01 0. -1.
        -11    1    3    3    0    0 -0.47334248766E+02 -0.27320487702E+02 -0.30102874556E+02  0.62394897316E+02  0.00000000000E+00 0. -1.
         11    1    3    3    0    0  0.38690196702E+02 -0.52234312895E+01 -0.48907940582E+02  0.62579567011E+02  0.00000000000E+00 0.  1.
</event>
<event>
 7    1  0.4096326E-006  0.9106313E+02  0.7561462E-02  0.1300297E+00
         -1   -1    0    0    0  501 -0.00000000000E+00  0.00000000000E+00  0.27195785802E+03  0.27195785802E+03  0.00000000000E+00 0.  1.
          1   -1    0    0  501    0  0.00000000000E+00 -0.00000000000E+00 -0.50585567706E+02  0.50585567706E+02  0.00000000000E+00 0. -1.
         23    2    1    2    0    0  0.16990550205E+02 -0.28592659916E+02  0.48051724914E+02  0.10622316402E+03  0.88702724361E+02 0.  0.
          5    1    1    2  502    0  0.47710027258E+02  0.12373299019E+02  0.29158937854E+02  0.57420042550E+02  0.41800000000E+01 0. -1.
         -5    1    1    2    0  502 -0.64700577464E+02  0.16219360896E+02  0.14416162754E+03  0.15890021916E+03  0.41800000000E+01 0. -1.
        -11    1    3    3    0    0 -0.10865403087E+01  0.16868855635E+02  0.54329373657E+02  0.56898327763E+02  0.00000000000E+00 0.  1.
         11    1    3    3    0    0  0.18077090514E+02 -0.45461515551E+02 -0.62776487431E+01  0.49324836253E+02  0.00000000000E+00 0. -1.
</event>
<event>
 7    1  0.4096326E-006  0.2629505E+03  0.7561462E-02  0.1105383E+00
          2   -1    0    0  501    0  0.00000000000E+00  0.00000000000E+00  0.15591505452E+04  0.15591505452E+04  0.00000000000E+00 0.  1.
         -2   -1    0    0    0  501 -0.00000000000E+00 -0.00000000000E+00 -0.50651065920E+02  0.50651065920E+02  0.00000000000E+00 0. -1.
         23    2    1    2    0    0  0.12040580024E+03 -0.21586372560E+03  0.95763974129E+03  0.99321084805E+03  0.91099999083E+02 0.  0.
          5    1    1    2  502    0 -0.16961063665E+02  0.12904337736E+03  0.35933378600E+03  0.38220166546E+03  0.41800000000E+01 0.  1.
         -5    1    1    2    0  502 -0.10344473658E+03  0.86820348236E+02  0.19152595203E+03  0.23438909765E+03  0.41800000000E+01 0.  1.
        -11    1    3    3    0    0  0.53343143788E+02 -0.17285007960E+03  0.59341385703E+03  0.62037299000E+03  0.00000000000E+00 0.  1.
         11    1    3    3    0    0  0.67062656453E+02 -0.43013645997E+02  0.36422588426E+03  0.37283785805E+03  0.00000000000E+00 0. -1.
</event>
<event>
 7    1  0.4096326E-006  0.1153725E+03  0.7561462E-02  0.1250932E+00
          2   -1    0    0  501    0  0.00000000000E+00  0.00000000000E+00  0.32132174071E+03  0.32132174071E+03  0.00000000000E+00 0. -1.
         -2   -1    0    0    0  501 -0.00000000000E+00 -0.00000000000E+00 -0.52817893023E+02  0.52817893023E+02  0.00000000000E+00 0.  1.
         23    2    1    2    0    0 -0.21667473516E+02  0.47638946036E+02  0.19084764320E+03  0.21788128115E+03  0.91161840548E+02 0.  0.
          5    1    1    2  502    0 -0.42804935631E+02 -0.49407112607E+02  0.61013936148E+02  0.89518143942E+02  0.41800000000E+01 0.  1.
         -5    1    1    2    0  502  0.64472409147E+02  0.17681665711E+01  0.16642268341E+02  0.66740208644E+02  0.41800000000E+01 0.  1.
        -11    1    3    3    0    0  0.33251890902E+02  0.22901759078E+02  0.10916080265E+03  0.11638839999E+03  0.00000000000E+00 0.  1.
         11    1    3    3    0    0 -0.54919364418E+02  0.24737186958E+02  0.81686840552E+02  0.10149288116E+03  0.00000000000E+00 0. -1.
</event>
<event>
 7    1  0.4096326E-006  0.3396968E+03  0.7561462E-02  0.1066925E+00
          1   -1    0    0  501    0  0.00000000000E+00  0.00000000000E+00  0.93420378084E+03  0.93420378084E+03  0.00000000000E+00 0. -1.
         -1   -1    0    0    0  501 -0.00000000000E+00 -0.00000000000E+00 -0.15931608033E+03  0.15931608033E+03  0.00000000000E+00 0.  1.
         23    2    1    2    0    0  0.58847582970E+02 -0.32262653750E+03  0.62544433084E+03  0.71203055975E+03  0.90862458252E+02 0.  0.
          5    1    1    2  502    0 -0.62532487232E+02  0.32992049867E+03  0.13021470966E+03  0.36018216282E+03  0.41800000000E+01 0. -1.
         -5    1    1    2    0  502  0.36849042621E+01 -0.72939611757E+01  0.19228660011E+02  0.21307138589E+02  0.41800000000E+01 0. -1.
        -11    1    3    3    0    0 -0.19201613163E+01 -0.17146137352E+03  0.25440256437E+03  0.30679529720E+03  0.00000000000E+00 0.  1.
         11    1    3    3    0    0  0.60767744287E+02 -0.15116516398E+03  0.37104176647E+03  0.40523526255E+03  0.00000000000E+00 0. -1.
</event>
<event>
 7    1  0.4096326E-006  0.1318660E+03  0.7561462E-02  0.1224713E+00
         -1   -1    0    0    0  501 -0.00000000000E+00  0.00000000000E+00  0.51611616797E+02  0.51611616797E+02  0.00000000000E+00 0.  1.
          1   -1    0    0  501    0  0.00000000000E+00 -0.00000000000E+00 -0.44235266015E+03  0.44235266015E+03  0.00000000000E+00 0. -1.
         23    2    1    2    0    0  0.84596429699E+02  0.23194397483E+02 -0.26686026255E+03  0.29725374711E+03  0.97215505187E+02 0.  0.
          5    1    1    2  502    0 -0.70478756941E+02  0.35518117422E+02 -0.10854163669E+03  0.13426671643E+03  0.41800000000E+01 0.  1.
         -5    1    1    2    0  502 -0.14117672758E+02 -0.58712514905E+02 -0.15339144106E+02  0.62443813405E+02  0.41800000000E+01 0.  1.
        -11    1    3    3    0    0  0.99211178841E+02  0.30208891823E+01 -0.16643479765E+03  0.19378474049E+03  0.00000000000E+00 0. -1.
         11    1    3    3    0    0 -0.14614749142E+02  0.20173508301E+02 -0.10042546490E+03  0.10346900662E+03  0.00000000000E+00 0.  1.
</event>
<event>
 7    1  0.4096326E-006  0.6915159E+02  0.7561462E-02  0.1363002E+00
         -2   -1    0    0    0  501 -0.00000000000E+00  0.00000000000E+00  0.30345612239E+02  0.30345612239E+02  0.00000000000E+00 0.  1.
          2   -1    0    0  501    0  0.00000000000E+00 -0.00000000000E+00 -0.38483350193E+03  0.38483350193E+03  0.00000000000E+00 0. -1.
         23    2    1    2    0    0 -0.23408643108E+02  0.17915925290E+02 -0.15225641605E+03  0.17556659612E+03  0.82296224051E+02 0.  0.
          5    1    1    2  502    0  0.34473234812E+02  0.95492720586E+01 -0.85198508814E+00  0.36024863550E+02  0.41800000000E+01 0. -1.
         -5    1    1    2    0  502 -0.11064591703E+02 -0.27465197349E+02 -0.20137948855E+03  0.20358765450E+03  0.41800000000E+01 0. -1.
        -11    1    3    3    0    0 -0.46236832150E+02  0.59728299999E+01 -0.43373587623E+02  0.63677212947E+02  0.00000000000E+00 0.  1.
         11    1    3    3    0    0  0.22828189041E+02  0.11943095290E+02 -0.10888282843E+03  0.11188938317E+03  0.00000000000E+00 0. -1.
</event>
<event>
 7    1  0.4096326E-006  0.1395487E+03  0.7561462E-02  0.1213938E+00
         -1   -1    0    0    0  501 -0.00000000000E+00  0.00000000000E+00  0.60921475860E+03  0.60921475860E+03  0.00000000000E+00 0. -1.
          1   -1    0    0  501    0  0.00000000000E+00 -0.00000000000E+00 -0.80518046795E+02  0.80518046795E+02  0.00000000000E+00 0.  1.
         23    2    1    2    0    0  0.96112510569E+01 -0.11321556701E+03  0.11189241181E+02  0.14533230544E+03  0.89922962181E+02 0.  0.
          5    1    1    2  502    0 -0.39703904682E+02 -0.77790889280E+01  0.18098557734E+03  0.18549977325E+03  0.41800000000E+01 0. -1.
         -5    1    1    2    0  502  0.30092653625E+02  0.12099465593E+03  0.33652189329E+03  0.35890072670E+03  0.41800000000E+01 0. -1.
        -11    1    3    3    0    0  0.68473044647E+01 -0.95225091476E+02 -0.30186861773E+02  0.10012966718E+03  0.00000000000E+00 0.  1.
         11    1    3    3    0    0  0.27639465921E+01 -0.17990475531E+02  0.41376102954E+02  0.45202638267E+02  0.00000000000E+00 0. -1.
</event>
<event>
 7    1  0.4096326E-006  0.1100776E+03  0.7561462E-02  0.1260426E+00
         -3   -1    0    0    0  501 -0.00000000000E+00  0.00000000000E+00  0.19031910494E+03  0.19031910494E+03  0.00000000000E+00 0.  1.
          3   -1    0    0  501    0  0.00000000000E+00 -0.00000000000E+00 -0.74528471828E+02  0.74528471828E+02  0.00000000000E+00 0. -1.
         23    2    1    2    0    0  0.36222709515E+02  0.39473919653E+02  0.37114873165E+02  0.10768038022E+03  0.85716249663E+02 0.  0.
          5    1    1    2  502    0  0.26062015822E+02 -0.59193249392E+02  0.16494564593E+02  0.66877593433E+02  0.41800000000E+01 0.  1.
         -5    1    1    2    0  502 -0.62284725337E+02  0.19719329739E+02  0.62181195358E+02  0.90289603121E+02  0.41800000000E+01 0.  1.
        -11    1    3    3    0    0 -0.98382206897E+01  0.42590403928E+02 -0.64728208766E+01  0.44188578877E+02  0.00000000000E+00 0.  1.
         11    1    3    3    0    0  0.46060930205E+02 -0.31164842746E+01  0.43587694042E+02  0.63491801341E+02  0.00000000000E+00 0. -1.
</event>
<event>
 7    1  0.4096326E-006  0.1249378E+03  0.7561462E-02  0.1235167E+00
          4   -1    0    0  501    0  0.00000000000E+00  0.00000000000E+00  0.24168161470E+03  0.24168161470E+03  0.00000000000E+00 0. -1.
         -4   -1    0    0    0  501 -0.00000000000E+00 -0.00000000000E+00 -0.75222446285E+02  0.75222446285E+02  0.00000000000E+00 0.  1.
         23    2    1    2    0    0  0.55980833031E+02  0.52347439917E+02  0.10290196411E+03  0.15702729464E+03  0.90524300117E+02 0.  0.
          5    1    1    2  502    0 -0.44746652126E+02  0.33295173049E+02  0.65811714496E+01  0.56317099024E+02  0.41800000000E+01 0.  1.
         -5    1    1    2    0  502 -0.11234180905E+02 -0.85642612965E+02  0.56976032863E+02  0.10355966733E+03  0.41800000000E+01 0.  1.
        -11    1    3    3    0    0  0.71857148641E+02  0.56088647088E+02  0.55090003707E+02  0.10650959887E+03  0.00000000000E+00 0.  1.
         11    1    3    3    0    0 -0.15876315610E+02 -0.37412071713E+01  0.47811960399E+02  0.50517695768E+02  0.00000000000E+00 0. -1.
</event>
<event>
 7    1  0.4096326E-006  0.1054662E+03  0.7561462E-02  0.1269204E+00
          1   -1    0    0  501    0  0.00000000000E+00  0.00000000000E+00  0.83365684037E+02  0.83365684037E+02  0.00000000000E+00 0. -1.
         -1   -1    0    0    0  501 -0.00000000000E+00 -0.00000000000E+00 -0.24166849811E+03  0.24166849811E+03  0.00000000000E+00 0.  1.
         23    2    1    2    0    0  0.77203907478E+02 -0.39513731534E+02 -0.38982841863E+02  0.13162740623E+03  0.91018315745E+02 0.  0.
          5    1    1    2  502    0 -0.19673183690E+02  0.10623940151E+02 -0.12646998841E+03  0.12849915420E+03  0.41800000000E+01 0.  1.
         -5    1    1    2    0  502 -0.57530723788E+02  0.28889791383E+02  0.71500162003E+01  0.64907621720E+02  0.41800000000E+01 0.  1.
        -11    1    3    3    0    0  0.58031594055E+01  0.26079674013E+02  0.10337503895E+01  0.26737514761E+02  0.00000000000E+00 0. -1.
         11    1    3    3    0    0  0.71400748073E+02 -0.65593405547E+02 -0.40016592252E+02  0.10488989147E+03  0.00000000000E+00 0.  1.
</event>
<event>
 7    1  0.4096326E-006  0.1197048E+03  0.7561462E-02  0.1243585E+00
         -1   -1    0    0    0  501 -0.00000000000E+00  0.00000000000E+00  0.21803967994E+02  0.21803967994E+02  0.00000000000E+00 0.  1.
          1   -1    0    0  501    0  0.00000000000E+00 -0.00000000000E+00 -0.91711288648E+03  0.91711288648E+03  0.00000000000E+00 0. -1.
         23    2    1    2    0    0 -0.61820535594E+02  0.18779289995E+02 -0.61965524877E+03  0.62939044189E+03  0.89360285727E+02 0.  0.
          5    1    1    2  502    0  0.27852411742E+02 -0.65685088856E+02 -0.21026192890E+03  0.22207620062E+03  0.41800000000E+01 0.  1.
         -5    1    1    2    0  502  0.33968123852E+02  0.46905798860E+02 -0.65391740818E+02  0.87450211961E+02  0.41800000000E+01 0.  1.
        -11    1    3    3    0    0 -0.29584212839E+02 -0.35828455526E+02 -0.23610724265E+03  0.24063568710E+03  0.00000000000E+00 0.  1.
         11    1    3    3    0    0 -0.32236322754E+02  0.54607745521E+02 -0.38354800612E+03  0.38875475479E+03  0.00000000000E+00 0. -1.
</event>
<event>
 7    1  0.4096326E-006  0.1101573E+03  0.7561462E-02  0.1260279E+00
         -2   -1    0    0    0  501 -0.00000000000E+00  0.00000000000E+00  0.18159067253E+03  0.18159067253E+03  0.00000000000E+00 0.  1.
          2   -1    0    0  501    0  0.00000000000E+00 -0.00000000000E+00 -0.13215732332E+03  0.13215732332E+03  0.00000000000E+00 0. -1.
         23    2    1    2    0    0 -0.46799488823E+02 -0.64611622778E+02 -0.53610531622E+02  0.13310853480E+03  0.92081154340E+02 0.  0.
          5    1    1    2  502    0  0.24848236256E+02  0.93222083627E+02  0.33540435333E+02  0.10222634163E+03  0.41800000000E+01 0.  1.
         -5    1    1    2    0  502  0.21951252567E+02 -0.28610460849E+02  0.69503445503E+02  0.78413119413E+02  0.41800000000E+01 0.  1.
        -11    1    3    3    0    0  0.28606897434E+01 -0.21476785831E+02  0.23359491497E+02  0.31860660985E+02  0.00000000000E+00 0.  1.
         11    1    3    3    0    0 -0.49660178566E+02 -0.43134836948E+02 -0.76970023119E+02  0.10124787382E+03  0.00000000000E+00 0. -1.
</event>
<event>
 7    1  0.4096326E-006  0.1145175E+03  0.7561462E-02  0.1252426E+00
          2   -1    0    0  501    0  0.00000000000E+00  0.00000000000E+00  0.38177488503E+02  0.38177488503E+02  0.00000000000E+00 0.  1.
         -2   -1    0    0    0  501 -0.00000000000E+00 -0.00000000000E+00 -0.75027711011E+03  0.75027711011E+03  0.00000000000E+00 0. -1.
         23    2    1    2    0    0 -0.86999414803E+02 -0.26044160273E+02 -0.11831929199E+03  0.17488336336E+03  0.91310127928E+02 0.  0.
          5    1    1    2  502    0  0.10312983540E+03 -0.42576515251E+01 -0.29040088722E+03  0.30822725098E+03  0.41800000000E+01 0. -1.
         -5    1    1    2    0  502 -0.16130420594E+02  0.30301811798E+02 -0.30337944240E+03  0.30534398428E+03  0.41800000000E+01 0. -1.
        -11    1    3    3    0    0 -0.32985042461E+02 -0.13868090935E+02  0.82606755790E+01  0.36722959213E+02  0.00000000000E+00 0.  1.
         11    1    3    3    0    0 -0.54014372342E+02 -0.12176069339E+02 -0.12657996757E+03  0.13816040415E+03  0.00000000000E+00 0. -1.
</event>
<event>
 7    1  0.4096326E-006  0.1034666E+03  0.7561462E-02  0.1273171E+00
         -3   -1    0    0    0  501 -0.00000000000E+00  0.00000000000E+00  0.78559864602E+03  0.78559864602E+03  0.00000000000E+00 0.  1.
          3   -1    0    0  501    0  0.00000000000E+00 -0.00000000000E+00 -0.32125148999E+02  0.32125148999E+02  0.00000000000E+00 0. -1.
         23    2    1    2    0    0 -0.22530801549E+02  0.68257880197E+02  0.13115969069E+03  0.17891536056E+03  0.98188932965E+02 0.  0.
          5    1    1    2  502    0 -0.26614266163E+02 -0.37579700841E+02  0.72865001810E+02  0.86297937215E+02  0.41800000000E+01 0. -1.
         -5    1    1    2    0  502  0.49145067713E+02 -0.30678179356E+02  0.54944880452E+03  0.55251049724E+03  0.41800000000E+01 0. -1.
        -11    1    3    3    0    0 -0.32314577975E+02 -0.13253673292E+01  0.26509779644E+01  0.32450211593E+02  0.00000000000E+00 0. -1.
         11    1    3    3    0    0  0.97837764255E+01  0.69583247526E+02  0.12850871272E+03  0.14646514897E+03  0.00000000000E+00 0.  1.
</event>
<event>
 7    1  0.4096326E-006  0.1019023E+03  0.7561462E-02  0.1276346E+00
          1   -1    0    0  501    0  0.00000000000E+00  0.00000000000E+00  0.20952082778E+03  0.20952082778E+03  0.00000000000E+00 0. -1.
         -1   -1    0    0    0  501 -0.00000000000E+00 -0.00000000000E+00 -0.76346190979E+02  0.76346190979E+02  0.00000000000E+00 0.  1.
         23    2    1    2    0    0  0.54007285200E+02  0.34759730723E+02  0.63416918421E+02  0.12889404830E+03  0.92016000843E+02 0.  0.
          5    1    1    2  502    0 -0.97821988552E+01 -0.54973516106E+02  0.88472664956E+02  0.10470273985E+03  0.41800000000E+01 0. -1.
         -5    1    1    2    0  502 -0.44225086345E+02  0.20213785383E+02 -0.18714946581E+02  0.52270230603E+02  0.41800000000E+01 0. -1.
        -11    1    3    3    0    0  0.55958893650E+02  0.55123434512E+02  0.20238417750E+02  0.81114637174E+02  0.00000000000E+00 0.  1.
         11    1    3    3    0    0 -0.19516084499E+01 -0.20363703789E+02  0.43178500671E+02  0.47779411128E+02  0.00000000000E+00 0. -1.
</event>
<event>
 7    1  0.4096326E-006  0.1245648E+03  0.7561462E-02  0.1235751E+00
         -2   -1    0    0    0  501 -0.00000000000E+00  0.00000000000E+00  0.14349569918E+03  0.14349569918E+03  0.00000000000E+00 0. -1.
          2   -1    0    0  501    0  0.00000000000E+00 -0.00000000000E+00 -0.13318751295E+03  0.13318751295E+03  0.00000000000E+00 0.  1.
         23    2    1    2    0    0 -0.16821166339E+02 -0.81528875071E+02 -0.13845369468E+02  0.12450071194E+03  0.91535915954E+02 0.  0.
          5    1    1    2  502    0  0.51759683420E+02  0.30144189515E+01 -0.19688883933E+02  0.55617228445E+02  0.41800000000E+01 0.  1.
         -5    1    1    2    0  502 -0.34938517081E+02  0.78514456120E+02  0.43842439633E+02  0.96565271753E+02  0.41800000000E+01 0.  1.
        -11    1    3    3    0    0  0.24038381708E+02 -0.60544683236E+02 -0.34978759144E+02  0.73939272749E+02  0.00000000000E+00 0.  1.
         11    1    3    3    0    0 -0.40859548046E+02 -0.20984191835E+02  0.21133389676E+02  0.50561439188E+02  0.00000000000E+00 0. -1.
</event>
<event>
 7    1  0.4096326E-006  0.1005852E+03  0.7561462E-02  0.1279070E+00
          3   -1    0    0  501    0  0.00000000000E+00  0.00000000000E+00  0.36888974874E+02  0.36888974874E+02  0.00000000000E+00 0. -1.
         -3   -1    0    0    0  501 -0.00000000000E+00 -0.00000000000E+00 -0.32686045776E+03  0.32686045776E+03  0.00000000000E+00 0.  1.
         23    2    1    2    0    0 -0.29075502925E+02  0.50804348443E+02 -0.11111111678E+03  0.13777481110E+03  0.56654669798E+02 0.  0.
          5    1    1    2  502    0 -0.28063630359E+02  0.19145259609E+02 -0.12145589026E+02  0.36319361878E+02  0.41800000000E+01 0.  1.
         -5    1    1    2    0  502  0.57139133284E+02 -0.69949608052E+02 -0.16671477708E+03  0.18965525966E+03  0.41800000000E+01 0.  1.
        -11    1    3    3    0    0 -0.24560993154E+02  0.60790902639E+02 -0.10806559850E+03  0.12639995968E+03  0.00000000000E+00 0.  1.
         11    1    3    3    0    0 -0.45145097702E+01 -0.99865541960E+01 -0.30455182817E+01  0.11374851418E+02  0.00000000000E+00 0. -1.
</event>
<event>
 7    1  0.4096326E-006  0.1101234E+03  0.7561462E-02  0.1260342E+00
          2   -1    0    0  501    0  0.00000000000E+00  0.00000000000E+00  0.26227941796E+03  0.26227941796E+03  0.00000000000E+00 0. -1.
         -2   -1    0    0    0  501 -0.00000000000E+00 -0.00000000000E+00 -0.85102995885E+02  0.85102995885E+02  0.00000000000E+00 0.  1.
         23    2    1    2    0    0 -0.35147784684E+01  0.91631415411E+02  0.27927035454E+02  0.13213594767E+03  0.90946794336E+02 0.  0.
          5    1    1    2  502    0 -0.24746278491E+02 -0.22401543732E+02  0.13484898093E+03  0.13898175246E+03  0.41800000000E+01 0. -1.
         -5    1    1    2    0  502  0.28261056959E+02 -0.69229871679E+02  0.14400405695E+02  0.76264713711E+02  0.41800000000E+01 0. -1.
        -11    1    3    3    0    0  0.25538227262E+02  0.72653912855E+02 -0.13403091753E+02  0.78169271286E+02  0.00000000000E+00 0.  1.
         11    1    3    3    0    0 -0.29053005730E+02  0.18977502556E+02  0.41330127207E+02  0.53966676386E+02  0.00000000000E+00 0. -1.
</event>
<event>
 7    1  0.4096326E-006  0.1222427E+03  0.7561462E-02  0.1239442E+00
          2   -1    0    0  501    0  0.00000000000E+00  0.00000000000E+00  0.26137551732E+03  0.26137551732E+03  0.00000000000E+00 0. -1.
         -2   -1    0    0    0  501 -0.00000000000E+00 -0.00000000000E+00 -0.83084207952E+02  0.83084207952E+02  0.00000000000E+00 0.  1.
         23    2    1    2    0    0  0.17100474610E+02 -0.91741311051E+02  0.11897982410E+03  0.17751337365E+03  0.92983358180E+02 0.  0.
          5    1    1    2  502    0  0.49028463580E+02  0.25017073867E+02 -0.10397459235E+01  0.55210485394E+02  0.41800000000E+01 0.  1.
         -5    1    1    2    0  502 -0.66128938190E+02  0.66724237184E+02  0.60351231191E+02  0.11173586622E+03  0.41800000000E+01 0.  1.
        -11    1    3    3    0    0  0.10530624847E+02 -0.15578667446E+02  0.95804124091E+02  0.97632059959E+02  0.00000000000E+00 0. -1.
         11    1    3    3    0    0  0.65698497635E+01 -0.76162643604E+02  0.23175700006E+02  0.79881313694E+02  0.00000000000E+00 0.  1.
</event>
<event>
 7    1  0.4096326E-006  0.1003417E+03  0.7561462E-02  0.1279579E+00
         -1   -1    0    0    0  501 -0.00000000000E+00  0.00000000000E+00  0.41398671358E+03  0.41398671358E+03  0.00000000000E+00 0.  1.
          1   -1    0    0  501    0  0.00000000000E+00 -0.00000000000E+00 -0.32009708804E+02  0.32009708804E+02  0.00000000000E+00 0. -1.
         23    2    1    2    0    0  0.37125066952E+02 -0.14040965912E+02  0.15607026855E+03  0.18473145210E+03  0.90511664154E+02 0.  0.
          5    1    1    2  502    0 -0.56633999312E+02  0.39779116241E+02  0.58489628160E+02  0.90709960695E+02  0.41800000000E+01 0. -1.
         -5    1    1    2    0  502  0.19508932360E+02 -0.25738150330E+02  0.16741710807E+03  0.17055500959E+03  0.41800000000E+01 0. -1.
        -11    1    3    3    0    0  0.63892270367E+02  0.76262053062E+01  0.10440071456E+03  0.12263723097E+03  0.00000000000E+00 0. -1.
         11    1    3    3    0    0 -0.26767203415E+02 -0.21667171218E+02  0.51669553990E+02  0.62094221122E+02  0.00000000000E+00 0.  1.
</event>
<event>
 7    1  0.4096326E-006  0.6849797E+02  0.7561462E-02  0.1365277E+00
          2   -1    0    0  501    0  0.00000000000E+00  0.00000000000E+00  0.23906076089E+03  0.23906076089E+03  0.00000000000E+00 0. -1.
         -2   -1    0    0    0  501 -0.00000000000E+00 -0.00000000000E+00 -0.55988341068E+02  0.55988341068E+02  0.00000000000E+00 0.  1.
         23    2    1    2    0    0 -0.37750406871E+00  0.54509669307E+01  0.13123590457E+03  0.15953347943E+03  0.90543983018E+02 0.  0.
          5    1    1    2  502    0 -0.22862347634E+02 -0.28471667522E+01  0.88656909704E+02  0.91696855650E+02  0.41800000000E+01 0. -1.
         -5    1    1    2    0  502  0.23239851702E+02 -0.26038001785E+01 -0.36820394457E+02  0.43818766875E+02  0.41800000000E+01 0. -1.
        -11    1    3    3    0    0 -0.45005357541E+02  0.38226851084E+01  0.54875916242E+02  0.71073633031E+02  0.00000000000E+00 0. -1.
         11    1    3    3    0    0  0.44627853473E+02  0.16282818223E+01  0.76359988330E+02  0.88459846400E+02  0.00000000000E+00 0.  1.
</event>
<event>
 7    1  0.4096326E-006  0.1224797E+03  0.7561462E-02  0.1239061E+00
         -1   -1    0    0    0  501 -0.00000000000E+00  0.00000000000E+00  0.20936151615E+02  0.20936151615E+02  0.00000000000E+00 0.  1.
          1   -1    0    0  501    0  0.00000000000E+00 -0.00000000000E+00 -0.74717628639E+03  0.74717628639E+03  0.00000000000E+00 0. -1.
         23    2    1    2    0    0 -0.25860570630E+02  0.56368811800E+02 -0.32390269109E+03  0.34223828766E+03  0.91476118134E+02 0.  0.
          5    1    1    2  502    0  0.76356569561E+02 -0.40247894351E+02 -0.24467020065E+03  0.25948255857E+03  0.41800000000E+01 0. -1.
         -5    1    1    2    0  502 -0.50495998931E+02 -0.16120917449E+02 -0.15766724304E+03  0.16639159178E+03  0.41800000000E+01 0. -1.
        -11    1    3    3    0    0 -0.55963899559E+02  0.48991181567E+02 -0.17510434933E+03  0.19024622751E+03  0.00000000000E+00 0. -1.
         11    1    3    3    0    0  0.30103328929E+02  0.73776302332E+01 -0.14879834175E+03  0.15199206015E+03  0.00000000000E+00 0.  1.
</event>
<event>
 7    1  0.4096326E-006  0.2360835E+03  0.7561462E-02  0.1122430E+00
         -2   -1    0    0    0  501 -0.00000000000E+00  0.00000000000E+00  0.84143622122E+02  0.84143622122E+02  0.00000000000E+00 0.  1.
          2   -1    0    0  501    0  0.00000000000E+00 -0.00000000000E+00 -0.10190864668E+04  0.10190864668E+04  0.00000000000E+00 0. -1.
         23    2    1    2    0    0  0.85676132786E+02 -0.21175213546E+03 -0.73443500307E+03  0.77454890523E+03  0.91388545577E+02 0.  0.
          5    1    1    2  502    0 -0.85801348780E+02  0.18864440899E+03 -0.21691801495E+03  0.30003246842E+03  0.41800000000E+01 0.  1.
         -5    1    1    2    0  502  0.12521599388E+00  0.23107726470E+02  0.16410173294E+02  0.28648715315E+02  0.41800000000E+01 0.  1.
        -11    1    3    3    0    0  0.31131078033E+02 -0.16968965370E+03 -0.58681581435E+03  0.61165065402E+03  0.00000000000E+00 0. -1.
         11    1    3    3    0    0  0.54545054753E+02 -0.42062481768E+02 -0.14761918871E+03  0.16289825121E+03  0.00000000000E+00 0.  1.
</event>
<event>
 7    1  0.4916449E-006  0.2195639E+03  0.7561462E-02  0.1134209E+00
          4   -1    0    0  501    0  0.00000000000E+00  0.00000000000E+00  0.47265974891E+03  0.47265974891E+03  0.00000000000E+00 0. -1.
         -4   -1    0    0    0  501 -0.00000000000E+00 -0.00000000000E+00 -0.12353073068E+03  0.12353073068E+03  0.00000000000E+00 0.  1.
         23    2    1    2    0    0  0.20107445080E+03  0.17086620224E+02  0.26355214210E+03  0.34381362730E+03  0.89583432354E+02 0.  0.
          5    1    1    2  502    0 -0.40332458774E+02  0.43754658222E+02 -0.14736831037E+01  0.59672619255E+02  0.41800000000E+01 0. -1.
         -5    1    1    2    0  502 -0.16074199203E+03 -0.60841278446E+02  0.87050559228E+02  0.19270423303E+03  0.41800000000E+01 0. -1.
        -11    1    3    3    0    0  0.85748346157E+02  0.31451173477E+02  0.17607216909E+03  0.19835161686E+03  0.00000000000E+00 0. -1.
         11    1    3    3    0    0  0.11532610465E+03 -0.14364553253E+02  0.87479973012E+02  0.14546201044E+03  0.00000000000E+00 0.  1.
</event>
<event>
 7    1  0.4096326E-006  0.1043016E+03  0.7561462E-02  0.1271502E+00
         -2   -1    0    0    0  501 -0.00000000000E+00  0.00000000000E+00  0.95693501516E+02  0.95693501516E+02  0.00000000000E+00 0.  1.
          2   -1    0    0  501    0  0.00000000000E+00 -0.00000000000E+00 -0.12944803097E+03  0.12944803097E+03  0.00000000000E+00 0. -1.
         23    2    1    2    0    0 -0.22139901781E+02  0.12221892315E+02 -0.23780047002E+02  0.97130652366E+02  0.90715616577E+02 0.  0.
          5    1    1    2  502    0 -0.24202314228E+02 -0.55131865286E+02 -0.20713609097E+02  0.63810662007E+02  0.41800000000E+01 0.  1.
         -5    1    1    2    0  502  0.46342216010E+02  0.42909972971E+02  0.10739126642E+02  0.64200218116E+02  0.41800000000E+01 0.  1.
        -11    1    3    3    0    0 -0.11773149398E+02  0.47108877754E+02 -0.34059791156E+02  0.59312079576E+02  0.00000000000E+00 0. -1.
         11    1    3    3    0    0 -0.10366752383E+02 -0.34886985439E+02  0.10279744154E+02  0.37818572790E+02  0.00000000000E+00 0.  1.
</event>
<event>
 7    1  0.4096326E-006  0.1104151E+03  0.7561462E-02  0.1259803E+00
          1   -1    0    0  501    0  0.00000000000E+00  0.00000000000E+00  0.84779607361E+02  0.84779607361E+02  0.00000000000E+00 0. -1.
         -1   -1    0    0    0  501 -0.00000000000E+00 -0.00000000000E+00 -0.20167229094E+03  0.20167229094E+03  0.00000000000E+00 0.  1.
         23    2    1    2    0    0 -0.28446323030E+02  0.65498622890E+02 -0.57301824916E+02  0.13057662960E+03  0.93099377900E+02 0.  0.
          5    1    1    2  502    0 -0.37419581192E+02 -0.50024194829E+02 -0.61905153925E+02  0.88047519030E+02  0.41800000000E+01 0.  1.
         -5    1    1    2    0  502  0.65865904222E+02 -0.15474428061E+02  0.23142952604E+01  0.67827749670E+02  0.41800000000E+01 0.  1.
        -11    1    3    3    0    0  0.88359152062E+01 -0.53801998480E+01 -0.48978657318E+02  0.50059253097E+02  0.00000000000E+00 0.  1.
         11    1    3    3    0    0 -0.37282238236E+02  0.70878822738E+02 -0.83231675982E+01  0.80517376507E+02  0.00000000000E+00 0. -1.
</event>
<event>
 7    1  0.4096326E-006  0.6954247E+02  0.7561462E-02  0.1361656E+00
         -2   -1    0    0    0  501 -0.00000000000E+00  0.00000000000E+00  0.48591951091E+02  0.48591951091E+02  0.00000000000E+00 0. -1.
          2   -1    0    0  501    0  0.00000000000E+00 -0.00000000000E+00 -0.27068290180E+03  0.27068290180E+03  0.00000000000E+00 0.  1.
         23    2    1    2    0    0  0.17803282024E+02 -0.23419031741E+02 -0.78650772141E+02  0.12669275929E+03  0.94866766568E+02 0.  0.
          5    1    1    2  502    0 -0.41527100874E+02  0.39424870452E+02 -0.12858218675E+02  0.58835590459E+02  0.41800000000E+01 0. -1.
         -5    1    1    2    0  502  0.23723818850E+02 -0.16005838711E+02 -0.13058195989E+03  0.13374650315E+03  0.41800000000E+01 0. -1.
        -11    1    3    3    0    0  0.29629189381E+02 -0.27314660754E+02 -0.96702597289E+02  0.10476340906E+03  0.00000000000E+00 0.  1.
         11    1    3    3    0    0 -0.11825907357E+02  0.38956290129E+01  0.18051825148E+02  0.21929350227E+02  0.00000000000E+00 0. -1.
</event>
<event>
 7    1  0.4096326E-006  0.1309852E+03  0.7561462E-02  0.1226001E+00
         -2   -1    0    0    0  501 -0.00000000000E+00  0.00000000000E+00  0.38600788245E+02  0.38600788245E+02  0.00000000000E+00 0. -1.
          2   -1    0    0  501    0  0.00000000000E+00 -0.00000000000E+00 -0.49916775995E+03  0.49916775995E+03  0.00000000000E+00 0.  1.
         23    2    1    2    0    0 -0.72815784246E+02 -0.38790843308E+02 -0.26277947774E+03  0.28962870835E+03  0.89581620994E+02 0.  0.
          5    1    1    2  502    0  0.10457890586E+03  0.91089573339E+01 -0.15287563699E+03  0.18549434881E+03  0.41800000000E+01 0. -1.
         -5    1    1    2    0  502 -0.31763121617E+02  0.29681885974E+02 -0.44911856971E+02  0.62645491030E+02  0.41800000000E+01 0. -1.
        -11    1    3    3    0    0 -0.45306384741E+02 -0.62313872621E+02 -0.12215982284E+03  0.14442544629E+03  0.00000000000E+00 0. -1.
         11    1    3    3    0    0 -0.27509399505E+02  0.23523029313E+02 -0.14061965491E+03  0.14520326207E+03  0.00000000000E+00 0.  1.
</event>
<event>
 7    1  0.4096326E-006  0.1631064E+03  0.7561462E-02  0.1185234E+00
          1   -1    0    0  501    0  0.00000000000E+00  0.00000000000E+00  0.78388727932E+03  0.78388727932E+03  0.00000000000E+00 0. -1.
         -1   -1    0    0    0  501 -0.00000000000E+00 -0.00000000000E+00 -0.34737301132E+02  0.34737301132E+02  0.00000000000E+00 0.  1.
         23    2    1    2    0    0  0.10646100847E+03 -0.50171223923E+02  0.40500779247E+03  0.43399676662E+03  0.10232684614E+03 0.  0.
          5    1    1    2  502    0  0.26119410083E+02  0.25544843795E+02  0.68880433418E+02  0.78081682458E+02  0.41800000000E+01 0. -1.
         -5    1    1    2    0  502 -0.13258041855E+03  0.24626380129E+02  0.27526175230E+03  0.30654613137E+03  0.41800000000E+01 0. -1.
        -11    1    3    3    0    0  0.87475703085E+02 -0.80412746959E+02  0.28464862050E+03  0.30845266356E+03  0.00000000000E+00 0. -1.
         11    1    3    3    0    0  0.18985305385E+02  0.30241523035E+02  0.12035917197E+03  0.12554410307E+03  0.00000000000E+00 0.  1.
</event>
<event>
 7    1  0.4096326E-006  0.5309631E+02  0.7561462E-02  0.1429322E+00
         -2   -1    0    0    0  501 -0.00000000000E+00  0.00000000000E+00  0.12238380258E+03  0.12238380258E+03  0.00000000000E+00 0.  1.
          2   -1    0    0  501    0  0.00000000000E+00 -0.00000000000E+00 -0.11604067978E+03  0.11604067978E+03  0.00000000000E+00 0. -1.
         23    2    1    2    0    0 -0.42202098712E+02  0.16019127674E+02 -0.21642378729E+02  0.10253046202E+03  0.89478899730E+02 0.  0.
          5    1    1    2  502    0  0.14662129497E+02 -0.18716486350E+02  0.76317458160E+02  0.80044435926E+02  0.41800000000E+01 0.  1.
         -5    1    1    2    0  502  0.27539969215E+02  0.26973586755E+01 -0.48331956634E+02  0.55849584423E+02  0.41800000000E+01 0.  1.
        -11    1    3    3    0    0 -0.28464864303E+02 -0.50552132630E+01 -0.54174893773E+02  0.61406211381E+02  0.00000000000E+00 0. -1.
         11    1    3    3    0    0 -0.13737234408E+02  0.21074340937E+02  0.32532515044E+02  0.41124250634E+02  0.00000000000E+00 0.  1.
</event>
<event>
 6    1  0.4096326E-006  0.6662970E+02  0.7561462E-02  0.1371944E+00
          1   -1    0    0  501    0  0.00000000000E+00  0.00000000000E+00  0.30853664360E+03  0.30853664360E+03  0.00000000000E+00 0. -1.
         -1   -1    0    0    0  501 -0.00000000000E+00 -0.00000000000E+00 -0.19794032172E+02  0.19794032172E+02  0.00000000000E+00 0.  1.
          5    1    1    2  502    0  0.43110736433E+02 -0.27593898278E+01  0.30133183787E+02  0.52835887360E+02  0.41800000000E+01 0. -1.
         -5    1    1    2    0  502 -0.40304008007E+02  0.26424877062E+02  0.17231306397E+03  0.17897472337E+03  0.41800000000E+01 0.  1.
        -11    1    1    2    0    0  0.91411835789E+01  0.50059896533E+01  0.35322814267E+02  0.36828282303E+02  0.00000000000E+00 0.  1.
         11    1    1    2    0    0 -0.11947912005E+02 -0.28671476888E+02  0.50973549404E+02  0.59691782743E+02  0.00000000000E+00 0. -1.
</event>
<event>
 7    1  0.4096326E-006  0.1869296E+03  0.7561462E-02  0.1161260E+00
         -1   -1    0    0    0  501 -0.00000000000E+00  0.00000000000E+00  0.26248474668E+02  0.26248474668E+02  0.00000000000E+00 0.  1.
          1   -1    0    0  501    0  0.00000000000E+00 -0.00000000000E+00 -0.14130064862E+04  0.14130064862E+04  0.00000000000E+00 0. -1.
         23    2    1    2    0    0  0.38281961876E+02 -0.15177316081E+03 -0.55433845546E+03  0.58305966465E+03  0.90370616870E+02 0.  0.
          5    1    1    2  502    0 -0.80895173795E+02  0.11061119419E+03 -0.49726074264E+03  0.51581448603E+03  0.41800000000E+01 0. -1.
         -5    1    1    2    0  502  0.42613211919E+02  0.41161966620E+02 -0.33515881343E+03  0.34038081019E+03  0.41800000000E+01 0. -1.
        -11    1    3    3    0    0  0.64968414492E+02 -0.11168443668E+03 -0.34900590416E+03  0.37215511473E+03  0.00000000000E+00 0. -1.
         11    1    3    3    0    0 -0.26686452616E+02 -0.40088724130E+02 -0.20533255130E+03  0.21090454992E+03  0.00000000000E+00 0.  1.
</event>
<event>
 7    1  0.4096326E-006  0.1373753E+03  0.7561462E-02  0.1216905E+00
         -2   -1    0    0    0  501 -0.00000000000E+00  0.00000000000E+00  0.17678765737E+02  0.17678765737E+02  0.00000000000E+00 0.  1.
          2   -1    0    0  501    0  0.00000000000E+00 -0.00000000000E+00 -0.11363811469E+04  0.11363811469E+04  0.00000000000E+00 0. -1.
         23    2    1    2    0    0  0.49782521669E+02  0.72278153131E+02 -0.54773368153E+03  0.56299853572E+03  0.96191135032E+02 0.  0.
          5    1    1    2  502    0 -0.19762876232E+02 -0.10203067443E+03 -0.47268867933E+03  0.48399678694E+03  0.41800000000E+01 0. -1.
         -5    1    1    2    0  502 -0.30019645436E+02  0.29752521298E+02 -0.98280020303E+02  0.10706458997E+03  0.41800000000E+01 0. -1.
        -11    1    3    3    0    0  0.71148037299E+02  0.23356156434E+02 -0.36621124467E+03  0.37378901667E+03  0.00000000000E+00 0. -1.
         11    1    3    3    0    0 -0.21365515630E+02  0.48921996697E+02 -0.18152243685E+03  0.18920951905E+03  0.00000000000E+00 0.  1.
</event>
<event>
 7    1  0.4096326E-006  0.1117131E+03  0.7561462E-02  0.1257430E+00
         -2   -1    0    0    0  501 -0.00000000000E+00  0.00000000000E+00  0.15693209352E+03  0.15693209352E+03  0.00000000000E+00 0.  1.
          2   -1    0    0  501    0  0.00000000000E+00 -0.00000000000E+00 -0.12920889091E+03  0.12920889091E+03  0.00000000000E+00 0. -1.
         23    2    1    2    0    0 -0.73327619149E+02 -0.13679815359E+02  0.67231788017E+02  0.13523749205E+03  0.90581393545E+02 0.  0.
          5    1    1    2  502    0  0.83503678616E+02 -0.15785081921E+02  0.16497990393E+02  0.86670001966E+02  0.41800000000E+01 0. -1.
         -5    1    1    2    0  502 -0.10176059467E+02  0.29464897280E+02 -0.56006575798E+02  0.64233490412E+02  0.41800000000E+01 0. -1.
        -11    1    3    3    0    0 -0.54487358039E+02 -0.44780006159E+02  0.69220961841E+02  0.98821367608E+02  0.00000000000E+00 0.  1.
         11    1    3    3    0    0 -0.18840261110E+02  0.31100190801E+02 -0.19891738246E+01  0.36416124437E+02  0.00000000000E+00 0. -1.
</event>
<event>
 7    1  0.4096326E-006  0.1239464E+03  0.7561462E-02  0.1236725E+00
          2   -1    0    0  501    0  0.00000000000E+00  0.00000000000E+00  0.23331418479E+03  0.23331418479E+03  0.00000000000E+00 0. -1.
         -2   -1    0    0    0  501 -0.00000000000E+00 -0.00000000000E+00 -0.11609655570E+03  0.11609655570E+03  0.00000000000E+00 0.  1.
         23    2    1    2    0    0  0.97019270156E+02 -0.32308992454E+02  0.12912213867E+03  0.18740636866E+03  0.89398045530E+02 0.  0.
          5    1    1    2  502    0 -0.62642700615E+02 -0.17284307895E+02  0.44842988754E+02  0.79064665180E+02  0.41800000000E+01 0. -1.
         -5    1    1    2    0  502 -0.34376569541E+02  0.49593300349E+02 -0.56747498335E+02  0.82939706656E+02  0.41800000000E+01 0. -1.
        -11    1    3    3    0    0 -0.71306990500E+01 -0.15135805249E+02 -0.43029672840E+01  0.17275850107E+02  0.00000000000E+00 0.  1.
         11    1    3    3    0    0  0.10414996921E+03 -0.17173187205E+02  0.13342510595E+03  0.17013051855E+03  0.00000000000E+00 0. -1.
</event>
<event>
 7    1  0.4096326E-006  0.1389934E+03  0.7561462E-02  0.1214690E+00
          1   -1    0    0  501    0  0.00000000000E+00  0.00000000000E+00  0.87589796786E+03  0.87589796786E+03  0.00000000000E+00 0. -1.
         -1   -1    0    0    0  501 -0.00000000000E+00 -0.00000000000E+00 -0.27512780964E+02  0.27512780964E+02  0.00000000000E+00 0.  1.
         23    2    1    2    0    0 -0.61405289372E+02  0.75175966264E+02  0.54669627387E+03  0.56269673293E+03  0.91262050792E+02 0.  0.
          5    1    1    2  502    0  0.63143656082E+01 -0.91451250475E+02  0.23675572262E+03  0.25391720505E+03  0.41800000000E+01 0.  1.
         -5    1    1    2    0  502  0.55090923764E+02  0.16275284211E+02  0.64933190404E+02  0.86796810847E+02  0.41800000000E+01 0.  1.
        -11    1    3    3    0    0 -0.75848152963E+02  0.82804502798E+02  0.51429466512E+03  0.52641099016E+03  0.00000000000E+00 0. -1.
         11    1    3    3    0    0  0.14442863591E+02 -0.76285365338E+01  0.32401608748E+02  0.36285742762E+02  0.00000000000E+00 0.  1.
</event>
<event>
 7    1  0.4096326E-006  0.8456260E+02  0.7561462E-02  0.1316580E+00
          3   -1    0    0  501    0  0.00000000000E+00  0.00000000000E+00  0.34176966782E+02  0.34176966782E+02  0.00000000000E+00 0. -1.
         -3   -1    0    0    0  501 -0.00000000000E+00 -0.00000000000E+00 -0.45920519314E+03  0.45920519314E+03  0.00000000000E+00 0.  1.
         23    2    1    2    0    0 -0.51581288098E+01  0.47520367325E+02 -0.11164770351E+03  0.15258779735E+03  0.92374426100E+02 0.  0.
          5    1    1    2  502    0  0.20416870687E+02 -0.52382989842E+01 -0.28839874905E+03  0.28919820061E+03  0.41800000000E+01 0. -1.
         -5    1    1    2    0  502 -0.15258741878E+02 -0.42282068341E+02 -0.24981773798E+02  0.51596161960E+02  0.41800000000E+01 0. -1.
        -11    1    3    3    0    0  0.12638125576E+02  0.71511941919E+02 -0.66596740144E+02  0.98533272822E+02  0.00000000000E+00 0.  1.
         11    1    3    3    0    0 -0.17796254386E+02 -0.23991574594E+02 -0.45050963369E+02  0.54054524529E+02  0.00000000000E+00 0. -1.
</event>
<event>
 7    1  0.4096326E-006  0.8447509E+02  0.7561462E-02  0.1316811E+00
         -4   -1    0    0    0  501 -0.00000000000E+00  0.00000000000E+00  0.10796288352E+03  0.10796288352E+03  0.00000000000E+00 0.  1.
          4   -1    0    0  501    0  0.00000000000E+00 -0.00000000000E+00 -0.20119825557E+03  0.20119825557E+03  0.00000000000E+00 0. -1.
         23    2    1    2    0    0  0.62818549770E+02 -0.42050961683E+02 -0.10194850696E+03  0.16274407930E+03  0.10187091687E+03 0.  0.
          5    1    1    2  502    0 -0.65030045627E+02  0.50460695248E+02  0.55033394936E+02  0.99102651616E+02  0.41800000000E+01 0. -1.
         -5    1    1    2    0  502  0.22114958566E+01 -0.84097335648E+01 -0.46320260015E+02  0.47314408170E+02  0.41800000000E+01 0. -1.
        -11    1    3    3    0    0  0.18790309155E+02 -0.52726389079E+01  0.20019333944E+02  0.27958007274E+02  0.00000000000E+00 0.  1.
         11    1    3    3    0    0  0.44028240615E+02 -0.36778322776E+02 -0.12196784091E+03  0.13478607203E+03  0.00000000000E+00 0. -1.
</event>
<event>
 7    1  0.4096326E-006  0.9824863E+02  0.7561462E-02  0.1284023E+00
          2   -1    0    0  501    0  0.00000000000E+00  0.00000000000E+00  0.13784279722E+03  0.13784279722E+03  0.00000000000E+00 0. -1.
         -2   -1    0    0    0  501 -0.00000000000E+00 -0.00000000000E+00 -0.18220385686E+03  0.18220385686E+03  0.00000000000E+00 0.  1.
         23    2    1    2    0    0 -0.82565562490E+02  0.43726905759E+01  0.59969344929E+02  0.13737610742E+03  0.91867731146E+02 0.  0.
          5    1    1    2  502    0  0.55277672460E+01 -0.20219347230E+02 -0.10163977882E+03  0.10386286753E+03  0.41800000000E+01 0.  1.
         -5    1    1    2    0  502  0.77037795244E+02  0.15846656654E+02 -0.26906257483E+01  0.78807679131E+02  0.41800000000E+01 0.  1.
        -11    1    3    3    0    0 -0.77239957269E+02 -0.12879130250E+02  0.38246125644E+01  0.78399685306E+02  0.00000000000E+00 0.  1.
         11    1    3    3    0    0 -0.53256052212E+01  0.17251820826E+02  0.56144732365E+02  0.58976422112E+02  0.00000000000E+00 0. -1.
</event>
<event>
 7    1  0.4650253E-006  0.1673146E+03  0.7561462E-02  0.1180678E+00
         -2   -1    0    0    0  501 -0.00000000000E+00  0.00000000000E+00  0.74277454342E+02  0.74277454342E+02  0.00000000000E+00 0.  1.
          2   -1    0    0  501    0  0.00000000000E+00 -0.00000000000E+00 -0.38698584726E+03  0.38698584726E+03  0.00000000000E+00 0. -1.
         23    2    1    2    0    0  0.12022501458E+03 -0.49576684283E+02 -0.16484708404E+03  0.22797760956E+03  0.88810627687E+02 0.  0.
          5    1    1    2  502    0 -0.93670571479E+02  0.89218871325E+02 -0.12601538322E+03  0.18064200002E+03  0.41800000000E+01 0. -1.
         -5    1    1    2    0  502 -0.26554443104E+02 -0.39642187042E+02 -0.21845925660E+02  0.52643692024E+02  0.41800000000E+01 0. -1.
        -11    1    3    3    0    0  0.45652430210E+02 -0.66665395774E+02 -0.90016275712E+02  0.12096011438E+03  0.00000000000E+00 0. -1.
         11    1    3    3    0    0  0.74572584372E+02  0.17088711491E+02 -0.74830808327E+02  0.10701749518E+03  0.00000000000E+00 0.  1.
</event>
<event>
 7    1  0.4096326E-006  0.1450056E+03  0.7561462E-02  0.1206748E+00
          1   -1    0    0  501    0  0.00000000000E+00  0.00000000000E+00  0.75987376437E+03  0.75987376437E+03  0.00000000000E+00 0. -1.
         -1   -1    0    0    0  501 -0.00000000000E+00 -0.00000000000E+00 -0.33789259236E+02  0.33789259236E+02  0.00000000000E+00 0.  1.
         23    2    1    2    0    0 -0.17071337772E+02  0.11560479168E+03  0.30322942909E+03  0.33747221860E+03  0.91013807897E+02 0.  0.
          5    1    1    2  502    0  0.10964697003E+02  0.25098452987E+02  0.44139805299E+02  0.52114793817E+02  0.41800000000E+01 0. -1.
         -5    1    1    2    0  502  0.61066407696E+01 -0.14070324467E+03  0.37871527074E+03  0.40407601118E+03  0.41800000000E+01 0. -1.
        -11    1    3    3    0    0 -0.24641936335E+02  0.54212949327E+02  0.24632898062E+03  0.25342500980E+03  0.00000000000E+00 0. -1.
         11    1    3    3    0    0  0.75705985623E+01  0.61391842358E+02  0.56900448474E+02  0.84047208801E+02  0.00000000000E+00 0.  1.
</event>
<event>
 7    1  0.4096326E-006  0.1548734E+03  0.7561462E-02  0.1194609E+00
          2   -1    0    0  501    0  0.00000000000E+00  0.00000000000E+00  0.49905776241E+02  0.49905776241E+02  0.00000000000E+00 0. -1.
         -2   -1    0    0    0  501 -0.00000000000E+00 -0.00000000000E+00 -0.70441103761E+03  0.70441103761E+03  0.00000000000E+00 0.  1.
         23    2    1    2    0    0 -0.76576244304E+02 -0.84186630159E+02 -0.10443978859E+03  0.17884075988E+03  0.90138993026E+02 0.  0.
          5    1    1    2  502    0  0.10700890569E+03  0.45530935095E+02 -0.32929199102E+03  0.34924870751E+03  0.41800000000E+01 0. -1.
         -5    1    1    2    0  502 -0.30432661384E+02  0.38655695063E+02 -0.22077348176E+03  0.22622734647E+03  0.41800000000E+01 0. -1.
        -11    1    3    3    0    0 -0.51252314685E+02  0.48072519797E+01 -0.48454333162E+02  0.70694637946E+02  0.00000000000E+00 0.  1.
         11    1    3    3    0    0 -0.25323929619E+02 -0.88993882138E+02 -0.55985455429E+02  0.10814612193E+03  0.00000000000E+00 0. -1.
</event>
<event>
 7    1  0.4096326E-006  0.1191251E+03  0.7561462E-02  0.1244547E+00
          2   -1    0    0  501    0  0.00000000000E+00  0.00000000000E+00  0.45186695549E+03  0.45186695549E+03  0.00000000000E+00 0. -1.
         -2   -1    0    0    0  501 -0.00000000000E+00 -0.00000000000E+00 -0.45807587342E+02  0.45807587342E+02  0.00000000000E+00 0.  1.
         23    2    1    2    0    0  0.59680297694E+02  0.34021533335E+02  0.29703256899E+03  0.31808010436E+03  0.90705033413E+02 0.  0.
          5    1    1    2  502    0 -0.84620104900E+02  0.71690527125E+01  0.36709639059E+02  0.92612242549E+02  0.41800000000E+01 0. -1.
         -5    1    1    2    0  502  0.24939807206E+02 -0.41190586047E+02  0.72317160095E+02  0.86982195917E+02  0.41800000000E+01 0. -1.
        -11    1    3    3    0    0  0.50188760325E+02  0.59418341149E+02  0.15429107503E+03  0.17278653525E+03  0.00000000000E+00 0.  1.
         11    1    3    3    0    0  0.94915373690E+01 -0.25396807815E+02  0.14274149396E+03  0.14529356912E+03  0.00000000000E+00 0. -1.
</event>
<event>
 7    1  0.4096326E-006  0.1106580E+03  0.7561462E-02  0.1259356E+00
         -2   -1    0    0    0  501 -0.00000000000E+00  0.00000000000E+00  0.23829819801E+03  0.23829819801E+03  0.00000000000E+00 0.  1.
          2   -1    0    0  501    0  0.00000000000E+00 -0.00000000000E+00 -0.64050260381E+02  0.64050260381E+02  0.00000000000E+00 0. -1.
         23    2    1    2    0    0 -0.38333483705E+02 -0.14273033873E+02  0.23186471334E+02  0.10199774869E+03  0.90513826653E+02 0.  0.
          5    1    1    2  502    0 -0.45395263126E+02 -0.37621034409E+01  0.56584320603E+02  0.72760848502E+02  0.41800000000E+01 0. -1.
         -5    1    1    2    0  502  0.83728746830E+02  0.18035137314E+02  0.94477145694E+02  0.12758986120E+03  0.41800000000E+01 0. -1.
        -11    1    3    3    0    0 -0.37531528636E+02 -0.45276017731E+02 -0.63734458666E+01  0.59153649385E+02  0.00000000000E+00 0. -1.
         11    1    3    3    0    0 -0.80195506857E+00  0.31002983859E+02  0.29559917200E+02  0.42844099302E+02  0.00000000000E+00 0.  1.
</event>
<event>
 7    1  0.4096326E-006  0.1021360E+03  0.7561462E-02  0.1275867E+00
          2   -1    0    0  501    0  0.00000000000E+00  0.00000000000E+00  0.13821435935E+02  0.13821435935E+02  0.00000000000E+00 0. -1.
         -2   -1    0    0    0  501 -0.00000000000E+00 -0.00000000000E+00 -0.18860493563E+04  0.18860493563E+04  0.00000000000E+00 0.  1.
         23    2    1    2    0    0  0.61937067945E+02  0.34597315564E+02 -0.30654174920E+03  0.32759384548E+03  0.91195992022E+02 0.  0.
          5    1    1    2  502    0 -0.90654213275E+02 -0.36019877730E+02 -0.14387008888E+04  0.14420101725E+04  0.41800000000E+01 0.  1.
         -5    1    1    2    0  502  0.28717145330E+02  0.14225621663E+01 -0.12698528238E+03  0.13026677420E+03  0.41800000000E+01 0.  1.
        -11    1    3    3    0    0  0.78311064729E+01  0.20090693552E+02 -0.67226328288E+01  0.22586632953E+02  0.00000000000E+00 0. -1.
         11    1    3    3    0    0  0.54105961472E+02  0.14506622012E+02 -0.29981911637E+03  0.30500721252E+03  0.00000000000E+00 0.  1.
</event>
<event>
 7    1  0.4096326E-006  0.1027516E+03  0.7561462E-02  0.1274614E+00
          1   -1    0    0  501    0  0.00000000000E+00  0.00000000000E+00  0.32982166884E+02  0.32982166884E+02  0.00000000000E+00 0. -1.
         -1   -1    0    0    0  501 -0.00000000000E+00 -0.00000000000E+00 -0.52463614922E+03  0.52463614922E+03  0.00000000000E+00 0.  1.
         23    2    1    2    0    0  0.55702299774E+02 -0.38766783070E+02 -0.15239428469E+03  0.18971722167E+03  0.90349302830E+02 0.  0.
          5    1    1    2  502    0  0.30510085560E+02  0.38689844889E+02 -0.74418361553E+02  0.89349506740E+02  0.41800000000E+01 0.  1.
         -5    1    1    2    0  502 -0.86212385334E+02  0.76938181026E-01 -0.26484133609E+03  0.27855158769E+03  0.41800000000E+01 0.  1.
        -11    1    3    3    0    0  0.16497913194E+02 -0.20979591794E+02  0.44624578287E+01  0.27059895445E+02  0.00000000000E+00 0. -1.
         11    1    3    3    0    0  0.39204386580E+02 -0.17787191276E+02 -0.15685674252E+03  0.16265732623E+03  0.00000000000E+00 0.  1.
</event>
<event>
 6    1  0.4096326E-006  0.1627549E+03  0.7561462E-02  0.1185621E+00
          1   -1    0    0  501    0  0.00000000000E+00  0.00000000000E+00  0.19721739320E+03  0.19721739320E+03  0.00000000000E+00 0. -1.
         -1   -1    0    0    0  501 -0.00000000000E+00 -0.00000000000E+00 -0.24524923717E+03  0.24524923717E+03  0.00000000000E+00 0.  1.
          5    1    1    2  502    0 -0.74670436180E+01  0.73314072656E+01  0.32117763311E+02  0.34037176630E+02  0.41800000000E+01 0. -1.
         -5    1    1    2    0  502 -0.90132336835E+02  0.32926069772E+02 -0.12197960564E+03  0.15525611359E+03  0.41800000000E+01 0.  1.
        -11    1    1    2    0    0 -0.57135815554E+02  0.39318335540E+01 -0.42666564967E+02  0.71417060289E+02  0.00000000000E+00 0.  1.
         11    1    1    2    0    0  0.15473519601E+03 -0.44189310592E+02  0.84496563327E+02  0.18175627986E+03  0.00000000000E+00 0. -1.
</event>
<event>
 7    1  0.4096326E-006  0.1164965E+03  0.7561462E-02  0.1248991E+00
         -2   -1    0    0    0  501 -0.00000000000E+00  0.00000000000E+00  0.23727316534E+02  0.23727316534E+02  0.00000000000E+00 0.  1.
          2   -1    0    0  501    0  0.00000000000E+00 -0.00000000000E+00 -0.65068248951E+03  0.65068248951E+03  0.00000000000E+00 0. -1.
         23    2    1    2    0    0 -0.60833787712E+02  0.18282136829E+02 -0.35358722383E+03  0.37052569117E+03  0.90721423612E+02 0.  0.
          5    1    1    2  502    0  0.52200930338E+02  0.38312802891E+02 -0.20274658604E+03  0.21287662752E+03  0.41800000000E+01 0. -1.
         -5    1    1    2    0  502  0.86328573736E+01 -0.56594939720E+02 -0.70621363099E+02  0.91007487353E+02  0.41800000000E+01 0.  1.
        -11    1    3    3    0    0  0.22944391332E+02 -0.55427995450E+01 -0.79785618495E+02  0.83204042204E+02  0.00000000000E+00 0.  1.
         11    1    3    3    0    0 -0.83778179044E+02  0.23824936374E+02 -0.27380160534E+03  0.28732164896E+03  0.00000000000E+00 0. -1.
</event>
<event>
 7    1  0.4096326E-006  0.2320245E+03  0.7561462E-02  0.1125223E+00
          1   -1    0    0  501    0  0.00000000000E+00  0.00000000000E+00  0.44156444585E+03  0.44156444585E+03  0.00000000000E+00 0. -1.
         -1   -1    0    0    0  501 -0.00000000000E+00 -0.00000000000E+00 -0.18527710007E+03  0.18527710007E+03  0.00000000000E+00 0.  1.
         23    2    1    2    0    0 -0.12296951714E+03  0.17041515415E+03  0.30068353400E+03  0.37827599125E+03  0.92300113883E+02 0.  0.
          5    1    1    2  502    0  0.43607131213E+02 -0.14773831705E+03 -0.58307094678E+02  0.16475855640E+03  0.41800000000E+01 0.  1.
         -5    1    1    2    0  502  0.79362385925E+02 -0.22676837104E+02  0.13910906459E+02  0.83806998272E+02  0.41800000000E+01 0.  1.
        -11    1    3    3    0    0 -0.10674372320E+03  0.74840739322E+02  0.14607441526E+03  0.19578838959E+03  0.00000000000E+00 0.  1.
         11    1    3    3    0    0 -0.16225793935E+02  0.95574414832E+02  0.15460911874E+03  0.18248760166E+03  0.00000000000E+00 0. -1.
</event>
<event>
 7    1  0.4096326E-006  0.1059415E+03  0.7561462E-02  0.1268276E+00
         -2   -1    0    0    0  501 -0.00000000000E+00  0.00000000000E+00  0.27149420505E+02  0.27149420505E+02  0.00000000000E+00 0.  1.
          2   -1    0    0  501    0  0.00000000000E+00 -0.00000000000E+00 -0.62473800359E+03  0.62473800359E+03  0.00000000000E+00 0. -1.
         23    2    1    2    0    0 -0.60286906049E+02 -0.19284811116E+02 -0.33314258797E+03  0.35371563967E+03  0.10061985314E+03 0.  0.
          5    1    1    2  502    0  0.43352266615E+02 -0.47887798637E+02 -0.93937551366E+02  0.11408065671E+03  0.41800000000E+01 0. -1.
         -5    1    1    2    0  502  0.16934639434E+02  0.67172609753E+02 -0.17050844375E+03  0.18409112771E+03  0.41800000000E+01 0.  1.
        -11    1    3    3    0    0  0.61142006427E+01 -0.85146544430E+01  0.30038687323E+01  0.10904403567E+02  0.00000000000E+00 0.  1.
         11    1    3    3    0    0 -0.66401106692E+02 -0.10770156673E+02 -0.33614645670E+03  0.34281123610E+03  0.00000000000E+00 0. -1.
</event>
<event>
 7    1  0.4096326E-006  0.9295918E+02  0.7561462E-02  0.1295840E+00
          1   -1    0    0  501    0  0.00000000000E+00  0.00000000000E+00  0.13503755494E+03  0.13503755494E+03  0.00000000000E+00 0. -1.
         -1   -1    0    0    0  501 -0.00000000000E+00 -0.00000000000E+00 -0.15369411160E+03  0.15369411160E+03  0.00000000000E+00 0.  1.
         23    2    1    2    0    0  0.16575969797E+01 -0.51825318272E+02  0.76756080099E+02  0.12934544150E+03  0.90278104558E+02 0.  0.
          5    1    1    2  502    0 -0.23032172061E+02  0.68345128798E+02 -0.14105547501E+02  0.73606904911E+02  0.41800000000E+01 0. -1.
         -5    1    1    2    0  502  0.21374575082E+02 -0.16519810526E+02 -0.81307089253E+02  0.85779320133E+02  0.41800000000E+01 0.  1.
        -11    1    3    3    0    0 -0.30302191682E+02 -0.44018769911E+02  0.80084899086E+02  0.96278065969E+02  0.00000000000E+00 0. -1.
         11    1    3    3    0    0  0.31959788661E+02 -0.78065483608E+01 -0.33288189865E+01  0.33067375530E+02  0.00000000000E+00 0.  1.
</event>
<event>
 7    1  0.4096326E-006  0.2112587E+03  0.7561462E-02  0.1140573E+00
          2   -1    0    0  501    0  0.00000000000E+00  0.00000000000E+00  0.93303878361E+03  0.93303878361E+03  0.00000000000E+00 0.  1.
         -2   -1    0    0    0  501 -0.00000000000E+00 -0.00000000000E+00 -0.54641176391E+02  0.54641176391E+02  0.00000000000E+00 0. -1.
         23    2    1    2    0    0 -0.24617079165E+02  0.19481339268E+03  0.46909950569E+03  0.51680012046E+03  0.92031297450E+02 0.  0.
          5    1    1    2  502    0  0.30658485222E+02 -0.13063177210E+02  0.15269272235E+03  0.15634298569E+03  0.41800000000E+01 0.  1.
         -5    1    1    2    0  502 -0.60414060564E+01 -0.18175021547E+03  0.25660537918E+03  0.31453685385E+03  0.41800000000E+01 0.  1.
        -11    1    3    3    0    0 -0.47082875249E+02  0.14319150820E+03  0.40129063785E+03  0.42866628184E+03  0.00000000000E+00 0.  1.
         11    1    3    3    0    0  0.22465796084E+02  0.51621884482E+02  0.67808867842E+02  0.88133838616E+02  0.00000000000E+00 0. -1.
</event>
<event>
 7    1  0.4096326E-006  0.1022477E+03  0.7561462E-02  0.1275639E+00
         -2   -1    0    0    0  501 -0.00000000000E+00  0.00000000000E+00  0.34151151280E+03  0.34151151280E+03  0.00000000000E+00 0.  1.
          2   -1    0    0  501    0  0.00000000000E+00 -0.00000000000E+00 -0.47109521703E+02  0.47109521703E+02  0.00000000000E+00 0. -1.
         23    2    1    2    0    0 -0.34862333132E+02  0.27117184864E+02  0.55505964624E+02  0.11536502103E+03  0.90980503312E+02 0.  0.
          5    1    1    2  502    0  0.66868191504E+02 -0.27274522141E+02  0.22798154698E+03  0.23918259292E+03  0.41800000000E+01 0.  1.
         -5    1    1    2    0  502 -0.32005858373E+02  0.15733727676E+00  0.10914479492E+02  0.34073420547E+02  0.41800000000E+01 0.  1.
        -11    1    3    3    0    0 -0.29469236587E+02  0.59846775690E+02  0.45387325401E+02  0.80685077757E+02  0.00000000000E+00 0.  1.
         11    1    3    3    0    0 -0.53930965445E+01 -0.32729590826E+02  0.10118639224E+02  0.34679943277E+02  0.00000000000E+00 0. -1.
</event>
<event>
 7    1  0.4096326E-006  0.1051837E+03  0.7561462E-02  0.1269758E+00
         -4   -1    0    0    0  501 -0.00000000000E+00  0.00000000000E+00  0.72630813285E+02  0.72630813285E+02  0.00000000000E+00 0.  1.
          4   -1    0    0  501    0  0.00000000000E+00 -0.00000000000E+00 -0.26699726842E+03  0.26699726842E+03  0.00000000000E+00 0. -1.
         23    2    1    2    0    0  0.17701160879E+02  0.26815385769E+02 -0.18679744420E+03  0.21025464322E+03  0.91001834199E+02 0.  0.
          5    1    1    2  502    0 -0.69156786680E+02 -0.93489323691E+01 -0.21461308343E+02  0.73130867875E+02  0.41800000000E+01 0.  1.
         -5    1    1    2    0  502  0.51455625801E+02 -0.17466453400E+02  0.13892297408E+02  0.56242570605E+02  0.41800000000E+01 0.  1.
        -11    1    3    3    0    0  0.41053211658E+01  0.54742335746E+02 -0.16025949095E+03  0.16940094871E+03  0.00000000000E+00 0. -1.
         11    1    3    3    0    0  0.13595839713E+02 -0.27926949977E+02 -0.26537953244E+02  0.40853694507E+02  0.00000000000E+00 0.  1.
</event>
<event>
 7    1  0.4096326E-006  0.9439015E+02  0.7561462E-02  0.1292556E+00
          3   -1    0    0  501    0  0.00000000000E+00  0.00000000000E+00  0.10570687405E+03  0.10570687405E+03  0.00000000000E+00 0. -1.
         -3   -1    0    0    0  501 -0.00000000000E+00 -0.00000000000E+00 -0.14589418104E+03  0.14589418104E+03  0.00000000000E+00 0.  1.
         23    2    1    2    0    0  0.46728845169E+02 -0.25236120511E+02 -0.57867341642E+01  0.11141797020E+03  0.97775411231E+02 0.  0.
          5    1    1    2  502    0 -0.23081888165E+02  0.75975243450E+02 -0.15985755832E+02  0.81105042803E+02  0.41800000000E+01 0. -1.
         -5    1    1    2    0  502 -0.23646957004E+02 -0.50739122939E+02 -0.18414816987E+02  0.59078042087E+02  0.41800000000E+01 0. -1.
        -11    1    3    3    0    0  0.18578429054E+02 -0.91550858312E+01  0.45927625370E+02  0.50381746643E+02  0.00000000000E+00 0. -1.
         11    1    3    3    0    0  0.28150416116E+02 -0.16081034680E+02 -0.51714359534E+02  0.61036223555E+02  0.00000000000E+00 0.  1.
</event>
<event>
 7    1  0.4096326E-006  0.6547832E+02  0.7561462E-02  0.1376181E+00
         -2   -1    0    0    0  501 -0.00000000000E+00  0.00000000000E+00  0.17762601543E+03  0.17762601543E+03  0.00000000000E+00 0.  1.
          2   -1    0    0  501    0  0.00000000000E+00 -0.00000000000E+00 -0.11159424206E+03  0.11159424206E+03  0.00000000000E+00 0. -1.
         23    2    1    2    0    0 -0.26251324997E+02  0.11061669661E+02 -0.57874428761E+02  0.11095006811E+03  0.90271676126E+02 0.  0.
          5    1    1    2  502    0  0.54486738562E+02 -0.25970524654E+00  0.13512319946E+03  0.14575535516E+03  0.41800000000E+01 0.  1.
         -5    1    1    2    0  502 -0.28235413565E+02 -0.10801964414E+02 -0.11216997329E+02  0.32514834207E+02  0.41800000000E+01 0.  1.
        -11    1    3    3    0    0 -0.16561696263E+02  0.24286371689E+02 -0.78952161247E+02  0.84247026051E+02  0.00000000000E+00 0. -1.
         11    1    3    3    0    0 -0.96896287339E+01 -0.13224702028E+02  0.21077732486E+02  0.26703042064E+02  0.00000000000E+00 0.  1.
</event>
<event>
 7    1  0.4096326E-006  0.8495149E+02  0.7561462E-02  0.1315559E+00
          1   -1    0    0  501    0  0.00000000000E+00  0.00000000000E+00  0.46317326336E+02  0.46317326336E+02  0.00000000000E+00 0. -1.
         -1   -1    0    0    0  501 -0.00000000000E+00 -0.00000000000E+00 -0.25658509424E+03  0.25658509424E+03  0.00000000000E+00 0.  1.
         23    2    1    2    0    0 -0.60972681702E+01 -0.11446964123E+02 -0.79841645713E+02  0.12171855983E+03  0.90953338318E+02 0.  0.
          5    1    1    2  502    0  0.44551519122E+02 -0.12369050709E+02 -0.37115687910E+01  0.46573376669E+02  0.41800000000E+01 0.  1.
         -5    1    1    2    0  502 -0.38454250951E+02  0.23816014833E+02 -0.12671455340E+03  0.13461048407E+03  0.41800000000E+01 0.  1.
        -11    1    3    3    0    0 -0.93427356471E+01  0.32586889814E+02 -0.68036747326E+02  0.76014413659E+02  0.00000000000E+00 0.  1.
         11    1    3    3    0    0  0.32454674768E+01 -0.44033853937E+02 -0.11804898387E+02  0.45704146176E+02  0.00000000000E+00 0. -1.
</event>
<event>
 7    1  0.4096326E-006  0.1618241E+03  0.7561462E-02  0.1186653E+00
          1   -1    0    0  501    0  0.00000000000E+00  0.00000000000E+00  0.23066658646E+03  0.23066658646E+03  0.00000000000E+00 0. -1.
         -1   -1    0    0    0  501 -0.00000000000E+00 -0.00000000000E+00 -0.13303637054E+03  0.13303637054E+03  0.00000000000E+00 0.  1.
         23    2    1    2    0    0  0.12690063726E+03 -0.34324213136E+02  0.85112924783E+02  0.18180884877E+03  0.92348926267E+02 0.  0.
          5    1    1    2  502    0 -0.12986387862E+03  0.55455576230E+02  0.40024205348E+02  0.14683105026E+03  0.41800000000E+01 0.  1.
         -5    1    1    2    0  502  0.29632413656E+01 -0.21131363094E+02 -0.27506914208E+02  0.35063057979E+02  0.41800000000E+01 0.  1.
        -11    1    3    3    0    0 -0.14253264857E+02  0.31352059034E+01  0.86040090965E+01  0.16941488945E+02  0.00000000000E+00 0.  1.
         11    1    3    3    0    0  0.14115390211E+03 -0.37459419039E+02  0.76508915686E+02  0.16486735983E+03  0.00000000000E+00 0. -1.
</event>
<event>
 7    1  0.4096326E-006  0.1094874E+03  0.7561462E-02  0.1261522E+00
         -1   -1    0    0    0  501 -0.00000000000E+00  0.00000000000E+00  0.22934503582E+03  0.22934503582E+03  0.00000000000E+00 0.  1.
          1   -1    0    0  501    0  0.00000000000E+00 -0.00000000000E+00 -0.55511374410E+02  0.55511374410E+02  0.00000000000E+00 0. -1.
         23    2    1    2    0    0  0.72007417164E+01 -0.27322466370E+02  0.51562359002E+02  0.10764706713E+03  0.90171205747E+02 0.  0.
          5    1    1    2  502    0 -0.48589997060E+02 -0.29741741394E+02  0.46742984061E+02  0.73810148044E+02  0.41800000000E+01 0. -1.
         -5    1    1    2    0  502  0.41389255343E+02  0.57064207764E+02  0.75528318345E+02  0.10339919505E+03  0.41800000000E+01 0. -1.
        -11    1    3    3    0    0 -0.37537542986E+02 -0.27436819432E+02  0.40258235729E+02  0.61502615700E+02  0.00000000000E+00 0.  1.
         11    1    3    3    0    0  0.44738284702E+02  0.11435306131E+00  0.11304123272E+02  0.46144451429E+02  0.00000000000E+00 0. -1.
</event>
<event>
 7    1  0.5157239E-006  0.2149351E+03  0.7561462E-02  0.1137716E+00
          1   -1    0    0  501    0  0.00000000000E+00  0.00000000000E+00  0.83461343477E+03  0.83461343477E+03  0.00000000000E+00 0. -1.
         -1   -1    0    0    0  501 -0.00000000000E+00 -0.00000000000E+00 -0.71958927358E+02  0.71958927358E+02  0.00000000000E+00 0.  1.
         23    2    1    2    0    0 -0.21144668401E+03 -0.19897064783E+01  0.47788982602E+03  0.53047101461E+03  0.91143581364E+02 0.  0.
          5    1    1    2  502    0  0.96987946928E+02 -0.18215029311E+02  0.42819932308E+02  0.10765439213E+03  0.41800000000E+01 0. -1.
         -5    1    1    2    0  502  0.11445873709E+03  0.20204735790E+02  0.24194474909E+03  0.26844695538E+03  0.41800000000E+01 0. -1.
        -11    1    3    3    0    0 -0.58147286675E+02  0.16349612597E+02  0.60714667987E+02  0.85642791223E+02  0.00000000000E+00 0.  1.
         11    1    3    3    0    0 -0.15329939734E+03 -0.18339319076E+02  0.41717515803E+03  0.44482822339E+03  0.00000000000E+00 0. -1.
</event>
<event>
 7    1  0.4096326E-006  0.1050559E+03  0.7561462E-02  0.1270010E+00
         -2   -1    0    0    0  501 -0.00000000000E+00  0.00000000000E+00  0.14494052634E+03  0.14494052634E+03  0.00000000000E+00 0.  1.
          2   -1    0    0  501    0  0.00000000000E+00 -0.00000000000E+00 -0.17539188529E+03  0.17539188529E+03  0.00000000000E+00 0. -1.
         23    2    1    2    0    0  0.46667933229E+02  0.42578899125E+02 -0.11237189693E+03  0.15800215426E+03  0.91358518428E+02 0.  0.
          5    1    1    2  502    0 -0.24764702958E+02  0.40724730801E+02  0.52932600973E+02  0.71352132815E+02  0.41800000000E+01 0.  1.
         -5    1    1    2    0  502 -0.21903230271E+02 -0.83303629926E+02  0.28987937001E+02  0.90978124550E+02  0.41800000000E+01 0.  1.
        -11    1    3    3    0    0  0.32896863898E+02  0.50404473984E+02 -0.18739572490E+02  0.63039560825E+02  0.00000000000E+00 0.  1.
         11    1    3    3    0    0  0.13771069331E+02 -0.78255748595E+01 -0.93632324436E+02  0.94962593434E+02  0.00000000000E+00 0. -1.
</event>
<event>
 7    1  0.4096326E-006  0.1102887E+03  0.7561462E-02  0.1260036E+00
         -3   -1    0    0    0  501 -0.00000000000E+00  0.00000000000E+00  0.28767920232E+03  0.28767920232E+03  0.00000000000E+00 0.  1.
          3   -1    0    0  501    0  0.00000000000E+00 -0.00000000000E+00 -0.49484172103E+02  0.49484172103E+02  0.00000000000E+00 0. -1.
         23    2    1    2    0    0  0.22366809163E+02  0.41500431473E+02  0.75124490002E+02  0.12630387166E+03  0.89924518531E+02 0.  0.
          5    1    1    2  502    0 -0.64693607563E+02  0.87570698503E+01  0.61308767787E+02  0.89655934212E+02  0.41800000000E+01 0.  1.
         -5    1    1    2    0  502  0.42326798400E+02 -0.50257501323E+02  0.10176177242E+03  0.12120356855E+03  0.41800000000E+01 0.  1.
        -11    1    3    3    0    0  0.14909747653E+02 -0.21343690798E+02  0.53373911507E+02  0.59385420277E+02  0.00000000000E+00 0.  1.
         11    1    3    3    0    0  0.74570615106E+01  0.62844122270E+02  0.21750578495E+02  0.66918451381E+02  0.00000000000E+00 0. -1.
</event>
<event>
 7    1  0.4096326E-006  0.1134928E+03  0.7561462E-02  0.1254235E+00
         -2   -1    0    0    0  501 -0.00000000000E+00  0.00000000000E+00  0.67930475157E+02  0.67930475157E+02  0.00000000000E+00 0.  1.
          2   -1    0    0  501    0  0.00000000000E+00 -0.00000000000E+00 -0.22098066463E+03  0.22098066463E+03  0.00000000000E+00 0. -1.
         23    2    1    2    0    0  0.28902382619E+02  0.39575151628E+02 -0.10522211937E+03  0.14630666254E+03  0.89064048585E+02 0.  0.
          5    1    1    2  502    0  0.45145023011E+02 -0.14873631274E+02  0.54181589403E+01  0.48022149642E+02  0.41800000000E+01 0.  1.
         -5    1    1    2    0  502 -0.74047405630E+02 -0.24701520354E+02 -0.53246229041E+02  0.94582327606E+02  0.41800000000E+01 0.  1.
        -11    1    3    3    0    0 -0.16622564208E+02  0.51435505249E+02 -0.48592269897E+02  0.72685139711E+02  0.00000000000E+00 0. -1.
         11    1    3    3    0    0  0.45524946827E+02 -0.11860353622E+02 -0.56629849474E+02  0.73621522825E+02  0.00000000000E+00 0.  1.
</event>
<event>
 7    1  0.4096326E-006  0.1297293E+03  0.7561462E-02  0.1227858E+00
         -1   -1    0    0    0  501 -0.00000000000E+00  0.00000000000E+00  0.55352134630E+03  0.55352134630E+03  0.00000000000E+00 0. -1.
          1   -1    0    0  501    0  0.00000000000E+00 -0.00000000000E+00 -0.41623770363E+02  0.41623770363E+02  0.00000000000E+00 0.  1.
         23    2    1    2    0    0  0.44931439281E+02  0.93731502152E+02  0.27962763019E+03  0.31159474609E+03  0.89973582196E+02 0.  0.
          5    1    1    2  502    0  0.33553017984E+02 -0.38799240615E+02  0.29672631564E+02  0.59406426858E+02  0.41800000000E+01 0. -1.
         -5    1    1    2    0  502 -0.78484457265E+02 -0.54932261538E+02  0.20259731418E+03  0.22414394371E+03  0.41800000000E+01 0. -1.
        -11    1    3    3    0    0 -0.46427804348E+01  0.34735638111E+02  0.19083772644E+03  0.19402875508E+03  0.00000000000E+00 0. -1.
         11    1    3    3    0    0  0.49574219716E+02  0.58995864042E+02  0.88789903759E+02  0.11756599102E+03  0.00000000000E+00 0.  1.
</event>
<event>
 7    1  0.4096326E-006  0.1437350E+03  0.7561462E-02  0.1208390E+00
          2   -1    0    0  501    0  0.00000000000E+00  0.00000000000E+00  0.23284239672E+03  0.23284239672E+03  0.00000000000E+00 0. -1.
         -2   -1    0    0    0  501 -0.00000000000E+00 -0.00000000000E+00 -0.12654251972E+03  0.12654251972E+03  0.00000000000E+00 0.  1.
         23    2    1    2    0    0  0.88294664697E+02 -0.98481242143E+02  0.76273917541E+02  0.17487717041E+03  0.85263188814E+02 0.  0.
          5    1    1    2  502    0 -0.62485481454E+02  0.98021043735E+02 -0.29060113687E+02  0.11989379890E+03  0.41800000000E+01 0. -1.
         -5    1    1    2    0  502 -0.25809183243E+02  0.46019840858E+00  0.59086073151E+02  0.64613947122E+02  0.41800000000E+01 0. -1.
        -11    1    3    3    0    0  0.89854450016E+02 -0.63598993286E+02  0.84770316798E+02  0.13894121327E+03  0.00000000000E+00 0. -1.
         11    1    3    3    0    0 -0.15597853190E+01 -0.34882248857E+02 -0.84963992567E+01  0.35935957144E+02  0.00000000000E+00 0.  1.
</event>
<event>
 7    1  0.4096326E-006  0.3280467E+03  0.7561462E-02  0.1072004E+00
          1   -1    0    0  501    0  0.00000000000E+00  0.00000000000E+00  0.11578229503E+04  0.11578229503E+04  0.00000000000E+00 0. -1.
         -1   -1    0    0    0  501 -0.00000000000E+00 -0.00000000000E+00 -0.98467394055E+02  0.98467394055E+02  0.00000000000E+00 0.  1.
         23    2    1    2    0    0 -0.31582197609E+03  0.29017379436E+02  0.58625278013E+03  0.67314536948E+03  0.94057627871E+02 0.  0.
          5    1    1    2  502    0  0.15510220935E+03  0.25811499406E+02  0.14620276647E+03  0.21474554750E+03  0.41800000000E+01 0.  1.
         -5    1    1    2    0  502  0.16071976674E+03 -0.54828878842E+02  0.32690000961E+03  0.36839942733E+03  0.41800000000E+01 0.  1.
        -11    1    3    3    0    0 -0.25756496868E+03 -0.11748399118E+02  0.48714472060E+03  0.55116940843E+03  0.00000000000E+00 0. -1.
         11    1    3    3    0    0 -0.58257007408E+02  0.40765778554E+02  0.99108059521E+02  0.12197596106E+03  0.00000000000E+00 0.  1.
</event>
<event>
 7    1  0.4096326E-006  0.1520677E+03  0.7561462E-02  0.1197955E+00
          1   -1    0    0  501    0  0.00000000000E+00  0.00000000000E+00  0.27874005236E+03  0.27874005236E+03  0.00000000000E+00 0. -1.
         -1   -1    0    0    0  501 -0.00000000000E+00 -0.00000000000E+00 -0.11776586040E+03  0.11776586040E+03  0.00000000000E+00 0.  1.
         23    2    1    2    0    0 -0.92335951036E+02  0.67242396587E+02  0.17239197131E+03  0.22665216870E+03  0.92761770415E+02 0.  0.
          5    1    1    2  502    0  0.12255957444E+03 -0.54766312963E+02 -0.20014920576E+02  0.13578758326E+03  0.41800000000E+01 0.  1.
         -5    1    1    2    0  502 -0.30223623405E+02 -0.12476083623E+02  0.85971412335E+01  0.34066160800E+02  0.41800000000E+01 0.  1.
        -11    1    3    3    0    0  0.12135635671E+02 -0.84837769020E+00 -0.19313904541E+01  0.12317616122E+02  0.00000000000E+00 0.  1.
         11    1    3    3    0    0 -0.10447158671E+03  0.68090774277E+02  0.17432336176E+03  0.21433455257E+03  0.00000000000E+00 0. -1.
</event>
<event>
 7    1  0.4096326E-006  0.3298329E+03  0.7561462E-02  0.1071211E+00
          2   -1    0    0  501    0  0.00000000000E+00  0.00000000000E+00  0.11491845935E+04  0.11491845935E+04  0.00000000000E+00 0. -1.
         -2   -1    0    0    0  501 -0.00000000000E+00 -0.00000000000E+00 -0.95519911076E+02  0.95519911076E+02  0.00000000000E+00 0.  1.
         23    2    1    2    0    0 -0.18012636191E+02 -0.62773972141E+02  0.21317487627E+03  0.24016627995E+03  0.89282067143E+02 0.  0.
          5    1    1    2  502    0 -0.25511503583E+03  0.98723209574E+02  0.44994210683E+03  0.52658838338E+03  0.41800000000E+01 0. -1.
         -5    1    1    2    0  502  0.27312767202E+03 -0.35949237432E+02  0.39054769933E+03  0.47794984124E+03  0.41800000000E+01 0.  1.
        -11    1    3    3    0    0 -0.45871299798E+02 -0.68194699588E+02  0.16155702642E+03  0.18126049206E+03  0.00000000000E+00 0. -1.
         11    1    3    3    0    0  0.27858663607E+02  0.54207274463E+01  0.51617849851E+02  0.58905787893E+02  0.00000000000E+00 0.  1.
</event>
<event>
 7    1  0.4096326E-006  0.7040678E+02  0.7561462E-02  0.1358715E+00
          3   -1    0    0  501    0  0.00000000000E+00  0.00000000000E+00  0.37180312168E+02  0.37180312168E+02  0.00000000000E+00 0. -1.
         -3   -1    0    0    0  501 -0.00000000000E+00 -0.00000000000E+00 -0.31720303871E+03  0.31720303871E+03  0.00000000000E+00 0.  1.
         23    2    1    2    0    0  0.39607193066E+01  0.25004042204E+01 -0.72105481944E+02  0.11356263129E+03  0.87608968608E+02 0.  0.
          5    1    1    2  502    0  0.10746718996E+02 -0.51995670495E+02 -0.16552717251E+03  0.17388432637E+03  0.41800000000E+01 0. -1.
         -5    1    1    2    0  502 -0.14707438303E+02  0.49495266274E+02 -0.42390072092E+02  0.66936393217E+02  0.41800000000E+01 0.  1.
        -11    1    3    3    0    0 -0.81882231337E+01  0.15764682960E+02 -0.87868294612E+02  0.89646022917E+02  0.00000000000E+00 0.  1.
         11    1    3    3    0    0  0.12148942440E+02 -0.13264278740E+02  0.15762812667E+02  0.23916608374E+02  0.00000000000E+00 0. -1.
</event>
<event>
 7    1  0.4096326E-006  0.1085760E+03  0.7561462E-02  0.1263230E+00
          2   -1    0    0  501    0  0.00000000000E+00  0.00000000000E+00  0.23049155150E+02  0.23049155150E+02  0.00000000000E+00 0. -1.
         -2   -1    0    0    0  501 -0.00000000000E+00 -0.00000000000E+00 -0.57122761750E+03  0.57122761750E+03  0.00000000000E+00 0.  1.
         23    2    1    2    0    0  0.33472390306E+02  0.77024735595E+01 -0.19935426804E+03  0.22211333519E+03  0.91719575198E+02 0.  0.
          5    1    1    2  502    0  0.73601885162E+01  0.53490984749E+02 -0.11733855572E+03  0.12923338145E+03  0.41800000000E+01 0.  1.
         -5    1    1    2    0  502 -0.40832578822E+02 -0.61193458309E+02 -0.23148563860E+03  0.24293005600E+03  0.41800000000E+01 0.  1.
        -11    1    3    3    0    0 -0.80642128538E+01 -0.31306545302E+02 -0.32684134137E+02  0.45971555684E+02  0.00000000000E+00 0. -1.
         11    1    3    3    0    0  0.41536603160E+02  0.39009018862E+02 -0.16667013390E+03  0.17614177951E+03  0.00000000000E+00 0.  1.
</event>
<event>
 7    1  0.4096326E-006  0.1075985E+03  0.7561462E-02  0.1265083E+00
         -2   -1    0    0    0  501 -0.00000000000E+00  0.00000000000E+00  0.22268757552E+02  0.22268757552E+02  0.00000000000E+00 0.  1.
          2   -1    0    0  501    0  0.00000000000E+00 -0.00000000000E+00 -0.59969865462E+03  0.59969865462E+03  0.00000000000E+00 0. -1.
         23    2    1    2    0    0  0.13601981942E+02  0.27124258560E+02 -0.25157744903E+03  0.27161323143E+03  0.97784432874E+02 0.  0.
          5    1    1    2  502    0 -0.63307710063E+02 -0.73210197974E+01 -0.10352053701E+03  0.12163649727E+03  0.41800000000E+01 0. -1.
         -5    1    1    2    0  502  0.49705728121E+02 -0.19803238763E+02 -0.22233191103E+03  0.22871768347E+03  0.41800000000E+01 0. -1.
        -11    1    3    3    0    0  0.27911903644E+02  0.57593002579E+02 -0.20028078791E+03  0.21025798990E+03  0.00000000000E+00 0.  1.
         11    1    3    3    0    0 -0.14309921701E+02 -0.30468744018E+02 -0.51296661118E+02  0.61355241529E+02  0.00000000000E+00 0. -1.
</event>
<event>
 7    1  0.4096326E-006  0.8571070E+02  0.7561462E-02  0.1313584E+00
         -1   -1    0    0    0  501 -0.00000000000E+00  0.00000000000E+00  0.16910774106E+03  0.16910774106E+03  0.00000000000E+00 0.  1.
          1   -1    0    0  501    0  0.00000000000E+00 -0.00000000000E+00 -0.89740434077E+02  0.89740434077E+02  0.00000000000E+00 0. -1.
         23    2    1    2    0    0 -0.54023453997E+02 -0.25224365100E+02  0.26183979903E+02  0.11042177440E+03  0.89177156723E+02 0.  0.
          5    1    1    2  502    0  0.51086794014E+02 -0.27832245073E+02  0.71311054113E+02  0.92126181008E+02  0.41800000000E+01 0.  1.
         -5    1    1    2    0  502  0.29366599828E+01  0.53056610172E+02 -0.18127727030E+02  0.56300219734E+02  0.41800000000E+01 0.  1.
        -11    1    3    3    0    0 -0.33362481594E+02 -0.13134961675E+02  0.59457648539E+02  0.69431940533E+02  0.00000000000E+00 0.  1.
         11    1    3    3    0    0 -0.20660972403E+02 -0.12089403424E+02 -0.33273668636E+02  0.40989833865E+02  0.00000000000E+00 0. -1.
</event>
<event>
 7    1  0.4096326E-006  0.1034472E+03  0.7561462E-02  0.1273210E+00
          2   -1    0    0  501    0  0.00000000000E+00  0.00000000000E+00  0.42109487360E+02  0.42109487360E+02  0.00000000000E+00 0. -1.
         -2   -1    0    0    0  501 -0.00000000000E+00 -0.00000000000E+00 -0.30168783298E+03  0.30168783298E+03  0.00000000000E+00 0.  1.
         23    2    1    2    0    0  0.49863152205E+01 -0.24128033641E+02 -0.83186007456E+02  0.12614974642E+03  0.91579590181E+02 0.  0.
          5    1    1    2  502    0 -0.38209993322E+02  0.63637092457E+02 -0.11925908526E+03  0.14053428387E+03  0.41800000000E+01 0. -1.
         -5    1    1    2    0  502  0.33223678101E+02 -0.39509058816E+02 -0.57133252902E+02  0.77113290049E+02  0.41800000000E+01 0. -1.
        -11    1    3    3    0    0  0.30665556037E+02 -0.40127504271E+02 -0.16850758713E+02  0.53240407542E+02  0.00000000000E+00 0. -1.
         11    1    3    3    0    0 -0.25679240816E+02  0.15999470630E+02 -0.66335248743E+02  0.72909338875E+02  0.00000000000E+00 0.  1.
</event>
<event>
 7    1  0.4096326E-006  0.1469642E+03  0.7561462E-02  0.1204254E+00
         -1   -1    0    0    0  501 -0.00000000000E+00  0.00000000000E+00  0.14524290800E+04  0.14524290800E+04  0.00000000000E+00 0.  1.
          1   -1    0    0  501    0  0.00000000000E+00 -0.00000000000E+00 -0.49157526431E+02  0.49157526431E+02  0.00000000000E+00 0. -1.
         23    2    1    2    0    0  0.12553569915E+03 -0.20358922554E+02  0.99684183550E+02  0.18585043024E+03  0.91813661732E+02 0.  0.
          5    1    1    2  502    0 -0.79377089824E+02 -0.12973305897E+02  0.11328102769E+04  0.11356696813E+04  0.41800000000E+01 0.  1.
         -5    1    1    2    0  502 -0.46158609324E+02  0.33332228451E+02  0.17077709312E+03  0.18006649495E+03  0.41800000000E+01 0.  1.
        -11    1    3    3    0    0  0.50546135841E+02 -0.54127590784E+02  0.39458606436E+02  0.83914775542E+02  0.00000000000E+00 0. -1.
         11    1    3    3    0    0  0.74989563307E+02  0.33768668230E+02  0.60225577113E+02  0.10193565469E+03  0.00000000000E+00 0.  1.
</event>
<event>
 7    1  0.4096326E-006  0.9899415E+02  0.7561462E-02  0.1282425E+00
         -1   -1    0    0    0  501 -0.00000000000E+00  0.00000000000E+00  0.91770798166E+02  0.91770798166E+02  0.00000000000E+00 0.  1.
          1   -1    0    0  501    0  0.00000000000E+00 -0.00000000000E+00 -0.24464232344E+03  0.24464232344E+03  0.00000000000E+00 0. -1.
         23    2    1    2    0    0 -0.66959871538E+02 -0.70064584934E+02 -0.11076859101E+03  0.17266503827E+03  0.90282136826E+02 0.  0.
          5    1    1    2  502    0  0.47024517489E+02  0.40236344827E+02 -0.86545196108E+02  0.10647916256E+03  0.41800000000E+01 0. -1.
         -5    1    1    2    0  502  0.19935354049E+02  0.29828240107E+02  0.44442261842E+02  0.57268920773E+02  0.41800000000E+01 0. -1.
        -11    1    3    3    0    0 -0.43938177929E+02 -0.28644347914E+02 -0.11367060999E+03  0.12518813731E+03  0.00000000000E+00 0. -1.
         11    1    3    3    0    0 -0.23021693609E+02 -0.41420237020E+02  0.29020189788E+01  0.47476900968E+02  0.00000000000E+00 0.  1.
</event>
<event>
 7    1  0.4096326E-006  0.7115878E+02  0.7561462E-02  0.1356196E+00
         -4   -1    0    0    0  501 -0.00000000000E+00  0.00000000000E+00  0.21499157706E+03  0.21499157706E+03  0.00000000000E+00 0.  1.
          4   -1    0    0  501    0  0.00000000000E+00 -0.00000000000E+00 -0.52628023129E+02  0.52628023129E+02  0.00000000000E+00 0. -1.
         23    2    1    2    0    0  0.13956174005E+02 -0.19553624638E+02  0.61621653674E+02  0.10521987180E+03  0.81834431575E+02 0.  0.
          5    1    1    2  502    0  0.73768906406E+01  0.60151392298E+02  0.99200836784E+02  0.11632234063E+03  0.41800000000E+01 0. -1.
         -5    1    1    2    0  502 -0.21333064646E+02 -0.40597767660E+02  0.15410634759E+01  0.46077387760E+02  0.41800000000E+01 0. -1.
        -11    1    3    3    0    0  0.13134102383E+02  0.25681907814E+01  0.77071341333E+02  0.78224624666E+02  0.00000000000E+00 0.  1.
         11    1    3    3    0    0  0.82207162194E+00 -0.22121815420E+02 -0.15449687659E+02  0.26995247137E+02  0.00000000000E+00 0. -1.
</event>
<event>
 7    1  0.4096326E-006  0.1195380E+03  0.7561462E-02  0.1243861E+00
         -2   -1    0    0    0  501 -0.00000000000E+00  0.00000000000E+00  0.14885947678E+03  0.14885947678E+03  0.00000000000E+00 0. -1.
          2   -1    0    0  501    0  0.00000000000E+00 -0.00000000000E+00 -0.13337110088E+03  0.13337110088E+03  0.00000000000E+00 0.  1.
         23    2    1    2    0    0 -0.23911530100E+01 -0.88554056837E+02 -0.66974086295E+01  0.12735938221E+03  0.91257976966E+02 0.  0.
          5    1    1    2  502    0  0.50520182881E+02  0.13809819282E+01  0.21818142496E+02  0.55205975504E+02  0.41800000000E+01 0.  1.
         -5    1    1    2    0  502 -0.48129029871E+02  0.87173074908E+02  0.36764203498E+00  0.99665219942E+02  0.41800000000E+01 0.  1.
        -11    1    3    3    0    0  0.77295115963E+00 -0.52883992018E+02 -0.48885961517E+02  0.72021880695E+02  0.00000000000E+00 0.  1.
         11    1    3    3    0    0 -0.31641041697E+01 -0.35670064818E+02  0.42188552888E+02  0.55337501517E+02  0.00000000000E+00 0. -1.
</event>
<event>
 7    1  0.4096326E-006  0.1094075E+03  0.7561462E-02  0.1261671E+00
         -2   -1    0    0    0  501 -0.00000000000E+00  0.00000000000E+00  0.68745799071E+02  0.68745799071E+02  0.00000000000E+00 0.  1.
          2   -1    0    0  501    0  0.00000000000E+00 -0.00000000000E+00 -0.27674488782E+03  0.27674488782E+03  0.00000000000E+00 0. -1.
         23    2    1    2    0    0  0.15654660307E+01  0.62605592887E+02 -0.16623345639E+03  0.19948834417E+03  0.90775142490E+02 0.  0.
          5    1    1    2  502    0 -0.36998401162E+02  0.19697473927E+02  0.87942240101E+01  0.43031185710E+02  0.41800000000E+01 0. -1.
         -5    1    1    2    0  502  0.35432935132E+02 -0.82303066814E+02 -0.50559856371E+02  0.10297115701E+03  0.41800000000E+01 0. -1.
        -11    1    3    3    0    0  0.29911520213E+02  0.43549388087E+02 -0.33795214928E+02  0.62716543242E+02  0.00000000000E+00 0.  1.
         11    1    3    3    0    0 -0.28346054182E+02  0.19056204800E+02 -0.13243824146E+03  0.13677180093E+03  0.00000000000E+00 0. -1.
</event>
<event>
 7    1  0.4096326E-006  0.1032666E+03  0.7561462E-02  0.1273573E+00
          1   -1    0    0  501    0  0.00000000000E+00  0.00000000000E+00  0.22781024164E+03  0.22781024164E+03  0.00000000000E+00 0. -1.
         -1   -1    0    0    0  501 -0.00000000000E+00 -0.00000000000E+00 -0.86671962133E+02  0.86671962133E+02  0.00000000000E+00 0.  1.
         23    2    1    2    0    0 -0.49636736075E+02 -0.70329271692E+02  0.35514976442E+02  0.12951361867E+03  0.90013620322E+02 0.  0.
          5    1    1    2  502    0 -0.69204500410E+01 -0.13715894455E+02 -0.18689726877E+02  0.24551918056E+02  0.41800000000E+01 0.  1.
         -5    1    1    2    0  502  0.56557186116E+02  0.84045166147E+02  0.12431302994E+03  0.16041666705E+03  0.41800000000E+01 0.  1.
        -11    1    3    3    0    0 -0.49926152450E+02 -0.56531107152E+02 -0.15214183468E+02  0.76940614456E+02  0.00000000000E+00 0.  1.
         11    1    3    3    0    0  0.28941637492E+00 -0.13798164540E+02  0.50729159910E+02  0.52573004210E+02  0.00000000000E+00 0. -1.
</event>
<event>
 7    1  0.4096326E-006  0.1977322E+03  0.7561462E-02  0.1151667E+00
         -1   -1    0    0    0  501 -0.00000000000E+00  0.00000000000E+00  0.35423553201E+02  0.35423553201E+02  0.00000000000E+00 0.  1.
          1   -1    0    0  501    0  0.00000000000E+00 -0.00000000000E+00 -0.12724285816E+04  0.12724285816E+04  0.00000000000E+00 0. -1.
         23    2    1    2    0    0 -0.15817553279E+03 -0.79427668478E+02 -0.73093149426E+03  0.75733921251E+03  0.89294903592E+02 0.  0.
          5    1    1    2  502    0  0.13499308032E+03  0.20594449463E+02 -0.43169364178E+03  0.45279590969E+03  0.41800000000E+01 0. -1.
         -5    1    1    2    0  502  0.23182452471E+02  0.58833219015E+02 -0.74379892329E+02  0.97717012568E+02  0.41800000000E+01 0. -1.
        -11    1    3    3    0    0 -0.72611565714E+02 -0.82435688603E+02 -0.47218809483E+03  0.48479859646E+03  0.00000000000E+00 0.  1.
         11    1    3    3    0    0 -0.85563967078E+02  0.30080201243E+01 -0.25874339943E+03  0.27254061605E+03  0.00000000000E+00 0. -1.
</event>
<event>
 7    1  0.4096326E-006  0.2412547E+03  0.7561462E-02  0.1118960E+00
          2   -1    0    0  501    0  0.00000000000E+00  0.00000000000E+00  0.71638521366E+03  0.71638521366E+03  0.00000000000E+00 0. -1.
         -2   -1    0    0    0  501 -0.00000000000E+00 -0.00000000000E+00 -0.84523229108E+02  0.84523229108E+02  0.00000000000E+00 0.  1.
         23    2    1    2    0    0  0.11075343060E+03  0.18896347326E+03  0.36580604029E+03  0.43428744453E+03  0.82571234355E+02 0.  0.
          5    1    1    2  502    0  0.83694500704E+01 -0.99332788179E+02  0.78213805288E+02  0.12677508525E+03  0.41800000000E+01 0. -1.
         -5    1    1    2    0  502 -0.11912288067E+03 -0.89630685079E+02  0.18784213897E+03  0.23984591300E+03  0.41800000000E+01 0. -1.
        -11    1    3    3    0    0  0.84337139186E+02  0.63986516888E+02  0.17960213789E+03  0.20848010774E+03  0.00000000000E+00 0.  1.
         11    1    3    3    0    0  0.26416291416E+02  0.12497695637E+03  0.18620390241E+03  0.22580733679E+03  0.00000000000E+00 0. -1.
</event>
<event>
 7    1  0.4096326E-006  0.2470181E+03  0.7561462E-02  0.1115204E+00
          1   -1    0    0  501    0  0.00000000000E+00  0.00000000000E+00  0.82970762135E+03  0.82970762135E+03  0.00000000000E+00 0. -1.
         -1   -1    0    0    0  501 -0.00000000000E+00 -0.00000000000E+00 -0.77887818788E+02  0.77887818788E+02  0.00000000000E+00 0.  1.
         23    2    1    2    0    0  0.22556968831E+03  0.35885233770E+02  0.39618758207E+03  0.46681207372E+03  0.93698867115E+02 0.  0.
          5    1    1    2  502    0 -0.99918158889E+02 -0.72108409583E+02  0.12467111142E+03  0.17533858569E+03  0.41800000000E+01 0.  1.
         -5    1    1    2    0  502 -0.12565152942E+03  0.36223175813E+02  0.23096110908E+03  0.26544478073E+03  0.41800000000E+01 0.  1.
        -11    1    3    3    0    0  0.20291105393E+03  0.67802164882E+01  0.28690901961E+03  0.35147638993E+03  0.00000000000E+00 0.  1.
         11    1    3    3    0    0  0.22658634380E+02  0.29105017282E+02  0.10927856246E+03  0.11533568379E+03  0.00000000000E+00 0. -1.
</event>
<event>
 7    1  0.4096326E-006  0.1702690E+03  0.7561462E-02  0.1177568E+00
          1   -1    0    0  501    0  0.00000000000E+00  0.00000000000E+00  0.98181657455E+03  0.98181657455E+03  0.00000000000E+00 0.  1.
         -1   -1    0    0    0  501 -0.00000000000E+00 -0.00000000000E+00 -0.34514377292E+02  0.34514377292E+02  0.00000000000E+00 0. -1.
         23    2    1    2    0    0 -0.21481869197E+02  0.13271837131E+03  0.61991817725E+03  0.64096083720E+03  0.91959836612E+02 0.  0.
          5    1    1    2  502    0 -0.24660494431E+02  0.13945960515E+02  0.37224906782E+02  0.46965901303E+02  0.41800000000E+01 0.  1.
         -5    1    1    2    0  502  0.46142363628E+02 -0.14666433183E+03  0.29015911323E+03  0.32840421335E+03  0.41800000000E+01 0.  1.
        -11    1    3    3    0    0  0.32168108192E+02  0.53139446932E+02  0.32293127065E+03  0.32885132441E+03  0.00000000000E+00 0.  1.
         11    1    3    3    0    0 -0.53649977389E+02  0.79578924382E+02  0.29698690660E+03  0.31210951279E+03  0.00000000000E+00 0. -1.
</event>
<event>
 7    1  0.4096326E-006  0.1017540E+03  0.7561462E-02  0.1276650E+00
         -2   -1    0    0    0  501 -0.00000000000E+00  0.00000000000E+00  0.15227210112E+02  0.15227210112E+02  0.00000000000E+00 0.  1.
          2   -1    0    0  501    0  0.00000000000E+00 -0.00000000000E+00 -0.81696320497E+03  0.81696320497E+03  0.00000000000E+00 0. -1.
         23    2    1    2    0    0  0.21531478627E+02 -0.18067808046E+02 -0.36082142370E+03  0.37301381677E+03  0.90316983094E+02 0.  0.
          5    1    1    2  502    0  0.44562601203E+02  0.71980853429E+01 -0.29630334157E+03  0.29975119764E+03  0.41800000000E+01 0. -1.
         -5    1    1    2    0  502 -0.66094079830E+02  0.10869722703E+02 -0.14461122959E+03  0.15942540068E+03  0.41800000000E+01 0. -1.
        -11    1    3    3    0    0  0.45638094856E+01  0.35026649382E+02 -0.93654549145E+02  0.10009430103E+03  0.00000000000E+00 0.  1.
         11    1    3    3    0    0  0.16967669142E+02 -0.53094457428E+02 -0.26716687456E+03  0.27291951573E+03  0.00000000000E+00 0. -1.
</event>
<event>
 7    1  0.4096326E-006  0.9887991E+02  0.7561462E-02  0.1282669E+00
          1   -1    0    0  501    0  0.00000000000E+00  0.00000000000E+00  0.30969398510E+02  0.30969398510E+02  0.00000000000E+00 0. -1.
         -1   -1    0    0    0  501 -0.00000000000E+00 -0.00000000000E+00 -0.40702901915E+03  0.40702901915E+03  0.00000000000E+00 0.  1.
         23    2    1    2    0    0  0.13770051199E+02 -0.14803739887E+02 -0.11569407201E+03  0.14839764762E+03  0.90708205228E+02 0.  0.
          5    1    1    2  502    0  0.44448517030E+02 -0.62261044270E+01 -0.19225825928E+03  0.19747188586E+03  0.41800000000E+01 0.  1.
         -5    1    1    2    0  502 -0.58218568229E+02  0.21029844314E+02 -0.68107289346E+02  0.92128884181E+02  0.41800000000E+01 0.  1.
        -11    1    3    3    0    0  0.62442902864E+01 -0.52161301056E+02 -0.82784472914E+02  0.98046220960E+02  0.00000000000E+00 0.  1.
         11    1    3    3    0    0  0.75257609122E+01  0.37357561169E+02 -0.32909599096E+02  0.50351426657E+02  0.00000000000E+00 0. -1.
</event>
<event>
 7    1  0.4096326E-006  0.1008189E+03  0.7561462E-02  0.1278583E+00
          1   -1    0    0  501    0  0.00000000000E+00  0.00000000000E+00  0.23411148587E+03  0.23411148587E+03  0.00000000000E+00 0. -1.
         -1   -1    0    0    0  501 -0.00000000000E+00 -0.00000000000E+00 -0.63160292782E+02  0.63160292782E+02  0.00000000000E+00 0.  1.
         23    2    1    2    0    0 -0.32474118655E+02 -0.20905615470E+02  0.12357390533E+03  0.15804270514E+03  0.90638697197E+02 0.  0.
          5    1    1    2  502    0  0.58434303671E+02  0.40828146298E+02  0.69390658422E+02  0.99569278655E+02  0.41800000000E+01 0.  1.
         -5    1    1    2    0  502 -0.25960185017E+02 -0.19922530828E+02 -0.22013370658E+02  0.39659794861E+02  0.41800000000E+01 0.  1.
        -11    1    3    3    0    0  0.14319455190E+02 -0.43125012382E+02  0.70533775643E+02  0.83903676894E+02  0.00000000000E+00 0.  1.
         11    1    3    3    0    0 -0.46793573845E+02  0.22219396912E+02  0.53040129683E+02  0.74139028245E+02  0.00000000000E+00 0. -1.
</event>
<event>
 7    1  0.4096326E-006  0.9142765E+02  0.7561462E-02  0.1299431E+00
          1   -1    0    0  501    0  0.00000000000E+00  0.00000000000E+00  0.35445969669E+02  0.35445969669E+02  0.00000000000E+00 0. -1.
         -1   -1    0    0    0  501 -0.00000000000E+00 -0.00000000000E+00 -0.62133235767E+03  0.62133235767E+03  0.00000000000E+00 0.  1.
         23    2    1    2    0    0 -0.18021050935E+02  0.14716673376E+02 -0.53305647295E+02  0.10921022136E+03  0.92433985437E+02 0.  0.
          5    1    1    2  502    0  0.30834086363E+02 -0.51391250441E+02 -0.46977091691E+03  0.47359686262E+03  0.41800000000E+01 0. -1.
         -5    1    1    2    0  502 -0.12813035428E+02  0.36674577065E+02 -0.62809823800E+02  0.73971243369E+02  0.41800000000E+01 0. -1.
        -11    1    3    3    0    0  0.24420846051E+02  0.29921469501E+02  0.99324659495E+00  0.38634940115E+02  0.00000000000E+00 0. -1.
         11    1    3    3    0    0 -0.42441896986E+02 -0.15204796125E+02 -0.54298893890E+02  0.70575281244E+02  0.00000000000E+00 0.  1.
</event>
<event>
 7    1  0.4096326E-006  0.1079030E+03  0.7561462E-02  0.1264503E+00
          2   -1    0    0  501    0  0.00000000000E+00  0.00000000000E+00  0.81136839899E+02  0.81136839899E+02  0.00000000000E+00 0. -1.
         -2   -1    0    0    0  501 -0.00000000000E+00 -0.00000000000E+00 -0.22077475209E+03  0.22077475209E+03  0.00000000000E+00 0.  1.
         23    2    1    2    0    0 -0.31942087678E+02 -0.64648973353E+02 -0.25604677870E+02  0.11792431368E+03  0.89726013554E+02 0.  0.
          5    1    1    2  502    0  0.51976186411E+02  0.92500016591E+02 -0.66762199745E+02  0.12542902670E+03  0.41800000000E+01 0. -1.
         -5    1    1    2    0  502 -0.20034098733E+02 -0.27851043237E+02 -0.47271034574E+02  0.58558251606E+02  0.41800000000E+01 0. -1.
        -11    1    3    3    0    0 -0.17810519165E+01 -0.25873076569E+02 -0.54907164644E+02  0.60723841828E+02  0.00000000000E+00 0.  1.
         11    1    3    3    0    0 -0.30161035761E+02 -0.38775896784E+02  0.29302486773E+02  0.57200471857E+02  0.00000000000E+00 0. -1.
</event>
<event>
 7    1  0.4096326E-006  0.1740760E+03  0.7561462E-02  0.1173663E+00
         -4   -1    0    0    0  501 -0.00000000000E+00  0.00000000000E+00  0.90990669582E+02  0.90990669582E+02  0.00000000000E+00 0.  1.
          4   -1    0    0  501    0  0.00000000000E+00 -0.00000000000E+00 -0.42426864700E+03  0.42426864700E+03  0.00000000000E+00 0. -1.
         23    2    1    2    0    0  0.14076067018E+03 -0.66665002861E+02 -0.21968501031E+03  0.28545666460E+03  0.94690098388E+02 0.  0.
          5    1    1    2  502    0 -0.44690077096E+02 -0.23960544198E+02 -0.77702558441E+02  0.92878795520E+02  0.41800000000E+01 0.  1.
         -5    1    1    2    0  502 -0.96070593080E+02  0.90625547059E+02 -0.35890408663E+02  0.13692385646E+03  0.41800000000E+01 0.  1.
        -11    1    3    3    0    0  0.74483240441E+01 -0.24051126080E+02 -0.23971155287E+00  0.25179190980E+02  0.00000000000E+00 0.  1.
         11    1    3    3    0    0  0.13331234613E+03 -0.42613876781E+02 -0.21944529876E+03  0.26027747362E+03  0.00000000000E+00 0. -1.
</event>
<event>
 7    1  0.4096326E-006  0.1141181E+03  0.7561462E-02  0.1253128E+00
         -4   -1    0    0    0  501 -0.00000000000E+00  0.00000000000E+00  0.18508232411E+02  0.18508232411E+02  0.00000000000E+00 0.  1.
          4   -1    0    0  501    0  0.00000000000E+00 -0.00000000000E+00 -0.82138238155E+03  0.82138238155E+03  0.00000000000E+00 0. -1.
         23    2    1    2    0    0  0.27336139879E+02  0.47330295119E+02 -0.33194573593E+03  0.34957664478E+03  0.95018090856E+02 0.  0.
          5    1    1    2  502    0 -0.68864042604E+02 -0.57849986800E+02 -0.36575141198E+03  0.37667020735E+03  0.41800000000E+01 0. -1.
         -5    1    1    2    0  502  0.41527902725E+02  0.10519691681E+02 -0.10517700123E+03  0.11364376184E+03  0.41800000000E+01 0. -1.
        -11    1    3    3    0    0 -0.51614126765E+01  0.60041367413E+02 -0.28372555090E+03  0.29005481244E+03  0.00000000000E+00 0. -1.
         11    1    3    3    0    0  0.32497552555E+02 -0.12711072293E+02 -0.48220185027E+02  0.59521832339E+02  0.00000000000E+00 0.  1.
</event>
<event>
 7    1  0.4096326E-006  0.5570157E+02  0.7561462E-02  0.1416810E+00
         -1   -1    0    0    0  501 -0.00000000000E+00  0.00000000000E+00  0.46463832380E+02  0.46463832380E+02  0.00000000000E+00 0.  1.
          1   -1    0    0  501    0  0.00000000000E+00 -0.00000000000E+00 -0.23375201574E+03  0.23375201574E+03  0.00000000000E+00 0. -1.
         23    2    1    2    0    0  0.18475650220E+01  0.85887793582E+01 -0.76768671354E+02  0.11306538267E+03  0.82541936185E+02 0.  0.
          5    1    1    2  502    0 -0.14843587559E+02 -0.44426379246E+01 -0.13653747044E+03  0.13747735216E+03  0.41800000000E+01 0. -1.
         -5    1    1    2    0  502  0.12996022537E+02 -0.41461414336E+01  0.26017958440E+02  0.29673113283E+02  0.41800000000E+01 0. -1.
        -11    1    3    3    0    0  0.39888458223E+02  0.14794824798E+02 -0.28114924082E+02  0.50994361418E+02  0.00000000000E+00 0.  1.
         11    1    3    3    0    0 -0.38040893201E+02 -0.62060454400E+01 -0.48653747271E+02  0.62071021251E+02  0.00000000000E+00 0. -1.
</event>
<event>
 7    1  0.4096326E-006  0.1273436E+03  0.7561462E-02  0.1231451E+00
          1   -1    0    0  501    0  0.00000000000E+00  0.00000000000E+00  0.95308066272E+03  0.95308066272E+03  0.00000000000E+00 0. -1.
         -1   -1    0    0    0  501 -0.00000000000E+00 -0.00000000000E+00 -0.23504093453E+02  0.23504093453E+02  0.00000000000E+00 0.  1.
         23    2    1    2    0    0  0.27694446089E+02 -0.97859280698E+02  0.46555475292E+03  0.48535214009E+03  0.92098049713E+02 0.  0.
          5    1    1    2  502    0 -0.63514568374E+00  0.95138415098E+02  0.16168672848E+03  0.18764805356E+03  0.41800000000E+01 0.  1.
         -5    1    1    2    0  502 -0.27059300405E+02  0.27208655991E+01  0.30233508787E+03  0.30358456253E+03  0.41800000000E+01 0.  1.
        -11    1    3    3    0    0  0.53863620670E+02 -0.36037544349E+02  0.16240559613E+03  0.17485871980E+03  0.00000000000E+00 0.  1.
         11    1    3    3    0    0 -0.26169174581E+02 -0.61821736348E+02  0.30314915679E+03  0.31049342029E+03  0.00000000000E+00 0. -1.
</event>
<event>
 6    1  0.4663041E-006  0.8612546E+02  0.7561462E-02  0.1312515E+00
          2   -1    0    0  501    0  0.00000000000E+00  0.00000000000E+00  0.30190317511E+03  0.30190317511E+03  0.00000000000E+00 0. -1.
         -2   -1    0    0    0  501 -0.00000000000E+00 -0.00000000000E+00 -0.43956861269E+02  0.43956861269E+02  0.00000000000E+00 0.  1.
          5    1    1    2  502    0 -0.48175446747E+02  0.29976618925E+02  0.11642720697E+03  0.12958486900E+03  0.41800000000E+01 0. -1.
         -5    1    1    2    0  502  0.45070968484E+01  0.34619797363E+02 -0.16566934008E+02  0.38868753438E+02  0.41800000000E+01 0.  1.
        -11    1    1    2    0    0  0.42650465932E+02 -0.50664927826E+02  0.12419139427E+03  0.14074622398E+03  0.00000000000E+00 0. -1.
         11    1    1    2    0    0  0.10178839661E+01 -0.13931488461E+02  0.33894646613E+02  0.36660189955E+02  0.00000000000E+00 0.  1.
</event>
<event>
 7    1  0.4096326E-006  0.9297881E+02  0.7561462E-02  0.1295794E+00
         -2   -1    0    0    0  501 -0.00000000000E+00  0.00000000000E+00  0.10085992239E+03  0.10085992239E+03  0.00000000000E+00 0.  1.
          2   -1    0    0  501    0  0.00000000000E+00 -0.00000000000E+00 -0.22613746696E+03  0.22613746696E+03  0.00000000000E+00 0. -1.
         23    2    1    2    0    0 -0.34489348011E+02  0.25890870478E+02 -0.16411181998E+03  0.19325750008E+03  0.92498213931E+02 0.  0.
          5    1    1    2  502    0  0.51629840921E+02  0.14831557911E+01 -0.28357520897E+02  0.59071665086E+02  0.41800000000E+01 0. -1.
         -5    1    1    2    0  502 -0.17140492910E+02 -0.27374026269E+02  0.67191796310E+02  0.74668224184E+02  0.41800000000E+01 0.  1.
        -11    1    3    3    0    0 -0.62551332128E+02 -0.12039534625E+01 -0.91730055047E+02  0.11103387615E+03  0.00000000000E+00 0. -1.
         11    1    3    3    0    0  0.28061984117E+02  0.27094823940E+02 -0.72381764931E+02  0.82223623926E+02  0.00000000000E+00 0.  1.
</event>
<event>
 7    1  0.4096326E-006  0.1400893E+03  0.7561462E-02  0.1213209E+00
          2   -1    0    0  501    0  0.00000000000E+00  0.00000000000E+00  0.10136550240E+03  0.10136550240E+03  0.00000000000E+00 0. -1.
         -2   -1    0    0    0  501 -0.00000000000E+00 -0.00000000000E+00 -0.21823861418E+03  0.21823861418E+03  0.00000000000E+00 0.  1.
         23    2    1    2    0    0  0.92159948324E+02 -0.40066722696E+02 -0.38064792004E+02  0.14083832022E+03  0.91036837095E+02 0.  0.
          5    1    1    2  502    0 -0.23463828806E+02 -0.35503760432E+02  0.93670263202E+01  0.43775356642E+02  0.41800000000E+01 0. -1.
         -5    1    1    2    0  502 -0.68696119517E+02  0.75570483129E+02 -0.88175346097E+02  0.13499043972E+03  0.41800000000E+01 0. -1.
        -11    1    3    3    0    0 -0.59197645677E+01  0.19550265523E+02 -0.96743356517E+01  0.22601974800E+02  0.00000000000E+00 0.  1.
         11    1    3    3    0    0  0.98079712891E+02 -0.59616988220E+02 -0.28390456353E+02  0.11823634542E+03  0.00000000000E+00 0. -1.
</event>
<event>
 7    1  0.4096326E-006  0.1031470E+03  0.7561462E-02  0.1273814E+00
          1   -1    0    0  501    0  0.00000000000E+00  0.00000000000E+00  0.89940568913E+03  0.89940568913E+03  0.00000000000E+00 0. -1.
         -1   -1    0    0    0  501 -0.00000000000E+00 -0.00000000000E+00 -0.18144228788E+02  0.18144228788E+02  0.00000000000E+00 0.  1.
         23    2    1    2    0    0 -0.53712215039E+02 -0.36378211674E+02  0.33404843369E+03  0.35248594593E+03  0.91921758566E+02 0.  0.
          5    1    1    2  502    0  0.75602880407E+02  0.27934873852E+02  0.18221292533E+03  0.19928666604E+03  0.41800000000E+01 0.  1.
         -5    1    1    2    0  502 -0.21890665368E+02  0.84433378217E+01  0.36500010132E+03  0.36577730595E+03  0.41800000000E+01 0.  1.
        -11    1    3    3    0    0 -0.20261077346E+02 -0.58327000949E+02  0.26998338335E+03  0.27695410735E+03  0.00000000000E+00 0. -1.
         11    1    3    3    0    0 -0.33451137693E+02  0.21948789275E+02  0.64065050343E+02  0.75531838578E+02  0.00000000000E+00 0.  1.
</event>
<event>
 7    1  0.4096326E-006  0.2002949E+03  0.7561462E-02  0.1149490E+00
         -1   -1    0    0    0  501 -0.00000000000E+00  0.00000000000E+00  0.15347098547E+03  0.15347098547E+03  0.00000000000E+00 0.  1.
          1   -1    0    0  501    0  0.00000000000E+00 -0.00000000000E+00 -0.31255753630E+03  0.31255753630E+03  0.00000000000E+00 0. -1.
         23    2    1    2    0    0  0.12762214242E+03  0.12847449901E+03 -0.13828427755E+03  0.24495589913E+03  0.89931879601E+02 0.  0.
          5    1    1    2  502    0 -0.13323396947E+03 -0.54541468640E+02 -0.28260792767E+00  0.14402643747E+03  0.41800000000E+01 0.  1.
         -5    1    1    2    0  502  0.56118270572E+01 -0.73933030369E+02 -0.20519665348E+02  0.77046185165E+02  0.41800000000E+01 0.  1.
        -11    1    3    3    0    0  0.46585560382E+02  0.33099928461E+02  0.17127806600E+01  0.57173012146E+02  0.00000000000E+00 0.  1.
         11    1    3    3    0    0  0.81036582034E+02  0.95374570548E+02 -0.13999705821E+03  0.18778288698E+03  0.00000000000E+00 0. -1.
</event>
<event>
 7    1  0.4096326E-006  0.1396398E+03  0.7561462E-02  0.1213814E+00
          1   -1    0    0  501    0  0.00000000000E+00  0.00000000000E+00  0.64711923424E+02  0.64711923424E+02  0.00000000000E+00 0. -1.
         -1   -1    0    0    0  501 -0.00000000000E+00 -0.00000000000E+00 -0.43372667783E+03  0.43372667783E+03  0.00000000000E+00 0.  1.
         23    2    1    2    0    0 -0.59256675710E+02  0.10470259267E+03 -0.11673571767E+03  0.19222498747E+03  0.94070353992E+02 0.  0.
          5    1    1    2  502    0  0.51070655813E+02 -0.23134202726E+02 -0.19698006765E+02  0.59572536386E+02  0.41800000000E+01 0. -1.
         -5    1    1    2    0  502  0.81860198973E+01 -0.81568389939E+02 -0.23258102997E+03  0.24664107740E+03  0.41800000000E+01 0. -1.
        -11    1    3    3    0    0 -0.70950354230E+02  0.54608307782E+02 -0.36010377254E+02  0.96502680347E+02  0.00000000000E+00 0. -1.
         11    1    3    3    0    0  0.11693678520E+02  0.50094284884E+02 -0.80725340417E+02  0.95722307122E+02  0.00000000000E+00 0.  1.
</event>
<event>
 7    1  0.4096326E-006  0.1465961E+03  0.7561462E-02  0.1204719E+00
         -2   -1    0    0    0  501 -0.00000000000E+00  0.00000000000E+00  0.51173370966E+02  0.51173370966E+02  0.00000000000E+00 0.  1.
          2   -1    0    0  501    0  0.00000000000E+00 -0.00000000000E+00 -0.68489190417E+03  0.68489190417E+03  0.00000000000E+00 0. -1.
         23    2    1    2    0    0 -0.51233800162E+02  0.84701178712E+02 -0.44150846450E+03  0.46437102465E+03  0.10445828047E+03 0.  0.
          5    1    1    2  502    0 -0.38915236822E+02 -0.23315156603E+02 -0.14640188392E+03  0.15332637151E+03  0.41800000000E+01 0. -1.
         -5    1    1    2    0  502  0.90149036983E+02 -0.61386022109E+02 -0.45808184781E+02  0.11836787897E+03  0.41800000000E+01 0.  1.
        -11    1    3    3    0    0 -0.20073569205E+02 -0.20547726832E+02 -0.15329848211E+03  0.15596660500E+03  0.00000000000E+00 0.  1.
         11    1    3    3    0    0 -0.31160230956E+02  0.10524890554E+03 -0.28820998238E+03  0.30840441965E+03  0.00000000000E+00 0. -1.
</event>
<event>
 7    1  0.4096326E-006  0.9377309E+02  0.7561462E-02  0.1293964E+00
         -2   -1    0    0    0  501 -0.00000000000E+00  0.00000000000E+00  0.56616732114E+03  0.56616732114E+03  0.00000000000E+00 0.  1.
          2   -1    0    0  501    0  0.00000000000E+00 -0.00000000000E+00 -0.86154876206E+02  0.86154876206E+02  0.00000000000E+00 0. -1.
         23    2    1    2    0    0  0.42554684257E+02 -0.47690505502E+02  0.92262629254E+02  0.14732504530E+03  0.95430554587E+02 0.  0.
          5    1    1    2  502    0  0.20314797921E+02  0.15568443091E+02 -0.52790240419E+02  0.58816233459E+02  0.41800000000E+01 0. -1.
         -5    1    1    2    0  502 -0.62869482178E+02  0.32122062411E+02  0.44054005610E+03  0.44618091858E+03  0.41800000000E+01 0.  1.
        -11    1    3    3    0    0  0.49334955870E+02 -0.59486886004E+02  0.10385198716E+03  0.12945216381E+03  0.00000000000E+00 0. -1.
         11    1    3    3    0    0 -0.67802716125E+01  0.11796380502E+02 -0.11589357909E+02  0.17872881492E+02  0.00000000000E+00 0.  1.
</event>
<event>
 7    1  0.4096326E-006  0.1112330E+03  0.7561462E-02  0.1258303E+00
          2   -1    0    0  501    0  0.00000000000E+00  0.00000000000E+00  0.43077385678E+03  0.43077385678E+03  0.00000000000E+00 0. -1.
         -2   -1    0    0    0  501 -0.00000000000E+00 -0.00000000000E+00 -0.56370365730E+02  0.56370365730E+02  0.00000000000E+00 0.  1.
         23    2    1    2    0    0  0.43007390549E+02 -0.64268936742E+02  0.29841334812E+03  0.32160994653E+03  0.91664057813E+02 0.  0.
          5    1    1    2  502    0 -0.24518751661E+02  0.89875966176E+02  0.11962681466E+02  0.94018278154E+02  0.41800000000E+01 0.  1.
         -5    1    1    2    0  502 -0.18488638888E+02 -0.25607029434E+02  0.64027461461E+02  0.71515997829E+02  0.41800000000E+01 0.  1.
        -11    1    3    3    0    0  0.30566570020E+02 -0.74957767379E+02  0.29354266551E+03  0.30450004691E+03  0.00000000000E+00 0. -1.
         11    1    3    3    0    0  0.12440820529E+02  0.10688830637E+02  0.48706826150E+01  0.17109899618E+02  0.00000000000E+00 0.  1.
</event>
<event>
 7    1  0.4096326E-006  0.1452420E+03  0.7561462E-02  0.1206445E+00
          1   -1    0    0  501    0  0.00000000000E+00  0.00000000000E+00  0.71213171107E+03  0.71213171107E+03  0.00000000000E+00 0. -1.
         -1   -1    0    0    0  501 -0.00000000000E+00 -0.00000000000E+00 -0.86849354651E+02  0.86849354651E+02  0.00000000000E+00 0.  1.
         23    2    1    2    0    0 -0.49237108003E+02  0.95654000476E+02  0.61511677348E+03  0.63095029031E+03  0.90308599848E+02 0.  0.
          5    1    1    2  502    0 -0.29361402943E+02  0.23258753366E+01  0.28288878922E+02  0.41051610803E+02  0.41800000000E+01 0. -1.
         -5    1    1    2    0  502  0.78598510945E+02 -0.97979875812E+02 -0.18123295989E+02  0.12697916461E+03  0.41800000000E+01 0.  1.
        -11    1    3    3    0    0  0.20249624623E+02  0.44120934498E+02  0.14417735681E+03  0.15213091197E+03  0.00000000000E+00 0.  1.
         11    1    3    3    0    0 -0.69486732625E+02  0.51533065977E+02  0.47093941667E+03  0.47881937834E+03  0.00000000000E+00 0. -1.
</event>
<event>
 7    1  0.4096326E-006  0.1167623E+03  0.7561462E-02  0.1248536E+00
         -2   -1    0    0    0  501 -0.00000000000E+00  0.00000000000E+00  0.36824114902E+02  0.36824114902E+02  0.00000000000E+00 0.  1.
          2   -1    0    0  501    0  0.00000000000E+00 -0.00000000000E+00 -0.56807555936E+03  0.56807555936E+03  0.00000000000E+00 0. -1.
         23    2    1    2    0    0 -0.15649069957E+02 -0.64211007044E+02 -0.38630037046E+03  0.40235056323E+03  0.91049726494E+02 0.  0.
          5    1    1    2  502    0 -0.55044604528E+02  0.29772685670E+02 -0.65383579484E+02  0.90602462250E+02  0.41800000000E+01 0.  1.
         -5    1    1    2    0  502  0.70693674485E+02  0.34438321374E+02 -0.79567494511E+02  0.11194664878E+03  0.41800000000E+01 0.  1.
        -11    1    3    3    0    0 -0.28021162620E+02 -0.14174588260E+01 -0.33067560342E+02  0.43366557289E+02  0.00000000000E+00 0.  1.
         11    1    3    3    0    0  0.12372092663E+02 -0.62793548218E+02 -0.35323281012E+03  0.35898400594E+03  0.00000000000E+00 0. -1.
</event>
<event>
 7    1  0.4096326E-006  0.9858679E+02  0.7561462E-02  0.1283296E+00
          1   -1    0    0  501    0  0.00000000000E+00  0.00000000000E+00  0.16175646809E+03  0.16175646809E+03  0.00000000000E+00 0. -1.
         -1   -1    0    0    0  501 -0.00000000000E+00 -0.00000000000E+00 -0.14386874730E+03  0.14386874730E+03  0.00000000000E+00 0.  1.
         23    2    1    2    0    0 -0.15270516728E+02  0.27329109107E+02  0.11027083262E+03  0.14699871211E+03  0.92026604571E+02 0.  0.
          5    1    1    2  502    0 -0.91281923148E+01  0.43626154014E+02 -0.77291173348E+01  0.45428810944E+02  0.41800000000E+01 0. -1.
         -5    1    1    2    0  502  0.24398709043E+02 -0.70955263121E+02 -0.84653994490E+02  0.11319769234E+03  0.41800000000E+01 0. -1.
        -11    1    3    3    0    0 -0.28221361836E+01  0.50699929055E+02  0.22899668074E+02  0.55703160204E+02  0.00000000000E+00 0.  1.
         11    1    3    3    0    0 -0.12448380545E+02 -0.23370819949E+02  0.87371164546E+02  0.91295551904E+02  0.00000000000E+00 0. -1.
</event>
<event>
 7    1  0.4096326E-006  0.1077497E+03  0.7561462E-02  0.1264795E+00
         -3   -1    0    0    0  501 -0.00000000000E+00  0.00000000000E+00  0.46325192481E+02  0.46325192481E+02  0.00000000000E+00 0.  1.
          3   -1    0    0  501    0  0.00000000000E+00 -0.00000000000E+00 -0.32431746281E+03  0.32431746281E+03  0.00000000000E+00 0. -1.
         23    2    1    2    0    0 -0.10794724541E+02 -0.57380445949E+02 -0.10321670729E+03  0.14794131914E+03  0.88452832569E+02 0.  0.
          5    1    1    2  502    0  0.17605611229E+02  0.90138227617E+02 -0.79179882931E+02  0.12133335850E+03  0.41800000000E+01 0.  1.
         -5    1    1    2    0  502 -0.68108866881E+01 -0.32757781668E+02 -0.95595680112E+02  0.10136797765E+03  0.41800000000E+01 0.  1.
        -11    1    3    3    0    0  0.62006254955E+01  0.14611954910E+02 -0.60445031818E+02  0.62494470590E+02  0.00000000000E+00 0. -1.
         11    1    3    3    0    0 -0.16995350037E+02 -0.71992400858E+02 -0.42771675471E+02  0.85446848548E+02  0.00000000000E+00 0.  1.
</event>
<event>
 7    1  0.4096326E-006  0.8987201E+02  0.7561462E-02  0.1303162E+00
          2   -1    0    0  501    0  0.00000000000E+00  0.00000000000E+00  0.12636231492E+03  0.12636231492E+03  0.00000000000E+00 0. -1.
         -2   -1    0    0    0  501 -0.00000000000E+00 -0.00000000000E+00 -0.11528146878E+03  0.11528146878E+03  0.00000000000E+00 0.  1.
         23    2    1    2    0    0 -0.51987987644E+02  0.15477346735E+02  0.11197056483E+01  0.10493879278E+03  0.89825371515E+02 0.  0.
          5    1    1    2  502    0  0.32522530151E+02  0.19032442990E+02 -0.51201666627E+02  0.63710532246E+02  0.41800000000E+01 0.  1.
         -5    1    1    2    0  502  0.19465457493E+02 -0.34509789725E+02  0.61162807123E+02  0.72994458677E+02  0.41800000000E+01 0.  1.
        -11    1    3    3    0    0 -0.76373347953E+02  0.13100783776E+02 -0.98161211519E+01  0.78108098476E+02  0.00000000000E+00 0.  1.
         11    1    3    3    0    0  0.24385360309E+02  0.23765629595E+01  0.10935826800E+02  0.26830694302E+02  0.00000000000E+00 0. -1.
</event>
<event>
 7    1  0.4096326E-006  0.1406028E+03  0.7561462E-02  0.1212520E+00
          1   -1    0    0  501    0  0.00000000000E+00  0.00000000000E+00  0.13554295900E+03  0.13554295900E+03  0.00000000000E+00 0. -1.
         -1   -1    0    0    0  501 -0.00000000000E+00 -0.00000000000E+00 -0.15765501757E+03  0.15765501757E+03  0.00000000000E+00 0.  1.
         23    2    1    2    0    0  0.83403799207E+02 -0.43055470496E+02 -0.85844581271E+01  0.13619977111E+03  0.98319466369E+02 0.  0.
          5    1    1    2  502    0  0.23630367518E+02  0.29598564187E+02  0.21184285628E+02  0.43597197485E+02  0.41800000000E+01 0.  1.
         -5    1    1    2    0  502 -0.10703416672E+03  0.13456906309E+02 -0.34711886074E+02  0.11340100797E+03  0.41800000000E+01 0.  1.
        -11    1    3    3    0    0 -0.12543168306E+02  0.17614435589E+02 -0.67940280576E+01  0.22666235451E+02  0.00000000000E+00 0.  1.
         11    1    3    3    0    0  0.95946967513E+02 -0.60669906085E+02 -0.17904300695E+01  0.11353353566E+03  0.00000000000E+00 0. -1.
</event>
<event>
 7    1  0.4096326E-006  0.1241664E+03  0.7561462E-02  0.1236378E+00
         -1   -1    0    0    0  501 -0.00000000000E+00  0.00000000000E+00  0.25398516170E+03  0.25398516170E+03  0.00000000000E+00 0.  1.
          1   -1    0    0  501    0  0.00000000000E+00 -0.00000000000E+00 -0.12768495390E+03  0.12768495390E+03  0.00000000000E+00 0. -1.
         23    2    1    2    0    0 -0.89437846385E+02 -0.20979003087E+02 -0.56595468702E+02  0.14180033875E+03  0.92005663175E+02 0.  0.
          5    1    1    2  502    0 -0.11148594679E+02  0.46898439275E+02  0.80692176325E+02  0.94087483173E+02  0.41800000000E+01 0.  1.
         -5    1    1    2    0  502  0.10058644106E+03 -0.25919436187E+02  0.10220350018E+03  0.14578229367E+03  0.41800000000E+01 0.  1.
        -11    1    3    3    0    0 -0.22121455663E+02 -0.18149955037E+02 -0.67715490910E+02  0.73513042229E+02  0.00000000000E+00 0. -1.
         11    1    3    3    0    0 -0.67316390722E+02 -0.28290480505E+01  0.11120022208E+02  0.68287296525E+02  0.00000000000E+00 0.  1.
</event>
<event>
 7    1  0.4096326E-006  0.1016834E+03  0.7561462E-02  0.1276795E+00
          1   -1    0    0  501    0  0.00000000000E+00  0.00000000000E+00  0.23668895512E+03  0.23668895512E+03  0.00000000000E+00 0. -1.
         -1   -1    0    0    0  501 -0.00000000000E+00 -0.00000000000E+00 -0.60147648110E+02  0.60147648110E+02  0.00000000000E+00 0.  1.
         23    2    1    2    0    0  0.49030806566E+02 -0.91932063627E+01  0.11033478348E+03  0.15176474395E+03  0.91489004936E+02 0.  0.
          5    1    1    2  502    0 -0.50842161601E+01  0.43892241196E+02  0.76061667887E+02  0.88063771285E+02  0.41800000000E+01 0. -1.
         -5    1    1    2    0  502 -0.43946590406E+02 -0.34699034834E+02 -0.98551443576E+01  0.57008087996E+02  0.41800000000E+01 0.  1.
        -11    1    3    3    0    0 -0.24183061293E+02  0.11462653136E+02  0.18596264399E+02  0.32588861901E+02  0.00000000000E+00 0.  1.
         11    1    3    3    0    0  0.73213867858E+02 -0.20655859499E+02  0.91738519078E+02  0.11917588204E+03  0.00000000000E+00 0. -1.
</event>
<event>
 7    1  0.4096326E-006  0.1765973E+03  0.7561462E-02  0.1171137E+00
          1   -1    0    0  501    0  0.00000000000E+00  0.00000000000E+00  0.90280561298E+03  0.90280561298E+03  0.00000000000E+00 0. -1.
         -1   -1    0    0    0  501 -0.00000000000E+00 -0.00000000000E+00 -0.35626372805E+02  0.35626372805E+02  0.00000000000E+00 0.  1.
         23    2    1    2    0    0  0.99780979234E+02  0.10067778346E+03  0.37425586842E+03  0.41049871767E+03  0.91375501446E+02 0.  0.
          5    1    1    2  502    0 -0.98010682649E+02 -0.11104140719E+02  0.23660069641E+03  0.25637230310E+03  0.41800000000E+01 0. -1.
         -5    1    1    2    0  502 -0.17702965856E+01 -0.89573642740E+02  0.25632267534E+03  0.27156096501E+03  0.41800000000E+01 0. -1.
        -11    1    3    3    0    0  0.10379967277E+03  0.52292286454E+02  0.22046926095E+03  0.24922991456E+03  0.00000000000E+00 0.  1.
         11    1    3    3    0    0 -0.40186935399E+01  0.48385497005E+02  0.15378660747E+03  0.16126880311E+03  0.00000000000E+00 0. -1.
</event>
<event>
 7    1  0.4096326E-006  0.2153393E+03  0.7561462E-02  0.1137406E+00
         -1   -1    0    0    0  501 -0.00000000000E+00  0.00000000000E+00  0.58428426457E+02  0.58428426457E+02  0.00000000000E+00 0.  1.
          1   -1    0    0  501    0  0.00000000000E+00 -0.00000000000E+00 -0.98802562861E+03  0.98802562861E+03  0.00000000000E+00 0. -1.
         23    2    1    2    0    0  0.18941164404E+03 -0.58136514004E+02 -0.62458749314E+03  0.66183018611E+03  0.93021682957E+02 0.  0.
          5    1    1    2  502    0 -0.16486385908E+03  0.91686177502E+02 -0.21951626218E+03  0.28946728474E+03  0.41800000000E+01 0. -1.
         -5    1    1    2    0  502 -0.24547784968E+02 -0.33549663498E+02 -0.85493446833E+02  0.95156584213E+02  0.41800000000E+01 0. -1.
        -11    1    3    3    0    0  0.15794063146E+03 -0.36756471849E+02 -0.58443525366E+03  0.60651533123E+03  0.00000000000E+00 0.  1.
         11    1    3    3    0    0  0.31471012589E+02 -0.21380042155E+02 -0.40152239476E+02  0.55314854884E+02  0.00000000000E+00 0. -1.
</event>
<event>
 7    1  0.4096326E-006  0.1351899E+03  0.7561462E-02  0.1219952E+00
          2   -1    0    0  501    0  0.00000000000E+00  0.00000000000E+00  0.48750212897E+03  0.48750212897E+03  0.00000000000E+00 0. -1.
         -2   -1    0    0    0  501 -0.00000000000E+00 -0.00000000000E+00 -0.56934228059E+02  0.56934228059E+02  0.00000000000E+00 0.  1.
         23    2    1    2    0    0 -0.11217308930E+03 -0.52898310206E+02  0.23550208784E+03  0.28160395363E+03  0.91970213321E+02 0.  0.
          5    1    1    2  502    0  0.99991718234E+02  0.11448451202E+02  0.19494011875E+03  0.21942773992E+03  0.41800000000E+01 0. -1.
         -5    1    1    2    0  502  0.12181371069E+02  0.41449859005E+02  0.12569432874E+00  0.43404663479E+02  0.41800000000E+01 0. -1.
        -11    1    3    3    0    0 -0.87771383648E+02 -0.51582348183E+02  0.23614786748E+03  0.25715825818E+03  0.00000000000E+00 0.  1.
         11    1    3    3    0    0 -0.24401705655E+02 -0.13159620232E+01 -0.64577964555E+00  0.24445695455E+02  0.00000000000E+00 0. -1.
</event>
<event>
 7    1  0.4096326E-006  0.1544884E+03  0.7561462E-02  0.1195064E+00
          4   -1    0    0  501    0  0.00000000000E+00  0.00000000000E+00  0.37487427815E+02  0.37487427815E+02  0.00000000000E+00 0.  1.
         -4   -1    0    0    0  501 -0.00000000000E+00 -0.00000000000E+00 -0.10908073339E+04  0.10908073339E+04  0.00000000000E+00 0. -1.
         23    2    1    2    0    0  0.11589251025E+03 -0.48212845540E+02 -0.19059999420E+03  0.24756242209E+03  0.95933532367E+02 0.  0.
          5    1    1    2  502    0 -0.13680528639E+03  0.17465690066E+02 -0.62190120355E+03  0.63702379555E+03  0.41800000000E+01 0. -1.
         -5    1    1    2    0  502  0.20912776139E+02  0.30747155474E+02 -0.24081870834E+03  0.24370854408E+03  0.41800000000E+01 0. -1.
        -11    1    3    3    0    0  0.48991346243E+02  0.33600598717E+01 -0.14167663918E+03  0.14994569716E+03  0.00000000000E+00 0. -1.
         11    1    3    3    0    0  0.66901164009E+02 -0.51572905411E+02 -0.48923355027E+02  0.97616724927E+02  0.00000000000E+00 0.  1.
</event>
<event>
 7    1  0.4096326E-006  0.1300209E+03  0.7561462E-02  0.1227425E+00
          2   -1    0    0  501    0  0.00000000000E+00  0.00000000000E+00  0.44323501291E+03  0.44323501291E+03  0.00000000000E+00 0. -1.
         -2   -1    0    0    0  501 -0.00000000000E+00 -0.00000000000E+00 -0.56370538603E+02  0.56370538603E+02  0.00000000000E+00 0.  1.
         23    2    1    2    0    0  0.10400428773E+03  0.38526640349E+02  0.23036799586E+03  0.27060761423E+03  0.88644647222E+02 0.  0.
          5    1    1    2  502    0 -0.61559902457E+02 -0.44804500336E+02  0.16790136600E+03  0.18440554749E+03  0.41800000000E+01 0. -1.
         -5    1    1    2    0  502 -0.42444385271E+02  0.62778599868E+01 -0.11404887554E+02  0.44592389789E+02  0.41800000000E+01 0. -1.
        -11    1    3    3    0    0  0.81003016245E+01  0.43884479547E+02  0.56797344962E+02  0.72231577764E+02  0.00000000000E+00 0.  1.
         11    1    3    3    0    0  0.95903986103E+02 -0.53578391983E+01  0.17357065090E+03  0.19837603647E+03  0.00000000000E+00 0. -1.
</event>
<event>
 7    1  0.4096326E-006  0.7126334E+02  0.7561462E-02  0.1355849E+00
          1   -1    0    0  501    0  0.00000000000E+00  0.00000000000E+00  0.12675222637E+03  0.12675222637E+03  0.00000000000E+00 0. -1.
         -1   -1    0    0    0  501 -0.00000000000E+00 -0.00000000000E+00 -0.96005906426E+02  0.96005906426E+02  0.00000000000E+00 0.  1.
         23    2    1    2    0    0 -0.19935877041E+02 -0.78502354451E+01  0.89114487555E+01  0.93983174598E+02  0.91073364924E+02 0.  0.
          5    1    1    2  502    0  0.33316191941E+02  0.27255252665E+02 -0.42192169256E+02  0.60419111131E+02  0.41800000000E+01 0.  1.
         -5    1    1    2    0  502 -0.13380314900E+02 -0.19405017220E+02  0.64027040443E+02  0.68355847065E+02  0.41800000000E+01 0.  1.
        -11    1    3    3    0    0 -0.39023099442E+02 -0.27660255938E+02 -0.21961136934E+02  0.52632533513E+02  0.00000000000E+00 0.  1.
         11    1    3    3    0    0  0.19087222401E+02  0.19810020493E+02  0.30872585690E+02  0.41350641084E+02  0.00000000000E+00 0. -1.
</event>
<event>
 7    1  0.4096326E-006  0.1381766E+03  0.7561462E-02  0.1215804E+00
         -1   -1    0    0    0  501 -0.00000000000E+00  0.00000000000E+00  0.11230273252E+03  0.11230273252E+03  0.00000000000E+00 0.  1.
          1   -1    0    0  501    0  0.00000000000E+00 -0.00000000000E+00 -0.29618248454E+03  0.29618248454E+03  0.00000000000E+00 0. -1.
         23    2    1    2    0    0  0.60938993654E+02  0.81293351271E+02 -0.21303314853E+03  0.25343892154E+03  0.92336312834E+02 0.  0.
          5    1    1    2  502    0 -0.26542903750E+02 -0.10513261985E+03  0.31292364317E+02  0.11293395398E+03  0.41800000000E+01 0. -1.
         -5    1    1    2    0  502 -0.34396089904E+02  0.23839268580E+02 -0.21389678062E+01  0.42112341545E+02  0.41800000000E+01 0.  1.
        -11    1    3    3    0    0  0.78118585925E+02  0.60473442461E+02 -0.11427018899E+03  0.15105372158E+03  0.00000000000E+00 0. -1.
         11    1    3    3    0    0 -0.17179592272E+02  0.20819908810E+02 -0.98762959545E+02  0.10238519996E+03  0.00000000000E+00 0.  1.
</event>
<event>
 7    1  0.4096326E-006  0.1249369E+03  0.7561462E-02  0.1235168E+00
         -1   -1    0    0    0  501 -0.00000000000E+00  0.00000000000E+00  0.58933243684E+03  0.58933243684E+03  0.00000000000E+00 0.  1.
          1   -1    0    0  501    0  0.00000000000E+00 -0.00000000000E+00 -0.45471530719E+02  0.45471530719E+02  0.00000000000E+00 0. -1.
         23    2    1    2    0    0 -0.74636229018E+02  0.46584848172E+02  0.70817321730E+02  0.13765800789E+03  0.78701456893E+02 0.  0.
          5    1    1    2  502    0 -0.15412171228E+02  0.22411667303E+02  0.19326296942E+03  0.19521236027E+03  0.41800000000E+01 0.  1.
         -5    1    1    2    0  502  0.90048400246E+02 -0.68996515475E+02  0.27978061497E+03  0.30193359940E+03  0.41800000000E+01 0.  1.
        -11    1    3    3    0    0 -0.68817703855E+02  0.61832187714E+02  0.76838096934E+02  0.12026299906E+03  0.00000000000E+00 0.  1.
         11    1    3    3    0    0 -0.58185251632E+01 -0.15247339543E+02 -0.60207752033E+01  0.17395008832E+02  0.00000000000E+00 0. -1.
</event>
<event>
 7    1  0.4096326E-006  0.8055465E+02  0.7561462E-02  0.1327485E+00
         -2   -1    0    0    0  501 -0.00000000000E+00  0.00000000000E+00  0.29683448555E+02  0.29683448555E+02  0.00000000000E+00 0.  1.
          2   -1    0    0  501    0  0.00000000000E+00 -0.00000000000E+00 -0.46801199483E+03  0.46801199483E+03  0.00000000000E+00 0. -1.
         23    2    1    2    0    0 -0.47420902417E+02 -0.71305933371E+01 -0.20298748703E+03  0.22689545044E+03  0.89319864491E+02 0.  0.
          5    1    1    2  502    0  0.28184216082E+02 -0.14502812344E+02  0.16472088642E+01  0.32013548680E+02  0.41800000000E+01 0. -1.
         -5    1    1    2    0  502  0.19236686335E+02  0.21633405681E+02 -0.23698826811E+03  0.23878644426E+03  0.41800000000E+01 0. -1.
        -11    1    3    3    0    0  0.17906442938E+02 -0.26290844461E+02 -0.47621218228E+02  0.57268050662E+02  0.00000000000E+00 0.  1.
         11    1    3    3    0    0 -0.65327345354E+02  0.19160251124E+02 -0.15536626880E+03  0.16962739978E+03  0.00000000000E+00 0. -1.
</event>
<event>
 7    1  0.4188606E-006  0.2737829E+03  0.7561462E-02  0.1099134E+00
         -2   -1    0    0    0  501 -0.00000000000E+00  0.00000000000E+00  0.54499563725E+03  0.54499563725E+03  0.00000000000E+00 0.  1.
          2   -1    0    0  501    0  0.00000000000E+00 -0.00000000000E+00 -0.16192648778E+03  0.16192648778E+03  0.00000000000E+00 0. -1.
         23    2    1    2    0    0 -0.46225234660E+02 -0.25142379180E+03  0.63768198122E+02  0.27919402736E+03  0.92370051525E+02 0.  0.
          5    1    1    2  502    0  0.77469320084E+02  0.12746328366E+03  0.21985972491E+03  0.26571442428E+03  0.41800000000E+01 0.  1.
         -5    1    1    2    0  502 -0.31244085423E+02  0.12396050814E+03  0.99441226437E+02  0.16201367340E+03  0.41800000000E+01 0.  1.
        -11    1    3    3    0    0 -0.38363491865E+01 -0.21359240944E+03  0.61625431380E+02  0.22233787068E+03  0.00000000000E+00 0. -1.
         11    1    3    3    0    0 -0.42388885474E+02 -0.37831382356E+02  0.21427667417E+01  0.56856156676E+02  0.00000000000E+00 0.  1.
</event>
<event>
 7    1  0.4096326E-006  0.9028312E+02  0.7561462E-02  0.1302168E+00
          4   -1    0    0  501    0  0.00000000000E+00  0.00000000000E+00  0.10700986156E+03  0.10700986156E+03  0.00000000000E+00 0. -1.
         -4   -1    0    0    0  501 -0.00000000000E+00 -0.00000000000E+00 -0.16296918609E+03  0.16296918609E+03  0.00000000000E+00 0.  1.
         23    2    1    2    0    0 -0.44938160488E+02  0.32758769353E+02  0.35390959390E+02  0.11254230577E+03  0.91217735908E+02 0.  0.
          5    1    1    2  502    0  0.78820407974E+02 -0.28217884795E+01 -0.75722673839E+02  0.10941670319E+03  0.41800000000E+01 0. -1.
         -5    1    1    2    0  502 -0.33882247486E+02 -0.29936980873E+02 -0.15627610082E+02  0.48020038686E+02  0.41800000000E+01 0.  1.
        -11    1    3    3    0    0 -0.19897911012E+02  0.96901331699E+01 -0.30906468200E+02  0.38013620192E+02  0.00000000000E+00 0.  1.
         11    1    3    3    0    0 -0.25040249476E+02  0.23068636183E+02  0.66297427590E+02  0.74528685579E+02  0.00000000000E+00 0. -1.
</event>
<event>
 7    1  0.4096326E-006  0.2083126E+03  0.7561462E-02  0.1142909E+00
          2   -1    0    0  501    0  0.00000000000E+00  0.00000000000E+00  0.82926907724E+03  0.82926907724E+03  0.00000000000E+00 0. -1.
         -2   -1    0    0    0  501 -0.00000000000E+00 -0.00000000000E+00 -0.61123555651E+02  0.61123555651E+02  0.00000000000E+00 0.  1.
         23    2    1    2    0    0 -0.23448095837E+02  0.19587197951E+03  0.37792667226E+03  0.43560116097E+03  0.89465950387E+02 0.  0.
          5    1    1    2  502    0  0.52439899213E+02 -0.15466879574E+03  0.20143906892E+03  0.25935988566E+03  0.41800000000E+01 0. -1.
         -5    1    1    2    0  502 -0.28991803376E+02 -0.41203183772E+02  0.18877978041E+03  0.19543158626E+03  0.41800000000E+01 0. -1.
        -11    1    3    3    0    0 -0.36939648053E+02  0.11729804709E+03  0.29951504125E+03  0.32377867346E+03  0.00000000000E+00 0. -1.
         11    1    3    3    0    0  0.13491552215E+02  0.78573932413E+02  0.78411631009E+02  0.11182248751E+03  0.00000000000E+00 0.  1.
</event>
<event>
 7    1  0.4096326E-006  0.1886918E+03  0.7561462E-02  0.1159647E+00
         -2   -1    0    0    0  501 -0.00000000000E+00  0.00000000000E+00  0.88144216860E+02  0.88144216860E+02  0.00000000000E+00 0.  1.
          2   -1    0    0  501    0  0.00000000000E+00 -0.00000000000E+00 -0.53697148673E+03  0.53697148673E+03  0.00000000000E+00 0. -1.
         23    2    1    2    0    0  0.17322036622E+03  0.31131258286E+02 -0.31203931599E+03  0.36951309662E+03  0.90536972183E+02 0.  0.
          5    1    1    2  502    0 -0.17424433899E+03 -0.14530273476E+02 -0.15272185748E+03  0.23219314518E+03  0.41800000000E+01 0. -1.
         -5    1    1    2    0  502  0.10239727700E+01 -0.16600984810E+02  0.15933903608E+02  0.23409461786E+02  0.41800000000E+01 0. -1.
        -11    1    3    3    0    0  0.13266214544E+03 -0.24405584364E+01 -0.15581104804E+03  0.20465161580E+03  0.00000000000E+00 0.  1.
         11    1    3    3    0    0  0.40558220782E+02  0.33571816723E+02 -0.15622826795E+03  0.16486148082E+03  0.00000000000E+00 0. -1.
</event>
<event>
 6    1  0.4096326E-006  0.1474903E+03  0.7561462E-02  0.1203591E+00
          4   -1    0    0  501    0  0.00000000000E+00  0.00000000000E+00  0.11573724491E+03  0.11573724491E+03  0.00000000000E+00 0. -1.
         -4   -1    0    0    0  501 -0.00000000000E+00 -0.00000000000E+00 -0.22305992347E+03  0.22305992347E+03  0.00000000000E+00 0.  1.
          5    1    1    2  502    0  0.99615435011E+02  0.86428456527E+00 -0.10057487908E+03  0.14162189302E+03  0.41800000000E+01 0. -1.
         -5    1    1    2    0  502 -0.33116460142E+02  0.19425433747E+02 -0.11939029646E+02  0.40423510949E+02  0.41800000000E+01 0. -1.
        -11    1    1    2    0    0 -0.17701369450E+02 -0.78628719515E+02  0.36529665598E+01  0.80679354098E+02  0.00000000000E+00 0. -1.
         11    1    1    2    0    0 -0.48797605419E+02  0.58339001203E+02  0.15382636161E+01  0.76072410314E+02  0.00000000000E+00 0.  1.
</event>
<event>
 7    1  0.4096326E-006  0.1357669E+03  0.7561462E-02  0.1219141E+00
         -2   -1    0    0    0  501 -0.00000000000E+00  0.00000000000E+00  0.69523698468E+02  0.69523698468E+02  0.00000000000E+00 0.  1.
          2   -1    0    0  501    0  0.00000000000E+00 -0.00000000000E+00 -0.47181293552E+03  0.47181293552E+03  0.00000000000E+00 0. -1.
         23    2    1    2    0    0 -0.55732055017E+02 -0.38017391006E+02 -0.30805541539E+03  0.32702267551E+03  0.86569667718E+02 0.  0.
          5    1    1    2  502    0 -0.18060534537E+01  0.87507198471E+02 -0.10585987558E+03  0.13742109471E+03  0.41800000000E+01 0. -1.
         -5    1    1    2    0  502  0.57538108470E+02 -0.49489807465E+02  0.11626053919E+02  0.76892863772E+02  0.41800000000E+01 0.  1.
        -11    1    3    3    0    0  0.10473758535E+02  0.18230975775E+02 -0.39237029170E+02  0.44515306959E+02  0.00000000000E+00 0.  1.
         11    1    3    3    0    0 -0.66205813552E+02 -0.56248366781E+02 -0.26881838622E+03  0.28250736855E+03  0.00000000000E+00 0. -1.
</event>
<event>
 7    1  0.4096326E-006  0.1415756E+03  0.7561462E-02  0.1211225E+00
          2   -1    0    0  501    0  0.00000000000E+00  0.00000000000E+00  0.58487462473E+03  0.58487462473E+03  0.00000000000E+00 0. -1.
         -2   -1    0    0    0  501 -0.00000000000E+00 -0.00000000000E+00 -0.53768078002E+02  0.53768078002E+02  0.00000000000E+00 0.  1.
         23    2    1    2    0    0  0.22952271655E+02  0.69482457151E+02  0.32070386175E+03  0.34188009017E+03  0.93147251642E+02 0.  0.
          5    1    1    2  502    0 -0.54439562939E+02 -0.10446360641E+03  0.21902848135E+03  0.24873129904E+03  0.41800000000E+01 0. -1.
         -5    1    1    2    0  502  0.31487291284E+02  0.34981149254E+02 -0.86257963784E+01  0.48031313522E+02  0.41800000000E+01 0.  1.
        -11    1    3    3    0    0  0.19902702171E+02 -0.20163104199E+02  0.65219125666E+02  0.71106980510E+02  0.00000000000E+00 0.  1.
         11    1    3    3    0    0  0.30495694840E+01  0.89645561350E+02  0.25548473609E+03  0.27077310966E+03  0.00000000000E+00 0. -1.
</event>
<event>
 7    1  0.4096326E-006  0.1130316E+03  0.7561462E-02  0.1255057E+00
         -1   -1    0    0    0  501 -0.00000000000E+00  0.00000000000E+00  0.91532445623E+02  0.91532445623E+02  0.00000000000E+00 0.  1.
          1   -1    0    0  501    0  0.00000000000E+00 -0.00000000000E+00 -0.16444772326E+03  0.16444772326E+03  0.00000000000E+00 0. -1.
         23    2    1    2    0    0  0.51213571947E+02 -0.16548915329E+02 -0.38967921786E+02  0.11563522297E+03  0.94637779524E+02 0.  0.
          5    1    1    2  502    0 -0.47333552194E+02 -0.48956571066E+02 -0.47195361813E+01  0.68388284344E+02  0.41800000000E+01 0. -1.
         -5    1    1    2    0  502 -0.38800197530E+01  0.65505486395E+02 -0.29227819665E+02  0.71956661564E+02  0.41800000000E+01 0. -1.
        -11    1    3    3    0    0  0.48036372515E+02 -0.43585019240E+02  0.37611034365E+01  0.64971477478E+02  0.00000000000E+00 0.  1.
         11    1    3    3    0    0  0.31771994315E+01  0.27036103911E+02 -0.42729025223E+02  0.50663745493E+02  0.00000000000E+00 0. -1.
</event>
<event>
 7    1  0.4096326E-006  0.1005502E+03  0.7561462E-02  0.1279143E+00
          2   -1    0    0  501    0  0.00000000000E+00  0.00000000000E+00  0.34556563247E+03  0.34556563247E+03  0.00000000000E+00 0. -1.
         -2   -1    0    0    0  501 -0.00000000000E+00 -0.00000000000E+00 -0.49774768144E+02  0.49774768144E+02  0.00000000000E+00 0.  1.
         23    2    1    2    0    0  0.61613708606E+02  0.32370036225E+02  0.16991479657E+03  0.20470069199E+03  0.90483517147E+02 0.  0.
          5    1    1    2  502    0 -0.12038581385E+02 -0.60365044157E+02  0.11429069852E+02  0.62745215240E+02  0.41800000000E+01 0.  1.
         -5    1    1    2    0  502 -0.49575127221E+02  0.27995007932E+02  0.11444699790E+03  0.12789449338E+03  0.41800000000E+01 0.  1.
        -11    1    3    3    0    0  0.25002483002E+02 -0.94572423940E+01  0.86383710436E+00  0.26745276303E+02  0.00000000000E+00 0.  1.
         11    1    3    3    0    0  0.36611225604E+02  0.41827278619E+02  0.16905095947E+03  0.17795541569E+03  0.00000000000E+00 0. -1.
</event>
<event>
 7    1  0.4096326E-006  0.1061913E+03  0.7561462E-02  0.1267790E+00
         -1   -1    0    0    0  501 -0.00000000000E+00  0.00000000000E+00  0.39509978440E+02  0.39509978440E+02  0.00000000000E+00 0.  1.
          1   -1    0    0  501    0  0.00000000000E+00 -0.00000000000E+00 -0.51534648405E+03  0.51534648405E+03  0.00000000000E+00 0. -1.
         23    2    1    2    0    0  0.13710229707E+02  0.84521766340E+02 -0.28195881760E+03  0.30875037505E+03  0.92163549659E+02 0.  0.
          5    1    1    2  502    0  0.12042524352E+02 -0.29763386568E+02  0.96069205592E+01  0.33773464368E+02  0.41800000000E+01 0.  1.
         -5    1    1    2    0  502 -0.25752754059E+02 -0.54758379773E+02 -0.20348460857E+03  0.21233262307E+03  0.41800000000E+01 0.  1.
        -11    1    3    3    0    0  0.30193758775E+02  0.95089420811E+02 -0.26384043653E+03  0.28207346023E+03  0.00000000000E+00 0. -1.
         11    1    3    3    0    0 -0.16483529068E+02 -0.10567654471E+02 -0.18118381077E+02  0.26676914821E+02  0.00000000000E+00 0.  1.
</event>
<event>
 7    1  0.4096326E-006  0.1496327E+03  0.7561462E-02  0.1200925E+00
          1   -1    0    0  501    0  0.00000000000E+00  0.00000000000E+00  0.59352607534E+02  0.59352607534E+02  0.00000000000E+00 0. -1.
         -1   -1    0    0    0  501 -0.00000000000E+00 -0.00000000000E+00 -0.47693600047E+03  0.47693600047E+03  0.00000000000E+00 0.  1.
         23    2    1    2    0    0 -0.27386575599E+01  0.12115291630E+03 -0.13170622456E+03  0.20153873271E+03  0.92659601874E+02 0.  0.
          5    1    1    2  502    0 -0.47961371649E+02 -0.61162773254E+02 -0.68883319899E+02  0.10394018551E+03  0.41800000000E+01 0.  1.
         -5    1    1    2    0  502  0.50700029209E+02 -0.59990143049E+02 -0.21699384848E+03  0.23080968979E+03  0.41800000000E+01 0.  1.
        -11    1    3    3    0    0  0.27695455802E+02  0.10444222996E+03 -0.12660599593E+03  0.16644607498E+03  0.00000000000E+00 0.  1.
         11    1    3    3    0    0 -0.30434113362E+02  0.16710686342E+02 -0.51002286285E+01  0.35092657725E+02  0.00000000000E+00 0. -1.
</event>
<event>
 7    1  0.4096326E-006  0.1865197E+03  0.7561462E-02  0.1161638E+00
          2   -1    0    0  501    0  0.00000000000E+00  0.00000000000E+00  0.88301225461E+03  0.88301225461E+03  0.00000000000E+00 0. -1.
         -2   -1    0    0    0  501 -0.00000000000E+00 -0.00000000000E+00 -0.61018485853E+02  0.61018485853E+02  0.00000000000E+00 0.  1.
         23    2    1    2    0    0  0.80871307213E+02 -0.15366938176E+03  0.61882244177E+03  0.64893760566E+03  0.89578760795E+02 0.  0.
          5    1    1    2  502    0  0.15632724966E+02  0.37814608994E+02  0.11086859926E+03  0.11825246486E+03  0.41800000000E+01 0. -1.
         -5    1    1    2    0  502 -0.96504032179E+02  0.11585477276E+03  0.92302727724E+02  0.17684066994E+03  0.41800000000E+01 0. -1.
        -11    1    3    3    0    0  0.39225303262E+02 -0.12366980578E+03  0.31277838512E+03  0.33861949660E+03  0.00000000000E+00 0.  1.
         11    1    3    3    0    0  0.41646003951E+02 -0.29999575980E+02  0.30604405664E+03  0.31031810906E+03  0.00000000000E+00 0. -1.
</event>
<event>
 7    1  0.4096326E-006  0.1475985E+03  0.7561462E-02  0.1203455E+00
          2   -1    0    0  501    0  0.00000000000E+00  0.00000000000E+00  0.15516395735E+03  0.15516395735E+03  0.00000000000E+00 0. -1.
         -2   -1    0    0    0  501 -0.00000000000E+00 -0.00000000000E+00 -0.20008585968E+03  0.20008585968E+03  0.00000000000E+00 0.  1.
         23    2    1    2    0    0 -0.78139327277E+02 -0.16640596279E+02  0.75883123023E+02  0.14375850162E+03  0.92334145988E+02 0.  0.
          5    1    1    2  502    0  0.87838392600E+02 -0.53178163844E+02 -0.66419533818E+02  0.12236227849E+03  0.41800000000E+01 0. -1.
         -5    1    1    2    0  502 -0.96990653229E+01  0.69818760123E+02 -0.54385491533E+02  0.89129036921E+02  0.41800000000E+01 0.  1.
        -11    1    3    3    0    0 -0.90295640313E+02 -0.37420829745E+02  0.64674077871E+02  0.11720220777E+03  0.00000000000E+00 0.  1.
         11    1    3    3    0    0  0.12156313035E+02  0.20780233466E+02  0.11209045152E+02  0.26556293844E+02  0.00000000000E+00 0. -1.
</event>
<event>
 7    1  0.4096326E-006  0.9801258E+02  0.7561462E-02  0.1284532E+00
          2   -1    0    0  501    0  0.00000000000E+00  0.00000000000E+00  0.17823678271E+03  0.17823678271E+03  0.00000000000E+00 0. -1.
         -2   -1    0    0    0  501 -0.00000000000E+00 -0.00000000000E+00 -0.10665110889E+03  0.10665110889E+03  0.00000000000E+00 0.  1.
         23    2    1    2    0    0  0.21671175707E+02 -0.32238436918E+02  0.11359384373E+03  0.14733637043E+03  0.85413629153E+02 0.  0.
          5    1    1    2  502    0  0.36631284735E+02  0.29942550926E+01 -0.59347121169E+02  0.69931178855E+02  0.41800000000E+01 0.  1.
         -5    1    1    2    0  502 -0.58302460443E+02  0.29244181825E+02  0.17338951267E+02  0.67620342319E+02  0.41800000000E+01 0.  1.
        -11    1    3    3    0    0  0.51685874738E+02 -0.36617871947E+02  0.80729442362E+02  0.10261355202E+03  0.00000000000E+00 0.  1.
         11    1    3    3    0    0 -0.30014699031E+02  0.43794350289E+01  0.32864401369E+02  0.44722818409E+02  0.00000000000E+00 0. -1.
</event>
<event>
 7    1  0.4096326E-006  0.1454774E+03  0.7561462E-02  0.1206143E+00
         -1   -1    0    0    0  501 -0.00000000000E+00  0.00000000000E+00  0.59980199568E+03  0.59980199568E+03  0.00000000000E+00 0.  1.
          1   -1    0    0  501    0  0.00000000000E+00 -0.00000000000E+00 -0.59972633042E+02  0.59972633042E+02  0.00000000000E+00 0. -1.
         23    2    1    2    0    0  0.69926849943E+02  0.10359476718E+03  0.99559907322E+02  0.18532103095E+03  0.93861969074E+02 0.  0.
          5    1    1    2  502    0 -0.82538026704E+02 -0.74165508949E+02  0.42399525461E+03  0.43829498845E+03  0.41800000000E+01 0.  1.
         -5    1    1    2    0  502  0.12611176761E+02 -0.29429258229E+02  0.16274200707E+02  0.36158609318E+02  0.41800000000E+01 0.  1.
        -11    1    3    3    0    0  0.85075354223E+02  0.10132547971E+03  0.10516528926E+03  0.16901007899E+03  0.00000000000E+00 0. -1.
         11    1    3    3    0    0 -0.15148504279E+02  0.22692874695E+01 -0.56053819340E+01  0.16310951969E+02  0.00000000000E+00 0.  1.
</event>
<event>
 7    1  0.4096326E-006  0.9881363E+02  0.7561462E-02  0.1282811E+00
         -3   -1    0    0    0  501 -0.00000000000E+00  0.00000000000E+00  0.62775995872E+02  0.62775995872E+02  0.00000000000E+00 0.  1.
          3   -1    0    0  501    0  0.00000000000E+00 -0.00000000000E+00 -0.22851751881E+03  0.22851751881E+03  0.00000000000E+00 0. -1.
         23    2    1    2    0    0 -0.79715396997E+01 -0.49128894643E+02 -0.93780242031E+02  0.13862319643E+03  0.89131717472E+02 0.  0.
          5    1    1    2  502    0  0.47089945096E+02 -0.19333181806E+02 -0.48160188898E+02  0.70200505999E+02  0.41800000000E+01 0. -1.
         -5    1    1    2    0  502 -0.39118405396E+02  0.68462076449E+02 -0.23801092011E+02  0.82469812254E+02  0.41800000000E+01 0. -1.
        -11    1    3    3    0    0  0.12904667194E+02 -0.44330482880E+02 -0.40231994532E+01  0.46345531409E+02  0.00000000000E+00 0.  1.
         11    1    3    3    0    0 -0.20876206893E+02 -0.47984117628E+01 -0.89757042578E+02  0.92277665023E+02  0.00000000000E+00 0. -1.
</event>
<event>
 7    1  0.4096326E-006  0.1276912E+03  0.7561462E-02  0.1230922E+00
          1   -1    0    0  501    0  0.00000000000E+00  0.00000000000E+00  0.13389073689E+03  0.13389073689E+03  0.00000000000E+00 0. -1.
         -1   -1    0    0    0  501 -0.00000000000E+00 -0.00000000000E+00 -0.14057993446E+03  0.14057993446E+03  0.00000000000E+00 0.  1.
         23    2    1    2    0    0 -0.40461093807E+02 -0.67887535893E+02  0.21975667552E+02  0.12375608796E+03  0.92665105085E+02 0.  0.
          5    1    1    2  502    0  0.79284518447E+02  0.13183045146E+02 -0.11075800286E+02  0.81240219698E+02  0.41800000000E+01 0. -1.
         -5    1    1    2    0  502 -0.38823424639E+02  0.54704490747E+02 -0.17589064832E+02  0.69474363691E+02  0.41800000000E+01 0. -1.
        -11    1    3    3    0    0  0.17774676097E+02  0.60672611743E+00 -0.18053751313E+02  0.25342556371E+02  0.00000000000E+00 0.  1.
         11    1    3    3    0    0 -0.58235769904E+02 -0.68494262011E+02  0.40029418865E+02  0.98413531587E+02  0.00000000000E+00 0. -1.
</event>
<event>
 7    1  0.4096326E-006  0.1433553E+03  0.7561462E-02  0.1208884E+00
         -2   -1    0    0    0  501 -0.00000000000E+00  0.00000000000E+00  0.13547422809E+03  0.13547422809E+03  0.00000000000E+00 0. -1.
          2   -1    0    0  501    0  0.00000000000E+00 -0.00000000000E+00 -0.18134943886E+03  0.18134943886E+03  0.00000000000E+00 0.  1.
         23    2    1    2    0    0  0.93542634032E+02  0.21352617184E+02 -0.80099029506E+02  0.15550823306E+03  0.92524577159E+02 0.  0.
          5    1    1    2  502    0 -0.13764129571E+02 -0.63391323264E+02  0.66638112622E+00  0.65006365779E+02  0.41800000000E+01 0. -1.
         -5    1    1    2    0  502 -0.79778504461E+02  0.42038706079E+02  0.33557437604E+02  0.96309068117E+02  0.41800000000E+01 0. -1.
        -11    1    3    3    0    0  0.78479840396E+02 -0.25262571769E+02 -0.62487349152E+02  0.10345023772E+03  0.00000000000E+00 0.  1.
         11    1    3    3    0    0  0.15062793637E+02  0.46615188954E+02 -0.17611680354E+02  0.52057995334E+02  0.00000000000E+00 0. -1.
</event>
<event>
 7    1  0.4096326E-006  0.1174263E+03  0.7561462E-02  0.1247404E+00
          4   -1    0    0  501    0  0.00000000000E+00  0.00000000000E+00  0.91258378272E+02  0.91258378272E+02  0.00000000000E+00 0. -1.
         -4   -1    0    0    0  501 -0.00000000000E+00 -0.00000000000E+00 -0.20607903735E+03  0.20607903735E+03  0.00000000000E+00 0.  1.
         23    2    1    2    0    0 -0.69065367805E+02 -0.38302380462E+02 -0.23592250213E+02  0.12353359259E+03  0.92015525049E+02 0.  0.
          5    1    1    2  502    0 -0.34087049413E+02  0.23793080610E+02 -0.13997883960E+02  0.44061897122E+02  0.41800000000E+01 0.  1.
         -5    1    1    2    0  502  0.10315241722E+03  0.14509299852E+02 -0.77230524901E+02  0.12974192590E+03  0.41800000000E+01 0.  1.
        -11    1    3    3    0    0 -0.44657702938E+02 -0.45116404895E+02 -0.54429166720E+02  0.83620180651E+02  0.00000000000E+00 0.  1.
         11    1    3    3    0    0 -0.24407664868E+02  0.68140244334E+01  0.30836916507E+02  0.39913411943E+02  0.00000000000E+00 0. -1.
</event>
<event>
 7    1  0.4096326E-006  0.2353922E+03  0.7561462E-02  0.1122901E+00
         -1   -1    0    0    0  501 -0.00000000000E+00  0.00000000000E+00  0.10178858444E+03  0.10178858444E+03  0.00000000000E+00 0.  1.
          1   -1    0    0  501    0  0.00000000000E+00 -0.00000000000E+00 -0.58468433691E+03  0.58468433691E+03  0.00000000000E+00 0. -1.
         23    2    1    2    0    0 -0.62654954643E+02 -0.20986506632E+03 -0.22349542893E+03  0.32466991520E+03  0.86552629522E+02 0.  0.
          5    1    1    2  502    0  0.50600782614E+02  0.22195906900E+03 -0.25809437210E+03  0.34417502063E+03  0.41800000000E+01 0.  1.
         -5    1    1    2    0  502  0.12054172029E+02 -0.12094002681E+02 -0.13059514365E+01  0.17627985515E+02  0.41800000000E+01 0.  1.
        -11    1    3    3    0    0 -0.69897329367E+02 -0.15326547289E+03 -0.20357336070E+03  0.26423106369E+03  0.00000000000E+00 0. -1.
         11    1    3    3    0    0  0.72423747244E+01 -0.56599593436E+02 -0.19922068227E+02  0.60438851505E+02  0.00000000000E+00 0.  1.
</event>
<event>
 7    1  0.4096326E-006  0.1106918E+03  0.7561462E-02  0.1259294E+00
          2   -1    0    0  501    0  0.00000000000E+00  0.00000000000E+00  0.47443331064E+03  0.47443331064E+03  0.00000000000E+00 0. -1.
         -2   -1    0    0    0  501 -0.00000000000E+00 -0.00000000000E+00 -0.35336996032E+02  0.35336996032E+02  0.00000000000E+00 0.  1.
         23    2    1    2    0    0 -0.52306474565E+02 -0.47242695314E+02  0.20431603832E+03  0.23456605365E+03  0.91150153427E+02 0.  0.
          5    1    1    2  502    0 -0.45345223601E+01 -0.39209862843E+02  0.56824471897E+02  0.69314271572E+02  0.41800000000E+01 0. -1.
         -5    1    1    2    0  502  0.56840996925E+02  0.86452558156E+02  0.17795580439E+03  0.20588998145E+03  0.41800000000E+01 0. -1.
        -11    1    3    3    0    0 -0.96839943883E+01 -0.31087949951E+02  0.86914712503E+01  0.33701365728E+02  0.00000000000E+00 0.  1.
         11    1    3    3    0    0 -0.42622480176E+02 -0.16154745363E+02  0.19562456707E+03  0.20086468792E+03  0.00000000000E+00 0. -1.
</event>
<event>
 7    1  0.4096326E-006  0.1141366E+03  0.7561462E-02  0.1253096E+00
         -3   -1    0    0    0  501 -0.00000000000E+00  0.00000000000E+00  0.71705665972E+02  0.71705665972E+02  0.00000000000E+00 0.  1.
          3   -1    0    0  501    0  0.00000000000E+00 -0.00000000000E+00 -0.26397536972E+03  0.26397536972E+03  0.00000000000E+00 0. -1.
         23    2    1    2    0    0 -0.37224633557E+02  0.62631844546E+02 -0.62831431402E+02  0.14149146302E+03  0.10374788692E+03 0.  0.
          5    1    1    2  502    0  0.65282889064E+01 -0.70229149880E+02 -0.14301989455E+03  0.15952089106E+03  0.41800000000E+01 0.  1.
         -5    1    1    2    0  502  0.30696344651E+02  0.75973053338E+01  0.13581622199E+02  0.34668681613E+02  0.41800000000E+01 0.  1.
        -11    1    3    3    0    0  0.31849123079E+02  0.43744316893E+02 -0.18091788949E+02  0.57054752026E+02  0.00000000000E+00 0.  1.
         11    1    3    3    0    0 -0.69073756636E+02  0.18887527653E+02 -0.44739642453E+02  0.84436710994E+02  0.00000000000E+00 0. -1.
</event>
<event>
 7    1  0.4096326E-006  0.1322290E+03  0.7561462E-02  0.1224185E+00
          2   -1    0    0  501    0  0.00000000000E+00  0.00000000000E+00  0.33399204955E+02  0.33399204955E+02  0.00000000000E+00 0. -1.
         -2   -1    0    0    0  501 -0.00000000000E+00 -0.00000000000E+00 -0.68138381986E+03  0.68138381986E+03  0.00000000000E+00 0.  1.
         23    2    1    2    0    0  0.65938859371E+02 -0.49999260600E+02 -0.14587084337E+03  0.19074754748E+03  0.90876095249E+02 0.  0.
          5    1    1    2  502    0  0.32102841669E+02  0.22798415305E+01 -0.55569990645E+02  0.64352827295E+02  0.41800000000E+01 0. -1.
         -5    1    1    2    0  502 -0.98041701039E+02  0.47719419070E+02 -0.44654378088E+03  0.45968265004E+03  0.41800000000E+01 0. -1.
        -11    1    3    3    0    0  0.75088481186E+02 -0.31533241211E+01 -0.90966191482E+02  0.11799606541E+03  0.00000000000E+00 0. -1.
         11    1    3    3    0    0 -0.91496218151E+01 -0.46845936479E+02 -0.54904651890E+02  0.72751482068E+02  0.00000000000E+00 0.  1.
</event>
<event>
 7    1  0.4096326E-006  0.1218209E+03  0.7561462E-02  0.1240123E+00
          1   -1    0    0  501    0  0.00000000000E+00  0.00000000000E+00  0.14714162106E+03  0.14714162106E+03  0.00000000000E+00 0. -1.
         -1   -1    0    0    0  501 -0.00000000000E+00 -0.00000000000E+00 -0.14566806818E+03  0.14566806818E+03  0.00000000000E+00 0.  1.
         23    2    1    2    0    0 -0.82905641078E+01 -0.64119838174E+02  0.74567195039E+02  0.13415616786E+03  0.90870917786E+02 0.  0.
          5    1    1    2  502    0 -0.20656768010E+02 -0.30453553955E+02 -0.26000514673E+01  0.37126185917E+02  0.41800000000E+01 0.  1.
         -5    1    1    2    0  502  0.28947332117E+02  0.94573392128E+02 -0.70493590688E+02  0.12152733546E+03  0.41800000000E+01 0.  1.
        -11    1    3    3    0    0 -0.46715920002E+02 -0.44290161160E+02  0.61387707249E+02  0.88951931730E+02  0.00000000000E+00 0. -1.
         11    1    3    3    0    0  0.38425355894E+02 -0.19829677014E+02  0.13179487789E+02  0.45204236134E+02  0.00000000000E+00 0.  1.
</event>
<event>
 7    1  0.4096326E-006  0.1356664E+03  0.7561462E-02  0.1219282E+00
          1   -1    0    0  501    0  0.00000000000E+00  0.00000000000E+00  0.10996028512E+04  0.10996028512E+04  0.00000000000E+00 0. -1.
         -1   -1    0    0    0  501 -0.00000000000E+00 -0.00000000000E+00 -0.27345844646E+02  0.27345844646E+02  0.00000000000E+00 0.  1.
         23    2    1    2    0    0 -0.42030913784E+02 -0.10453098476E+03  0.74413763993E+03  0.75816422143E+03  0.91535976539E+02 0.  0.
          5    1    1    2  502    0 -0.12240393324E+02  0.75121865223E+01  0.19381264575E+03  0.19438897661E+03  0.41800000000E+01 0. -1.
         -5    1    1    2    0  502  0.54271307108E+02  0.97018798233E+02  0.13430672088E+03  0.17439549782E+03  0.41800000000E+01 0. -1.
        -11    1    3    3    0    0 -0.66853844953E+02 -0.44882327065E+02  0.42082688734E+03  0.42846135062E+03  0.00000000000E+00 0. -1.
         11    1    3    3    0    0  0.24822931169E+02 -0.59648657690E+02  0.32331075259E+03  0.32970287080E+03  0.00000000000E+00 0.  1.
</event>
<event>
 7    1  0.5444341E-006  0.2052421E+03  0.7561462E-02  0.1145390E+00
          2   -1    0    0  501    0  0.00000000000E+00  0.00000000000E+00  0.81875197338E+03  0.81875197338E+03  0.00000000000E+00 0. -1.
         -2   -1    0    0    0  501 -0.00000000000E+00 -0.00000000000E+00 -0.53654164166E+02  0.53654164166E+02  0.00000000000E+00 0.  1.
         23    2    1    2    0    0 -0.40061946761E+02  0.17454978899E+03  0.39896789988E+03  0.44605994088E+03  0.87872050790E+02 0.  0.
          5    1    1    2  502    0  0.60530632132E+02 -0.28873475452E+02  0.79103743489E+02  0.10379070115E+03  0.41800000000E+01 0. -1.
         -5    1    1    2    0  502 -0.20468685371E+02 -0.14567631354E+03  0.28702616585E+03  0.32255549552E+03  0.41800000000E+01 0. -1.
        -11    1    3    3    0    0  0.19080876741E+02  0.10590469769E+02  0.23287375037E+02  0.31914569451E+02  0.00000000000E+00 0.  1.
         11    1    3    3    0    0 -0.59142823502E+02  0.16395931922E+03  0.37568052484E+03  0.41414537143E+03  0.00000000000E+00 0. -1.
</event>
<event>
 7    1  0.4096326E-006  0.1751522E+03  0.7561462E-02  0.1172579E+00
          1   -1    0    0  501    0  0.00000000000E+00  0.00000000000E+00  0.11804585034E+03  0.11804585034E+03  0.00000000000E+00 0. -1.
         -1   -1    0    0    0  501 -0.00000000000E+00 -0.00000000000E+00 -0.35481451408E+03  0.35481451408E+03  0.00000000000E+00 0.  1.
         23    2    1    2    0    0 -0.55033369445E+02 -0.16416436924E+03 -0.78827691989E+02  0.20720911401E+03  0.82116989859E+02 0.  0.
          5    1    1    2  502    0  0.15242984112E+02  0.54908042800E+02 -0.13563787027E+03  0.14718133707E+03  0.41800000000E+01 0. -1.
         -5    1    1    2    0  502  0.39790385333E+02  0.10925632644E+03 -0.22303101477E+02  0.11846991335E+03  0.41800000000E+01 0. -1.
        -11    1    3    3    0    0 -0.54610466767E+02 -0.11156177419E+03 -0.90052844075E+02  0.15342049168E+03  0.00000000000E+00 0.  1.
         11    1    3    3    0    0 -0.42290267766E+00 -0.52602595054E+02  0.11225152086E+02  0.53788622333E+02  0.00000000000E+00 0. -1.
</event>
<event>
 7    1  0.5346027E-006  0.1798033E+03  0.7561462E-02  0.1167994E+00
         -2   -1    0    0    0  501 -0.00000000000E+00  0.00000000000E+00  0.37810956310E+02  0.37810956310E+02  0.00000000000E+00 0.  1.
          2   -1    0    0  501    0  0.00000000000E+00 -0.00000000000E+00 -0.10609143830E+04  0.10609143830E+04  0.00000000000E+00 0. -1.
         23    2    1    2    0    0 -0.13109908225E+03 -0.10420429536E+03 -0.51401095616E+03  0.54839045384E+03  0.92083235546E+02 0.  0.
          5    1    1    2  502    0  0.59127236172E+02  0.61486395679E+02 -0.41769089779E+03  0.42633292790E+03  0.41800000000E+01 0.  1.
         -5    1    1    2    0  502  0.71971846077E+02  0.42717899681E+02 -0.91401572695E+02  0.12400195753E+03  0.41800000000E+01 0.  1.
        -11    1    3    3    0    0 -0.13550059009E+03 -0.63817890238E+02 -0.38382903023E+03  0.41201681698E+03  0.00000000000E+00 0. -1.
         11    1    3    3    0    0  0.44015078410E+01 -0.40386405122E+02 -0.13018192593E+03  0.13637363685E+03  0.00000000000E+00 0.  1.
</event>
<event>
 7    1  0.4096326E-006  0.1480876E+03  0.7561462E-02  0.1202843E+00
          2   -1    0    0  501    0  0.00000000000E+00  0.00000000000E+00  0.25879253998E+03  0.25879253998E+03  0.00000000000E+00 0. -1.
         -2   -1    0    0    0  501 -0.00000000000E+00 -0.00000000000E+00 -0.93105312108E+02  0.93105312108E+02  0.00000000000E+00 0.  1.
         23    2    1    2    0    0  0.47426696256E+01  0.10330912057E+03  0.30779214322E+02  0.14085015225E+03  0.90532524809E+02 0.  0.
          5    1    1    2  502    0 -0.48742969253E+02 -0.28675519089E+01  0.22391367542E+02  0.53878990766E+02  0.41800000000E+01 0. -1.
         -5    1    1    2    0  502  0.44000299627E+02 -0.10044156866E+03  0.11251664600E+03  0.15716870907E+03  0.41800000000E+01 0. -1.
        -11    1    3    3    0    0 -0.42135784599E+02  0.61928568608E+02  0.17730265295E+02  0.76973594570E+02  0.00000000000E+00 0. -1.
         11    1    3    3    0    0  0.46878454224E+02  0.41380551957E+02  0.13048949027E+02  0.63876557683E+02  0.00000000000E+00 0.  1.
</event>
<event>
 7    1  0.4096326E-006  0.7531378E+02  0.7561462E-02  0.1342902E+00
         -1   -1    0    0    0  501 -0.00000000000E+00  0.00000000000E+00  0.16266648672E+03  0.16266648672E+03  0.00000000000E+00 0.  1.
          1   -1    0    0  501    0  0.00000000000E+00 -0.00000000000E+00 -0.14080123240E+03  0.14080123240E+03  0.00000000000E+00 0. -1.
         23    2    1    2    0    0  0.18514849432E+02  0.25048770001E+02 -0.89210212280E+02  0.13314534040E+03  0.93802873980E+02 0.  0.
          5    1    1    2  502    0  0.37610681311E+02 -0.13707474909E+02 -0.52608131619E+01  0.40590722735E+02  0.41800000000E+01 0.  1.
         -5    1    1    2    0  502 -0.56125530742E+02 -0.11341295092E+02  0.11633627976E+03  0.12973165598E+03  0.41800000000E+01 0.  1.
        -11    1    3    3    0    0 -0.11216383535E+02  0.19828202311E+02  0.13234367565E+02  0.26346031036E+02  0.00000000000E+00 0.  1.
         11    1    3    3    0    0  0.29731232967E+02  0.52205676902E+01 -0.10244457984E+03  0.10679930936E+03  0.00000000000E+00 0. -1.
</event>
<event>
 7    1  0.4096326E-006  0.8704720E+02  0.7561462E-02  0.1310164E+00
         -2   -1    0    0    0  501 -0.00000000000E+00  0.00000000000E+00  0.22728142110E+03  0.22728142110E+03  0.00000000000E+00 0.  1.
          2   -1    0    0  501    0  0.00000000000E+00 -0.00000000000E+00 -0.59491398991E+02  0.59491398991E+02  0.00000000000E+00 0. -1.
         23    2    1    2    0    0  0.18031669914E+02  0.34176129618E+02  0.80962435124E+02  0.12967528631E+03  0.93635543591E+02 0.  0.
          5    1    1    2  502    0  0.14162479172E+02 -0.39112353148E+02 -0.19270133588E+02  0.46034361444E+02  0.41800000000E+01 0.  1.
         -5    1    1    2    0  502 -0.32194149086E+02  0.49362235296E+01  0.10609772057E+03  0.11106317233E+03  0.41800000000E+01 0.  1.
        -11    1    3    3    0    0  0.55685549711E+02  0.22039411463E+02  0.60526231702E+02  0.85147171581E+02  0.00000000000E+00 0. -1.
         11    1    3    3    0    0 -0.37653879796E+02  0.12136718156E+02  0.20436203422E+02  0.44528114732E+02  0.00000000000E+00 0.  1.
</event>
<event>
 7    1  0.4096326E-006  0.1265644E+03  0.7561462E-02  0.1232644E+00
         -2   -1    0    0    0  501 -0.00000000000E+00  0.00000000000E+00  0.18818440851E+03  0.18818440851E+03  0.00000000000E+00 0.  1.
          2   -1    0    0  501    0  0.00000000000E+00 -0.00000000000E+00 -0.11138342142E+03  0.11138342142E+03  0.00000000000E+00 0. -1.
         23    2    1    2    0    0  0.64538290050E+02 -0.95991026674E+01 -0.35652869794E+02  0.11915029449E+03  0.93103876924E+02 0.  0.
          5    1    1    2  502    0  0.37602191038E+02  0.87887394454E+01  0.32074818705E+02  0.50372940225E+02  0.41800000000E+01 0.  1.
         -5    1    1    2    0  502 -0.10214048109E+03  0.81036322206E+00  0.80379038183E+02  0.13004459522E+03  0.41800000000E+01 0.  1.
        -11    1    3    3    0    0  0.30768396997E+02  0.40978102035E+02 -0.26371392876E+02  0.57631150104E+02  0.00000000000E+00 0.  1.
         11    1    3    3    0    0  0.33769893054E+02 -0.50577204703E+02 -0.92814769182E+01  0.61519144388E+02  0.00000000000E+00 0. -1.
</event>
<event>
 7    1  0.4096326E-006  0.1118484E+03  0.7561462E-02  0.1257185E+00
         -1   -1    0    0    0  501 -0.00000000000E+00  0.00000000000E+00  0.49845400445E+02  0.49845400445E+02  0.00000000000E+00 0.  1.
          1   -1    0    0  501    0  0.00000000000E+00 -0.00000000000E+00 -0.28029560572E+03  0.28029560572E+03  0.00000000000E+00 0. -1.
         23    2    1    2    0    0 -0.31170542497E+02 -0.35010365551E+02 -0.10841249627E+03  0.14920353030E+03  0.91165210961E+02 0.  0.
          5    1    1    2  502    0  0.44696049199E+02  0.70340198696E+02 -0.11523363975E+03  0.14227348487E+03  0.41800000000E+01 0. -1.
         -5    1    1    2    0  502 -0.13525506701E+02 -0.35329833145E+02 -0.68040692532E+01  0.38663991000E+02  0.41800000000E+01 0. -1.
        -11    1    3    3    0    0 -0.10754952656E+02  0.31149363886E+02 -0.40577494247E+02  0.52273175880E+02  0.00000000000E+00 0. -1.
         11    1    3    3    0    0 -0.20415589841E+02 -0.66159729437E+02 -0.67835002023E+02  0.96930354416E+02  0.00000000000E+00 0.  1.
</event>
<event>
 7    1  0.4096326E-006  0.1555534E+03  0.7561462E-02  0.1193810E+00
          1   -1    0    0  501    0  0.00000000000E+00  0.00000000000E+00  0.12943486997E+04  0.12943486997E+04  0.00000000000E+00 0. -1.
         -1   -1    0    0    0  501 -0.00000000000E+00 -0.00000000000E+00 -0.19464192709E+02  0.19464192709E+02  0.00000000000E+00 0.  1.
         23    2    1    2    0    0 -0.51099991779E+02  0.10226579003E+03  0.67743127110E+03  0.69279162154E+03  0.89317427457E+02 0.  0.
          5    1    1    2  502    0 -0.38179194989E+02 -0.14773086491E+02  0.10113517875E+03  0.10918650006E+03  0.41800000000E+01 0. -1.
         -5    1    1    2    0  502  0.89279186767E+02 -0.87492703534E+02  0.49631805712E+03  0.51183477079E+03  0.41800000000E+01 0. -1.
        -11    1    3    3    0    0  0.24161761989E+02  0.10887949574E+02  0.11066934050E+03  0.11379824742E+03  0.00000000000E+00 0.  1.
         11    1    3    3    0    0 -0.75261753768E+02  0.91377840452E+02  0.56676193060E+03  0.57899337413E+03  0.00000000000E+00 0. -1.
</event>
<event>
 7    1  0.4096326E-006  0.1031305E+03  0.7561462E-02  0.1273847E+00
          2   -1    0    0  501    0  0.00000000000E+00  0.00000000000E+00  0.11165246549E+03  0.11165246549E+03  0.00000000000E+00 0. -1.
         -2   -1    0    0    0  501 -0.00000000000E+00 -0.00000000000E+00 -0.25953747097E+03  0.25953747097E+03  0.00000000000E+00 0.  1.
         23    2    1    2    0    0 -0.62103527418E+02  0.19010367708E+02  0.53317498725E+02  0.12553031223E+03  0.93256964455E+02 0.  0.
          5    1    1    2  502    0 -0.22007043602E+02 -0.18852210588E+02 -0.13610456871E+03  0.13921796521E+03  0.41800000000E+01 0. -1.
         -5    1    1    2    0  502  0.84110571020E+02 -0.15815712026E+00 -0.65097935497E+02  0.10644165903E+03  0.41800000000E+01 0. -1.
        -11    1    3    3    0    0 -0.64046516773E+01  0.34393371328E+02  0.57810272371E+02  0.67571822131E+02  0.00000000000E+00 0. -1.
         11    1    3    3    0    0 -0.55698875741E+02 -0.15383003620E+02 -0.44927736462E+01  0.57958490096E+02  0.00000000000E+00 0.  1.
</event>
<event>
 7    1  0.4096326E-006  0.1280802E+03  0.7561462E-02  0.1230332E+00
          2   -1    0    0  501    0  0.00000000000E+00  0.00000000000E+00  0.54517018224E+03  0.54517018224E+03  0.00000000000E+00 0.  1.
         -2   -1    0    0    0  501 -0.00000000000E+00 -0.00000000000E+00 -0.36323117154E+02  0.36323117154E+02  0.00000000000E+00 0. -1.
         23    2    1    2    0    0  0.48972916030E+02 -0.66875270797E+02  0.16140761012E+03  0.20303113759E+03  0.91096530552E+02 0.  0.
          5    1    1    2  502    0  0.29529560995E+02  0.52019548645E-01  0.22004500245E+02  0.37063028878E+02  0.41800000000E+01 0. -1.
         -5    1    1    2    0  502 -0.78502477026E+02  0.66823251249E+02  0.32543495472E+03  0.34139913292E+03  0.41800000000E+01 0. -1.
        -11    1    3    3    0    0  0.62469411463E+02 -0.82629606987E+01  0.83374596345E+02  0.10450850302E+03  0.00000000000E+00 0. -1.
         11    1    3    3    0    0 -0.13496495432E+02 -0.58612310099E+02  0.78033013774E+02  0.98522634571E+02  0.00000000000E+00 0.  1.
</event>
<event>
 7    1  0.4096326E-006  0.1128321E+03  0.7561462E-02  0.1255413E+00
         -1   -1    0    0    0  501 -0.00000000000E+00  0.00000000000E+00  0.35150350137E+02  0.35150350137E+02  0.00000000000E+00 0.  1.
          1   -1    0    0  501    0  0.00000000000E+00 -0.00000000000E+00 -0.71783173837E+03  0.71783173837E+03  0.00000000000E+00 0. -1.
         23    2    1    2    0    0  0.60612889551E+02 -0.18548274125E+02 -0.57051789867E+03  0.58132247479E+03  0.91799706624E+02 0.  0.
          5    1    1    2  502    0 -0.64851410359E+02 -0.26187477287E+02 -0.10460428627E+03  0.12590082803E+03  0.41800000000E+01 0. -1.
         -5    1    1    2    0  502  0.42385208075E+01  0.44735751412E+02 -0.75592032851E+01  0.45758785685E+02  0.41800000000E+01 0.  1.
        -11    1    3    3    0    0  0.33561954646E+02 -0.55389533516E+02 -0.37341080695E+03  0.37898553531E+03  0.00000000000E+00 0. -1.
         11    1    3    3    0    0  0.27050934905E+02  0.36841259391E+02 -0.19710709172E+03  0.20233693948E+03  0.00000000000E+00 0.  1.
</event>
<event>
 7    1  0.4096326E-006  0.1021858E+03  0.7561462E-02  0.1275765E+00
          1   -1    0    0  501    0  0.00000000000E+00  0.00000000000E+00  0.22377339537E+03  0.22377339537E+03  0.00000000000E+00 0. -1.
         -1   -1    0    0    0  501 -0.00000000000E+00 -0.00000000000E+00 -0.78612543627E+02  0.78612543627E+02  0.00000000000E+00 0.  1.
         23    2    1    2    0    0 -0.28147260661E+02 -0.23012561390E+02  0.14142986411E+03  0.17205457634E+03  0.90986397413E+02 0.  0.
          5    1    1    2  502    0 -0.81311133372E+01  0.69900443201E+02 -0.27392157253E+01  0.70549008969E+02  0.41800000000E+01 0.  1.
         -5    1    1    2    0  502  0.36278373998E+02 -0.46887881810E+02  0.64702033598E+01  0.59782353685E+02  0.41800000000E+01 0.  1.
        -11    1    3    3    0    0  0.21293330961E+02 -0.54771359069E+01  0.84649421399E+00  0.22002761500E+02  0.00000000000E+00 0.  1.
         11    1    3    3    0    0 -0.49440591622E+02 -0.17535425483E+02  0.14058336989E+03  0.15005181484E+03  0.00000000000E+00 0. -1.
</event>
<event>
 7    1  0.4096326E-006  0.1333735E+03  0.7561462E-02  0.1222534E+00
          1   -1    0    0  501    0  0.00000000000E+00  0.00000000000E+00  0.40208909702E+03  0.40208909702E+03  0.00000000000E+00 0. -1.
         -1   -1    0    0    0  501 -0.00000000000E+00 -0.00000000000E+00 -0.52900982688E+02  0.52900982688E+02  0.00000000000E+00 0.  1.
         23    2    1    2    0    0 -0.19692407047E+02 -0.92442656694E+02  0.12455254715E+03  0.18105283392E+03  0.91287217039E+02 0.  0.
          5    1    1    2  502    0  0.45406975381E+02 -0.35951881205E+01  0.12506484555E+03  0.13316683815E+03  0.41800000000E+01 0. -1.
         -5    1    1    2    0  502 -0.25714568334E+02  0.96037844815E+02  0.99570721627E+02  0.14077040764E+03  0.41800000000E+01 0. -1.
        -11    1    3    3    0    0 -0.40320229786E+02 -0.17830689845E+02  0.81027176566E+02  0.92244554162E+02  0.00000000000E+00 0. -1.
         11    1    3    3    0    0  0.20627822739E+02 -0.74611966849E+02  0.43525370588E+02  0.88808279755E+02  0.00000000000E+00 0.  1.
</event>
<event>
 7    1  0.4096326E-006  0.1335735E+03  0.7561462E-02  0.1222248E+00
         -1   -1    0    0    0  501 -0.00000000000E+00  0.00000000000E+00  0.86250973415E+02  0.86250973415E+02  0.00000000000E+00 0.  1.
          1   -1    0    0  501    0  0.00000000000E+00 -0.00000000000E+00 -0.30349478552E+03  0.30349478552E+03  0.00000000000E+00 0. -1.
         23    2    1    2    0    0 -0.24722728671E+01  0.10922041800E+03 -0.16278948889E+03  0.21496686288E+03  0.88176655643E+02 0.  0.
          5    1    1    2  502    0 -0.48023003616E+02 -0.58254622337E+02  0.12402267958E+02  0.76623094107E+02  0.41800000000E+01 0.  1.
         -5    1    1    2    0  502  0.50495276483E+02 -0.50965795658E+02 -0.66856591174E+02  0.98155801956E+02  0.41800000000E+01 0.  1.
        -11    1    3    3    0    0  0.22387845772E+02  0.36535989991E+02 -0.10071976888E+02  0.44017484269E+02  0.00000000000E+00 0.  1.
         11    1    3    3    0    0 -0.24860118640E+02  0.72684428005E+02 -0.15271751200E+03  0.17094937861E+03  0.00000000000E+00 0. -1.
</event>
<event>
 7    1  0.4096326E-006  0.1100000E+03  0.7561462E-02  0.1260570E+00
          2   -1    0    0  501    0  0.00000000000E+00  0.00000000000E+00  0.62158028971E+03  0.62158028971E+03  0.00000000000E+00 0. -1.
         -2   -1    0    0    0  501 -0.00000000000E+00 -0.00000000000E+00 -0.34037848192E+02  0.34037848192E+02  0.00000000000E+00 0.  1.
         23    2    1    2    0    0 -0.68143310970E+02  0.53845141101E+02  0.36297752586E+03  0.38428880330E+03  0.91555393115E+02 0.  0.
          5    1    1    2  502    0  0.56462747882E+02 -0.13767400731E+02  0.18642776098E+02  0.61176864270E+02  0.41800000000E+01 0. -1.
         -5    1    1    2    0  502  0.11680563088E+02 -0.40077740369E+02  0.20592213956E+03  0.21015247033E+03  0.41800000000E+01 0. -1.
        -11    1    3    3    0    0 -0.30374266522E+02  0.71799228674E+02  0.17286825950E+03  0.18963428078E+03  0.00000000000E+00 0. -1.
         11    1    3    3    0    0 -0.37769044448E+02 -0.17954087573E+02  0.19010926636E+03  0.19465452252E+03  0.00000000000E+00 0.  1.
</event>
<event>
 7    1  0.4345664E-006  0.1958342E+03  0.7561462E-02  0.1153302E+00
          2   -1    0    0  501    0  0.00000000000E+00  0.00000000000E+00  0.32841453477E+03  0.32841453477E+03  0.00000000000E+00 0. -1.
         -2   -1    0    0    0  501 -0.00000000000E+00 -0.00000000000E+00 -0.14780347816E+03  0.14780347816E+03  0.00000000000E+00 0.  1.
         23    2    1    2    0    0  0.18561407122E+03  0.42620342580E+02  0.11310839320E+03  0.23857654402E+03  0.88635104264E+02 0.  0.
          5    1    1    2  502    0 -0.18109799731E+03 -0.31793580558E+02  0.15949461326E+02  0.18460545526E+03  0.41800000000E+01 0. -1.
         -5    1    1    2    0  502 -0.45160739074E+01 -0.10826762022E+02  0.51553202085E+02  0.53036013657E+02  0.41800000000E+01 0. -1.
        -11    1    3    3    0    0  0.16664142708E+03  0.23371131516E+02  0.59395934827E+02  0.17844733700E+03  0.00000000000E+00 0.  1.
         11    1    3    3    0    0  0.18972644132E+02  0.19249211064E+02  0.53712458372E+02  0.60129207015E+02  0.00000000000E+00 0. -1.
</event>
<event>
 7    1  0.4096326E-006  0.1324213E+03  0.7561462E-02  0.1223907E+00
          2   -1    0    0  501    0  0.00000000000E+00  0.00000000000E+00  0.84379092937E+02  0.84379092937E+02  0.00000000000E+00 0. -1.
         -2   -1    0    0    0  501 -0.00000000000E+00 -0.00000000000E+00 -0.26056574187E+03  0.26056574187E+03  0.00000000000E+00 0.  1.
         23    2    1    2    0    0 -0.92218842269E+02  0.40397240964E+02 -0.76465696096E+02  0.15592493235E+03  0.91265162586E+02 0.  0.
          5    1    1    2  502    0  0.25830948996E+02 -0.79225214353E+02 -0.48233844987E+02  0.96373485553E+02  0.41800000000E+01 0.  1.
         -5    1    1    2    0  502  0.66387893273E+02  0.38827973389E+02 -0.51487107853E+02  0.92646416907E+02  0.41800000000E+01 0.  1.
        -11    1    3    3    0    0 -0.57007568205E+02  0.39142614414E+02  0.27712525890E+01  0.69207564159E+02  0.00000000000E+00 0. -1.
         11    1    3    3    0    0 -0.35211274064E+02  0.12546265491E+01 -0.79236948685E+02  0.86717368191E+02  0.00000000000E+00 0.  1.
</event>
<event>
 7    1  0.4096326E-006  0.1216389E+03  0.7561462E-02  0.1240418E+00
          1   -1    0    0  501    0  0.00000000000E+00  0.00000000000E+00  0.78096912571E+02  0.78096912571E+02  0.00000000000E+00 0. -1.
         -1   -1    0    0    0  501 -0.00000000000E+00 -0.00000000000E+00 -0.28394170320E+03  0.28394170320E+03  0.00000000000E+00 0.  1.
         23    2    1    2    0    0  0.75802186797E+02  0.40087538191E+02 -0.95737974489E+01  0.11400100919E+03  0.74508994467E+02 0.  0.
          5    1    1    2  502    0 -0.74037874274E+02 -0.80910156301E+02 -0.13076166458E+03  0.17071656494E+03  0.41800000000E+01 0.  1.
         -5    1    1    2    0  502 -0.17643125232E+01  0.40822618111E+02 -0.65509328598E+02  0.77321041647E+02  0.41800000000E+01 0.  1.
        -11    1    3    3    0    0  0.19270611188E+02  0.29037747279E+02  0.28444023961E+02  0.44984549810E+02  0.00000000000E+00 0. -1.
         11    1    3    3    0    0  0.56531575609E+02  0.11049790912E+02 -0.38017821409E+02  0.69016459376E+02  0.00000000000E+00 0.  1.
</event>
<event>
 7    1  0.4096326E-006  0.1680349E+03  0.7561462E-02  0.1179913E+00
         -1   -1    0    0    0  501 -0.00000000000E+00  0.00000000000E+00  0.16304168189E+04  0.16304168189E+04  0.00000000000E+00 0.  1.
          1   -1    0    0  501    0  0.00000000000E+00 -0.00000000000E+00 -0.20566492839E+02  0.20566492839E+02  0.00000000000E+00 0. -1.
         23    2    1    2    0    0 -0.12648517990E+03  0.38280657668E+02  0.47333448675E+03  0.49999206487E+03  0.92101135146E+02 0.  0.
          5    1    1    2  502    0 -0.12571741010E+02  0.21341457562E+02  0.28699662203E+03  0.28809380407E+03  0.41800000000E+01 0. -1.
         -5    1    1    2    0  502  0.13905692091E+03 -0.59622115230E+02  0.84951921724E+03  0.86289744277E+03  0.41800000000E+01 0. -1.
        -11    1    3    3    0    0 -0.10142085707E+03  0.66939633511E+02  0.38712211680E+03  0.40574701243E+03  0.00000000000E+00 0. -1.
         11    1    3    3    0    0 -0.25064322838E+02 -0.28658975843E+02  0.86212369951E+02  0.94245052434E+02  0.00000000000E+00 0.  1.
</event>
<event>
 7    1  0.4096326E-006  0.7795422E+02  0.7561462E-02  0.1334959E+00
         -2   -1    0    0    0  501 -0.00000000000E+00  0.00000000000E+00  0.55538279042E+02  0.55538279042E+02  0.00000000000E+00 0.  1.
          2   -1    0    0  501    0  0.00000000000E+00 -0.00000000000E+00 -0.24489565709E+03  0.24489565709E+03  0.00000000000E+00 0. -1.
         23    2    1    2    0    0 -0.41090720386E+02  0.23889557009E+01 -0.87175710572E+02  0.13375347262E+03  0.92715869797E+02 0.  0.
          5    1    1    2  502    0  0.42159511768E+02  0.82516660829E+01 -0.12979048159E+03  0.13677922334E+03  0.41800000000E+01 0. -1.
         -5    1    1    2    0  502 -0.10687913817E+01 -0.10640621784E+02  0.27608814117E+02  0.29901240173E+02  0.41800000000E+01 0. -1.
        -11    1    3    3    0    0 -0.19612555492E+02 -0.45080293820E+02 -0.46279444469E+02  0.67517939869E+02  0.00000000000E+00 0.  1.
         11    1    3    3    0    0 -0.21478164894E+02  0.47469249521E+02 -0.40896266103E+02  0.66235532748E+02  0.00000000000E+00 0. -1.
</event>
<event>
 7    1  0.4096326E-006  0.1322166E+03  0.7561462E-02  0.1224203E+00
         -2   -1    0    0    0  501 -0.00000000000E+00  0.00000000000E+00  0.20314504733E+03  0.20314504733E+03  0.00000000000E+00 0.  1.
          2   -1    0    0  501    0  0.00000000000E+00 -0.00000000000E+00 -0.12074479214E+03  0.12074479214E+03  0.00000000000E+00 0. -1.
         23    2    1    2    0    0 -0.86047144330E+02  0.13152925796E+02 -0.37464614668E+02  0.12999576441E+03  0.88984217188E+02 0.  0.
          5    1    1    2  502    0  0.60416087179E+02  0.52262562736E+02  0.79400188144E+02  0.11270910048E+03  0.41800000000E+01 0.  1.
         -5    1    1    2    0  502  0.25631057151E+02 -0.65415488532E+02  0.40464681711E+02  0.81184974573E+02  0.41800000000E+01 0.  1.
        -11    1    3    3    0    0 -0.96543508897E+01 -0.26344918194E+02 -0.33785846228E+02  0.43917475008E+02  0.00000000000E+00 0. -1.
         11    1    3    3    0    0 -0.76392793440E+02  0.39497843989E+02 -0.36787684394E+01  0.86078289404E+02  0.00000000000E+00 0.  1.
</event>
<event>
 7    1  0.4096326E-006  0.2185400E+03  0.7561462E-02  0.1134976E+00
          1   -1    0    0  501    0  0.00000000000E+00  0.00000000000E+00  0.13462887972E+03  0.13462887972E+03  0.00000000000E+00 0. -1.
         -1   -1    0    0    0  501 -0.00000000000E+00 -0.00000000000E+00 -0.44553216896E+03  0.44553216896E+03  0.00000000000E+00 0.  1.
         23    2    1    2    0    0  0.19030497677E+03 -0.46932368048E+01 -0.22010706343E+02  0.21226943866E+03  0.91300781723E+02 0.  0.
          5    1    1    2  502    0 -0.98344133388E+02  0.63422916383E+02 -0.12841198818E+03  0.17378476919E+03  0.41800000000E+01 0. -1.
         -5    1    1    2    0  502 -0.91960843377E+02 -0.58729679579E+02 -0.16048059472E+03  0.19410684083E+03  0.41800000000E+01 0. -1.
        -11    1    3    3    0    0  0.18292612146E+03  0.20934795777E+02 -0.15212940889E+02  0.18474757145E+03  0.00000000000E+00 0.  1.
         11    1    3    3    0    0  0.73788553049E+01 -0.25628032582E+02 -0.67977654539E+01  0.27521867211E+02  0.00000000000E+00 0. -1.
</event>
<event>
 7    1  0.4096326E-006  0.1383815E+03  0.7561462E-02  0.1215523E+00
         -2   -1    0    0    0  501 -0.00000000000E+00  0.00000000000E+00  0.41708908986E+02  0.41708908986E+02  0.00000000000E+00 0.  1.
          2   -1    0    0  501    0  0.00000000000E+00 -0.00000000000E+00 -0.47743292617E+03  0.47743292617E+03  0.00000000000E+00 0. -1.
         23    2    1    2    0    0 -0.48085677075E+02  0.72459874827E+02 -0.24640063278E+03  0.27613162531E+03  0.89290183440E+02 0.  0.
          5    1    1    2  502    0  0.24850489957E+02 -0.10728846396E+03 -0.13377019678E+03  0.17332137576E+03  0.41800000000E+01 0.  1.
         -5    1    1    2    0  502  0.23235187118E+02  0.34828589133E+02 -0.55553187623E+02  0.69688834087E+02  0.41800000000E+01 0.  1.
        -11    1    3    3    0    0  0.19423932214E+00  0.76064554601E+02 -0.14363409514E+03  0.16253186605E+03  0.00000000000E+00 0. -1.
         11    1    3    3    0    0 -0.48279916397E+02 -0.36046797740E+01 -0.10276653764E+03  0.11359975925E+03  0.00000000000E+00 0.  1.
</event>
<event>
 7    1  0.4096326E-006  0.9643697E+02  0.7561462E-02  0.1287972E+00
         -1   -1    0    0    0  501 -0.00000000000E+00  0.00000000000E+00  0.56427630043E+03  0.56427630043E+03  0.00000000000E+00 0.  1.
          1   -1    0    0  501    0  0.00000000000E+00 -0.00000000000E+00 -0.23566499203E+02  0.23566499203E+02  0.00000000000E+00 0. -1.
         23    2    1    2    0    0 -0.26791647957E+02 -0.77670789169E+00  0.12544782534E+03  0.15331605799E+03  0.83965832818E+02 0.  0.
          5    1    1    2  502    0  0.10736548799E+02  0.52541131588E+02  0.90749320375E+02  0.10549291700E+03  0.41800000000E+01 0. -1.
         -5    1    1    2    0  502  0.16055099157E+02 -0.51764423696E+02  0.32451265551E+03  0.32903382464E+03  0.41800000000E+01 0. -1.
        -11    1    3    3    0    0 -0.39865538030E+02  0.30912320942E+02  0.53013907701E+02  0.73179963912E+02  0.00000000000E+00 0. -1.
         11    1    3    3    0    0  0.13073890074E+02 -0.31689028834E+02  0.72433917637E+02  0.80136094079E+02  0.00000000000E+00 0.  1.
</event>
<event>
 7    1  0.4096326E-006  0.1283359E+03  0.7561462E-02  0.1229946E+00
          4   -1    0    0  501    0  0.00000000000E+00  0.00000000000E+00  0.24091577999E+02  0.24091577999E+02  0.00000000000E+00 0. -1.
         -4   -1    0    0    0  501 -0.00000000000E+00 -0.00000000000E+00 -0.92051095876E+03  0.92051095876E+03  0.00000000000E+00 0.  1.
         23    2    1    2    0    0  0.98931402727E+02 -0.59562862507E+01 -0.48522433452E+03  0.50353157360E+03  0.90986213253E+02 0.  0.
          5    1    1    2  502    0 -0.82358402049E+02  0.43331991112E+02 -0.14935718721E+03  0.17602729792E+03  0.41800000000E+01 0. -1.
         -5    1    1    2    0  502 -0.16573000678E+02 -0.37375704861E+02 -0.26183785902E+03  0.26504366524E+03  0.41800000000E+01 0. -1.
        -11    1    3    3    0    0  0.42932896756E+02 -0.38484766056E+02 -0.33525773103E+03  0.34017944831E+03  0.00000000000E+00 0.  1.
         11    1    3    3    0    0  0.55998505972E+02  0.32528479805E+02 -0.14996660350E+03  0.16335212528E+03  0.00000000000E+00 0. -1.
</event>
<event>
 6    1  0.4096326E-006  0.1979384E+03  0.7561462E-02  0.1151490E+00
          1   -1    0    0  501    0  0.00000000000E+00  0.00000000000E+00  0.12309985711E+04  0.12309985711E+04  0.00000000000E+00 0. -1.
         -1   -1    0    0    0  501 -0.00000000000E+00 -0.00000000000E+00 -0.73404082442E+02  0.73404082442E+02  0.00000000000E+00 0.  1.
          5    1    1    2  502    0  0.89522379797E+02 -0.14436237053E+03  0.55916937894E+02  0.17888243864E+03  0.41800000000E+01 0.  1.
         -5    1    1    2    0  502  0.31594913491E+01 -0.61505925416E+01  0.72347387939E+02  0.72797177938E+02  0.41800000000E+01 0.  1.
        -11    1    1    2    0    0 -0.33352695815E+02 -0.18929076676E+02  0.12522722378E+03  0.13096781986E+03  0.00000000000E+00 0.  1.
         11    1    1    2    0    0 -0.59329175331E+02  0.16944203975E+03  0.90410293908E+03  0.92175521715E+03  0.00000000000E+00 0. -1.
</event>
<event>
 7    1  0.4096326E-006  0.2857052E+03  0.7561462E-02  0.1092613E+00
          2   -1    0    0  501    0  0.00000000000E+00  0.00000000000E+00  0.71882072128E+03  0.71882072128E+03  0.00000000000E+00 0. -1.
         -2   -1    0    0    0  501 -0.00000000000E+00 -0.00000000000E+00 -0.12943024062E+03  0.12943024062E+03  0.00000000000E+00 0.  1.
         23    2    1    2    0    0  0.24892373895E+03 -0.11147640653E+03  0.40201105022E+03  0.49448396060E+03  0.92257713874E+02 0.  0.
          5    1    1    2  502    0 -0.18163354212E+02 -0.23966861665E+02  0.73420677105E+01  0.31236136966E+02  0.41800000000E+01 0.  1.
         -5    1    1    2    0  502 -0.23076038474E+03  0.13544326820E+03  0.18003736273E+03  0.32253086433E+03  0.41800000000E+01 0.  1.
        -11    1    3    3    0    0  0.10426585716E+03 -0.36194756259E+02  0.89944634910E+02  0.14237790102E+03  0.00000000000E+00 0.  1.
         11    1    3    3    0    0  0.14465788180E+03 -0.75281650273E+02  0.31206641531E+03  0.35210605958E+03  0.00000000000E+00 0. -1.
</event>
<event>
 7    1  0.4096326E-006  0.1342990E+03  0.7561462E-02  0.1221213E+00
          1   -1    0    0  501    0  0.00000000000E+00  0.00000000000E+00  0.30880867255E+03  0.30880867255E+03  0.00000000000E+00 0. -1.
         -1   -1    0    0    0  501 -0.00000000000E+00 -0.00000000000E+00 -0.83138224586E+02  0.83138224586E+02  0.00000000000E+00 0.  1.
         23    2    1    2    0    0 -0.19254645785E+02  0.33765560857E+01  0.14287039948E+03  0.17319556387E+03  0.95930233927E+02 0.  0.
          5    1    1    2  502    0  0.65409605082E+02  0.63323392002E+02  0.10045458228E+03  0.13563503940E+03  0.41800000000E+01 0. -1.
         -5    1    1    2    0  502 -0.46154959296E+02 -0.66699948087E+02 -0.17654533797E+02  0.83116293867E+02  0.41800000000E+01 0.  1.
        -11    1    3    3    0    0  0.10124131880E+02  0.44536797431E+02  0.52067311311E+02  0.69260589651E+02  0.00000000000E+00 0. -1.
         11    1    3    3    0    0 -0.29378777665E+02 -0.41160241345E+02  0.90803088172E+02  0.10393497422E+03  0.00000000000E+00 0.  1.
</event>
<event>
 7    1  0.4096326E-006  0.1140963E+03  0.7561462E-02  0.1253167E+00
         -2   -1    0    0    0  501 -0.00000000000E+00  0.00000000000E+00  0.31383536231E+02  0.31383536231E+02  0.00000000000E+00 0.  1.
          2   -1    0    0  501    0  0.00000000000E+00 -0.00000000000E+00 -0.56197210319E+03  0.56197210319E+03  0.00000000000E+00 0. -1.
         23    2    1    2    0    0 -0.39523414973E+02 -0.46207130245E+02 -0.34686177720E+03  0.36292025700E+03  0.87754323196E+02 0.  0.
          5    1    1    2  502    0  0.70278552361E+01 -0.33956733079E+02 -0.11406845822E+03  0.11929600174E+03  0.41800000000E+01 0.  1.
         -5    1    1    2    0  502  0.32495559737E+02  0.80163863324E+02 -0.69658331536E+02  0.11113938068E+03  0.41800000000E+01 0.  1.
        -11    1    3    3    0    0 -0.64825250782E+02 -0.15088978794E+02 -0.20887147732E+03  0.21921971731E+03  0.00000000000E+00 0.  1.
         11    1    3    3    0    0  0.25301835809E+02 -0.31118151451E+02 -0.13799029988E+03  0.14370053969E+03  0.00000000000E+00 0. -1.
</event>
<event>
 7    1  0.4096326E-006  0.8329000E+02  0.7561462E-02  0.1319966E+00
          1   -1    0    0  501    0  0.00000000000E+00  0.00000000000E+00  0.13554812507E+03  0.13554812507E+03  0.00000000000E+00 0. -1.
         -1   -1    0    0    0  501 -0.00000000000E+00 -0.00000000000E+00 -0.10023493505E+03  0.10023493505E+03  0.00000000000E+00 0.  1.
         23    2    1    2    0    0  0.22969499555E+02  0.52572749751E+01  0.51983230889E+02  0.10740112620E+03  0.90980815366E+02 0.  0.
          5    1    1    2  502    0  0.29116669060E+02 -0.19509637021E+02 -0.52629010311E+02  0.63369483824E+02  0.41800000000E+01 0.  1.
         -5    1    1    2    0  502 -0.52086168615E+02  0.14252362045E+02  0.35958969442E+02  0.65012450101E+02  0.41800000000E+01 0.  1.
        -11    1    3    3    0    0 -0.65423713148E+01  0.34772185242E+02  0.55170331344E+02  0.65541383488E+02  0.00000000000E+00 0. -1.
         11    1    3    3    0    0  0.29511870870E+02 -0.29514910267E+02 -0.31871004555E+01  0.41859742708E+02  0.00000000000E+00 0.  1.
</event>
<event>
 7    1  0.4096326E-006  0.1254392E+03  0.7561462E-02  0.1234384E+00
          1   -1    0    0  501    0  0.00000000000E+00  0.00000000000E+00  0.44357501527E+03  0.44357501527E+03  0.00000000000E+00 0. -1.
         -1   -1    0    0    0  501 -0.00000000000E+00 -0.00000000000E+00 -0.82058504543E+02  0.82058504543E+02  0.00000000000E+00 0.  1.
         23    2    1    2    0    0 -0.72387327440E+01 -0.71720216538E+02  0.36370285203E+03  0.38124088364E+03  0.88705456834E+02 0.  0.
          5    1    1    2  502    0  0.51600884570E+02  0.82351594116E+02  0.75327942156E+01  0.97563577889E+02  0.41800000000E+01 0. -1.
         -5    1    1    2    0  502 -0.44362151826E+02 -0.10631377578E+02 -0.97191355250E+01  0.46829058278E+02  0.41800000000E+01 0. -1.
        -11    1    3    3    0    0  0.36069189965E+02 -0.23838821576E+02  0.87577429303E+02  0.97668224117E+02  0.00000000000E+00 0.  1.
         11    1    3    3    0    0 -0.43307922709E+02 -0.47881394962E+02  0.27612542273E+03  0.28357265953E+03  0.00000000000E+00 0. -1.
</event>
<event>
 7    1  0.4096326E-006  0.9624086E+02  0.7561462E-02  0.1288406E+00
          3   -1    0    0  501    0  0.00000000000E+00  0.00000000000E+00  0.20124775214E+03  0.20124775214E+03  0.00000000000E+00 0. -1.
         -3   -1    0    0    0  501 -0.00000000000E+00 -0.00000000000E+00 -0.10039640657E+03  0.10039640657E+03  0.00000000000E+00 0.  1.
         23    2    1    2    0    0 -0.72717440472E+02  0.54281878991E+02  0.57772355933E+02  0.14120810931E+03  0.91475332675E+02 0.  0.
          5    1    1    2  502    0  0.34911906401E+02 -0.33548283540E+02  0.86426387464E+02  0.99153020061E+02  0.41800000000E+01 0. -1.
         -5    1    1    2    0  502  0.37805534071E+02 -0.20733595451E+02 -0.43347397834E+02  0.61283029345E+02  0.41800000000E+01 0. -1.
        -11    1    3    3    0    0 -0.33672369581E+02 -0.31099749903E-01  0.65722433402E+02  0.73846243592E+02  0.00000000000E+00 0. -1.
         11    1    3    3    0    0 -0.39045070891E+02  0.54312978741E+02 -0.79500774689E+01  0.67361865713E+02  0.00000000000E+00 0.  1.
</event>
<event>
 7    1  0.4096326E-006  0.1034809E+03  0.7561462E-02  0.1273142E+00
          2   -1    0    0  501    0  0.00000000000E+00  0.00000000000E+00  0.40128342985E+03  0.40128342985E+03  0.00000000000E+00 0. -1.
         -2   -1    0    0    0  501 -0.00000000000E+00 -0.00000000000E+00 -0.37166703952E+02  0.37166703952E+02  0.00000000000E+00 0.  1.
         23    2    1    2    0    0 -0.29919039470E+02  0.38974196033E+02  0.19535209137E+03  0.22271230408E+03  0.94995757306E+02 0.  0.
          5    1    1    2  502    0 -0.32824381343E+02 -0.52582768494E+01  0.11001583050E+01  0.33522712215E+02  0.41800000000E+01 0. -1.
         -5    1    1    2    0  502  0.62743420813E+02 -0.33715919184E+02  0.16766447623E+03  0.18221511751E+03  0.41800000000E+01 0. -1.
        -11    1    3    3    0    0  0.30954613283E+02  0.24648921094E+02  0.45290394783E+02  0.60141310713E+02  0.00000000000E+00 0.  1.
         11    1    3    3    0    0 -0.60873652753E+02  0.14325274939E+02  0.15006169659E+03  0.16257099337E+03  0.00000000000E+00 0. -1.
</event>
<event>
 7    1  0.4096326E-006  0.2384382E+03  0.7561462E-02  0.1120838E+00
          2   -1    0    0  501    0  0.00000000000E+00  0.00000000000E+00  0.12223044177E+04  0.12223044177E+04  0.00000000000E+00 0.  1.
         -2   -1    0    0    0  501 -0.00000000000E+00 -0.00000000000E+00 -0.51534874644E+02  0.51534874644E+02  0.00000000000E+00 0. -1.
         23    2    1    2    0    0  0.23729980296E+02  0.21830507264E+03  0.70357466251E+03  0.74266931951E+03  0.91215106801E+02 0.  0.
          5    1    1    2  502    0  0.50398004543E+02 -0.74582580601E+02  0.18843387573E+03  0.20887153495E+03  0.41800000000E+01 0.  1.
         -5    1    1    2    0  502 -0.74127984839E+02 -0.14372249204E+03  0.27876100480E+03  0.32229843787E+03  0.41800000000E+01 0.  1.
        -11    1    3    3    0    0  0.34063089709E+02  0.89236157289E+02  0.18535286801E+03  0.20851635794E+03  0.00000000000E+00 0. -1.
         11    1    3    3    0    0 -0.10333109413E+02  0.12906891535E+03  0.51822179450E+03  0.53415296157E+03  0.00000000000E+00 0.  1.
</event>
<event>
 7    1  0.4096326E-006  0.2057484E+03  0.7561462E-02  0.1144978E+00
          1   -1    0    0  501    0  0.00000000000E+00  0.00000000000E+00  0.52367421742E+02  0.52367421742E+02  0.00000000000E+00 0. -1.
         -1   -1    0    0    0  501 -0.00000000000E+00 -0.00000000000E+00 -0.97533860146E+03  0.97533860146E+03  0.00000000000E+00 0.  1.
         23    2    1    2    0    0  0.51313963003E+01 -0.18848672117E+03 -0.30807801902E+03  0.37249799915E+03  0.91044595015E+02 0.  0.
          5    1    1    2  502    0  0.19247101589E+02 -0.10557978988E+02 -0.34230376959E+02  0.40879248362E+02  0.41800000000E+01 0.  1.
         -5    1    1    2    0  502 -0.24378497890E+02  0.19904470016E+03 -0.58066278374E+03  0.61432877569E+03  0.41800000000E+01 0.  1.
        -11    1    3    3    0    0  0.39310238737E+01 -0.97282730515E+02 -0.23903077777E+03  0.25809900296E+03  0.00000000000E+00 0.  1.
         11    1    3    3    0    0  0.12003724266E+01 -0.91203990656E+02 -0.69047241243E+02  0.11439899619E+03  0.00000000000E+00 0. -1.
</event>
<event>
 7    1  0.4096326E-006  0.9507208E+02  0.7561462E-02  0.1291014E+00
          1   -1    0    0  501    0  0.00000000000E+00  0.00000000000E+00  0.49412422174E+03  0.49412422174E+03  0.00000000000E+00 0. -1.
         -1   -1    0    0    0  501 -0.00000000000E+00 -0.00000000000E+00 -0.33798724459E+02  0.33798724459E+02  0.00000000000E+00 0.  1.
         23    2    1    2    0    0 -0.51264827681E+02  0.19257044012E+02  0.26038514073E+03  0.28087710929E+03  0.89958950121E+02 0.  0.
          5    1    1    2  502    0  0.28033794882E+02 -0.45847877853E+02  0.20423804896E+03  0.21123109289E+03  0.41800000000E+01 0. -1.
         -5    1    1    2    0  502  0.23231032799E+02  0.26590833841E+02 -0.42976924142E+01  0.35814744022E+02  0.41800000000E+01 0.  1.
        -11    1    3    3    0    0  0.23591598039E+02  0.84228002008E+01  0.10652714285E+03  0.10943280690E+03  0.00000000000E+00 0.  1.
         11    1    3    3    0    0 -0.74856425721E+02  0.10834243811E+02  0.15385799788E+03  0.17144430239E+03  0.00000000000E+00 0. -1.
</event>
<event>
 7    1  0.4096326E-006  0.9670386E+02  0.7561462E-02  0.1287384E+00
          1   -1    0    0  501    0  0.00000000000E+00  0.00000000000E+00  0.30653699124E+03  0.30653699124E+03  0.00000000000E+00 0. -1.
         -1   -1    0    0    0  501 -0.00000000000E+00 -0.00000000000E+00 -0.39038091490E+02  0.39038091490E+02  0.00000000000E+00 0.  1.
         23    2    1    2    0    0  0.37775415524E+01  0.34088392708E+01  0.14636803403E+03  0.17137323624E+03  0.88990419203E+02 0.  0.
          5    1    1    2  502    0 -0.45381207999E+02 -0.33228957595E+02  0.18361984855E+02  0.59314859438E+02  0.41800000000E+01 0.  1.
         -5    1    1    2    0  502  0.41603666447E+02  0.29820118324E+02  0.10276888087E+03  0.11488698705E+03  0.41800000000E+01 0.  1.
        -11    1    3    3    0    0  0.39545927067E+02  0.22088847750E+02  0.10077888878E+03  0.11049064199E+03  0.00000000000E+00 0. -1.
         11    1    3    3    0    0 -0.35768385515E+02 -0.18680008480E+02  0.45589145245E+02  0.60882594256E+02  0.00000000000E+00 0.  1.
</event>
<event>
 7    1  0.4096326E-006  0.1662887E+03  0.7561462E-02  0.1181774E+00
          2   -1    0    0  501    0  0.00000000000E+00  0.00000000000E+00  0.21092079589E+03  0.21092079589E+03  0.00000000000E+00 0. -1.
         -2   -1    0    0    0  501 -0.00000000000E+00 -0.00000000000E+00 -0.20541629784E+03  0.20541629784E+03  0.00000000000E+00 0.  1.
         23    2    1    2    0    0 -0.98954495875E+01  0.66207497883E+02  0.46564599605E+02  0.12031995763E+03  0.88471902713E+02 0.  0.
          5    1    1    2  502    0  0.11233457194E+03 -0.34364956853E+02  0.73802304115E+02  0.13879574491E+03  0.41800000000E+01 0. -1.
         -5    1    1    2    0  502 -0.10243912235E+03 -0.31842541030E+02 -0.11486240568E+03  0.15722139119E+03  0.41800000000E+01 0.  1.
        -11    1    3    3    0    0  0.36291612520E+02  0.42068835497E+02  0.38475789689E+02  0.67581465297E+02  0.00000000000E+00 0.  1.
         11    1    3    3    0    0 -0.46187062108E+02  0.24138662386E+02  0.80888099159E+01  0.52738492335E+02  0.00000000000E+00 0. -1.
</event>
<event>
 7    1  0.4096326E-006  0.9539002E+02  0.7561462E-02  0.1290300E+00
          1   -1    0    0  501    0  0.00000000000E+00  0.00000000000E+00  0.63104686960E+02  0.63104686960E+02  0.00000000000E+00 0. -1.
         -1   -1    0    0    0  501 -0.00000000000E+00 -0.00000000000E+00 -0.19017905247E+03  0.19017905247E+03  0.00000000000E+00 0.  1.
         23    2    1    2    0    0 -0.10200697594E+02 -0.13253748954E+02 -0.35393754414E+02  0.97289286446E+02  0.89066106420E+02 0.  0.
          5    1    1    2  502    0  0.12097248337E+02  0.58000023748E+02 -0.66076143079E+01  0.59761853544E+02  0.41800000000E+01 0. -1.
         -5    1    1    2    0  502 -0.18965507429E+01 -0.44746274794E+02 -0.85072996787E+02  0.96232599440E+02  0.41800000000E+01 0. -1.
        -11    1    3    3    0    0  0.80893048301E+01 -0.47176073230E+02 -0.48409248466E+01  0.48108765225E+02  0.00000000000E+00 0. -1.
         11    1    3    3    0    0 -0.18290002425E+02  0.33922324276E+02 -0.30552829567E+02  0.49180521221E+02  0.00000000000E+00 0.  1.
</event>
<event>
 7    1  0.4096326E-006  0.1708279E+03  0.7561462E-02  0.1176987E+00
         -1   -1    0    0    0  501 -0.00000000000E+00  0.00000000000E+00  0.48440711956E+02  0.48440711956E+02  0.00000000000E+00 0.  1.
          1   -1    0    0  501    0  0.00000000000E+00 -0.00000000000E+00 -0.72883465172E+03  0.72883465172E+03  0.00000000000E+00 0. -1.
         23    2    1    2    0    0  0.12593037190E+03  0.68800497812E+02 -0.43205051335E+03  0.46436349534E+03  0.91508702587E+02 0.  0.
          5    1    1    2  502    0 -0.74031714924E+02 -0.10109273263E+03 -0.19417688126E+03  0.23113322786E+03  0.41800000000E+01 0. -1.
         -5    1    1    2    0  502 -0.51898656974E+02  0.32292234814E+02 -0.54166545153E+02  0.81778640480E+02  0.41800000000E+01 0. -1.
        -11    1    3    3    0    0  0.69381343637E+02  0.47035924934E+01 -0.29302220835E+03  0.30116093574E+03  0.00000000000E+00 0.  1.
         11    1    3    3    0    0  0.56549028261E+02  0.64096905318E+02 -0.13902830500E+03  0.16320255960E+03  0.00000000000E+00 0. -1.
</event>
<event>
 7    1  0.4096326E-006  0.1644913E+03  0.7561462E-02  0.1183717E+00
          2   -1    0    0  501    0  0.00000000000E+00  0.00000000000E+00  0.78198443799E+03  0.78198443799E+03  0.00000000000E+00 0. -1.
         -2   -1    0    0    0  501 -0.00000000000E+00 -0.00000000000E+00 -0.43604536285E+02  0.43604536285E+02  0.00000000000E+00 0.  1.
         23    2    1    2    0    0 -0.14330472986E+03  0.32824836363E+02  0.39645289434E+03  0.43293811666E+03  0.92988170974E+02 0.  0.
          5    1    1    2  502    0  0.48623074193E+02 -0.65526804082E+02  0.22069756459E+03  0.23533561740E+03  0.41800000000E+01 0.  1.
         -5    1    1    2    0  502  0.94681655664E+02  0.32701967718E+02  0.12122944277E+03  0.15731524022E+03  0.41800000000E+01 0.  1.
        -11    1    3    3    0    0 -0.70775597595E+02  0.16887839849E+02  0.31248272930E+03  0.32084239193E+03  0.00000000000E+00 0. -1.
         11    1    3    3    0    0 -0.72529132263E+02  0.15936996514E+02  0.83970165042E+02  0.11209572473E+03  0.00000000000E+00 0.  1.
</event>
<event>
 7    1  0.4096326E-006  0.1344233E+03  0.7561462E-02  0.1221036E+00
         -2   -1    0    0    0  501 -0.00000000000E+00  0.00000000000E+00  0.11929839370E+03  0.11929839370E+03  0.00000000000E+00 0.  1.
          2   -1    0    0  501    0  0.00000000000E+00 -0.00000000000E+00 -0.24972592731E+03  0.24972592731E+03  0.00000000000E+00 0. -1.
         23    2    1    2    0    0 -0.29146066437E+02 -0.23021062783E+02 -0.74942501325E+02  0.12846958764E+03  0.97512019377E+02 0.  0.
          5    1    1    2  502    0  0.15356697280E+01 -0.72654826962E+02 -0.10617982556E+03  0.12873503765E+03  0.41800000000E+01 0. -1.
         -5    1    1    2    0  502  0.27610396709E+02  0.95675889745E+02  0.50694793279E+02  0.11181969572E+03  0.41800000000E+01 0.  1.
        -11    1    3    3    0    0 -0.25358499343E+02 -0.56901349823E+02 -0.23138652872E+02  0.66454603733E+02  0.00000000000E+00 0.  1.
         11    1    3    3    0    0 -0.37875670934E+01  0.33880287039E+02 -0.51803848453E+02  0.62014983906E+02  0.00000000000E+00 0. -1.
</event>
<event>
 7    1  0.4096326E-006  0.1280035E+03  0.7561462E-02  0.1230449E+00
         -2   -1    0    0    0  501 -0.00000000000E+00  0.00000000000E+00  0.15253080341E+03  0.15253080341E+03  0.00000000000E+00 0.  1.
          2   -1    0    0  501    0  0.00000000000E+00 -0.00000000000E+00 -0.18331007276E+03  0.18331007276E+03  0.00000000000E+00 0. -1.
         23    2    1    2    0    0  0.10418448385E+03  0.45011332616E+02 -0.73481408230E+02  0.16162470377E+03  0.88558459635E+02 0.  0.
          5    1    1    2  502    0 -0.35570321276E+02  0.31082433430E+01 -0.41798220986E+02  0.55131412189E+02  0.41800000000E+01 0.  1.
         -5    1    1    2    0  502 -0.68614162578E+02 -0.48119575959E+02  0.84500359872E+02  0.11908476021E+03  0.41800000000E+01 0.  1.
        -11    1    3    3    0    0  0.31436143122E+01  0.34408439207E+02  0.26737977501E+01  0.34655045723E+02  0.00000000000E+00 0.  1.
         11    1    3    3    0    0  0.10104086954E+03  0.10602893408E+02 -0.76155205980E+02  0.12696965805E+03  0.00000000000E+00 0. -1.
</event>
<event>
 7    1  0.4096326E-006  0.1128505E+03  0.7561462E-02  0.1255380E+00
          2   -1    0    0  501    0  0.00000000000E+00  0.00000000000E+00  0.26710886753E+03  0.26710886753E+03  0.00000000000E+00 0. -1.
         -2   -1    0    0    0  501 -0.00000000000E+00 -0.00000000000E+00 -0.48607507073E+02  0.48607507073E+02  0.00000000000E+00 0.  1.
         23    2    1    2    0    0  0.23731159051E+02  0.23537602303E+02  0.92814394961E+02  0.13526765074E+03  0.92550736314E+02 0.  0.
          5    1    1    2  502    0 -0.32763207307E+02 -0.71293150339E+02  0.61226946562E+02  0.99611005535E+02  0.41800000000E+01 0. -1.
         -5    1    1    2    0  502  0.90320482558E+01  0.47755548037E+02  0.64460018939E+02  0.80837718335E+02  0.41800000000E+01 0. -1.
        -11    1    3    3    0    0 -0.27779707662E+02 -0.17200777336E+02  0.32967403897E+02  0.46415822932E+02  0.00000000000E+00 0.  1.
         11    1    3    3    0    0  0.51510866713E+02  0.40738379639E+02  0.59846991064E+02  0.88851827806E+02  0.00000000000E+00 0. -1.
</event>
<event>
 7    1  0.4096326E-006  0.1390603E+03  0.7561462E-02  0.1214599E+00
         -1   -1    0    0    0  501 -0.00000000000E+00  0.00000000000E+00  0.19522948704E+03  0.19522948704E+03  0.00000000000E+00 0.  1.
          1   -1    0    0  501    0  0.00000000000E+00 -0.00000000000E+00 -0.10407542367E+03  0.10407542367E+03  0.00000000000E+00 0. -1.
         23    2    1    2    0    0  0.30151972863E+01 -0.93039263320E+02  0.19879766838E+02  0.12786017685E+03  0.85367580265E+02 0.  0.
          5    1    1    2  502    0 -0.30350543593E+02 -0.21921056290E+02  0.16176140533E+02  0.40997903945E+02  0.41800000000E+01 0.  1.
         -5    1    1    2    0  502  0.27335346307E+02  0.11496031961E+03  0.55098155999E+02  0.13044682992E+03  0.41800000000E+01 0.  1.
        -11    1    3    3    0    0 -0.28367121347E+02 -0.85291036947E+02  0.28697042052E+02  0.94354516477E+02  0.00000000000E+00 0.  1.
         11    1    3    3    0    0  0.31382318633E+02 -0.77482263726E+01 -0.88172752139E+01  0.33505660371E+02  0.00000000000E+00 0. -1.
</event>
<event>
 7    1  0.4096326E-006  0.3736403E+03  0.7561462E-02  0.1053310E+00
         -2   -1    0    0    0  501 -0.00000000000E+00  0.00000000000E+00  0.18200165032E+03  0.18200165032E+03  0.00000000000E+00 0.  1.
          2   -1    0    0  501    0  0.00000000000E+00 -0.00000000000E+00 -0.13894714601E+04  0.13894714601E+04  0.00000000000E+00 0. -1.
         23    2    1    2    0    0  0.22910104555E+03 -0.28716478109E+03 -0.11081630686E+04  0.11708977019E+04  0.89583152075E+02 0.  0.
          5    1    1    2  502    0 -0.22319544255E+03  0.29297370139E+03 -0.11188174451E+03  0.38494777885E+03  0.41800000000E+01 0. -1.
         -5    1    1    2    0  502 -0.59056029980E+01 -0.58089203033E+01  0.12575003311E+02  0.15627629703E+02  0.41800000000E+01 0. -1.
        -11    1    3    3    0    0  0.61345869307E+02 -0.49823186428E+02 -0.14892552965E+03  0.16859560780E+03  0.00000000000E+00 0.  1.
         11    1    3    3    0    0  0.16775517624E+03 -0.23734159466E+03 -0.95923753895E+03  0.10023020941E+04  0.00000000000E+00 0. -1.
</event>
<event>
 7    1  0.4096326E-006  0.1071208E+03  0.7561462E-02  0.1265996E+00
          1   -1    0    0  501    0  0.00000000000E+00  0.00000000000E+00  0.37624147323E+03  0.37624147323E+03  0.00000000000E+00 0. -1.
         -1   -1    0    0    0  501 -0.00000000000E+00 -0.00000000000E+00 -0.32047988983E+02  0.32047988983E+02  0.00000000000E+00 0.  1.
         23    2    1    2    0    0 -0.15187331044E+02 -0.21275357630E+02  0.12513711836E+03  0.15468153627E+03  0.87084920656E+02 0.  0.
          5    1    1    2  502    0  0.52400708988E+02 -0.32620538489E+02  0.11498498216E+03  0.13057163687E+03  0.41800000000E+01 0. -1.
         -5    1    1    2    0  502 -0.37213377944E+02  0.53895896119E+02  0.10407138373E+03  0.12303628907E+03  0.41800000000E+01 0. -1.
        -11    1    3    3    0    0  0.32878777163E+02  0.27832450548E+01  0.71500749122E+02  0.78747174971E+02  0.00000000000E+00 0. -1.
         11    1    3    3    0    0 -0.48066108207E+02 -0.24058602685E+02  0.53636369239E+02  0.75934361303E+02  0.00000000000E+00 0.  1.
</event>
<event>
 7    1  0.4096326E-006  0.5916164E+02  0.7561462E-02  0.1401384E+00
         -1   -1    0    0    0  501 -0.00000000000E+00  0.00000000000E+00  0.26245510645E+03  0.26245510645E+03  0.00000000000E+00 0.  1.
          1   -1    0    0  501    0  0.00000000000E+00 -0.00000000000E+00 -0.51503836371E+02  0.51503836371E+02  0.00000000000E+00 0. -1.
         23    2    1    2    0    0  0.38414542494E+02  0.66975065251E+01  0.64447459216E+02  0.11740909974E+03  0.90060468762E+02 0.  0.
          5    1    1    2  502    0 -0.11583163057E+01 -0.22366614321E+02  0.15361858855E+03  0.15529890624E+03  0.41800000000E+01 0. -1.
         -5    1    1    2    0  502 -0.37256226188E+02  0.15669107796E+02 -0.71147776800E+01  0.41250936842E+02  0.41800000000E+01 0. -1.
        -11    1    3    3    0    0  0.53489179066E+01 -0.14618463511E+02  0.75063877503E+02  0.76660916404E+02  0.00000000000E+00 0.  1.
         11    1    3    3    0    0  0.33065624587E+02  0.21315970036E+02 -0.10616418287E+02  0.40748183336E+02  0.00000000000E+00 0. -1.
</event>
<event>
 7    1  0.4096326E-006  0.1004215E+03  0.7561462E-02  0.1279412E+00
          2   -1    0    0  501    0  0.00000000000E+00  0.00000000000E+00  0.33218738221E+03  0.33218738221E+03  0.00000000000E+00 0. -1.
         -2   -1    0    0    0  501 -0.00000000000E+00 -0.00000000000E+00 -0.53730474432E+02  0.53730474432E+02  0.00000000000E+00 0.  1.
         23    2    1    2    0    0  0.60798961424E+02  0.32268482962E+02  0.14472881583E+03  0.19029322945E+03  0.10260270143E+03 0.  0.
          5    1    1    2  502    0 -0.64182666773E+02  0.16079798228E+02  0.15941607501E+02  0.68187842573E+02  0.41800000000E+01 0. -1.
         -5    1    1    2    0  502  0.33837053486E+01 -0.48348281189E+02  0.11778648445E+03  0.12743678462E+03  0.41800000000E+01 0. -1.
        -11    1    3    3    0    0  0.31987261006E+02  0.44328536730E+02  0.14757266139E+02  0.56621382350E+02  0.00000000000E+00 0.  1.
         11    1    3    3    0    0  0.28811700418E+02 -0.12060053769E+02  0.12997154969E+03  0.13367184710E+03  0.00000000000E+00 0. -1.
</event>
<event>
 7    1  0.4096326E-006  0.7694894E+02  0.7561462E-02  0.1337940E+00
          2   -1    0    0  501    0  0.00000000000E+00  0.00000000000E+00  0.14460100683E+03  0.14460100683E+03  0.00000000000E+00 0. -1.
         -2   -1    0    0    0  501 -0.00000000000E+00 -0.00000000000E+00 -0.89578065994E+02  0.89578065994E+02  0.00000000000E+00 0.  1.
         23    2    1    2    0    0 -0.21297900898E+02  0.22517892527E+01  0.53994260961E+02  0.10726141380E+03  0.90171833386E+02 0.  0.
          5    1    1    2  502    0 -0.44655200778E+02 -0.98671064611E+01  0.29474745548E+02  0.54568120469E+02  0.41800000000E+01 0.  1.
         -5    1    1    2    0  502  0.65953101677E+02  0.76153172085E+01 -0.28446065672E+02  0.72349538555E+02  0.41800000000E+01 0.  1.
        -11    1    3    3    0    0  0.92332469982E+01  0.55023906659E+01 -0.22445165983E+02  0.24886032813E+02  0.00000000000E+00 0.  1.
         11    1    3    3    0    0 -0.30531147897E+02 -0.32506014132E+01  0.76439426943E+02  0.82375380987E+02  0.00000000000E+00 0. -1.
</event>
<event>
 7    1  0.4096326E-006  0.9210527E+02  0.7561462E-02  0.1297832E+00
          2   -1    0    0  501    0  0.00000000000E+00  0.00000000000E+00  0.33284473487E+02  0.33284473487E+02  0.00000000000E+00 0. -1.
         -2   -1    0    0    0  501 -0.00000000000E+00 -0.00000000000E+00 -0.50125070699E+03  0.50125070699E+03  0.00000000000E+00 0.  1.
         23    2    1    2    0    0 -0.38794223208E+02 -0.48829925333E+02 -0.16567221782E+03  0.20149286710E+03  0.96243121173E+02 0.  0.
          5    1    1    2  502    0 -0.52454464901E+01  0.66362254760E+02 -0.26301229667E+03  0.27133817307E+03  0.41800000000E+01 0. -1.
         -5    1    1    2    0  502  0.44039669698E+02 -0.17532329427E+02 -0.39281719015E+02  0.61704140307E+02  0.41800000000E+01 0. -1.
        -11    1    3    3    0    0 -0.62404470937E+01 -0.33258294032E+02 -0.16168368093E+03  0.16518677302E+03  0.00000000000E+00 0.  1.
         11    1    3    3    0    0 -0.32553776114E+02 -0.15571631300E+02 -0.39885368851E+01  0.36306094077E+02  0.00000000000E+00 0. -1.
</event>
<event>
 7    1  0.4096326E-006  0.1241539E+03  0.7561462E-02  0.1236397E+00
          1   -1    0    0  501    0  0.00000000000E+00  0.00000000000E+00  0.48736521033E+03  0.48736521033E+03  0.00000000000E+00 0. -1.
         -1   -1    0    0    0  501 -0.00000000000E+00 -0.00000000000E+00 -0.43601453476E+02  0.43601453476E+02  0.00000000000E+00 0.  1.
         23    2    1    2    0    0  0.90184262080E+02  0.20709226842E+02  0.25611238311E+03  0.28719997891E+03  0.91258982581E+02 0.  0.
          5    1    1    2  502    0  0.20101700031E+02 -0.37658961077E+02  0.65264734424E+02  0.78097590571E+02  0.41800000000E+01 0.  1.
         -5    1    1    2    0  502 -0.11028596211E+03  0.16949734236E+02  0.12238663931E+03  0.16566909432E+03  0.41800000000E+01 0.  1.
        -11    1    3    3    0    0  0.52816866595E+02  0.44468795638E+01  0.37763391060E+02  0.65080487391E+02  0.00000000000E+00 0.  1.
         11    1    3    3    0    0  0.37367395485E+02  0.16262347278E+02  0.21834899205E+03  0.22211949152E+03  0.00000000000E+00 0. -1.
</event>
<event>
 7    1  0.4096326E-006  0.1175461E+03  0.7561462E-02  0.1247201E+00
         -1   -1    0    0    0  501 -0.00000000000E+00  0.00000000000E+00  0.51078635466E+02  0.51078635466E+02  0.00000000000E+00 0.  1.
          1   -1    0    0  501    0  0.00000000000E+00 -0.00000000000E+00 -0.33148410877E+03  0.33148410877E+03  0.00000000000E+00 0. -1.
         23    2    1    2    0    0  0.64295599817E+02  0.86910472583E+01 -0.98665695166E+02  0.15259398665E+03  0.96646504861E+02 0.  0.
          5    1    1    2  502    0  0.68774549174E+01 -0.40090128435E+02 -0.13042175533E+03  0.13668147075E+03  0.41800000000E+01 0. -1.
         -5    1    1    2    0  502 -0.71173054734E+02  0.31399081177E+02 -0.51318022809E+02  0.93287286829E+02  0.41800000000E+01 0. -1.
        -11    1    3    3    0    0  0.80127195552E+02 -0.20838759684E+02 -0.73149467083E+02  0.11047835040E+03  0.00000000000E+00 0. -1.
         11    1    3    3    0    0 -0.15831595735E+02  0.29529806943E+02 -0.25516228084E+02  0.42115636255E+02  0.00000000000E+00 0.  1.
</event>
<event>
 7    1  0.4096326E-006  0.1321423E+03  0.7561462E-02  0.1224311E+00
          3   -1    0    0  501    0  0.00000000000E+00  0.00000000000E+00  0.10712991612E+03  0.10712991612E+03  0.00000000000E+00 0. -1.
         -3   -1    0    0    0  501 -0.00000000000E+00 -0.00000000000E+00 -0.18909477983E+03  0.18909477983E+03  0.00000000000E+00 0.  1.
         23    2    1    2    0    0  0.72397538183E+02  0.34531521242E+02  0.73322352914E+01  0.12286056882E+03  0.92774609688E+02 0.  0.
          5    1    1    2  502    0 -0.61265726848E+01  0.43947237845E+02 -0.17069876799E+02  0.47725755112E+02  0.41800000000E+01 0.  1.
         -5    1    1    2    0  502 -0.66270965499E+02 -0.78478759087E+02 -0.72227222206E+02  0.12563837202E+03  0.41800000000E+01 0.  1.
        -11    1    3    3    0    0  0.76328502731E-01  0.43978392454E+02 -0.15188229002E+02  0.46527272960E+02  0.00000000000E+00 0.  1.
         11    1    3    3    0    0  0.72321209681E+02 -0.94468712113E+01  0.22520464293E+02  0.76333295863E+02  0.00000000000E+00 0. -1.
</event>
<event>
 7    1  0.4096326E-006  0.2356804E+03  0.7561462E-02  0.1122704E+00
          2   -1    0    0  501    0  0.00000000000E+00  0.00000000000E+00  0.91784503241E+03  0.91784503241E+03  0.00000000000E+00 0. -1.
         -2   -1    0    0    0  501 -0.00000000000E+00 -0.00000000000E+00 -0.13743782649E+03  0.13743782649E+03  0.00000000000E+00 0.  1.
         23    2    1    2    0    0 -0.10071056962E+03 -0.16516058801E+03  0.51066859787E+03  0.55375790908E+03  0.91895409895E+02 0.  0.
          5    1    1    2  502    0  0.12566525155E+03  0.18698454919E+03  0.34905035351E+03  0.41546191013E+03  0.41800000000E+01 0. -1.
         -5    1    1    2    0  502 -0.24954681930E+02 -0.21823961183E+02 -0.79311745463E+02  0.86063039687E+02  0.41800000000E+01 0.  1.
        -11    1    3    3    0    0  0.31336381046E+01 -0.75090201314E+02  0.21332151581E+03  0.22617344479E+03  0.00000000000E+00 0.  1.
         11    1    3    3    0    0 -0.10384420773E+03 -0.90070386697E+02  0.29734708206E+03  0.32758446429E+03  0.00000000000E+00 0. -1.
</event>
<event>
 7    1  0.4096326E-006  0.1428270E+03  0.7561462E-02  0.1209575E+00
         -1   -1    0    0    0  501 -0.00000000000E+00  0.00000000000E+00  0.62961883678E+03  0.62961883678E+03  0.00000000000E+00 0.  1.
          1   -1    0    0  501    0  0.00000000000E+00 -0.00000000000E+00 -0.51147052136E+02  0.51147052136E+02  0.00000000000E+00 0. -1.
         23    2    1    2    0    0  0.13635825218E+03 -0.31988562266E+02  0.22260573975E+03  0.27839259651E+03  0.91281330893E+02 0.  0.
          5    1    1    2  502    0 -0.28958118072E+02  0.12134020911E+02  0.24373741894E+03  0.24578691758E+03  0.41800000000E+01 0.  1.
         -5    1    1    2    0  502 -0.10740013411E+03  0.19854541355E+02  0.11212862596E+03  0.15658637482E+03  0.41800000000E+01 0.  1.
        -11    1    3    3    0    0  0.97623059555E+02 -0.55479757005E+01  0.74182043067E+02  0.12273555844E+03  0.00000000000E+00 0.  1.
         11    1    3    3    0    0  0.38735192629E+02 -0.26440586566E+02  0.14842369668E+03  0.15565703808E+03  0.00000000000E+00 0. -1.
</event>
<event>
 7    1  0.4096326E-006  0.2003010E+03  0.7561462E-02  0.1149485E+00
          1   -1    0    0  501    0  0.00000000000E+00  0.00000000000E+00  0.17941242808E+03  0.17941242808E+03  0.00000000000E+00 0. -1.
         -1   -1    0    0    0  501 -0.00000000000E+00 -0.00000000000E+00 -0.29213608036E+03  0.29213608036E+03  0.00000000000E+00 0.  1.
         23    2    1    2    0    0 -0.15371523042E+03 -0.10874745027E+03  0.19355376607E+02  0.20973438819E+03  0.90329967240E+02 0.  0.
          5    1    1    2  502    0  0.90341764288E+02  0.84573081333E+02 -0.14704010007E+03  0.19223034071E+03  0.41800000000E+01 0.  1.
         -5    1    1    2    0  502  0.63373466136E+02  0.24174368935E+02  0.14961071183E+02  0.69583779536E+02  0.41800000000E+01 0.  1.
        -11    1    3    3    0    0 -0.77244568383E+02 -0.10746128154E+03  0.11056426182E+02  0.13280397183E+03  0.00000000000E+00 0. -1.
         11    1    3    3    0    0 -0.76470662042E+02 -0.12861687320E+01  0.82989504250E+01  0.76930416359E+02  0.00000000000E+00 0.  1.
</event>
<event>
 7    1  0.4096326E-006  0.1010234E+03  0.7561462E-02  0.1278158E+00
         -3   -1    0    0    0  501 -0.00000000000E+00  0.00000000000E+00  0.82664862621E+02  0.82664862621E+02  0.00000000000E+00 0.  1.
          3   -1    0    0  501    0  0.00000000000E+00 -0.00000000000E+00 -0.20148514570E+03  0.20148514570E+03  0.00000000000E+00 0. -1.
         23    2    1    2    0    0 -0.99186479722E+01  0.12169343734E+02 -0.12689274699E+03  0.15782485766E+03  0.92522667222E+02 0.  0.
          5    1    1    2  502    0 -0.34456813651E+02  0.42856755869E+02  0.60845146354E+01  0.55483936855E+02  0.41800000000E+01 0.  1.
         -5    1    1    2    0  502  0.44375461623E+02 -0.55026099603E+02  0.19879492802E+01  0.70841213810E+02  0.41800000000E+01 0.  1.
        -11    1    3    3    0    0 -0.30813468463E+01 -0.31617211141E+02 -0.10234808327E+03  0.10716469982E+03  0.00000000000E+00 0. -1.
         11    1    3    3    0    0 -0.68373011259E+01  0.43786554875E+02 -0.24544663724E+02  0.50660157834E+02  0.00000000000E+00 0.  1.
</event>
<event>
 7    1  0.4096326E-006  0.1188928E+03  0.7561462E-02  0.1244935E+00
         -2   -1    0    0    0  501 -0.00000000000E+00  0.00000000000E+00  0.19687060344E+03  0.19687060344E+03  0.00000000000E+00 0.  1.
          2   -1    0    0  501    0  0.00000000000E+00 -0.00000000000E+00 -0.79117637861E+02  0.79117637861E+02  0.00000000000E+00 0. -1.
         23    2    1    2    0    0 -0.38803384849E+02 -0.12671179894E+02  0.48500777901E+02  0.12729451407E+03  0.11038707524E+03 0.  0.
          5    1    1    2  502    0 -0.27742929239E+02  0.39326476761E+02  0.58846706096E+02  0.76135728246E+02  0.41800000000E+01 0. -1.
         -5    1    1    2    0  502  0.66546314087E+02 -0.26655296867E+02  0.10405481579E+02  0.72557998984E+02  0.41800000000E+01 0. -1.
        -11    1    3    3    0    0 -0.37244584374E+02 -0.59834947949E+02  0.30295546605E+02  0.76715058531E+02  0.00000000000E+00 0.  1.
         11    1    3    3    0    0 -0.15588004743E+01  0.47163768054E+02  0.18205231296E+02  0.50579455538E+02  0.00000000000E+00 0. -1.
</event>
<event>
 7    1  0.4096326E-006  0.7434167E+02  0.7561462E-02  0.1345922E+00
          2   -1    0    0  501    0  0.00000000000E+00  0.00000000000E+00  0.62023767249E+02  0.62023767249E+02  0.00000000000E+00 0.  1.
         -2   -1    0    0    0  501 -0.00000000000E+00 -0.00000000000E+00 -0.36938812263E+03  0.36938812263E+03  0.00000000000E+00 0. -1.
         23    2    1    2    0    0  0.18580476458E+02 -0.53182222810E+02 -0.13913431546E+02  0.10747603438E+03  0.90465084204E+02 0.  0.
          5    1    1    2  502    0 -0.28540219530E+02  0.23007641499E+02 -0.93902620958E+01  0.38072892198E+02  0.41800000000E+01 0.  1.
         -5    1    1    2    0  502  0.99597430712E+01  0.30174581311E+02 -0.28406066174E+03  0.28586296330E+03  0.41800000000E+01 0.  1.
        -11    1    3    3    0    0  0.31215966479E+02 -0.71799646492E+01 -0.41457017935E+02  0.52389624847E+02  0.00000000000E+00 0. -1.
         11    1    3    3    0    0 -0.12635490021E+02 -0.46002258161E+02  0.27543586389E+02  0.55086409532E+02  0.00000000000E+00 0.  1.
</event>
<event>
 7    1  0.4096326E-006  0.1010154E+03  0.7561462E-02  0.1278175E+00
         -2   -1    0    0    0  501 -0.00000000000E+00  0.00000000000E+00  0.37041209566E+02  0.37041209566E+02  0.00000000000E+00 0.  1.
          2   -1    0    0  501    0  0.00000000000E+00 -0.00000000000E+00 -0.48759751203E+03  0.48759751203E+03  0.00000000000E+00 0. -1.
         23    2    1    2    0    0 -0.62052878040E+02  0.48426821010E+02 -0.18475000823E+03  0.22050615450E+03  0.91075144609E+02 0.  0.
          5    1    1    2  502    0  0.42535843442E+01  0.10891025395E+02  0.10117297076E+02  0.16016850941E+02  0.41800000000E+01 0. -1.
         -5    1    1    2    0  502  0.57799293696E+02 -0.59317846405E+02 -0.27592359132E+03  0.28811571616E+03  0.41800000000E+01 0. -1.
        -11    1    3    3    0    0 -0.84279553588E+01 -0.18853041152E+02 -0.50315454700E+01  0.21255212114E+02  0.00000000000E+00 0.  1.
         11    1    3    3    0    0 -0.53624922681E+02  0.67279862162E+02 -0.17971846276E+03  0.19925094238E+03  0.00000000000E+00 0. -1.
</event>
<event>
 7    1  0.4096326E-006  0.1299711E+03  0.7561462E-02  0.1227499E+00
         -2   -1    0    0    0  501 -0.00000000000E+00  0.00000000000E+00  0.89004327478E+02  0.89004327478E+02  0.00000000000E+00 0.  1.
          2   -1    0    0  501    0  0.00000000000E+00 -0.00000000000E+00 -0.25121593662E+03  0.25121593662E+03  0.00000000000E+00 0. -1.
         23    2    1    2    0    0 -0.73551361089E+02  0.35562763841E+02 -0.14590556033E+03  0.18992849061E+03  0.90054906132E+02 0.  0.
          5    1    1    2  502    0 -0.11234383279E+02 -0.52632720221E+02 -0.31324742277E+02  0.62410948432E+02  0.41800000000E+01 0.  1.
         -5    1    1    2    0  502  0.84785744367E+02  0.17069956380E+02  0.15018693472E+02  0.87880825055E+02  0.41800000000E+01 0.  1.
        -11    1    3    3    0    0  0.19904010573E+02  0.11013143436E+02 -0.43773914295E+02  0.49331678848E+02  0.00000000000E+00 0. -1.
         11    1    3    3    0    0 -0.93455371662E+02  0.24549620405E+02 -0.10213164604E+03  0.14059681176E+03  0.00000000000E+00 0.  1.
</event>
<event>
 7    1  0.4096326E-006  0.4923878E+03  0.7561462E-02  0.1015785E+00
          2   -1    0    0  501    0  0.00000000000E+00  0.00000000000E+00  0.14472946435E+04  0.14472946435E+04  0.00000000000E+00 0.  1.
         -2   -1    0    0    0  501 -0.00000000000E+00 -0.00000000000E+00 -0.20708238241E+03  0.20708238241E+03  0.00000000000E+00 0. -1.
         23    2    1    2    0    0 -0.46957144839E+02 -0.48219171792E+03  0.96396822995E+03  0.10828226639E+04  0.92500522804E+02 0.  0.
          5    1    1    2  502    0  0.85366755399E+02  0.38229014425E+03  0.19812373158E+03  0.43898032157E+03  0.41800000000E+01 0.  1.
         -5    1    1    2    0  502 -0.38409610560E+02  0.99901573675E+02  0.78120299585E+02  0.13257404050E+03  0.41800000000E+01 0.  1.
        -11    1    3    3    0    0 -0.26539731863E+02 -0.10896790895E+03  0.30870993348E+03  0.32845119208E+03  0.00000000000E+00 0.  1.
         11    1    3    3    0    0 -0.20417412976E+02 -0.37322380897E+03  0.65525829647E+03  0.75437147177E+03  0.00000000000E+00 0. -1.
</event>
<event>
 7    1  0.4096326E-006  0.1408698E+03  0.7561462E-02  0.1212163E+00
          2   -1    0    0  501    0  0.00000000000E+00  0.00000000000E+00  0.79961184219E+03  0.79961184219E+03  0.00000000000E+00 0. -1.
         -2   -1    0    0    0  501 -0.00000000000E+00 -0.00000000000E+00 -0.24994422863E+02  0.24994422863E+02  0.00000000000E+00 0.  1.
         23    2    1    2    0    0 -0.85954237135E+02  0.23005603283E+02  0.32782221302E+03  0.35217433791E+03  0.92962208841E+02 0.  0.
          5    1    1    2  502    0  0.27352373330E+02 -0.71922251325E+02  0.22320514232E+03  0.23613337443E+03  0.41800000000E+01 0.  1.
         -5    1    1    2    0  502  0.58601863805E+02  0.48916648042E+02  0.22359006399E+03  0.23629855271E+03  0.41800000000E+01 0.  1.
        -11    1    3    3    0    0 -0.10082507539E+03 -0.12592135585E-01  0.24496344082E+03  0.26490145965E+03  0.00000000000E+00 0.  1.
         11    1    3    3    0    0  0.14870838250E+02  0.23018195419E+02  0.82858772200E+02  0.87272878267E+02  0.00000000000E+00 0. -1.
</event>
<event>
 7    1  0.4096326E-006  0.1172235E+03  0.7561462E-02  0.1247749E+00
         -1   -1    0    0    0  501 -0.00000000000E+00  0.00000000000E+00  0.41607559774E+03  0.41607559774E+03  0.00000000000E+00 0.  1.
          1   -1    0    0  501    0  0.00000000000E+00 -0.00000000000E+00 -0.39484322384E+02  0.39484322384E+02  0.00000000000E+00 0. -1.
         23    2    1    2    0    0  0.67624502022E+02 -0.40263488078E+01  0.15695891041E+03  0.19388235948E+03  0.91460291933E+02 0.  0.
          5    1    1    2  502    0  0.36682314900E+02 -0.32399578762E+01  0.67974009468E+02  0.77421107695E+02  0.41800000000E+01 0. -1.
         -5    1    1    2    0  502 -0.10430681692E+03  0.72663066840E+01  0.15165835548E+03  0.18425645296E+03  0.41800000000E+01 0. -1.
        -11    1    3    3    0    0  0.79400510502E+02  0.21808732805E+01  0.16136929997E+03  0.17985896767E+03  0.00000000000E+00 0.  1.
         11    1    3    3    0    0 -0.11776008480E+02 -0.62072220883E+01 -0.44103895618E+01  0.14023391810E+02  0.00000000000E+00 0. -1.
</event>
<event>
 7    1  0.4096326E-006  0.1107541E+03  0.7561462E-02  0.1259180E+00
          1   -1    0    0  501    0  0.00000000000E+00  0.00000000000E+00  0.31304098553E+03  0.31304098553E+03  0.00000000000E+00 0. -1.
         -1   -1    0    0    0  501 -0.00000000000E+00 -0.00000000000E+00 -0.46540845148E+02  0.46540845148E+02  0.00000000000E+00 0.  1.
         23    2    1    2    0    0  0.27895664414E+02 -0.23490839930E+02  0.14648034886E+03  0.18243351971E+03  0.10244759079E+03 0.  0.
          5    1    1    2  502    0  0.26767738376E+01 -0.41293294606E+02  0.90418133091E+02  0.99524934007E+02  0.41800000000E+01 0.  1.
         -5    1    1    2    0  502 -0.30572438252E+02  0.64784134536E+02  0.29601658428E+02  0.77623376955E+02  0.41800000000E+01 0.  1.
        -11    1    3    3    0    0  0.63148755513E+02 -0.33539442492E+02  0.10553294855E+03  0.12747494952E+03  0.00000000000E+00 0.  1.
         11    1    3    3    0    0 -0.35253091099E+02  0.10048602562E+02  0.40947400311E+02  0.54958570193E+02  0.00000000000E+00 0. -1.
</event>
<event>
 7    1  0.4096326E-006  0.2434537E+03  0.7561462E-02  0.1117513E+00
         -1   -1    0    0    0  501 -0.00000000000E+00  0.00000000000E+00  0.76919991562E+02  0.76919991562E+02  0.00000000000E+00 0.  1.
          1   -1    0    0  501    0  0.00000000000E+00 -0.00000000000E+00 -0.82805304822E+03  0.82805304822E+03  0.00000000000E+00 0. -1.
         23    2    1    2    0    0 -0.12235448183E+03 -0.19152100839E+03 -0.36112857823E+03  0.43656906456E+03  0.92345992014E+02 0.  0.
          5    1    1    2  502    0  0.76914889726E+02  0.19106487015E+03 -0.35667975808E+03  0.41189756869E+03  0.41800000000E+01 0.  1.
         -5    1    1    2    0  502  0.45439592103E+02  0.45613823956E+00 -0.33324720352E+02  0.56506406532E+02  0.41800000000E+01 0.  1.
        -11    1    3    3    0    0 -0.76883220072E+02 -0.64514978056E+02 -0.21740179008E+03  0.23945093496E+03  0.00000000000E+00 0. -1.
         11    1    3    3    0    0 -0.45471261757E+02 -0.12700603034E+03 -0.14372678815E+03  0.19711812960E+03  0.00000000000E+00 0.  1.
</event>
<event>
 7    1  0.4096326E-006  0.1185636E+03  0.7561462E-02  0.1245486E+00
          2   -1    0    0  501    0  0.00000000000E+00  0.00000000000E+00  0.87504842003E+03  0.87504842003E+03  0.00000000000E+00 0. -1.
         -2   -1    0    0    0  501 -0.00000000000E+00 -0.00000000000E+00 -0.29333358137E+02  0.29333358137E+02  0.00000000000E+00 0.  1.
         23    2    1    2    0    0 -0.91242873639E+02 -0.41758700483E+02  0.38508771556E+03  0.40821486913E+03  0.90982304064E+02 0.  0.
          5    1    1    2  502    0  0.55085146635E+02  0.32634263484E+02  0.45344367369E+03  0.45796070371E+03  0.41800000000E+01 0. -1.
         -5    1    1    2    0  502  0.36157727004E+02  0.91244369996E+01  0.71836726483E+01  0.38206205325E+02  0.41800000000E+01 0.  1.
        -11    1    3    3    0    0  0.10704686592E+02 -0.31154458515E+02  0.95875113883E+02  0.10137666429E+03  0.00000000000E+00 0.  1.
         11    1    3    3    0    0 -0.10194756023E+03 -0.10604241968E+02  0.28921260167E+03  0.30683820484E+03  0.00000000000E+00 0. -1.
</event>
<event>
 7    1  0.4096326E-006  0.1310748E+03  0.7561462E-02  0.1225870E+00
          1   -1    0    0  501    0  0.00000000000E+00  0.00000000000E+00  0.24848129379E+03  0.24848129379E+03  0.00000000000E+00 0. -1.
         -1   -1    0    0    0  501 -0.00000000000E+00 -0.00000000000E+00 -0.69587570653E+02  0.69587570653E+02  0.00000000000E+00 0.  1.
         23    2    1    2    0    0 -0.30029965158E+02 -0.68973405495E+02  0.77200473609E+02  0.14016983471E+03  0.89602120308E+02 0.  0.
          5    1    1    2  502    0 -0.48425312101E+02  0.33741094986E+02  0.32992721710E+02  0.67745586047E+02  0.41800000000E+01 0. -1.
         -5    1    1    2    0  502  0.78455277259E+02  0.35232310510E+02  0.68700527813E+02  0.11015344368E+03  0.41800000000E+01 0. -1.
        -11    1    3    3    0    0 -0.30320947080E+02  0.14354956558E+02  0.25041258557E+02  0.41862742860E+02  0.00000000000E+00 0. -1.
         11    1    3    3    0    0  0.29098192209E+00 -0.83328362053E+02  0.52159215052E+02  0.98307091849E+02  0.00000000000E+00 0.  1.
</event>
<event>
 7    1  0.4096326E-006  0.1303657E+03  0.7561462E-02  0.1226914E+00
          3   -1    0    0  501    0  0.00000000000E+00  0.00000000000E+00  0.22673522804E+03  0.22673522804E+03  0.00000000000E+00 0. -1.
         -3   -1    0    0    0  501 -0.00000000000E+00 -0.00000000000E+00 -0.87776804877E+02  0.87776804877E+02  0.00000000000E+00 0.  1.
         23    2    1    2    0    0  0.72168270957E+02 -0.52976055134E+02  0.77132330270E+02  0.14872735624E+03  0.90308960637E+02 0.  0.
          5    1    1    2  502    0 -0.86190539460E+02  0.79861541677E+02  0.66093220008E+02  0.13487943158E+03  0.41800000000E+01 0. -1.
         -5    1    1    2    0  502  0.14022268503E+02 -0.26885486543E+02 -0.42671271177E+01  0.30905245096E+02  0.41800000000E+01 0. -1.
        -11    1    3    3    0    0  0.74304346149E+02 -0.16636840079E+02  0.16352158924E+02  0.77880122021E+02  0.00000000000E+00 0.  1.
         11    1    3    3    0    0 -0.21360751921E+01 -0.36339215054E+02  0.60780171346E+02  0.70847234222E+02  0.00000000000E+00 0. -1.
</event>
<event>
 7    1  0.4096326E-006  0.1221389E+03  0.7561462E-02  0.1239610E+00
          2   -1    0    0  501    0  0.00000000000E+00  0.00000000000E+00  0.59543300263E+03  0.59543300263E+03  0.00000000000E+00 0.  1.
         -2   -1    0    0    0  501 -0.00000000000E+00 -0.00000000000E+00 -0.28502634012E+02  0.28502634012E+02  0.00000000000E+00 0. -1.
         23    2    1    2    0    0  0.37890349659E+02  0.65963114298E+02  0.18803788917E+03  0.21774277083E+03  0.79163472899E+02 0.  0.
          5    1    1    2  502    0  0.34566843909E+02 -0.64159573102E+02  0.16873027518E+03  0.18384421579E+03  0.41800000000E+01 0.  1.
         -5    1    1    2    0  502 -0.72457193568E+02 -0.18035411960E+01  0.21016220427E+03  0.22234865002E+03  0.41800000000E+01 0.  1.
        -11    1    3    3    0    0  0.17671527941E+02  0.74620775576E+02  0.94733140754E+02  0.12188072450E+03  0.00000000000E+00 0. -1.
         11    1    3    3    0    0  0.20218821718E+02 -0.86576612782E+01  0.93304748413E+02  0.95862046331E+02  0.00000000000E+00 0.  1.
</event>
<event>
 7    1  0.4096326E-006  0.9392935E+02  0.7561462E-02  0.1293606E+00
         -2   -1    0    0    0  501 -0.00000000000E+00  0.00000000000E+00  0.41977397493E+02  0.41977397493E+02  0.00000000000E+00 0. -1.
          2   -1    0    0  501    0  0.00000000000E+00 -0.00000000000E+00 -0.30145882073E+03  0.30145882073E+03  0.00000000000E+00 0.  1.
         23    2    1    2    0    0  0.25951964305E+02  0.48168646138E+01 -0.13298939904E+03  0.16359237750E+03  0.91540040879E+02 0.  0.
          5    1    1    2  502    0 -0.15381170182E+02  0.51225782425E+02 -0.10652975554E+03  0.11927582486E+03  0.41800000000E+01 0. -1.
         -5    1    1    2    0  502 -0.10570794123E+02 -0.56042647039E+02 -0.19962268666E+02  0.60568015865E+02  0.41800000000E+01 0. -1.
        -11    1    3    3    0    0 -0.20844083652E+02  0.18921289387E+02 -0.78171347358E+01  0.29216409959E+02  0.00000000000E+00 0. -1.
         11    1    3    3    0    0  0.46796047957E+02 -0.14104424774E+02 -0.12517226430E+03  0.13437596754E+03  0.00000000000E+00 0.  1.
</event>
<event>
 7    1  0.4096326E-006  0.1301281E+03  0.7561462E-02  0.1227266E+00
         -1   -1    0    0    0  501 -0.00000000000E+00  0.00000000000E+00  0.14228524136E+03  0.14228524136E+03  0.00000000000E+00 0.  1.
          1   -1    0    0  501    0  0.00000000000E+00 -0.00000000000E+00 -0.24136633541E+03  0.24136633541E+03  0.00000000000E+00 0. -1.
         23    2    1    2    0    0  0.40345199158E+02  0.70376586175E+02 -0.17689213157E+03  0.21547739446E+03  0.92515308655E+02 0.  0.
          5    1    1    2  502    0 -0.63705045757E+02 -0.91357522085E+02  0.78776870857E+02  0.13648368942E+03  0.41800000000E+01 0. -1.
         -5    1    1    2    0  502  0.23359846600E+02  0.20980935910E+02 -0.96583333707E+00  0.31690492878E+02  0.41800000000E+01 0. -1.
        -11    1    3    3    0    0  0.27554277979E+02 -0.14606388971E+02 -0.80540425080E+02  0.86367499129E+02  0.00000000000E+00 0. -1.
         11    1    3    3    0    0  0.12790921179E+02  0.84982975146E+02 -0.96351706493E+02  0.12910989533E+03  0.00000000000E+00 0.  1.
</event>
<event>
 7    1  0.4096326E-006  0.1009856E+03  0.7561462E-02  0.1278237E+00
         -1   -1    0    0    0  501 -0.00000000000E+00  0.00000000000E+00  0.23850968063E+02  0.23850968063E+02  0.00000000000E+00 0.  1.
          1   -1    0    0  501    0  0.00000000000E+00 -0.00000000000E+00 -0.58013209472E+03  0.58013209472E+03  0.00000000000E+00 0. -1.
         23    2    1    2    0    0  0.20035470617E+02  0.22416115802E+02 -0.33121713943E+03  0.34474454053E+03  0.90775010039E+02 0.  0.
          5    1    1    2  502    0  0.40573338452E+02  0.93727018723E+01 -0.27407479978E+02  0.50026849713E+02  0.41800000000E+01 0.  1.
         -5    1    1    2    0  502 -0.60608809068E+02 -0.31788817675E+02 -0.19765650726E+03  0.20921167254E+03  0.41800000000E+01 0.  1.
        -11    1    3    3    0    0 -0.23117861889E+02  0.38988500815E+02 -0.11435946709E+03  0.12301474077E+03  0.00000000000E+00 0.  1.
         11    1    3    3    0    0  0.43153332505E+02 -0.16572385012E+02 -0.21685767234E+03  0.22172979976E+03  0.00000000000E+00 0. -1.
</event>
<event>
 7    1  0.4096326E-006  0.1433189E+03  0.7561462E-02  0.1208932E+00
          2   -1    0    0  501    0  0.00000000000E+00  0.00000000000E+00  0.36546921501E+03  0.36546921501E+03  0.00000000000E+00 0. -1.
         -2   -1    0    0    0  501 -0.00000000000E+00 -0.00000000000E+00 -0.77185475612E+02  0.77185475612E+02  0.00000000000E+00 0.  1.
         23    2    1    2    0    0 -0.92382273452E+02 -0.43743038708E+02  0.23507137891E+03  0.27257351843E+03  0.92681345933E+02 0.  0.
          5    1    1    2  502    0 -0.11312457510E+02 -0.25588155569E+02  0.33303639412E+02  0.43695883083E+02  0.41800000000E+01 0. -1.
         -5    1    1    2    0  502  0.10369473096E+03  0.69331194276E+02  0.19908721083E+02  0.12638528911E+03  0.41800000000E+01 0. -1.
        -11    1    3    3    0    0 -0.64724934905E+02 -0.70048244298E+02  0.19588966396E+03  0.21787343613E+03  0.00000000000E+00 0.  1.
         11    1    3    3    0    0 -0.27657338547E+02  0.26305205590E+02  0.39181714951E+02  0.54700082296E+02  0.00000000000E+00 0. -1.
</event>
<event>
 7    1  0.4096326E-006  0.2413582E+03  0.7561462E-02  0.1118891E+00
          2   -1    0    0  501    0  0.00000000000E+00  0.00000000000E+00  0.43568576602E+03  0.43568576602E+03  0.00000000000E+00 0.  1.
         -2   -1    0    0    0  501 -0.00000000000E+00 -0.00000000000E+00 -0.14388227442E+03  0.14388227442E+03  0.00000000000E+00 0. -1.
         23    2    1    2    0    0 -0.23176550529E+02 -0.22327880369E+03  0.12772975458E+03  0.27467785433E+03  0.93501105773E+02 0.  0.
          5    1    1    2  502    0  0.10036218238E+02  0.23621280985E+03  0.16012098511E+03  0.28557559329E+03  0.41800000000E+01 0. -1.
         -5    1    1    2    0  502  0.13140332290E+02 -0.12934006159E+02  0.39527519155E+01  0.19314592818E+02  0.41800000000E+01 0. -1.
        -11    1    3    3    0    0 -0.31336584187E+02 -0.20429625933E+03  0.78153389244E+02  0.22096808669E+03  0.00000000000E+00 0. -1.
         11    1    3    3    0    0  0.81600336580E+01 -0.18982544358E+02  0.49576365336E+02  0.53709767636E+02  0.00000000000E+00 0.  1.
</event>
<event>
 7    1  0.4096326E-006  0.1534064E+03  0.7561462E-02  0.1196349E+00
         -3   -1    0    0    0  501 -0.00000000000E+00  0.00000000000E+00  0.84478072139E+02  0.84478072139E+02  0.00000000000E+00 0.  1.
          3   -1    0    0  501    0  0.00000000000E+00 -0.00000000000E+00 -0.29065848110E+03  0.29065848110E+03  0.00000000000E+00 0. -1.
         23    2    1    2    0    0 -0.68366093034E+02 -0.87345578602E+02 -0.12758807214E+03  0.19535361665E+03  0.97883331608E+02 0.  0.
          5    1    1    2  502    0  0.79658018346E+02  0.97558223940E+01 -0.23039560942E+02  0.83599460081E+02  0.41800000000E+01 0. -1.
         -5    1    1    2    0  502 -0.11291925313E+02  0.77589756208E+02 -0.55552775875E+02  0.96183476508E+02  0.41800000000E+01 0.  1.
        -11    1    3    3    0    0 -0.76769175965E+02 -0.10400759252E+03 -0.11174159633E+03  0.17087208675E+03  0.00000000000E+00 0.  1.
         11    1    3    3    0    0  0.84030829313E+01  0.16662013917E+02 -0.15846475811E+02  0.24481529898E+02  0.00000000000E+00 0. -1.
</event>
<event>
 7    1  0.8973649E-006  0.3329684E+03  0.7561462E-02  0.1069831E+00
         -2   -1    0    0    0  501 -0.00000000000E+00  0.00000000000E+00  0.38877120573E+03  0.38877120573E+03  0.00000000000E+00 0. -1.
          2   -1    0    0  501    0  0.00000000000E+00 -0.00000000000E+00 -0.32064103636E+03  0.32064103636E+03  0.00000000000E+00 0.  1.
         23    2    1    2    0    0  0.29444498348E+03 -0.13748592062E+03 -0.51700755995E+02  0.34116364249E+03  0.90107913736E+02 0.  0.
          5    1    1    2  502    0 -0.12752580875E+03  0.61451969986E+01  0.75536770381E+01  0.12796533039E+03  0.41800000000E+01 0. -1.
         -5    1    1    2    0  502 -0.16691917473E+03  0.13134072362E+03  0.11227724833E+03  0.24028326922E+03  0.41800000000E+01 0. -1.
        -11    1    3    3    0    0  0.11776550713E+03 -0.67361218036E+02 -0.65347426174E+02  0.15058729851E+03  0.00000000000E+00 0.  1.
         11    1    3    3    0    0  0.17667947635E+03 -0.70124702585E+02  0.13646670179E+02  0.19057634398E+03  0.00000000000E+00 0. -1.
</event>
<event>
 7    1  0.4096326E-006  0.1094230E+03  0.7561462E-02  0.1261642E+00
          2   -1    0    0  501    0  0.00000000000E+00  0.00000000000E+00  0.34824338714E+02  0.34824338714E+02  0.00000000000E+00 0. -1.
         -2   -1    0    0    0  501 -0.00000000000E+00 -0.00000000000E+00 -0.48131902657E+03  0.48131902657E+03  0.00000000000E+00 0.  1.
         23    2    1    2    0    0 -0.59822598009E+02 -0.20996096123E+02 -0.13708081619E+03  0.17643078432E+03  0.91198093194E+02 0.  0.
          5    1    1    2  502    0  0.96840564191E+02  0.30339274943E+02 -0.23359782733E+03  0.25472334759E+03  0.41800000000E+01 0. -1.
         -5    1    1    2    0  502 -0.37017966182E+02 -0.93431788201E+01 -0.75816044342E+02  0.84989233380E+02  0.41800000000E+01 0. -1.
        -11    1    3    3    0    0 -0.55457424191E+02 -0.34070605578E+02 -0.14611093398E+03  0.15995229630E+03  0.00000000000E+00 0.  1.
         11    1    3    3    0    0 -0.43651738187E+01  0.13074509455E+02  0.90301177924E+01  0.16478488016E+02  0.00000000000E+00 0. -1.
</event>
<event>
 7    1  0.4096326E-006  0.1138582E+03  0.7561462E-02  0.1253587E+00
         -1   -1    0    0    0  501 -0.00000000000E+00  0.00000000000E+00  0.47814583171E+02  0.47814583171E+02  0.00000000000E+00 0.  1.
          1   -1    0    0  501    0  0.00000000000E+00 -0.00000000000E+00 -0.41284511713E+03  0.41284511713E+03  0.00000000000E+00 0. -1.
         23    2    1    2    0    0 -0.60275190467E+02 -0.32842357015E+02 -0.25837173874E+03  0.28250978725E+03  0.91346075517E+02 0.  0.
          5    1    1    2  502    0  0.63188533135E+02  0.61110932400E+02 -0.11805528303E+03  0.14724761129E+03  0.41800000000E+01 0. -1.
         -5    1    1    2    0  502 -0.29133426673E+01 -0.28268575385E+02  0.11396487813E+02  0.30902301763E+02  0.41800000000E+01 0. -1.
        -11    1    3    3    0    0 -0.59072976857E+02  0.16733541757E+02 -0.17554583205E+03  0.18597302805E+03  0.00000000000E+00 0.  1.
         11    1    3    3    0    0 -0.12022136106E+01 -0.49575898771E+02 -0.82825906690E+02  0.96536759193E+02  0.00000000000E+00 0. -1.
</event>
<event>
 7    1  0.4096326E-006  0.8984666E+02  0.7561462E-02  0.1303223E+00
          1   -1    0    0  501    0  0.00000000000E+00  0.00000000000E+00  0.31316873288E+03  0.31316873288E+03  0.00000000000E+00 0. -1.
         -1   -1    0    0    0  501 -0.00000000000E+00 -0.00000000000E+00 -0.61818345689E+02  0.61818345689E+02  0.00000000000E+00 0.  1.
         23    2    1    2    0    0 -0.43078293576E+01  0.68782501589E+02  0.18065288105E+03  0.21563124146E+03  0.95455638604E+02 0.  0.
          5    1    1    2  502    0  0.25392371955E+00 -0.52376612334E+02 -0.27722121086E+02  0.59408437063E+02  0.41800000000E+01 0. -1.
         -5    1    1    2    0  502  0.40539056380E+01 -0.16405889256E+02  0.98419627224E+02  0.99947400047E+02  0.41800000000E+01 0. -1.
        -11    1    3    3    0    0  0.37127277413E+02  0.54437566828E+02  0.14444962175E+03  0.15876894103E+03  0.00000000000E+00 0.  1.
         11    1    3    3    0    0 -0.41435106770E+02  0.14344934761E+02  0.36203259299E+02  0.56862300430E+02  0.00000000000E+00 0. -1.
</event>
<event>
 7    1  0.4096326E-006  0.1200439E+03  0.7561462E-02  0.1243025E+00
         -1   -1    0    0    0  501 -0.00000000000E+00  0.00000000000E+00  0.26380731387E+02  0.26380731387E+02  0.00000000000E+00 0.  1.
          1   -1    0    0  501    0  0.00000000000E+00 -0.00000000000E+00 -0.66810221372E+03  0.66810221372E+03  0.00000000000E+00 0. -1.
         23    2    1    2    0    0 -0.11345556625E+02  0.71194399105E+02 -0.23630959975E+03  0.26312255648E+03  0.90520100943E+02 0.  0.
          5    1    1    2  502    0  0.52758020707E+02 -0.15708003758E+02 -0.71562549751E+02  0.90381530513E+02  0.41800000000E+01 0. -1.
         -5    1    1    2    0  502 -0.41412464082E+02 -0.55486395347E+02 -0.33384933283E+03  0.34097885811E+03  0.41800000000E+01 0.  1.
        -11    1    3    3    0    0 -0.50027821881E+02  0.27222209156E+02 -0.10876646646E+03  0.12277612088E+03  0.00000000000E+00 0.  1.
         11    1    3    3    0    0  0.38682265256E+02  0.43972189949E+02 -0.12754313330E+03  0.14034643560E+03  0.00000000000E+00 0. -1.
</event>
<event>
 6    1  0.4096326E-006  0.4513616E+03  0.7561462E-02  0.1027317E+00
         -2   -1    0    0    0  501 -0.00000000000E+00  0.00000000000E+00  0.19491791223E+03  0.19491791223E+03  0.00000000000E+00 0.  1.
          2   -1    0    0  501    0  0.00000000000E+00 -0.00000000000E+00 -0.11627611241E+04  0.11627611241E+04  0.00000000000E+00 0. -1.
          5    1    1    2  502    0  0.17750206411E+03 -0.12553518374E+02 -0.17197521857E+03  0.24750256926E+03  0.41800000000E+01 0.  1.
         -5    1    1    2    0  502  0.25389121644E+03  0.83748788336E+02 -0.12111286636E+03  0.29353093215E+03  0.41800000000E+01 0.  1.
        -11    1    1    2    0    0 -0.34216647365E+03 -0.11089555370E+03 -0.56452882786E+03  0.66937920270E+03  0.00000000000E+00 0.  1.
         11    1    1    2    0    0 -0.89226806900E+02  0.39700283739E+02 -0.11022629912E+03  0.14726633226E+03  0.00000000000E+00 0. -1.
</event>
<event>
 7    1  0.4096326E-006  0.9196716E+02  0.7561462E-02  0.1298157E+00
          3   -1    0    0  501    0  0.00000000000E+00  0.00000000000E+00  0.16109226235E+03  0.16109226235E+03  0.00000000000E+00 0. -1.
         -3   -1    0    0    0  501 -0.00000000000E+00 -0.00000000000E+00 -0.90916028454E+02  0.90916028454E+02  0.00000000000E+00 0.  1.
         23    2    1    2    0    0  0.29062726044E+02  0.44195039806E+02  0.49797754757E+02  0.11466896694E+03  0.88720414857E+02 0.  0.
          5    1    1    2  502    0 -0.33509781099E+02  0.36487481257E+02 -0.10360026379E+02  0.50784291512E+02  0.41800000000E+01 0. -1.
         -5    1    1    2    0  502  0.44470550547E+01 -0.80682521063E+02  0.30738505521E+02  0.86555032352E+02  0.41800000000E+01 0. -1.
        -11    1    3    3    0    0  0.21551650152E+02  0.37456565894E+02  0.75535702541E+02  0.87023619273E+02  0.00000000000E+00 0. -1.
         11    1    3    3    0    0  0.75110758917E+01  0.67384739120E+01 -0.25737947784E+02  0.27645347671E+02  0.00000000000E+00 0.  1.
</event>
<event>
 7    1  0.4096326E-006  0.1144193E+03  0.7561462E-02  0.1252598E+00
         -2   -1    0    0    0  501 -0.00000000000E+00  0.00000000000E+00  0.86394574927E+02  0.86394574927E+02  0.00000000000E+00 0.  1.
          2   -1    0    0  501    0  0.00000000000E+00 -0.00000000000E+00 -0.17561460632E+03  0.17561460632E+03  0.00000000000E+00 0. -1.
         23    2    1    2    0    0 -0.12956151600E+02 -0.70196627450E+01 -0.50596376064E+02  0.13026745596E+03  0.11913219247E+03 0.  0.
          5    1    1    2  502    0 -0.46816290026E+02  0.17844966072E+02 -0.48734484612E+02  0.70019498830E+02  0.41800000000E+01 0. -1.
         -5    1    1    2    0  502  0.59772441626E+02 -0.10825303327E+02  0.10110829284E+02  0.61722226458E+02  0.41800000000E+01 0. -1.
        -11    1    3    3    0    0  0.48918506653E+02 -0.22571642357E+02 -0.36071978837E+02  0.64835846482E+02  0.00000000000E+00 0.  1.
         11    1    3    3    0    0 -0.61874658253E+02  0.15551979612E+02 -0.14524397227E+02  0.65431609476E+02  0.00000000000E+00 0. -1.
</event>
<event>
 7    1  0.4096326E-006  0.1004906E+03  0.7561462E-02  0.1279268E+00
          1   -1    0    0  501    0  0.00000000000E+00  0.00000000000E+00  0.64548445843E+02  0.64548445843E+02  0.00000000000E+00 0. -1.
         -1   -1    0    0    0  501 -0.00000000000E+00 -0.00000000000E+00 -0.20008124664E+03  0.20008124664E+03  0.00000000000E+00 0.  1.
         23    2    1    2    0    0  0.29330694416E+02 -0.10431925724E+02 -0.43136664470E+02  0.10603098659E+03  0.91720682440E+02 0.  0.
          5    1    1    2  502    0  0.37920206934E+02  0.13547883236E+01 -0.81156925711E+02  0.89686657515E+02  0.41800000000E+01 0.  1.
         -5    1    1    2    0  502 -0.67250901351E+02  0.90771374006E+01 -0.11239210616E+02  0.68912048374E+02  0.41800000000E+01 0.  1.
        -11    1    3    3    0    0 -0.31137163566E+02 -0.14221814318E+02 -0.54036791570E+01  0.34655197386E+02  0.00000000000E+00 0. -1.
         11    1    3    3    0    0  0.60467857982E+02  0.37898885934E+01 -0.37732985313E+02  0.71375789209E+02  0.00000000000E+00 0.  1.
</event>
<event>
 7    1  0.9050631E-006  0.2735321E+03  0.7561462E-02  0.1099275E+00
         -2   -1    0    0    0  501 -0.00000000000E+00  0.00000000000E+00  0.11230530061E+03  0.11230530061E+03  0.00000000000E+00 0.  1.
          2   -1    0    0  501    0  0.00000000000E+00 -0.00000000000E+00 -0.76713277565E+03  0.76713277565E+03  0.00000000000E+00 0. -1.
         23    2    1    2    0    0  0.65873587795E+02  0.25509234748E+03 -0.42741039531E+03  0.50960404819E+03  0.87207824168E+02 0.  0.
          5    1    1    2  502    0 -0.51254126428E+02 -0.58307166798E+02 -0.13738470301E+02  0.78948902096E+02  0.41800000000E+01 0. -1.
         -5    1    1    2    0  502 -0.14619461367E+02 -0.19678518068E+03 -0.21367860943E+03  0.29088512598E+03  0.41800000000E+01 0. -1.
        -11    1    3    3    0    0  0.73680675404E+02  0.15574311667E+03 -0.31754248615E+03  0.36127273746E+03  0.00000000000E+00 0.  1.
         11    1    3    3    0    0 -0.78070876094E+01  0.99349230812E+02 -0.10986790916E+03  0.14833131073E+03  0.00000000000E+00 0. -1.
</event>
<event>
 7    1  0.4096326E-006  0.2510171E+03  0.7561462E-02  0.1112664E+00
          1   -1    0    0  501    0  0.00000000000E+00  0.00000000000E+00  0.38260656237E+03  0.38260656237E+03  0.00000000000E+00 0. -1.
         -1   -1    0    0    0  501 -0.00000000000E+00 -0.00000000000E+00 -0.19326656086E+03  0.19326656086E+03  0.00000000000E+00 0.  1.
         23    2    1    2    0    0 -0.19953472339E+03  0.12715421669E+03  0.17276098752E+03  0.30772202475E+03  0.94149801111E+02 0.  0.
          5    1    1    2  502    0  0.16614523480E+03 -0.65238701372E+02  0.56361496344E+02  0.18722825073E+03  0.41800000000E+01 0. -1.
         -5    1    1    2    0  502  0.33389488590E+02 -0.61915515319E+02 -0.39782482352E+02  0.80922847748E+02  0.41800000000E+01 0. -1.
        -11    1    3    3    0    0 -0.54384419574E+02 -0.76611074046E+01  0.23758684789E+02  0.59840059843E+02  0.00000000000E+00 0.  1.
         11    1    3    3    0    0 -0.14515030381E+03  0.13481532410E+03  0.14900230273E+03  0.24788196491E+03  0.00000000000E+00 0. -1.
</event>
<event>
 7    1  0.4096326E-006  0.8725059E+02  0.7561462E-02  0.1309650E+00
          4   -1    0    0  501    0  0.00000000000E+00  0.00000000000E+00  0.11377965732E+03  0.11377965732E+03  0.00000000000E+00 0. -1.
         -4   -1    0    0    0  501 -0.00000000000E+00 -0.00000000000E+00 -0.16412414962E+03  0.16412414962E+03  0.00000000000E+00 0.  1.
         23    2    1    2    0    0 -0.71114685299E+02  0.42187790213E+02 -0.12430116619E+02  0.12323495801E+03  0.90527559168E+02 0.  0.
          5    1    1    2  502    0  0.62658982666E+01 -0.14766630777E+02 -0.73725719041E+02  0.75566321293E+02  0.41800000000E+01 0. -1.
         -5    1    1    2    0  502  0.64848787032E+02 -0.27421159437E+02  0.35811343368E+02  0.79102527635E+02  0.41800000000E+01 0. -1.
        -11    1    3    3    0    0 -0.11772462448E+02 -0.37412780143E+01 -0.41091315596E+02  0.42907857680E+02  0.00000000000E+00 0.  1.
         11    1    3    3    0    0 -0.59342222850E+02  0.45929068228E+02  0.28661198976E+02  0.80327100332E+02  0.00000000000E+00 0. -1.
</event>
<event>
 7    1  0.4096326E-006  0.8369304E+02  0.7561462E-02  0.1318886E+00
         -2   -1    0    0    0  501 -0.00000000000E+00  0.00000000000E+00  0.16409273426E+03  0.16409273426E+03  0.00000000000E+00 0.  1.
          2   -1    0    0  501    0  0.00000000000E+00 -0.00000000000E+00 -0.32604291824E+03  0.32604291824E+03  0.00000000000E+00 0. -1.
         23    2    1    2    0    0 -0.15405893993E+02 -0.33752924592E+01 -0.18874734335E+03  0.21016554291E+03  0.91078326933E+02 0.  0.
          5    1    1    2  502    0  0.43788711614E+02 -0.14373805910E+02 -0.12038396045E+03  0.12897219815E+03  0.41800000000E+01 0. -1.
         -5    1    1    2    0  502 -0.28382817621E+02  0.17749098369E+02  0.14718111982E+03  0.15099791144E+03  0.41800000000E+01 0.  1.
        -11    1    3    3    0    0  0.30343470740E+02 -0.22512897313E+02 -0.11698758547E+03  0.12293759359E+03  0.00000000000E+00 0.  1.
         11    1    3    3    0    0 -0.45749364733E+02  0.19137604854E+02 -0.71759757876E+02  0.87227949325E+02  0.00000000000E+00 0. -1.
</event>
<event>
 7    1  0.4096326E-006  0.9562546E+02  0.7561462E-02  0.1289774E+00
         -2   -1    0    0    0  501 -0.00000000000E+00  0.00000000000E+00  0.80478640755E+02  0.80478640755E+02  0.00000000000E+00 0.  1.
          2   -1    0    0  501    0  0.00000000000E+00 -0.00000000000E+00 -0.21509717207E+03  0.21509717207E+03  0.00000000000E+00 0. -1.
         23    2    1    2    0    0  0.22567670043E+02 -0.11606368455E+02 -0.14125358636E+03  0.16813179717E+03  0.87588344202E+02 0.  0.
          5    1    1    2  502    0  0.20370658646E+02 -0.44067091450E+02 -0.19269475110E+02  0.52399020540E+02  0.41800000000E+01 0. -1.
         -5    1    1    2    0  502 -0.42938328689E+02  0.55673459905E+02  0.25904530161E+02  0.75044995111E+02  0.41800000000E+01 0. -1.
        -11    1    3    3    0    0 -0.76349424587E+01  0.24125632721E+02 -0.10750617665E+03  0.11044417829E+03  0.00000000000E+00 0. -1.
         11    1    3    3    0    0  0.30202612502E+02 -0.35732001175E+02 -0.33747409715E+02  0.57687618883E+02  0.00000000000E+00 0.  1.
</event>
<event>
 7    1  0.4096326E-006  0.1392709E+03  0.7561462E-02  0.1214313E+00
         -1   -1    0    0    0  501 -0.00000000000E+00  0.00000000000E+00  0.27333897027E+03  0.27333897027E+03  0.00000000000E+00 0.  1.
          1   -1    0    0  501    0  0.00000000000E+00 -0.00000000000E+00 -0.11610524974E+03  0.11610524974E+03  0.00000000000E+00 0. -1.
         23    2    1    2    0    0  0.10748312734E+03  0.77663684494E+02  0.28739938939E+02  0.16641216093E+03  0.96347042837E+02 0.  0.
          5    1    1    2  502    0 -0.31742285551E+02 -0.35732689116E+02  0.12763435930E+03  0.13635395057E+03  0.41800000000E+01 0.  1.
         -5    1    1    2    0  502 -0.75740841786E+02 -0.41930995378E+02  0.85942230030E+00  0.86678108508E+02  0.41800000000E+01 0.  1.
        -11    1    3    3    0    0  0.92690019324E+02  0.35583721873E+02  0.56145487598E+02  0.11406119727E+03  0.00000000000E+00 0.  1.
         11    1    3    3    0    0  0.14793108012E+02  0.42079962621E+02 -0.27405548659E+02  0.52350963660E+02  0.00000000000E+00 0. -1.
</event>
<event>
 7    1  0.4096326E-006  0.1473612E+03  0.7561462E-02  0.1203754E+00
         -1   -1    0    0    0  501 -0.00000000000E+00  0.00000000000E+00  0.76070328599E+02  0.76070328599E+02  0.00000000000E+00 0.  1.
          1   -1    0    0  501    0  0.00000000000E+00 -0.00000000000E+00 -0.51914151524E+03  0.51914151524E+03  0.00000000000E+00 0. -1.
         23    2    1    2    0    0 -0.92981297476E+02 -0.44727891654E+02 -0.40615531295E+03  0.42891043819E+03  0.91410720265E+02 0.  0.
          5    1    1    2  502    0 -0.81244342798E+01  0.55635779307E+02 -0.31023327609E+02  0.64352666047E+02  0.41800000000E+01 0. -1.
         -5    1    1    2    0  502  0.10110573176E+03 -0.10907887653E+02 -0.58925460823E+01  0.10194873960E+03  0.41800000000E+01 0. -1.
        -11    1    3    3    0    0 -0.26885133917E+02 -0.62569604233E+02 -0.17333959695E+03  0.18623743359E+03  0.00000000000E+00 0. -1.
         11    1    3    3    0    0 -0.66096163559E+02  0.17841712579E+02 -0.23281571601E+03  0.24267300461E+03  0.00000000000E+00 0.  1.
</event>
<event>
 7    1  0.4096326E-006  0.1046924E+03  0.7561462E-02  0.1270727E+00
          2   -1    0    0  501    0  0.00000000000E+00  0.00000000000E+00  0.22174731344E+02  0.22174731344E+02  0.00000000000E+00 0. -1.
         -2   -1    0    0    0  501 -0.00000000000E+00 -0.00000000000E+00 -0.64733884779E+03  0.64733884779E+03  0.00000000000E+00 0.  1.
         23    2    1    2    0    0  0.36639817616E+02  0.26011336802E+02 -0.20730719323E+03  0.23102633442E+03  0.91530481004E+02 0.  0.
          5    1    1    2  502    0 -0.72723961171E+02 -0.19925695826E+02 -0.37240656561E+03  0.37998675029E+03  0.41800000000E+01 0. -1.
         -5    1    1    2    0  502  0.36084143555E+02 -0.60856409763E+01 -0.45450357609E+02  0.58500494434E+02  0.41800000000E+01 0. -1.
        -11    1    3    3    0    0 -0.39495536975E+01  0.49819934492E+02 -0.14195432963E+03  0.15049470605E+03  0.00000000000E+00 0.  1.
         11    1    3    3    0    0  0.40589371313E+02 -0.23808597690E+02 -0.65352863596E+02  0.80531628369E+02  0.00000000000E+00 0. -1.
</event>
<event>
 7    1  0.4096326E-006  0.1555325E+03  0.7561462E-02  0.1193835E+00
          2   -1    0    0  501    0  0.00000000000E+00  0.00000000000E+00  0.42621594884E+02  0.42621594884E+02  0.00000000000E+00 0.  1.
         -2   -1    0    0    0  501 -0.00000000000E+00 -0.00000000000E+00 -0.68619582396E+03  0.68619582396E+03  0.00000000000E+00 0. -1.
         23    2    1    2    0    0 -0.11747340528E+03 -0.38621311532E+02 -0.19698154720E+03  0.24883398330E+03  0.88459112892E+02 0.  0.
          5    1    1    2  502    0  0.22060084066E+01 -0.26626860603E+02 -0.21008712540E+02  0.34244628502E+02  0.41800000000E+01 0. -1.
         -5    1    1    2    0  502  0.11526739687E+03  0.65248172135E+02 -0.42558396934E+03  0.44573880705E+03  0.41800000000E+01 0. -1.
        -11    1    3    3    0    0 -0.23702052143E+02  0.27843018501E+02 -0.38933345695E+02  0.53411856006E+02  0.00000000000E+00 0. -1.
         11    1    3    3    0    0 -0.93771353138E+02 -0.66464330033E+02 -0.15804820150E+03  0.19542212729E+03  0.00000000000E+00 0.  1.
</event>
<event>
 7    1  0.4096326E-006  0.1954805E+03  0.7561462E-02  0.1153609E+00
         -1   -1    0    0    0  501 -0.00000000000E+00  0.00000000000E+00  0.25693468701E+03  0.25693468701E+03  0.00000000000E+00 0.  1.
          1   -1    0    0  501    0  0.00000000000E+00 -0.00000000000E+00 -0.15924264518E+03  0.15924264518E+03  0.00000000000E+00 0. -1.
         23    2    1    2    0    0  0.14844168775E+03  0.82950751268E+02  0.28730801739E+02  0.19414013191E+03  0.89158118257E+02 0.  0.
          5    1    1    2  502    0  0.20728970598E+02 -0.21021587469E+02  0.17761222390E+02  0.34706350753E+02  0.41800000000E+01 0.  1.
         -5    1    1    2    0  502 -0.16917065835E+03 -0.61929163799E+02  0.51200017701E+02  0.18733084953E+03  0.41800000000E+01 0.  1.
        -11    1    3    3    0    0  0.56705645531E+02  0.67097019480E+02 -0.18457865523E+02  0.89767661537E+02  0.00000000000E+00 0. -1.
         11    1    3    3    0    0  0.91736042218E+02  0.15853731788E+02  0.47188667262E+02  0.10437247037E+03  0.00000000000E+00 0.  1.
</event>
<event>
 7    1  0.4096326E-006  0.1189078E+03  0.7561462E-02  0.1244910E+00
         -4   -1    0    0    0  501 -0.00000000000E+00  0.00000000000E+00  0.37524888425E+02  0.37524888425E+02  0.00000000000E+00 0.  1.
          4   -1    0    0  501    0  0.00000000000E+00 -0.00000000000E+00 -0.59930013017E+03  0.59930013017E+03  0.00000000000E+00 0. -1.
         23    2    1    2    0    0 -0.19091911925E+02  0.10149822231E+03 -0.23965280023E+03  0.27616561419E+03  0.90374728617E+02 0.  0.
          5    1    1    2  502    0  0.26606931162E+02 -0.25478226468E+02 -0.87634158971E+01  0.38096439046E+02  0.41800000000E+01 0.  1.
         -5    1    1    2    0  502 -0.75150192374E+01 -0.76019995840E+02 -0.31335902562E+03  0.32256296536E+03  0.41800000000E+01 0.  1.
        -11    1    3    3    0    0 -0.23107279663E+02  0.45363902132E+00 -0.99001704508E+01  0.25142902313E+02  0.00000000000E+00 0.  1.
         11    1    3    3    0    0  0.40153677379E+01  0.10104458329E+03 -0.22975262978E+03  0.25102271188E+03  0.00000000000E+00 0. -1.
</event>
<event>
 7    1  0.4096326E-006  0.9758998E+02  0.7561462E-02  0.1285447E+00
         -2   -1    0    0    0  501 -0.00000000000E+00  0.00000000000E+00  0.40001510862E+02  0.40001510862E+02  0.00000000000E+00 0.  1.
          2   -1    0    0  501    0  0.00000000000E+00 -0.00000000000E+00 -0.37989017082E+03  0.37989017082E+03  0.00000000000E+00 0. -1.
         23    2    1    2    0    0  0.64354933956E+00  0.10085069004E+02 -0.24714447884E+03  0.26384481768E+03  0.91823589668E+02 0.  0.
          5    1    1    2  502    0 -0.46278759793E+02 -0.36890642088E+02 -0.83070440929E+02  0.10208238652E+03  0.41800000000E+01 0. -1.
         -5    1    1    2    0  502  0.45635210453E+02  0.26805573084E+02 -0.96737401912E+01  0.53964477490E+02  0.41800000000E+01 0. -1.
        -11    1    3    3    0    0  0.20878233382E+02 -0.30760162592E+02 -0.17186929422E+03  0.17584408584E+03  0.00000000000E+00 0. -1.
         11    1    3    3    0    0 -0.20234684043E+02  0.40845231596E+02 -0.75275184626E+02  0.88000731832E+02  0.00000000000E+00 0.  1.
</event>
<event>
 7    1  0.4096326E-006  0.7883630E+02  0.7561462E-02  0.1332387E+00
          2   -1    0    0  501    0  0.00000000000E+00  0.00000000000E+00  0.15367020489E+02  0.15367020489E+02  0.00000000000E+00 0.  1.
         -2   -1    0    0    0  501 -0.00000000000E+00 -0.00000000000E+00 -0.91957295411E+03  0.91957295411E+03  0.00000000000E+00 0. -1.
         23    2    1    2    0    0  0.18450708901E+02 -0.35901124118E+02 -0.28569034466E+03  0.30261210847E+03  0.91245798752E+02 0.  0.
          5    1    1    2  502    0  0.22964157956E+02  0.37670438919E+01 -0.18522980874E+02  0.30035252467E+02  0.41800000000E+01 0.  1.
         -5    1    1    2    0  502 -0.41414866857E+02  0.32134080226E+02 -0.59999260810E+03  0.60229261367E+03  0.41800000000E+01 0.  1.
        -11    1    3    3    0    0  0.82493271734E+01  0.21559667956E+02 -0.19860873085E+02  0.30452010785E+02  0.00000000000E+00 0.  1.
         11    1    3    3    0    0  0.10201381728E+02 -0.57460792074E+02 -0.26582947157E+03  0.27216009768E+03  0.00000000000E+00 0. -1.
</event>
<event>
 7    1  0.4096326E-006  0.1226970E+03  0.7561462E-02  0.1238713E+00
          1   -1    0    0  501    0  0.00000000000E+00  0.00000000000E+00  0.24594075937E+03  0.24594075937E+03  0.00000000000E+00 0. -1.
         -1   -1    0    0    0  501 -0.00000000000E+00 -0.00000000000E+00 -0.82782197691E+02  0.82782197691E+02  0.00000000000E+00 0.  1.
         23    2    1    2    0    0 -0.50016900154E+02  0.77295338929E+02  0.66625662520E+02  0.14585441897E+03  0.91423590536E+02 0.  0.
          5    1    1    2  502    0 -0.27141949299E+02 -0.26777221854E+01 -0.12069407925E+02  0.30116417707E+02  0.41800000000E+01 0.  1.
         -5    1    1    2    0  502  0.77158849453E+02 -0.74617616743E+02  0.10860230708E+03  0.15275212038E+03  0.41800000000E+01 0.  1.
        -11    1    3    3    0    0  0.82289044707E+01  0.40859605770E+02 -0.10077589369E+02  0.42880998822E+02  0.00000000000E+00 0.  1.
         11    1    3    3    0    0 -0.58245804625E+02  0.36435733159E+02  0.76703251889E+02  0.10297342015E+03  0.00000000000E+00 0. -1.
</event>
<event>
 7    1  0.4096326E-006  0.1421960E+03  0.7561462E-02  0.1210404E+00
         -2   -1    0    0    0  501 -0.00000000000E+00  0.00000000000E+00  0.17511304343E+03  0.17511304343E+03  0.00000000000E+00 0. -1.
          2   -1    0    0  501    0  0.00000000000E+00 -0.00000000000E+00 -0.14961852613E+03  0.14961852613E+03  0.00000000000E+00 0.  1.
         23    2    1    2    0    0 -0.45326714235E+02  0.91727319227E+02 -0.50545446140E+02  0.14613217726E+03  0.91276278352E+02 0.  0.
          5    1    1    2  502    0  0.26166845317E+02 -0.12205701271E+03  0.65179198098E+02  0.14088441507E+03  0.41800000000E+01 0. -1.
         -5    1    1    2    0  502  0.19159868918E+02  0.30329693480E+02  0.10860765335E+02  0.37714977227E+02  0.41800000000E+01 0. -1.
        -11    1    3    3    0    0  0.24081505917E+01 -0.10382275415E+02 -0.29634154457E+02  0.31492442624E+02  0.00000000000E+00 0.  1.
         11    1    3    3    0    0 -0.47734864827E+02  0.10210959464E+03 -0.20911291684E+02  0.11463973464E+03  0.00000000000E+00 0. -1.
</event>
<event>
 7    1  0.4096326E-006  0.8338031E+02  0.7561462E-02  0.1319723E+00
          1   -1    0    0  501    0  0.00000000000E+00  0.00000000000E+00  0.28053796133E+03  0.28053796133E+03  0.00000000000E+00 0. -1.
         -1   -1    0    0    0  501 -0.00000000000E+00 -0.00000000000E+00 -0.59732083906E+02  0.59732083906E+02  0.00000000000E+00 0.  1.
         23    2    1    2    0    0 -0.44779165541E+02  0.53267596057E+02  0.11100570308E+03  0.15986584253E+03  0.91609011747E+02 0.  0.
          5    1    1    2  502    0  0.49336608754E+02 -0.42100833701E+02 -0.47302583833E+01  0.65164629256E+02  0.41800000000E+01 0. -1.
         -5    1    1    2    0  502 -0.45574432132E+01 -0.11166762356E+02  0.11453043272E+03  0.11523957345E+03  0.41800000000E+01 0. -1.
        -11    1    3    3    0    0 -0.55720785025E+02  0.29982074481E+02  0.11739024114E+03  0.13335741220E+03  0.00000000000E+00 0. -1.
         11    1    3    3    0    0  0.10941619484E+02  0.23285521576E+02 -0.63845380577E+01  0.26508430324E+02  0.00000000000E+00 0.  1.
</event>
<event>
 7    1  0.4096326E-006  0.6619708E+02  0.7561462E-02  0.1373524E+00
         -1   -1    0    0    0  501 -0.00000000000E+00  0.00000000000E+00  0.69428614763E+02  0.69428614763E+02  0.00000000000E+00 0.  1.
          1   -1    0    0  501    0  0.00000000000E+00 -0.00000000000E+00 -0.19861410048E+03  0.19861410048E+03  0.00000000000E+00 0. -1.
         23    2    1    2    0    0 -0.38235683824E+02 -0.19577405728E+02 -0.72484629906E+02  0.12413920557E+03  0.91166213337E+02 0.  0.
          5    1    1    2  502    0  0.42975118577E+02  0.44475663249E+02 -0.85311213348E+02  0.10545340659E+03  0.41800000000E+01 0.  1.
         -5    1    1    2    0  502 -0.47394347524E+01 -0.24898257522E+02  0.28610357533E+02  0.38450103089E+02  0.41800000000E+01 0.  1.
        -11    1    3    3    0    0 -0.11059036039E+02  0.27716989338E+00  0.21571448148E+02  0.24242658197E+02  0.00000000000E+00 0.  1.
         11    1    3    3    0    0 -0.27176647785E+02 -0.19854575621E+02 -0.94056078054E+02  0.99896547372E+02  0.00000000000E+00 0. -1.
</event>
<event>
 7    1  0.4096326E-006  0.1741848E+03  0.7561462E-02  0.1173553E+00
         -1   -1    0    0    0  501 -0.00000000000E+00  0.00000000000E+00  0.91643515015E+02  0.91643515015E+02  0.00000000000E+00 0.  1.
          1   -1    0    0  501    0  0.00000000000E+00 -0.00000000000E+00 -0.52155522317E+03  0.52155522317E+03  0.00000000000E+00 0. -1.
         23    2    1    2    0    0  0.90477822495E+02 -0.12111253602E+03 -0.35931876786E+03  0.40466690434E+03  0.10858565183E+03 0.  0.
          5    1    1    2  502    0  0.16584992204E+02  0.40849272201E+02  0.18209696180E+02  0.47883091387E+02  0.41800000000E+01 0. -1.
         -5    1    1    2    0  502 -0.10706281470E+03  0.80263263818E+02 -0.88802636472E+02  0.16064874246E+03  0.41800000000E+01 0. -1.
        -11    1    3    3    0    0  0.30583604552E+02  0.46301425830E+01 -0.17448383753E+02  0.35513957585E+02  0.00000000000E+00 0.  1.
         11    1    3    3    0    0  0.59894217943E+02 -0.12574267860E+03 -0.34187038411E+03  0.36915294675E+03  0.00000000000E+00 0. -1.
</event>
<event>
 7    1  0.4096326E-006  0.1145587E+03  0.7561462E-02  0.1252353E+00
         -1   -1    0    0    0  501 -0.00000000000E+00  0.00000000000E+00  0.14630664774E+02  0.14630664774E+02  0.00000000000E+00 0.  1.
          1   -1    0    0  501    0  0.00000000000E+00 -0.00000000000E+00 -0.90724257853E+03  0.90724257853E+03  0.00000000000E+00 0. -1.
         23    2    1    2    0    0 -0.17216678688E+02  0.32652584420E+02 -0.38777497832E+03  0.40046128033E+03  0.92936526416E+02 0.  0.
          5    1    1    2  502    0  0.11750459290E+02  0.47876764430E+02 -0.18070993945E+03  0.18736011444E+03  0.41800000000E+01 0.  1.
         -5    1    1    2    0  502  0.54662193981E+01 -0.80529348850E+02 -0.32412699599E+03  0.33405184854E+03  0.41800000000E+01 0.  1.
        -11    1    3    3    0    0  0.18180895129E+02  0.54344265995E+02 -0.19387015822E+03  0.20216202027E+03  0.00000000000E+00 0.  1.
         11    1    3    3    0    0 -0.35397573817E+02 -0.21691681575E+02 -0.19390482010E+03  0.19829926006E+03  0.00000000000E+00 0. -1.
</event>
<event>
 7    1  0.4096326E-006  0.1229487E+03  0.7561462E-02  0.1238310E+00
         -4   -1    0    0    0  501 -0.00000000000E+00  0.00000000000E+00  0.28291939176E+03  0.28291939176E+03  0.00000000000E+00 0.  1.
          4   -1    0    0  501    0  0.00000000000E+00 -0.00000000000E+00 -0.78361153682E+02  0.78361153682E+02  0.00000000000E+00 0. -1.
         23    2    1    2    0    0  0.70968012802E+02  0.31872300665E+02  0.14269166143E+02  0.12063564127E+03  0.91088124642E+02 0.  0.
          5    1    1    2  502    0 -0.56017449048E+02  0.42210452115E+02  0.75414104364E+02  0.10307490676E+03  0.41800000000E+01 0. -1.
         -5    1    1    2    0  502 -0.14950563753E+02 -0.74082752779E+02  0.11487496757E+03  0.13756999742E+03  0.41800000000E+01 0. -1.
        -11    1    3    3    0    0  0.82687820151E+02  0.30531921456E+02 -0.14695289957E+02  0.89361207333E+02  0.00000000000E+00 0. -1.
         11    1    3    3    0    0 -0.11719807349E+02  0.13403792087E+01  0.28964456100E+02  0.31274433934E+02  0.00000000000E+00 0.  1.
</event>
<event>
 6    1  0.4096326E-006  0.1590724E+03  0.7561462E-02  0.1189748E+00
          2   -1    0    0  501    0  0.00000000000E+00  0.00000000000E+00  0.14099642188E+04  0.14099642188E+04  0.00000000000E+00 0. -1.
         -2   -1    0    0    0  501 -0.00000000000E+00 -0.00000000000E+00 -0.21881572782E+02  0.21881572782E+02  0.00000000000E+00 0.  1.
          5    1    1    2  502    0  0.61474142251E+02 -0.13261288467E+03  0.46841290665E+03  0.49070701122E+03  0.41800000000E+01 0. -1.
         -5    1    1    2    0  502 -0.13366488842E+02 -0.81613453694E+01  0.35367515826E+03  0.35404641016E+03  0.41800000000E+01 0. -1.
        -11    1    1    2    0    0 -0.37473504410E+01  0.81928309970E+02  0.28095924860E+03  0.29268479629E+03  0.00000000000E+00 0. -1.
         11    1    1    2    0    0 -0.44360302968E+02  0.58845920073E+02  0.28503533253E+03  0.29440757391E+03  0.00000000000E+00 0.  1.
</event>
<event>
 7    1  0.4096326E-006  0.1823400E+03  0.7561462E-02  0.1165557E+00
          2   -1    0    0  501    0  0.00000000000E+00  0.00000000000E+00  0.16013587030E+04  0.16013587030E+04  0.00000000000E+00 0. -1.
         -2   -1    0    0    0  501 -0.00000000000E+00 -0.00000000000E+00 -0.42546652309E+02  0.42546652309E+02  0.00000000000E+00 0.  1.
         23    2    1    2    0    0  0.47679253014E+01 -0.17241372370E+03  0.76305477175E+03  0.78760363430E+03  0.91201287561E+02 0.  0.
          5    1    1    2  502    0  0.68340051235E+01  0.14606758892E+03  0.81056529442E+03  0.82366013202E+03  0.41800000000E+01 0. -1.
         -5    1    1    2    0  502 -0.11601930425E+02  0.26346134780E+02 -0.14808015493E+02  0.32641588967E+02  0.41800000000E+01 0.  1.
        -11    1    3    3    0    0 -0.24343358760E+02 -0.15153785606E+03  0.68081195280E+03  0.69789772604E+03  0.00000000000E+00 0.  1.
         11    1    3    3    0    0  0.29111284062E+02 -0.20875867641E+02  0.82242818944E+02  0.89705908263E+02  0.00000000000E+00 0. -1.
</event>
<event>
 7    1  0.4096326E-006  0.1038608E+03  0.7561462E-02  0.1272380E+00
          2   -1    0    0  501    0  0.00000000000E+00  0.00000000000E+00  0.48565835293E+03  0.48565835293E+03  0.00000000000E+00 0. -1.
         -2   -1    0    0    0  501 -0.00000000000E+00 -0.00000000000E+00 -0.39736653820E+02  0.39736653820E+02  0.00000000000E+00 0.  1.
         23    2    1    2    0    0  0.81808772004E+02 -0.53403814140E+01  0.26285513462E+03  0.28900811906E+03  0.87816150184E+02 0.  0.
          5    1    1    2  502    0 -0.83045441619E+02  0.19168697152E+02  0.19798031869E+03  0.21558678835E+03  0.41800000000E+01 0.  1.
         -5    1    1    2    0  502  0.12366696155E+01 -0.13828315738E+02 -0.14913754205E+02  0.20800099336E+02  0.41800000000E+01 0.  1.
        -11    1    3    3    0    0  0.59327186355E+02 -0.36358880534E+02  0.10078288970E+03  0.12246989055E+03  0.00000000000E+00 0.  1.
         11    1    3    3    0    0  0.22481585648E+02  0.31018499120E+02  0.16207224492E+03  0.16653822851E+03  0.00000000000E+00 0. -1.
</event>
<event>
 7    1  0.4096326E-006  0.1164819E+03  0.7561462E-02  0.1249016E+00
          2   -1    0    0  501    0  0.00000000000E+00  0.00000000000E+00  0.40370593597E+03  0.40370593597E+03  0.00000000000E+00 0. -1.
         -2   -1    0    0    0  501 -0.00000000000E+00 -0.00000000000E+00 -0.54333652281E+02  0.54333652281E+02  0.00000000000E+00 0.  1.
         23    2    1    2    0    0 -0.53151367503E+02  0.51090819105E+02  0.26930301256E+03  0.29222771128E+03  0.86241422759E+02 0.  0.
          5    1    1    2  502    0  0.75454365948E+02 -0.47711523665E+01  0.65493056602E+01  0.76003230459E+02  0.41800000000E+01 0. -1.
         -5    1    1    2    0  502 -0.22302998445E+02 -0.46319666739E+02  0.73519965469E+02  0.89808646516E+02  0.41800000000E+01 0. -1.
        -11    1    3    3    0    0 -0.71002514378E+02  0.27641681627E+02  0.23479253440E+03  0.24684601236E+03  0.00000000000E+00 0. -1.
         11    1    3    3    0    0  0.17851146875E+02  0.23449137478E+02  0.34510478166E+02  0.45381698916E+02  0.00000000000E+00 0.  1.
</event>
<event>
 7    1  0.4096326E-006  0.1223687E+03  0.7561462E-02  0.1239240E+00
          2   -1    0    0  501    0  0.00000000000E+00  0.00000000000E+00  0.23956146109E+03  0.23956146109E+03  0.00000000000E+00 0. -1.
         -2   -1    0    0    0  501 -0.00000000000E+00 -0.00000000000E+00 -0.67905304524E+02  0.67905304524E+02  0.00000000000E+00 0.  1.
         23    2    1    2    0    0  0.61758750430E+02  0.22509511065E+02  0.86869974537E+02  0.14267548194E+03  0.92136199873E+02 0.  0.
          5    1    1    2  502    0  0.35432693533E+01  0.40411726857E+02  0.30408637375E+00  0.40782683750E+02  0.41800000000E+01 0.  1.
         -5    1    1    2    0  502 -0.65302019783E+02 -0.62921237922E+02  0.84482095658E+02  0.12400859993E+03  0.41800000000E+01 0.  1.
        -11    1    3    3    0    0  0.22330750722E+02  0.56731386299E+02  0.47425834189E+02  0.77241972837E+02  0.00000000000E+00 0. -1.
         11    1    3    3    0    0  0.39427999708E+02 -0.34221875234E+02  0.39444140348E+02  0.65433509101E+02  0.00000000000E+00 0.  1.
</event>
<event>
 7    1  0.4096326E-006  0.1032383E+03  0.7561462E-02  0.1273630E+00
         -1   -1    0    0    0  501 -0.00000000000E+00  0.00000000000E+00  0.71589407444E+02  0.71589407444E+02  0.00000000000E+00 0.  1.
          1   -1    0    0  501    0  0.00000000000E+00 -0.00000000000E+00 -0.17686051552E+03  0.17686051552E+03  0.00000000000E+00 0. -1.
         23    2    1    2    0    0 -0.17664725542E+02 -0.80828240226E+01 -0.74544824800E+02  0.11818656765E+03  0.89631240617E+02 0.  0.
          5    1    1    2  502    0  0.51716266463E+02 -0.34555373787E+02  0.85209699556E+01  0.62918402741E+02  0.41800000000E+01 0.  1.
         -5    1    1    2    0  502 -0.34051540921E+02  0.42638197810E+02 -0.39247253233E+02  0.67344952579E+02  0.41800000000E+01 0.  1.
        -11    1    3    3    0    0  0.17601854113E+02  0.31692847196E+02 -0.43502401443E+02  0.56627915050E+02  0.00000000000E+00 0. -1.
         11    1    3    3    0    0 -0.35266579655E+02 -0.39775671218E+02 -0.31042423357E+02  0.61558652595E+02  0.00000000000E+00 0.  1.
</event>
<event>
 7    1  0.4096326E-006  0.1329277E+03  0.7561462E-02  0.1223175E+00
         -1   -1    0    0    0  501 -0.00000000000E+00  0.00000000000E+00  0.30797794504E+02  0.30797794504E+02  0.00000000000E+00 0.  1.
          1   -1    0    0  501    0  0.00000000000E+00 -0.00000000000E+00 -0.59182908739E+03  0.59182908739E+03  0.00000000000E+00 0. -1.
         23    2    1    2    0    0 -0.65873887937E+02 -0.47608471601E+02 -0.24178329928E+03  0.27024419983E+03  0.89257089628E+02 0.  0.
          5    1    1    2  502    0 -0.35085016821E+02  0.19680145974E+02 -0.12863283510E+03  0.13484118516E+03  0.41800000000E+01 0. -1.
         -5    1    1    2    0  502  0.10095890476E+03  0.27928325627E+02 -0.19061515851E+03  0.21754149690E+03  0.41800000000E+01 0. -1.
        -11    1    3    3    0    0 -0.66970222765E+02  0.57414516305E+01 -0.14122742502E+03  0.15640703495E+03  0.00000000000E+00 0.  1.
         11    1    3    3    0    0  0.10963348287E+01 -0.53349923231E+02 -0.10055587426E+03  0.11383716488E+03  0.00000000000E+00 0. -1.
</event>
<event>
 7    1  0.4096326E-006  0.1063026E+03  0.7561462E-02  0.1267574E+00
          2   -1    0    0  501    0  0.00000000000E+00  0.00000000000E+00  0.56527394497E+03  0.56527394497E+03  0.00000000000E+00 0. -1.
         -2   -1    0    0    0  501 -0.00000000000E+00 -0.00000000000E+00 -0.33236664236E+02  0.33236664236E+02  0.00000000000E+00 0.  1.
         23    2    1    2    0    0 -0.22676314433E+02 -0.30922994014E+02  0.39234421234E+03  0.40711619738E+03  0.10168171134E+03 0.  0.
          5    1    1    2  502    0  0.93723861890E+00  0.64309470512E+02  0.13681018877E+03  0.15123189665E+03  0.41800000000E+01 0.  1.
         -5    1    1    2    0  502  0.21739075814E+02 -0.33386476498E+02  0.28828796286E+01  0.40162515175E+02  0.41800000000E+01 0.  1.
        -11    1    3    3    0    0 -0.62847545979E+02 -0.24294387565E+02  0.26437496449E+03  0.27282623252E+03  0.00000000000E+00 0.  1.
         11    1    3    3    0    0  0.40171231546E+02 -0.66286064491E+01  0.12796924785E+03  0.13428996486E+03  0.00000000000E+00 0. -1.
</event>
<event>
 7    1  0.4096326E-006  0.1577097E+03  0.7561462E-02  0.1191307E+00
          3   -1    0    0  501    0  0.00000000000E+00  0.00000000000E+00  0.38807792126E+02  0.38807792126E+02  0.00000000000E+00 0. -1.
         -3   -1    0    0    0  501 -0.00000000000E+00 -0.00000000000E+00 -0.10647475583E+04  0.10647475583E+04  0.00000000000E+00 0.  1.
         23    2    1    2    0    0  0.13010539843E+03  0.32574989524E+02 -0.20101620427E+03  0.25849070196E+03  0.91768098914E+02 0.  0.
          5    1    1    2  502    0  0.79231017496E+01 -0.19607243812E+02 -0.34034695834E+03  0.34102894892E+03  0.41800000000E+01 0. -1.
         -5    1    1    2    0  502 -0.13802850018E+03 -0.12967745712E+02 -0.48457660353E+03  0.50403569951E+03  0.41800000000E+01 0. -1.
        -11    1    3    3    0    0  0.34729672149E+02 -0.25868843554E+02 -0.25188966835E+02  0.50098215982E+02  0.00000000000E+00 0. -1.
         11    1    3    3    0    0  0.95375726282E+02  0.58443833078E+02 -0.17582723743E+03  0.20839248598E+03  0.00000000000E+00 0.  1.
</event>
<event>
 7    1  0.4096326E-006  0.1332225E+03  0.7561462E-02  0.1222751E+00
          1   -1    0    0  501    0  0.00000000000E+00  0.00000000000E+00  0.16663464082E+03  0.16663464082E+03  0.00000000000E+00 0. -1.
         -1   -1    0    0    0  501 -0.00000000000E+00 -0.00000000000E+00 -0.14069176235E+03  0.14069176235E+03  0.00000000000E+00 0.  1.
         23    2    1    2    0    0  0.42529411815E+02  0.76086699509E+02  0.73644253173E+02  0.14757173921E+03  0.93573529781E+02 0.  0.
          5    1    1    2  502    0 -0.29365957887E+02  0.31560180026E+02 -0.71535634434E+01  0.43898181236E+02  0.41800000000E+01 0. -1.
         -5    1    1    2    0  502 -0.13163453928E+02 -0.10764687953E+03 -0.40547811251E+02  0.11585648273E+03  0.41800000000E+01 0. -1.
        -11    1    3    3    0    0  0.49817106199E+02  0.13525994667E+02  0.12798575299E+01  0.51636562986E+02  0.00000000000E+00 0.  1.
         11    1    3    3    0    0 -0.72876943839E+01  0.62560704842E+02  0.72364395643E+02  0.95935176221E+02  0.00000000000E+00 0. -1.
</event>
<event>
 7    1  0.5665961E-006  0.1507542E+03  0.7561462E-02  0.1199549E+00
          1   -1    0    0  501    0  0.00000000000E+00  0.00000000000E+00  0.72928021456E+03  0.72928021456E+03  0.00000000000E+00 0. -1.
         -1   -1    0    0    0  501 -0.00000000000E+00 -0.00000000000E+00 -0.32630873278E+02  0.32630873278E+02  0.00000000000E+00 0.  1.
         23    2    1    2    0    0  0.10092682946E+03 -0.49982881783E+02  0.35390382284E+03  0.38006471632E+03  0.80726447918E+02 0.  0.
          5    1    1    2  502    0  0.87757871445E+01  0.57313779798E+02  0.11060610715E+03  0.12495225942E+03  0.41800000000E+01 0. -1.
         -5    1    1    2    0  502 -0.10970261661E+03 -0.73308980151E+01  0.23213941129E+03  0.25689411209E+03  0.41800000000E+01 0. -1.
        -11    1    3    3    0    0  0.11192184512E+02 -0.41765641923E+02  0.70733708651E+02  0.82902903320E+02  0.00000000000E+00 0.  1.
         11    1    3    3    0    0  0.89734644953E+02 -0.82172398606E+01  0.28317011419E+03  0.29716181300E+03  0.00000000000E+00 0. -1.
</event>
<event>
 7    1  0.4096326E-006  0.1041897E+03  0.7561462E-02  0.1271724E+00
         -1   -1    0    0    0  501 -0.00000000000E+00  0.00000000000E+00  0.12074561883E+03  0.12074561883E+03  0.00000000000E+00 0.  1.
          1   -1    0    0  501    0  0.00000000000E+00 -0.00000000000E+00 -0.13804233297E+03  0.13804233297E+03  0.00000000000E+00 0. -1.
         23    2    1    2    0    0  0.42215206676E+02 -0.55012047287E+02 -0.31629572868E+02  0.11505093609E+03  0.86184911633E+02 0.  0.
          5    1    1    2  502    0 -0.72974830572E+02  0.18010381128E+02 -0.27192840521E+02  0.80041381179E+02  0.41800000000E+01 0. -1.
         -5    1    1    2    0  502  0.30759623896E+02  0.37001666159E+02  0.41525699245E+02  0.63695634533E+02  0.41800000000E+01 0. -1.
        -11    1    3    3    0    0  0.39983377433E+02 -0.12021043271E+02  0.21262996156E+02  0.46853932149E+02  0.00000000000E+00 0.  1.
         11    1    3    3    0    0  0.22318292427E+01 -0.42991004015E+02 -0.52892569024E+02  0.68197003937E+02  0.00000000000E+00 0. -1.
</event>
<event>
 7    1  0.4096326E-006  0.2056185E+03  0.7561462E-02  0.1145083E+00
         -3   -1    0    0    0  501 -0.00000000000E+00  0.00000000000E+00  0.41970049636E+03  0.41970049636E+03  0.00000000000E+00 0.  1.
          3   -1    0    0  501    0  0.00000000000E+00 -0.00000000000E+00 -0.12547276535E+03  0.12547276535E+03  0.00000000000E+00 0. -1.
         23    2    1    2    0    0  0.10909217968E+02 -0.16229955681E+03  0.37599967324E+02  0.18982662667E+03  0.90334010617E+02 0.  0.
          5    1    1    2  502    0  0.58057898286E+01 -0.31030116879E+02 -0.20925879686E+01  0.31912797957E+02  0.41800000000E+01 0. -1.
         -5    1    1    2    0  502 -0.16715007797E+02  0.19332967369E+03  0.25872035164E+03  0.32343383708E+03  0.41800000000E+01 0.  1.
        -11    1    3    3    0    0 -0.29782194030E+02 -0.12993379306E+03  0.34733506773E+02  0.13775407854E+03  0.00000000000E+00 0.  1.
         11    1    3    3    0    0  0.40691411998E+02 -0.32365763747E+02  0.28664605513E+01  0.52072548136E+02  0.00000000000E+00 0. -1.
</event>
<event>
 7    1  0.4096326E-006  0.6466018E+02  0.7561462E-02  0.1379254E+00
          1   -1    0    0  501    0  0.00000000000E+00  0.00000000000E+00  0.36590468972E+03  0.36590468972E+03  0.00000000000E+00 0. -1.
         -1   -1    0    0    0  501 -0.00000000000E+00 -0.00000000000E+00 -0.36949959870E+02  0.36949959870E+02  0.00000000000E+00 0.  1.
         23    2    1    2    0    0  0.22961271091E+00 -0.25502334215E+02  0.19938443432E+03  0.22095821726E+03  0.91749437896E+02 0.  0.
          5    1    1    2  502    0  0.19026228654E+02  0.12707621705E+02 -0.19888486361E+02  0.30602374351E+02  0.41800000000E+01 0.  1.
         -5    1    1    2    0  502 -0.19255841364E+02  0.12794712510E+02  0.14945878189E+03  0.15129405797E+03  0.41800000000E+01 0.  1.
        -11    1    3    3    0    0 -0.17090397857E+02  0.24374762874E+02  0.13219644128E+03  0.13550686274E+03  0.00000000000E+00 0. -1.
         11    1    3    3    0    0  0.17320010568E+02 -0.49877097089E+02  0.67187993042E+02  0.85451354519E+02  0.00000000000E+00 0.  1.
</event>
<event>
 7    1  0.4096326E-006  0.8714919E+02  0.7561462E-02  0.1309906E+00
         -1   -1    0    0    0  501 -0.00000000000E+00  0.00000000000E+00  0.10031231087E+03  0.10031231087E+03  0.00000000000E+00 0.  1.
          1   -1    0    0  501    0  0.00000000000E+00 -0.00000000000E+00 -0.17327947805E+03  0.17327947805E+03  0.00000000000E+00 0. -1.
         23    2    1    2    0    0 -0.27282608585E+02  0.17316072921E+02 -0.84996748216E+02  0.14383317358E+03  0.11144212624E+03 0.  0.
          5    1    1    2  502    0  0.15028026010E+02  0.46484571241E+02 -0.24815543833E+02  0.54953985706E+02  0.41800000000E+01 0. -1.
         -5    1    1    2    0  502  0.12254582575E+02 -0.63800644162E+02  0.36845124866E+02  0.74804629643E+02  0.41800000000E+01 0. -1.
        -11    1    3    3    0    0 -0.55128643290E+01 -0.17918774047E+02  0.22115276271E+02  0.28992405574E+02  0.00000000000E+00 0.  1.
         11    1    3    3    0    0 -0.21769744256E+02  0.35234846968E+02 -0.10711202449E+03  0.11484076800E+03  0.00000000000E+00 0. -1.
</event>
<event>
 7    1  0.4096326E-006  0.1257528E+03  0.7561462E-02  0.1233897E+00
          2   -1    0    0  501    0  0.00000000000E+00  0.00000000000E+00  0.10186854127E+03  0.10186854127E+03  0.00000000000E+00 0. -1.
         -2   -1    0    0    0  501 -0.00000000000E+00 -0.00000000000E+00 -0.23695966043E+03  0.23695966043E+03  0.00000000000E+00 0.  1.
         23    2    1    2    0    0 -0.80017512812E+02  0.38162364728E+02  0.93242378464E+01  0.12820351096E+03  0.92141360812E+02 0.  0.
          5    1    1    2  502    0  0.10364702783E+03 -0.48697626049E+00 -0.74712415347E+02  0.12783724391E+03  0.41800000000E+01 0. -1.
         -5    1    1    2    0  502 -0.23629515023E+02 -0.37675388467E+02 -0.69702941660E+02  0.82787446828E+02  0.41800000000E+01 0. -1.
        -11    1    3    3    0    0 -0.75300633481E+02  0.11674484349E+02 -0.28868870445E+02  0.81485524287E+02  0.00000000000E+00 0.  1.
         11    1    3    3    0    0 -0.47168793305E+01  0.26487880379E+02  0.38193108292E+02  0.46717986671E+02  0.00000000000E+00 0. -1.
</event>
<event>
 7    1  0.4096326E-006  0.1071007E+03  0.7561462E-02  0.1266035E+00
          2   -1    0    0  501    0  0.00000000000E+00  0.00000000000E+00  0.53504978249E+03  0.53504978249E+03  0.00000000000E+00 0. -1.
         -2   -1    0    0    0  501 -0.00000000000E+00 -0.00000000000E+00 -0.64736659212E+02  0.64736659212E+02  0.00000000000E+00 0.  1.
         23    2    1    2    0    0 -0.20017993206E+02 -0.77512573918E+02  0.42884902592E+03  0.44559213150E+03  0.90730047169E+02 0.  0.
          5    1    1    2  502    0  0.48346276620E+02  0.65420091404E+02  0.73387718196E+02  0.10963749543E+03  0.41800000000E+01 0. -1.
         -5    1    1    2    0  502 -0.28328283413E+02  0.12092482514E+02 -0.31923620839E+02  0.44556814765E+02  0.41800000000E+01 0. -1.
        -11    1    3    3    0    0 -0.42809844514E+02 -0.54116505635E+02  0.38376910566E+03  0.38992307629E+03  0.00000000000E+00 0. -1.
         11    1    3    3    0    0  0.22791851308E+02 -0.23396068283E+02  0.45079920259E+02  0.55669055208E+02  0.00000000000E+00 0.  1.
</event>
<event>
 7    1  0.4096326E-006  0.1743898E+03  0.7561462E-02  0.1173346E+00
          2   -1    0    0  501    0  0.00000000000E+00  0.00000000000E+00  0.21122136367E+03  0.21122136367E+03  0.00000000000E+00 0. -1.
         -2   -1    0    0    0  501 -0.00000000000E+00 -0.00000000000E+00 -0.15500246014E+03  0.15500246014E+03  0.00000000000E+00 0.  1.
         23    2    1    2    0    0  0.32586252360E+02  0.13442240925E+03  0.68264651959E+02  0.17934577248E+03  0.91507351891E+02 0.  0.
          5    1    1    2  502    0 -0.30757025959E+02  0.14506620072E+02  0.11264916345E+02  0.36066707807E+02  0.41800000000E+01 0.  1.
         -5    1    1    2    0  502 -0.18292264008E+01 -0.14892902932E+03 -0.23310664780E+02  0.15081134352E+03  0.41800000000E+01 0.  1.
        -11    1    3    3    0    0  0.58473453487E+02  0.49096784285E+02  0.37116814990E+02  0.84895800514E+02  0.00000000000E+00 0. -1.
         11    1    3    3    0    0 -0.25887201127E+02  0.85325624960E+02  0.31147836969E+02  0.94449971969E+02  0.00000000000E+00 0.  1.
</event>
<event>
 7    1  0.4096326E-006  0.1031961E+03  0.7561462E-02  0.1273715E+00
          2   -1    0    0  501    0  0.00000000000E+00  0.00000000000E+00  0.60303959261E+03  0.60303959261E+03  0.00000000000E+00 0. -1.
         -2   -1    0    0    0  501 -0.00000000000E+00 -0.00000000000E+00 -0.25188327254E+02  0.25188327254E+02  0.00000000000E+00 0.  1.
         23    2    1    2    0    0  0.10973772036E+02  0.25183217309E+02  0.38541828483E+03  0.39707310065E+03  0.91461329908E+02 0.  0.
          5    1    1    2  502    0 -0.44586238140E+02  0.24318954557E+02  0.14794701549E+03  0.15647726983E+03  0.41800000000E+01 0. -1.
         -5    1    1    2    0  502  0.33612466104E+02 -0.49502171867E+02  0.44485965039E+02  0.74677549388E+02  0.41800000000E+01 0. -1.
        -11    1    3    3    0    0 -0.37045586514E+02  0.29334657979E+02  0.18467001530E+03  0.19061981059E+03  0.00000000000E+00 0. -1.
         11    1    3    3    0    0  0.48019358550E+02 -0.41514406695E+01  0.20074826953E+03  0.20645329005E+03  0.00000000000E+00 0.  1.
</event>
<event>
 7    1  0.4096326E-006  0.1014693E+03  0.7561462E-02  0.1277236E+00
          1   -1    0    0  501    0  0.00000000000E+00  0.00000000000E+00  0.12597636070E+03  0.12597636070E+03  0.00000000000E+00 0. -1.
         -1   -1    0    0    0  501 -0.00000000000E+00 -0.00000000000E+00 -0.13749298882E+03  0.13749298882E+03  0.00000000000E+00 0.  1.
         23    2    1    2    0    0 -0.55313182977E+02 -0.31518573454E+02  0.32990510792E+02  0.11622353526E+03  0.91468943709E+02 0.  0.
          5    1    1    2  502    0  0.45214049295E+02 -0.35878039352E+02 -0.52961753973E+02  0.78447203553E+02  0.41800000000E+01 0. -1.
         -5    1    1    2    0  502  0.10099133682E+02  0.67396612806E+02  0.84546150595E+01  0.68798610703E+02  0.41800000000E+01 0. -1.
        -11    1    3    3    0    0 -0.49347734677E+02 -0.41953468495E+02  0.58972522171E+02  0.87595952005E+02  0.00000000000E+00 0. -1.
         11    1    3    3    0    0 -0.59654482996E+01  0.10434895041E+02 -0.25982011379E+02  0.28627583258E+02  0.00000000000E+00 0.  1.
</event>
<event>
 7    1  0.4096326E-006  0.9015063E+02  0.7561462E-02  0.1302487E+00
         -4   -1    0    0    0  501 -0.00000000000E+00  0.00000000000E+00  0.33488391843E+03  0.33488391843E+03  0.00000000000E+00 0.  1.
          4   -1    0    0  501    0  0.00000000000E+00 -0.00000000000E+00 -0.37921480249E+02  0.37921480249E+02  0.00000000000E+00 0. -1.
         23    2    1    2    0    0 -0.31017554669E+01 -0.26757763321E+02  0.96444867713E+02  0.13493855868E+03  0.90450004568E+02 0.  0.
          5    1    1    2  502    0  0.46465193386E+02  0.44497680274E+02  0.54370834759E+02  0.84336930336E+02  0.41800000000E+01 0.  1.
         -5    1    1    2    0  502 -0.43363437919E+02 -0.17739916953E+02  0.14614673571E+03  0.15352990966E+03  0.41800000000E+01 0.  1.
        -11    1    3    3    0    0 -0.12787112780E+02  0.18511416176E+02  0.84057292664E+02  0.87016155006E+02  0.00000000000E+00 0.  1.
         11    1    3    3    0    0  0.96853573130E+01 -0.45269179497E+02  0.12387575049E+02  0.47922403677E+02  0.00000000000E+00 0. -1.
</event>
<event>
 7    1  0.4096326E-006  0.1033125E+03  0.7561462E-02  0.1273480E+00
         -2   -1    0    0    0  501 -0.00000000000E+00  0.00000000000E+00  0.23864257267E+02  0.23864257267E+02  0.00000000000E+00 0.  1.
          2   -1    0    0  501    0  0.00000000000E+00 -0.00000000000E+00 -0.72108039211E+03  0.72108039211E+03  0.00000000000E+00 0. -1.
         23    2    1    2    0    0  0.64192616869E+02 -0.33730029891E+02 -0.35727113560E+03  0.37552443537E+03  0.90097337654E+02 0.  0.
          5    1    1    2  502    0 -0.80525781154E+02  0.35271597436E+02 -0.11995062836E+03  0.14877537652E+03  0.41800000000E+01 0. -1.
         -5    1    1    2    0  502  0.16333164285E+02 -0.15415675444E+01 -0.21999437088E+03  0.22064483748E+03  0.41800000000E+01 0. -1.
        -11    1    3    3    0    0 -0.15602049715E+02 -0.96075295249E+01 -0.16341764246E+02  0.24551615783E+02  0.00000000000E+00 0.  1.
         11    1    3    3    0    0  0.79794666584E+02 -0.24122500366E+02 -0.34092937135E+03  0.35097281959E+03  0.00000000000E+00 0. -1.
</event>
<event>
 7    1  0.4096326E-006  0.1387752E+03  0.7561462E-02  0.1214987E+00
          2   -1    0    0  501    0  0.00000000000E+00  0.00000000000E+00  0.71627362081E+02  0.71627362081E+02  0.00000000000E+00 0.  1.
         -2   -1    0    0    0  501 -0.00000000000E+00 -0.00000000000E+00 -0.30448317708E+03  0.30448317708E+03  0.00000000000E+00 0. -1.
         23    2    1    2    0    0 -0.99242918672E+02 -0.82013751098E+00 -0.85377251472E+02  0.15874132053E+03  0.89775844421E+02 0.  0.
          5    1    1    2  502    0 -0.19801715584E+02  0.24820714868E+02 -0.58744269309E+02  0.66906930906E+02  0.41800000000E+01 0. -1.
         -5    1    1    2    0  502  0.11904463426E+03 -0.24000577357E+02 -0.88734294220E+02  0.15046228773E+03  0.41800000000E+01 0. -1.
        -11    1    3    3    0    0 -0.99661362797E+01  0.28382411415E+02  0.24042454616E+01  0.30177235565E+02  0.00000000000E+00 0.  1.
         11    1    3    3    0    0 -0.89276782392E+02 -0.29202548926E+02 -0.87781496933E+02  0.12856408496E+03  0.00000000000E+00 0. -1.
</event>
<event>
 7    1  0.4096326E-006  0.1548997E+03  0.7561462E-02  0.1194578E+00
         -1   -1    0    0    0  501 -0.00000000000E+00  0.00000000000E+00  0.98414307285E+02  0.98414307285E+02  0.00000000000E+00 0.  1.
          1   -1    0    0  501    0  0.00000000000E+00 -0.00000000000E+00 -0.33049872388E+03  0.33049872388E+03  0.00000000000E+00 0. -1.
         23    2    1    2    0    0 -0.32730674121E+02  0.32031135936E+02 -0.18020464616E+03  0.20590643737E+03  0.88467258100E+02 0.  0.
          5    1    1    2  502    0 -0.85578188993E+02  0.58861940615E+01  0.55775244150E+01  0.86063086689E+02  0.41800000000E+01 0. -1.
         -5    1    1    2    0  502  0.11830886311E+03 -0.37917329998E+02 -0.57457294842E+02  0.13694350710E+03  0.41800000000E+01 0.  1.
        -11    1    3    3    0    0  0.30794266621E+02  0.10642912360E+02 -0.60135624016E+02  0.68394822290E+02  0.00000000000E+00 0.  1.
         11    1    3    3    0    0 -0.63524940741E+02  0.21388223576E+02 -0.12006902215E+03  0.13751161509E+03  0.00000000000E+00 0. -1.
</event>
<event>
 7    1  0.4096326E-006  0.9912801E+02  0.7561462E-02  0.1282140E+00
         -1   -1    0    0    0  501 -0.00000000000E+00  0.00000000000E+00  0.37794795633E+02  0.37794795633E+02  0.00000000000E+00 0.  1.
          1   -1    0    0  501    0  0.00000000000E+00 -0.00000000000E+00 -0.51392104504E+03  0.51392104504E+03  0.00000000000E+00 0. -1.
         23    2    1    2    0    0  0.70239877313E+02  0.39951072464E+02 -0.28091288613E+03  0.30618507113E+03  0.91145595786E+02 0.  0.
          5    1    1    2  502    0 -0.56539317173E+02 -0.17642523247E+02 -0.20784816439E+03  0.21616263519E+03  0.41800000000E+01 0. -1.
         -5    1    1    2    0  502 -0.13700560140E+02 -0.22308549217E+02  0.12634801113E+02  0.29368134355E+02  0.41800000000E+01 0. -1.
        -11    1    3    3    0    0  0.52019001088E+02 -0.15274853966E+02 -0.77208118185E+02  0.94341884397E+02  0.00000000000E+00 0.  1.
         11    1    3    3    0    0  0.18220876225E+02  0.55225926430E+02 -0.20370476795E+03  0.21184318673E+03  0.00000000000E+00 0. -1.
</event>
<event>
 7    1  0.4096326E-006  0.8574589E+02  0.7561462E-02  0.1313493E+00
          1   -1    0    0  501    0  0.00000000000E+00  0.00000000000E+00  0.31631240068E+03  0.31631240068E+03  0.00000000000E+00 0. -1.
         -1   -1    0    0    0  501 -0.00000000000E+00 -0.00000000000E+00 -0.38786159178E+02  0.38786159178E+02  0.00000000000E+00 0.  1.
         23    2    1    2    0    0  0.38723637736E+02  0.17334627687E+01  0.91198457195E+02  0.12735566753E+03  0.79998640266E+02 0.  0.
          5    1    1    2  502    0 -0.27902143598E+02 -0.55650827137E+02  0.47672845750E+02  0.78522078425E+02  0.41800000000E+01 0. -1.
         -5    1    1    2    0  502 -0.10821494138E+02  0.53917364369E+02  0.13865493856E+03  0.14922081391E+03  0.41800000000E+01 0. -1.
        -11    1    3    3    0    0  0.36500952222E+02 -0.13225657236E+02  0.41967728595E+01  0.39049333219E+02  0.00000000000E+00 0.  1.
         11    1    3    3    0    0  0.22226855140E+01  0.14959120004E+02  0.87001684335E+02  0.88306334310E+02  0.00000000000E+00 0. -1.
</event>
<event>
 7    1  0.4096326E-006  0.1100420E+03  0.7561462E-02  0.1260492E+00
          4   -1    0    0  501    0  0.00000000000E+00  0.00000000000E+00  0.28492101819E+03  0.28492101819E+03  0.00000000000E+00 0. -1.
         -4   -1    0    0    0  501 -0.00000000000E+00 -0.00000000000E+00 -0.70983349842E+02  0.70983349842E+02  0.00000000000E+00 0.  1.
         23    2    1    2    0    0  0.31009731028E+02  0.83343482963E+02  0.10251534799E+03  0.16624653154E+03  0.96024856693E+02 0.  0.
          5    1    1    2  502    0 -0.79722310121E+01 -0.24022282739E+02 -0.27004224472E+02  0.37246839794E+02  0.41800000000E+01 0.  1.
         -5    1    1    2    0  502 -0.23037500016E+02 -0.59321200223E+02  0.13842654482E+03  0.15241099670E+03  0.41800000000E+01 0.  1.
        -11    1    3    3    0    0  0.12572313284E+02 -0.21119518348E+02  0.15622895806E+02  0.29123392487E+02  0.00000000000E+00 0.  1.
         11    1    3    3    0    0  0.18437417744E+02  0.10446300131E+03  0.86892452188E+02  0.13712313905E+03  0.00000000000E+00 0. -1.
</event>
<event>
 7    1  0.4096326E-006  0.9867124E+02  0.7561462E-02  0.1283115E+00
         -2   -1    0    0    0  501 -0.00000000000E+00  0.00000000000E+00  0.20913532406E+03  0.20913532406E+03  0.00000000000E+00 0.  1.
          2   -1    0    0  501    0  0.00000000000E+00 -0.00000000000E+00 -0.10283820860E+03  0.10283820860E+03  0.00000000000E+00 0. -1.
         23    2    1    2    0    0 -0.49286232853E+02  0.11859232961E+02 -0.45890394796E+02  0.11635523150E+03  0.94142643942E+02 0.  0.
          5    1    1    2  502    0 -0.21084061138E+02  0.35137958646E+01 -0.52777522449E+01  0.22410075060E+02  0.41800000000E+01 0. -1.
         -5    1    1    2    0  502  0.70370293990E+02 -0.15373028825E+02  0.15746526250E+03  0.17320822609E+03  0.41800000000E+01 0.  1.
        -11    1    3    3    0    0 -0.79791085772E+01  0.47919335959E+02 -0.36409668606E+02  0.60709084168E+02  0.00000000000E+00 0.  1.
         11    1    3    3    0    0 -0.41307124276E+02 -0.36060102999E+02 -0.94807261901E+01  0.55646147336E+02  0.00000000000E+00 0. -1.
</event>
<event>
 7    1  0.4096326E-006  0.1070139E+03  0.7561462E-02  0.1266202E+00
         -1   -1    0    0    0  501 -0.00000000000E+00  0.00000000000E+00  0.33486286181E+02  0.33486286181E+02  0.00000000000E+00 0.  1.
          1   -1    0    0  501    0  0.00000000000E+00 -0.00000000000E+00 -0.48148931328E+03  0.48148931328E+03  0.00000000000E+00 0. -1.
         23    2    1    2    0    0 -0.18832707086E+02  0.61312662763E+02 -0.21484440209E+03  0.24271412669E+03  0.92941469271E+02 0.  0.
          5    1    1    2  502    0  0.38999308869E+02  0.16553044940E+01 -0.11490199273E+02  0.40904562149E+02  0.41800000000E+01 0.  1.
         -5    1    1    2    0  502 -0.20166601783E+02 -0.62967967257E+02 -0.22166842573E+03  0.23135691062E+03  0.41800000000E+01 0.  1.
        -11    1    3    3    0    0  0.26639410057E+02 -0.59813871709E+01 -0.28642957436E+02  0.39570875292E+02  0.00000000000E+00 0.  1.
         11    1    3    3    0    0 -0.45472117143E+02  0.67294049934E+02 -0.18620144466E+03  0.20314325139E+03  0.00000000000E+00 0. -1.
</event>
<event>
 7    1  0.4096326E-006  0.1165268E+03  0.7561462E-02  0.1248939E+00
          2   -1    0    0  501    0  0.00000000000E+00  0.00000000000E+00  0.41484367386E+03  0.41484367386E+03  0.00000000000E+00 0.  1.
         -2   -1    0    0    0  501 -0.00000000000E+00 -0.00000000000E+00 -0.50183969206E+02  0.50183969206E+02  0.00000000000E+00 0. -1.
         23    2    1    2    0    0 -0.24386678370E+02 -0.51001659664E+02  0.28846050499E+03  0.30802539734E+03  0.92055978057E+02 0.  0.
          5    1    1    2  502    0 -0.48037639623E+02  0.38679186542E+02  0.22006309030E+02  0.65615884732E+02  0.41800000000E+01 0. -1.
         -5    1    1    2    0  502  0.72424317993E+02  0.12322473123E+02  0.54192890633E+02  0.91386360994E+02  0.41800000000E+01 0. -1.
        -11    1    3    3    0    0 -0.70275512403E+01 -0.70900250299E+02  0.13843339941E+03  0.15569212581E+03  0.00000000000E+00 0. -1.
         11    1    3    3    0    0 -0.17359127129E+02  0.19898590635E+02  0.15002710558E+03  0.15233327153E+03  0.00000000000E+00 0.  1.
</event>
<event>
 7    1  0.4096326E-006  0.1482679E+03  0.7561462E-02  0.1202618E+00
          1   -1    0    0  501    0  0.00000000000E+00  0.00000000000E+00  0.19316367132E+03  0.19316367132E+03  0.00000000000E+00 0. -1.
         -1   -1    0    0    0  501 -0.00000000000E+00 -0.00000000000E+00 -0.15685816668E+03  0.15685816668E+03  0.00000000000E+00 0.  1.
         23    2    1    2    0    0 -0.10837679471E+03  0.42847620257E+02  0.86596215184E+02  0.17181038436E+03  0.91861066272E+02 0.  0.
          5    1    1    2  502    0  0.64549517421E+02 -0.86405742556E+02 -0.22146024775E+02  0.11018398867E+03  0.41800000000E+01 0.  1.
         -5    1    1    2    0  502  0.43827277291E+02  0.43558122300E+02 -0.28144685769E+02  0.68027464968E+02  0.41800000000E+01 0.  1.
        -11    1    3    3    0    0 -0.10381137661E+03  0.52247603397E+02  0.10102888777E+03  0.15399172101E+03  0.00000000000E+00 0. -1.
         11    1    3    3    0    0 -0.45654180982E+01 -0.93999831402E+01 -0.14432672591E+02  0.17818663350E+02  0.00000000000E+00 0.  1.
</event>
<event>
 7    1  0.4096326E-006  0.1631791E+03  0.7561462E-02  0.1185154E+00
          1   -1    0    0  501    0  0.00000000000E+00  0.00000000000E+00  0.81338255385E+03  0.81338255385E+03  0.00000000000E+00 0. -1.
         -1   -1    0    0    0  501 -0.00000000000E+00 -0.00000000000E+00 -0.47663579693E+02  0.47663579693E+02  0.00000000000E+00 0.  1.
         23    2    1    2    0    0  0.12406414258E+03 -0.20393392583E+02  0.59467192798E+03  0.61464832980E+03  0.91378692603E+02 0.  0.
          5    1    1    2  502    0 -0.44497229643E+02  0.65772571450E+02  0.11192059470E+03  0.13729430622E+03  0.41800000000E+01 0. -1.
         -5    1    1    2    0  502 -0.79566912937E+02 -0.45379178867E+02  0.59126451480E+02  0.10910349753E+03  0.41800000000E+01 0. -1.
        -11    1    3    3    0    0  0.98321943927E+02  0.26341160076E+02  0.40745162101E+03  0.41997367159E+03  0.00000000000E+00 0. -1.
         11    1    3    3    0    0  0.25742198653E+02 -0.46734552659E+02  0.18722030697E+03  0.19467465820E+03  0.00000000000E+00 0.  1.
</event>
<event>
 7    1  0.4096326E-006  0.1071083E+03  0.7561462E-02  0.1266020E+00
          1   -1    0    0  501    0  0.00000000000E+00  0.00000000000E+00  0.18447028842E+03  0.18447028842E+03  0.00000000000E+00 0. -1.
         -1   -1    0    0    0  501 -0.00000000000E+00 -0.00000000000E+00 -0.89023051773E+02  0.89023051773E+02  0.00000000000E+00 0.  1.
         23    2    1    2    0    0  0.36218127339E+02  0.56537909305E+02  0.48539132526E+02  0.12397458311E+03  0.92224519158E+02 0.  0.
          5    1    1    2  502    0 -0.43525473779E+02  0.63836386456E+01 -0.27237707182E+02  0.51909371048E+02  0.41800000000E+01 0.  1.
         -5    1    1    2    0  502  0.73073464399E+01 -0.62921547951E+02  0.74145811299E+02  0.97609386033E+02  0.41800000000E+01 0.  1.
        -11    1    3    3    0    0 -0.36558725599E+01 -0.19952974446E+02  0.29231031085E+02  0.35580047382E+02  0.00000000000E+00 0. -1.
         11    1    3    3    0    0  0.39873999899E+02  0.76490883751E+02  0.19308101441E+02  0.88394535726E+02  0.00000000000E+00 0.  1.
</event>
<event>
 7    1  0.4096326E-006  0.1505327E+03  0.7561462E-02  0.1199820E+00
         -2   -1    0    0    0  501 -0.00000000000E+00  0.00000000000E+00  0.10338786889E+03  0.10338786889E+03  0.00000000000E+00 0. -1.
          2   -1    0    0  501    0  0.00000000000E+00 -0.00000000000E+00 -0.22606913753E+03  0.22606913753E+03  0.00000000000E+00 0.  1.
         23    2    1    2    0    0 -0.35410833375E+02 -0.10194606758E+03 -0.63421942459E+02  0.15403285661E+03  0.89759959428E+02 0.  0.
          5    1    1    2  502    0 -0.46403898853E+02  0.42264617050E+02 -0.31413295831E+02  0.70312781470E+02  0.41800000000E+01 0. -1.
         -5    1    1    2    0  502  0.81814732228E+02  0.59681450526E+02 -0.27846030348E+02  0.10511136833E+03  0.41800000000E+01 0. -1.
        -11    1    3    3    0    0  0.59912804319E+01 -0.94558455638E+02 -0.59300285727E+02  0.11177531419E+03  0.00000000000E+00 0.  1.
         11    1    3    3    0    0 -0.41402113806E+02 -0.73876119377E+01 -0.41216567323E+01  0.42257542427E+02  0.00000000000E+00 0. -1.
</event>
<event>
 7    1  0.4096326E-006  0.1096833E+03  0.7561462E-02  0.1261158E+00
          2   -1    0    0  501    0  0.00000000000E+00  0.00000000000E+00  0.20941380507E+03  0.20941380507E+03  0.00000000000E+00 0. -1.
         -2   -1    0    0    0  501 -0.00000000000E+00 -0.00000000000E+00 -0.10400703572E+03  0.10400703572E+03  0.00000000000E+00 0.  1.
         23    2    1    2    0    0  0.77395150204E+02  0.61185643457E+02  0.60999038429E+02  0.14803415123E+03  0.91975730494E+02 0.  0.
          5    1    1    2  502    0 -0.37815447751E+02 -0.47687304745E+01 -0.40619240846E+02  0.55858249219E+02  0.41800000000E+01 0.  1.
         -5    1    1    2    0  502 -0.39579702453E+02 -0.56416912982E+02  0.85026971763E+02  0.10952844034E+03  0.41800000000E+01 0.  1.
        -11    1    3    3    0    0  0.93060342490E+01  0.39410201962E+02 -0.15475652253E+02  0.43350456800E+02  0.00000000000E+00 0.  1.
         11    1    3    3    0    0  0.68089115955E+02  0.21775441495E+02  0.76474690682E+02  0.10468369443E+03  0.00000000000E+00 0. -1.
</event>
<event>
 7    1  0.4096326E-006  0.1205887E+03  0.7561462E-02  0.1242129E+00
          2   -1    0    0  501    0  0.00000000000E+00  0.00000000000E+00  0.35511762527E+03  0.35511762527E+03  0.00000000000E+00 0.  1.
         -2   -1    0    0    0  501 -0.00000000000E+00 -0.00000000000E+00 -0.74385415445E+02  0.74385415445E+02  0.00000000000E+00 0. -1.
         23    2    1    2    0    0  0.11049274646E+03  0.45019944388E+02  0.15305919397E+03  0.21460040050E+03  0.91601160610E+02 0.  0.
          5    1    1    2  502    0 -0.14202862173E+02 -0.12765167886E+02  0.11002390583E+03  0.11174704944E+03  0.41800000000E+01 0. -1.
         -5    1    1    2    0  502 -0.96289884284E+02 -0.32254776502E+02  0.17649110027E+02  0.10315559077E+03  0.41800000000E+01 0. -1.
        -11    1    3    3    0    0  0.57891035052E+02  0.30456732571E+02  0.16390695965E+02  0.67436187708E+02  0.00000000000E+00 0.  1.
         11    1    3    3    0    0  0.52601711405E+02  0.14563211817E+02  0.13666849800E+03  0.14716421279E+03  0.00000000000E+00 0. -1.
</event>
<event>
 7    1  0.4096326E-006  0.1068917E+03  0.7561462E-02  0.1266437E+00
          2   -1    0    0  501    0  0.00000000000E+00  0.00000000000E+00  0.18630117311E+03  0.18630117311E+03  0.00000000000E+00 0. -1.
         -2   -1    0    0    0  501 -0.00000000000E+00 -0.00000000000E+00 -0.16045130402E+03  0.16045130402E+03  0.00000000000E+00 0.  1.
         23    2    1    2    0    0 -0.31711756288E+01  0.44306731178E+02  0.13719714857E+03  0.17133555309E+03  0.92518492165E+02 0.  0.
          5    1    1    2  502    0  0.32684247159E+02  0.21367533681E+02 -0.93067658504E+02  0.10101432061E+03  0.41800000000E+01 0. -1.
         -5    1    1    2    0  502 -0.29513071531E+02 -0.65674264859E+02 -0.18279620973E+02  0.74402603441E+02  0.41800000000E+01 0.  1.
        -11    1    3    3    0    0  0.37817318208E+02  0.48144534167E+02  0.76223419850E+02  0.97765308061E+02  0.00000000000E+00 0. -1.
         11    1    3    3    0    0 -0.40988493837E+02 -0.38378029894E+01  0.60973728721E+02  0.73570245024E+02  0.00000000000E+00 0.  1.
</event>
<event>
 7    1  0.4096326E-006  0.1440816E+03  0.7561462E-02  0.1207940E+00
         -2   -1    0    0    0  501 -0.00000000000E+00  0.00000000000E+00  0.28468704363E+03  0.28468704363E+03  0.00000000000E+00 0.  1.
          2   -1    0    0  501    0  0.00000000000E+00 -0.00000000000E+00 -0.83236424353E+02  0.83236424353E+02  0.00000000000E+00 0. -1.
         23    2    1    2    0    0 -0.82006746757E+02 -0.64927713562E+02  0.72843155242E+02  0.15703683222E+03  0.91726369749E+02 0.  0.
          5    1    1    2  502    0  0.81812494000E+02  0.95004738420E+02  0.67035735727E+02  0.14223377504E+03  0.41800000000E+01 0. -1.
         -5    1    1    2    0  502  0.19425275671E+00 -0.30077024859E+02  0.61571728313E+02  0.68652860727E+02  0.41800000000E+01 0.  1.
        -11    1    3    3    0    0 -0.61523559196E+02 -0.84162403755E+02  0.35140001110E+02  0.11001489999E+03  0.00000000000E+00 0.  1.
         11    1    3    3    0    0 -0.20483187561E+02  0.19234690193E+02  0.37703154132E+02  0.47021932233E+02  0.00000000000E+00 0. -1.
</event>
<event>
 7    1  0.4096326E-006  0.1939219E+03  0.7561462E-02  0.1154971E+00
         -2   -1    0    0    0  501 -0.00000000000E+00  0.00000000000E+00  0.20969713013E+03  0.20969713013E+03  0.00000000000E+00 0.  1.
          2   -1    0    0  501    0  0.00000000000E+00 -0.00000000000E+00 -0.21215387004E+03  0.21215387004E+03  0.00000000000E+00 0. -1.
         23    2    1    2    0    0 -0.85502483397E+02  0.15599938936E+03 -0.48350361674E+02  0.19958293514E+03  0.76479450694E+02 0.  0.
          5    1    1    2  502    0 -0.10181362082E+02  0.39636896703E+01  0.33419893534E+02  0.35408087402E+02  0.41800000000E+01 0. -1.
         -5    1    1    2    0  502  0.95683845479E+02 -0.15996307903E+03  0.12473728230E+02  0.18685997762E+03  0.41800000000E+01 0. -1.
        -11    1    3    3    0    0 -0.45693498778E+02  0.13917576338E+03 -0.19873907150E+02  0.14782679435E+03  0.00000000000E+00 0.  1.
         11    1    3    3    0    0 -0.39808984619E+02  0.16823625983E+02 -0.28476454523E+02  0.51756140793E+02  0.00000000000E+00 0. -1.
</event>
<event>
 7    1  0.4096326E-006  0.1587448E+03  0.7561462E-02  0.1190121E+00
          2   -1    0    0  501    0  0.00000000000E+00  0.00000000000E+00  0.82997353855E+03  0.82997353855E+03  0.00000000000E+00 0. -1.
         -2   -1    0    0    0  501 -0.00000000000E+00 -0.00000000000E+00 -0.33220520968E+02  0.33220520968E+02  0.00000000000E+00 0.  1.
         23    2    1    2    0    0 -0.17780001077E+02 -0.12419893983E+03  0.36657639194E+03  0.39796201868E+03  0.90851593775E+02 0.  0.
          5    1    1    2  502    0 -0.44069497787E+02  0.30067002994E+02  0.22353019566E+03  0.22984639670E+03  0.41800000000E+01 0.  1.
         -5    1    1    2    0  502  0.61849498864E+02  0.94131936834E+02  0.20664642998E+03  0.23538564414E+03  0.41800000000E+01 0.  1.
        -11    1    3    3    0    0  0.14247319710E+02 -0.11773406643E+03  0.24688850702E+03  0.27389456259E+03  0.00000000000E+00 0.  1.
         11    1    3    3    0    0 -0.32027320787E+02 -0.64648734029E+01  0.11968788492E+03  0.12406745609E+03  0.00000000000E+00 0. -1.
</event>
<event>
 7    1  0.4096326E-006  0.1431620E+03  0.7561462E-02  0.1209137E+00
         -2   -1    0    0    0  501 -0.00000000000E+00  0.00000000000E+00  0.35986102329E+02  0.35986102329E+02  0.00000000000E+00 0.  1.
          2   -1    0    0  501    0  0.00000000000E+00 -0.00000000000E+00 -0.75015321091E+03  0.75015321091E+03  0.00000000000E+00 0. -1.
         23    2    1    2    0    0 -0.34928114913E+02 -0.11541293257E+03 -0.39637484451E+03  0.42395281181E+03  0.89904677680E+02 0.  0.
          5    1    1    2  502    0  0.31131888641E+02 -0.94333872668E+01 -0.18053700640E+02  0.37437839047E+02  0.41800000000E+01 0. -1.
         -5    1    1    2    0  502  0.37962262720E+01  0.12484631983E+03 -0.29973856343E+03  0.32474866238E+03  0.41800000000E+01 0. -1.
        -11    1    3    3    0    0 -0.36199736174E+02 -0.43342714261E+02 -0.71155384043E+02  0.90841072522E+02  0.00000000000E+00 0.  1.
         11    1    3    3    0    0  0.12716212607E+01 -0.72070218306E+02 -0.32521946047E+03  0.33311173929E+03  0.00000000000E+00 0. -1.
</event>
<event>
 7    1  0.4096326E-006  0.1162365E+03  0.7561462E-02  0.1249438E+00
          1   -1    0    0  501    0  0.00000000000E+00  0.00000000000E+00  0.36256438845E+02  0.36256438845E+02  0.00000000000E+00 0. -1.
         -1   -1    0    0    0  501 -0.00000000000E+00 -0.00000000000E+00 -0.43462707916E+03  0.43462707916E+03  0.00000000000E+00 0.  1.
         23    2    1    2    0    0 -0.41733127934E+02  0.30409112725E+02 -0.11768489589E+03  0.15681841892E+03  0.89866087532E+02 0.  0.
          5    1    1    2  502    0 -0.45070869352E+02 -0.26808758532E+02 -0.85693609236E+02  0.10055326878E+03  0.41800000000E+01 0. -1.
         -5    1    1    2    0  502  0.86803997285E+02 -0.36003541935E+01 -0.19499213519E+03  0.21351183030E+03  0.41800000000E+01 0.  1.
        -11    1    3    3    0    0 -0.64421591155E+02  0.17388293712E+02 -0.47471890456E+02  0.81890625523E+02  0.00000000000E+00 0. -1.
         11    1    3    3    0    0  0.22688463222E+02  0.13020819014E+02 -0.70213005438E+02  0.74927793400E+02  0.00000000000E+00 0.  1.
</event>
<event>
 7    1  0.4096326E-006  0.2209274E+03  0.7561462E-02  0.1133193E+00
          1   -1    0    0  501    0  0.00000000000E+00  0.00000000000E+00  0.34038554410E+03  0.34038554410E+03  0.00000000000E+00 0. -1.
         -1   -1    0    0    0  501 -0.00000000000E+00 -0.00000000000E+00 -0.19306431097E+03  0.19306431097E+03  0.00000000000E+00 0.  1.
         23    2    1    2    0    0  0.13272823314E+03 -0.16098259652E+03  0.17805544212E+03  0.28824728856E+03  0.88603491135E+02 0.  0.
          5    1    1    2  502    0 -0.10859298250E+03  0.17338044276E+03 -0.51234084048E+02  0.21093984343E+03  0.41800000000E+01 0. -1.
         -5    1    1    2    0  502 -0.24135250642E+02 -0.12397846241E+02  0.20499875061E+02  0.34262723075E+02  0.41800000000E+01 0. -1.
        -11    1    3    3    0    0  0.10806340495E+03 -0.11640984644E+03  0.80221294701E+02  0.17794495767E+03  0.00000000000E+00 0.  1.
         11    1    3    3    0    0  0.24664828192E+02 -0.44572750083E+02  0.97834147418E+02  0.11030233089E+03  0.00000000000E+00 0. -1.
</event>
<event>
 7    1  0.4096326E-006  0.9417227E+02  0.7561462E-02  0.1293051E+00
         -4   -1    0    0    0  501 -0.00000000000E+00  0.00000000000E+00  0.31275295755E+03  0.31275295755E+03  0.00000000000E+00 0.  1.
          4   -1    0    0  501    0  0.00000000000E+00 -0.00000000000E+00 -0.45210770295E+02  0.45210770295E+02  0.00000000000E+00 0. -1.
         23    2    1    2    0    0  0.14670241680E+02 -0.45155313402E+02  0.93543900181E+02  0.13822491245E+03  0.90008037641E+02 0.  0.
          5    1    1    2  502    0  0.35458336208E+02  0.52873067735E+02  0.37364866465E+02  0.73935516122E+02  0.41800000000E+01 0. -1.
         -5    1    1    2    0  502 -0.50128577887E+02 -0.77177543329E+01  0.13663342061E+03  0.14580329928E+03  0.41800000000E+01 0. -1.
        -11    1    3    3    0    0 -0.51865416340E+01  0.12040259959E+02 -0.11199465697E+02  0.17242276703E+02  0.00000000000E+00 0. -1.
         11    1    3    3    0    0  0.19856783314E+02 -0.57195573361E+02  0.10474336588E+03  0.12098263574E+03  0.00000000000E+00 0.  1.
</event>
<event>
 7    1  0.4096326E-006  0.1088425E+03  0.7561462E-02  0.1262728E+00
         -2   -1    0    0    0  501 -0.00000000000E+00  0.00000000000E+00  0.20300407358E+03  0.20300407358E+03  0.00000000000E+00 0. -1.
          2   -1    0    0  501    0  0.00000000000E+00 -0.00000000000E+00 -0.11033958356E+03  0.11033958356E+03  0.00000000000E+00 0.  1.
         23    2    1    2    0    0 -0.21572932730E+02  0.31782203109E+02 -0.56772088298E+02  0.11469954144E+03  0.91964204647E+02 0.  0.
          5    1    1    2  502    0  0.62942545052E+02  0.49123826668E+01  0.37054512439E+02  0.73323971341E+02  0.41800000000E+01 0. -1.
         -5    1    1    2    0  502 -0.41369612322E+02 -0.36694585776E+02  0.11238206589E+03  0.12532014436E+03  0.41800000000E+01 0. -1.
        -11    1    3    3    0    0  0.24670918167E+02 -0.18354461553E+02 -0.24114463026E+02  0.39077458837E+02  0.00000000000E+00 0.  1.
         11    1    3    3    0    0 -0.46243850897E+02  0.50136664663E+02 -0.32657625272E+02  0.75622082606E+02  0.00000000000E+00 0. -1.
</event>
<event>
 7    1  0.4096326E-006  0.5403469E+02  0.7561462E-02  0.1424720E+00
         -1   -1    0    0    0  501 -0.00000000000E+00  0.00000000000E+00  0.17772701038E+03  0.17772701038E+03  0.00000000000E+00 0.  1.
          1   -1    0    0  501    0  0.00000000000E+00 -0.00000000000E+00 -0.75986928008E+02  0.75986928008E+02  0.00000000000E+00 0. -1.
         23    2    1    2    0    0  0.34203729727E+02  0.12191314243E+02  0.20371478574E+02  0.10013308219E+03  0.91066534689E+02 0.  0.
          5    1    1    2  502    0 -0.83068667704E+01 -0.89957976585E+01 -0.33395151946E+02  0.35813921659E+02  0.41800000000E+01 0. -1.
         -5    1    1    2    0  502 -0.25896862957E+02 -0.31955165844E+01  0.11476375575E+03  0.11776693454E+03  0.41800000000E+01 0. -1.
        -11    1    3    3    0    0 -0.10543183759E+02 -0.13482993393E+02 -0.25759058100E+02  0.30926993207E+02  0.00000000000E+00 0. -1.
         11    1    3    3    0    0  0.44746913486E+02  0.25674307636E+02  0.46130536674E+02  0.69206088988E+02  0.00000000000E+00 0.  1.
</event>
<event>
 7    1  0.4096326E-006  0.8268445E+02  0.7561462E-02  0.1321601E+00
          2   -1    0    0  501    0  0.00000000000E+00  0.00000000000E+00  0.51657308578E+03  0.51657308578E+03  0.00000000000E+00 0. -1.
         -2   -1    0    0    0  501 -0.00000000000E+00 -0.00000000000E+00 -0.30219884529E+02  0.30219884529E+02  0.00000000000E+00 0.  1.
         23    2    1    2    0    0  0.67865724006E+01  0.61165771914E+02  0.23311977505E+03  0.25771793755E+03  0.91029646802E+02 0.  0.
          5    1    1    2  502    0 -0.37697706397E+02 -0.31572587756E+02  0.23860936312E+03  0.24365928247E+03  0.41800000000E+01 0.  1.
         -5    1    1    2    0  502  0.30911133996E+02 -0.29593184159E+02  0.14624063086E+02  0.45415750294E+02  0.41800000000E+01 0.  1.
        -11    1    3    3    0    0 -0.10373952062E+02  0.95979835960E+00 -0.49643507426E+01  0.11540575054E+02  0.00000000000E+00 0.  1.
         11    1    3    3    0    0  0.17160524462E+02  0.60205973555E+02  0.23808412579E+03  0.24617736249E+03  0.00000000000E+00 0. -1.
</event>
<event>
 7    1  0.4096326E-006  0.1427985E+03  0.7561462E-02  0.1209612E+00
         -2   -1    0    0    0  501 -0.00000000000E+00  0.00000000000E+00  0.19032233361E+03  0.19032233361E+03  0.00000000000E+00 0.  1.
          2   -1    0    0  501    0  0.00000000000E+00 -0.00000000000E+00 -0.52184501382E+03  0.52184501382E+03  0.00000000000E+00 0. -1.
         23    2    1    2    0    0 -0.80851665368E+02 -0.10794626009E+03 -0.46366624809E+03  0.49134798504E+03  0.90813357638E+02 0.  0.
          5    1    1    2  502    0  0.26057142802E+02  0.60539151578E+02 -0.43982824020E+01  0.66187467491E+02  0.41800000000E+01 0. -1.
         -5    1    1    2    0  502  0.54794522566E+02  0.47407108513E+02  0.13654185028E+03  0.15463189489E+03  0.41800000000E+01 0.  1.
        -11    1    3    3    0    0 -0.68446260032E+02 -0.11415849860E+03 -0.45693540943E+03  0.47592753829E+03  0.00000000000E+00 0. -1.
         11    1    3    3    0    0 -0.12405405335E+02  0.62122385063E+01 -0.67308386568E+01  0.15420446745E+02  0.00000000000E+00 0.  1.
</event>
<event>
 7    1  0.4096326E-006  0.1897173E+03  0.7561462E-02  0.1158717E+00
         -2   -1    0    0    0  501 -0.00000000000E+00  0.00000000000E+00  0.32081719196E+03  0.32081719196E+03  0.00000000000E+00 0.  1.
          2   -1    0    0  501    0  0.00000000000E+00 -0.00000000000E+00 -0.14229462991E+03  0.14229462991E+03  0.00000000000E+00 0. -1.
         23    2    1    2    0    0 -0.59292960823E+02  0.16679958815E+03  0.36690158189E+02  0.20407283615E+03  0.94666767864E+02 0.  0.
          5    1    1    2  502    0  0.15330880994E+02 -0.19793637174E+02  0.95333719080E+02  0.98655027132E+02  0.41800000000E+01 0. -1.
         -5    1    1    2    0  502  0.43962079828E+02 -0.14700595098E+03  0.46498684782E+02  0.16038395859E+03  0.41800000000E+01 0. -1.
        -11    1    3    3    0    0  0.15672360860E+02  0.96569180965E+02  0.22351501293E+02  0.10035347138E+03  0.00000000000E+00 0.  1.
         11    1    3    3    0    0 -0.74965321683E+02  0.70230407186E+02  0.14338656896E+02  0.10371936478E+03  0.00000000000E+00 0. -1.
</event>
<event>
 7    1  0.4096326E-006  0.1361622E+03  0.7561462E-02  0.1218588E+00
         -2   -1    0    0    0  501 -0.00000000000E+00  0.00000000000E+00  0.38195237163E+02  0.38195237163E+02  0.00000000000E+00 0.  1.
          2   -1    0    0  501    0  0.00000000000E+00 -0.00000000000E+00 -0.60298843813E+03  0.60298843813E+03  0.00000000000E+00 0. -1.
         23    2    1    2    0    0 -0.93935289491E+02 -0.90244046267E+01 -0.38998772305E+03  0.41174776427E+03  0.92414927187E+02 0.  0.
          5    1    1    2  502    0 -0.17465326838E+02 -0.25224660532E+02 -0.26401818116E+02  0.40692131185E+02  0.41800000000E+01 0. -1.
         -5    1    1    2    0  502  0.11140061633E+03  0.34249065158E+02 -0.14840365980E+03  0.18874377983E+03  0.41800000000E+01 0.  1.
        -11    1    3    3    0    0 -0.69803130807E+02  0.32276472988E+02 -0.30155597536E+03  0.31120773457E+03  0.00000000000E+00 0. -1.
         11    1    3    3    0    0 -0.24132158684E+02 -0.41300877615E+02 -0.88431747683E+02  0.10054002970E+03  0.00000000000E+00 0.  1.
</event>
<event>
 7    1  0.4096326E-006  0.1530735E+03  0.7561462E-02  0.1196746E+00
         -1   -1    0    0    0  501 -0.00000000000E+00  0.00000000000E+00  0.28145460472E+02  0.28145460472E+02  0.00000000000E+00 0.  1.
          1   -1    0    0  501    0  0.00000000000E+00 -0.00000000000E+00 -0.13225503248E+04  0.13225503248E+04  0.00000000000E+00 0. -1.
         23    2    1    2    0    0 -0.12152133411E+01 -0.13638235677E+03 -0.90478511737E+03  0.91935542435E+03  0.89312169828E+02 0.  0.
          5    1    1    2  502    0  0.19305672889E+02  0.32061356173E+02 -0.26543826492E+03  0.26809622237E+03  0.41800000000E+01 0.  1.
         -5    1    1    2    0  502 -0.18090459548E+02  0.10432100060E+03 -0.12418148204E+03  0.16324413856E+03  0.41800000000E+01 0.  1.
        -11    1    3    3    0    0  0.36303300005E+02 -0.11211514108E+03 -0.68693037300E+03  0.69696561738E+03  0.00000000000E+00 0. -1.
         11    1    3    3    0    0 -0.37518513346E+02 -0.24267215691E+02 -0.21785474437E+03  0.22238980697E+03  0.00000000000E+00 0.  1.
</event>
<event>
 7    1  0.4096326E-006  0.1684629E+03  0.7561462E-02  0.1179460E+00
         -1   -1    0    0    0  501 -0.00000000000E+00  0.00000000000E+00  0.11045066055E+03  0.11045066055E+03  0.00000000000E+00 0.  1.
          1   -1    0    0  501    0  0.00000000000E+00 -0.00000000000E+00 -0.32664458304E+03  0.32664458304E+03  0.00000000000E+00 0. -1.
         23    2    1    2    0    0  0.56213527144E+02  0.14377235178E+03 -0.11060841292E+03  0.21209437430E+03  0.94442325416E+02 0.  0.
          5    1    1    2  502    0 -0.27009450989E+02 -0.34884437519E+02 -0.10303190612E+03  0.11215828325E+03  0.41800000000E+01 0. -1.
         -5    1    1    2    0  502 -0.29204076155E+02 -0.10888791426E+03 -0.25536034517E+01  0.11284258605E+03  0.41800000000E+01 0. -1.
        -11    1    3    3    0    0  0.81557255754E+02  0.98205282417E+02 -0.67276730218E+02  0.14429837799E+03  0.00000000000E+00 0.  1.
         11    1    3    3    0    0 -0.25343728610E+02  0.45567069360E+02 -0.43331682700E+02  0.67795996309E+02  0.00000000000E+00 0. -1.
</event>
<event>
 7    1  0.4096326E-006  0.3004226E+03  0.7561462E-02  0.1085030E+00
          1   -1    0    0  501    0  0.00000000000E+00  0.00000000000E+00  0.43885714324E+03  0.43885714324E+03  0.00000000000E+00 0. -1.
         -1   -1    0    0    0  501 -0.00000000000E+00 -0.00000000000E+00 -0.21159964961E+03  0.21159964961E+03  0.00000000000E+00 0.  1.
         23    2    1    2    0    0 -0.99416417295E+02 -0.26599888837E+03  0.88175293547E+02  0.31041265664E+03  0.89118473788E+02 0.  0.
          5    1    1    2  502    0  0.11668554344E+03  0.26541694884E+03  0.14050034466E+03  0.32221032266E+03  0.41800000000E+01 0.  1.
         -5    1    1    2    0  502 -0.17269126149E+02  0.58193952748E+00 -0.14181445726E+01  0.17833813546E+02  0.41800000000E+01 0.  1.
        -11    1    3    3    0    0  0.10220070365E+02 -0.48142127996E+02 -0.46989663415E+01  0.49438796617E+02  0.00000000000E+00 0.  1.
         11    1    3    3    0    0 -0.10963648766E+03 -0.21785676037E+03  0.92874259889E+02  0.26097386003E+03  0.00000000000E+00 0. -1.
</event>
<event>
 7    1  0.4096326E-006  0.8157685E+02  0.7561462E-02  0.1324635E+00
         -1   -1    0    0    0  501 -0.00000000000E+00  0.00000000000E+00  0.48097851874E+02  0.48097851874E+02  0.00000000000E+00 0. -1.
          1   -1    0    0  501    0  0.00000000000E+00 -0.00000000000E+00 -0.25962320270E+03  0.25962320270E+03  0.00000000000E+00 0.  1.
         23    2    1    2    0    0  0.17263258040E+02 -0.36818867522E+02 -0.99895591120E+02  0.13520348000E+03  0.81530379588E+02 0.  0.
          5    1    1    2  502    0 -0.50819317500E+02 -0.21280010801E+02 -0.19760726290E+02  0.58680495860E+02  0.41800000000E+01 0. -1.
         -5    1    1    2    0  502  0.33556059459E+02  0.58098878323E+02 -0.91869033416E+02  0.11383707871E+03  0.41800000000E+01 0. -1.
        -11    1    3    3    0    0  0.11306618387E+02 -0.25210825853E+02 -0.11322727739E+03  0.11654973919E+03  0.00000000000E+00 0.  1.
         11    1    3    3    0    0  0.59566396536E+01 -0.11608041669E+02  0.13331686274E+02  0.18653740811E+02  0.00000000000E+00 0. -1.
</event>
<event>
 7    1  0.4096326E-006  0.1876453E+03  0.7561462E-02  0.1160602E+00
          1   -1    0    0  501    0  0.00000000000E+00  0.00000000000E+00  0.48060595713E+03  0.48060595713E+03  0.00000000000E+00 0. -1.
         -1   -1    0    0    0  501 -0.00000000000E+00 -0.00000000000E+00 -0.82003851386E+02  0.82003851386E+02  0.00000000000E+00 0.  1.
         23    2    1    2    0    0  0.15645639979E+03  0.58288430964E+02  0.22024788089E+03  0.28814970639E+03  0.81516734711E+02 0.  0.
          5    1    1    2  502    0 -0.14981653905E+03 -0.83511397103E+02  0.11701671733E+03  0.20767651132E+03  0.41800000000E+01 0. -1.
         -5    1    1    2    0  502 -0.66398607334E+01  0.25222966139E+02  0.61337507521E+02  0.66783590801E+02  0.41800000000E+01 0. -1.
        -11    1    3    3    0    0  0.87932510662E+02  0.92153700650E+00  0.66251908026E+02  0.11010127601E+03  0.00000000000E+00 0.  1.
         11    1    3    3    0    0  0.68523889126E+02  0.57366893957E+02  0.15399597286E+03  0.17804843038E+03  0.00000000000E+00 0. -1.
</event>
<event>
 7    1  0.4096326E-006  0.8723735E+02  0.7561462E-02  0.1309683E+00
         -1   -1    0    0    0  501 -0.00000000000E+00  0.00000000000E+00  0.14757583638E+03  0.14757583638E+03  0.00000000000E+00 0.  1.
          1   -1    0    0  501    0  0.00000000000E+00 -0.00000000000E+00 -0.91273613165E+02  0.91273613165E+02  0.00000000000E+00 0. -1.
         23    2    1    2    0    0  0.25207394309E+02  0.14956662006E+02 -0.17478496084E+02  0.90689978553E+02  0.84024162706E+02 0.  0.
          5    1    1    2  502    0 -0.17666131475E+02 -0.53687387932E+02 -0.80247237929E+01  0.57238941431E+02  0.41800000000E+01 0.  1.
         -5    1    1    2    0  502 -0.75412628336E+01  0.38730725926E+02  0.81805443088E+02  0.90920529555E+02  0.41800000000E+01 0.  1.
        -11    1    3    3    0    0 -0.19350648468E+02 -0.14954420937E+02  0.14290818186E+02  0.28325073453E+02  0.00000000000E+00 0.  1.
         11    1    3    3    0    0  0.44558042777E+02  0.29911082943E+02 -0.31769314270E+02  0.62364905100E+02  0.00000000000E+00 0. -1.
</event>
<event>
 7    1  0.4096326E-006  0.1299564E+03  0.7561462E-02  0.1227520E+00
         -1   -1    0    0    0  501 -0.00000000000E+00  0.00000000000E+00  0.11026267396E+03  0.11026267396E+03  0.00000000000E+00 0.  1.
          1   -1    0    0  501    0  0.00000000000E+00 -0.00000000000E+00 -0.23814328067E+03  0.23814328067E+03  0.00000000000E+00 0. -1.
         23    2    1    2    0    0 -0.55459626919E+02 -0.81698678892E+02 -0.13474938315E+03  0.18889087081E+03  0.88158496285E+02 0.  0.
          5    1    1    2  502    0 -0.24128463977E+02 -0.11957872489E+02 -0.19793417078E+02  0.33681229906E+02  0.41800000000E+01 0.  1.
         -5    1    1    2    0  502  0.79588090895E+02  0.93656551381E+02  0.26662193517E+02  0.12583385392E+03  0.41800000000E+01 0.  1.
        -11    1    3    3    0    0 -0.32146599218E+02 -0.90636201137E+01 -0.99309970157E+02  0.10477606226E+03  0.00000000000E+00 0. -1.
         11    1    3    3    0    0 -0.23313027700E+02 -0.72635058778E+02 -0.35439412992E+02  0.84114808550E+02  0.00000000000E+00 0.  1.
</event>
<event>
 7    1  0.4096326E-006  0.1537490E+03  0.7561462E-02  0.1195940E+00
         -2   -1    0    0    0  501 -0.00000000000E+00  0.00000000000E+00  0.15920268234E+03  0.15920268234E+03  0.00000000000E+00 0.  1.
          2   -1    0    0  501    0  0.00000000000E+00 -0.00000000000E+00 -0.19215807880E+03  0.19215807880E+03  0.00000000000E+00 0. -1.
         23    2    1    2    0    0 -0.12916937834E+03  0.19074312159E+02 -0.55222484622E+02  0.16917519460E+03  0.92315578179E+02 0.  0.
          5    1    1    2  502    0  0.28564359571E+01  0.36847041818E+02 -0.13267740555E+02  0.39488847242E+02  0.41800000000E+01 0. -1.
         -5    1    1    2    0  502  0.12631294239E+03 -0.55921353977E+02  0.35534828718E+02  0.14269671929E+03  0.41800000000E+01 0. -1.
        -11    1    3    3    0    0 -0.20063506563E+02  0.10541977781E+02  0.24803113536E+02  0.33598690931E+02  0.00000000000E+00 0.  1.
         11    1    3    3    0    0 -0.10910587178E+03  0.85323343776E+01 -0.80025598159E+02  0.13557650367E+03  0.00000000000E+00 0. -1.
</event>
<event>
 7    1  0.4096326E-006  0.1350593E+03  0.7561462E-02  0.1220136E+00
         -2   -1    0    0    0  501 -0.00000000000E+00  0.00000000000E+00  0.25582650706E+02  0.25582650706E+02  0.00000000000E+00 0.  1.
          2   -1    0    0  501    0  0.00000000000E+00 -0.00000000000E+00 -0.80752290383E+03  0.80752290383E+03  0.00000000000E+00 0. -1.
         23    2    1    2    0    0  0.19205061558E+01 -0.87480291234E+02 -0.44588822249E+03  0.46400425551E+03  0.93952926898E+02 0.  0.
          5    1    1    2  502    0 -0.49397102736E+02  0.12070953102E+01 -0.15787973847E+03  0.16548418371E+03  0.41800000000E+01 0. -1.
         -5    1    1    2    0  502  0.47476596580E+02  0.86273195924E+02 -0.17817229216E+03  0.20361711532E+03  0.41800000000E+01 0. -1.
        -11    1    3    3    0    0 -0.40829214768E+02 -0.53832560048E+02 -0.17258663532E+03  0.18534054060E+03  0.00000000000E+00 0.  1.
         11    1    3    3    0    0  0.42749720924E+02 -0.33647731187E+02 -0.27330158718E+03  0.27866371491E+03  0.00000000000E+00 0. -1.
</event>
<event>
 7    1  0.4096326E-006  0.1053201E+03  0.7561462E-02  0.1269490E+00
          4   -1    0    0  501    0  0.00000000000E+00  0.00000000000E+00  0.99717067175E+02  0.99717067175E+02  0.00000000000E+00 0. -1.
         -4   -1    0    0    0  501 -0.00000000000E+00 -0.00000000000E+00 -0.12565097285E+04  0.12565097285E+04  0.00000000000E+00 0.  1.
         23    2    1    2    0    0  0.55156450073E+01  0.13569339706E+02  0.73944158046E+02  0.11848210445E+03  0.91409634316E+02 0.  0.
          5    1    1    2  502    0  0.45039048058E+02 -0.42577045116E+02 -0.38382235689E+03  0.38881665945E+03  0.41800000000E+01 0. -1.
         -5    1    1    2    0  502 -0.50554693065E+02  0.29007705410E+02 -0.84691446248E+03  0.84892803176E+03  0.41800000000E+01 0.  1.
        -11    1    3    3    0    0  0.71349850544E+01  0.51564534408E+02  0.55913489744E+02  0.76394551872E+02  0.00000000000E+00 0. -1.
         11    1    3    3    0    0 -0.16193400471E+01 -0.37995194701E+02  0.18030668303E+02  0.42087552578E+02  0.00000000000E+00 0.  1.
</event>
<event>
 7    1  0.4096326E-006  0.1312684E+03  0.7561462E-02  0.1225586E+00
          2   -1    0    0  501    0  0.00000000000E+00  0.00000000000E+00  0.11096556859E+04  0.11096556859E+04  0.00000000000E+00 0. -1.
         -2   -1    0    0    0  501 -0.00000000000E+00 -0.00000000000E+00 -0.15699058297E+02  0.15699058297E+02  0.00000000000E+00 0.  1.
         23    2    1    2    0    0  0.28188515166E+02 -0.69914968582E+02  0.49745191940E+03  0.51125198208E+03  0.90760574319E+02 0.  0.
          5    1    1    2  502    0 -0.36269177822E+02  0.10406056436E+03  0.46910471357E+03  0.48189289163E+03  0.41800000000E+01 0.  1.
         -5    1    1    2    0  502  0.80806626568E+01 -0.34145595773E+02  0.12739999462E+03  0.13220987047E+03  0.41800000000E+01 0.  1.
        -11    1    3    3    0    0  0.37268644954E+00 -0.85187155494E+02  0.39092572603E+03  0.40009987957E+03  0.00000000000E+00 0.  1.
         11    1    3    3    0    0  0.27815828716E+02  0.15272186912E+02  0.10652619337E+03  0.11115210251E+03  0.00000000000E+00 0. -1.
</event>
<event>
 7    1  0.4096326E-006  0.3232666E+03  0.7561462E-02  0.1074156E+00
          3   -1    0    0  501    0  0.00000000000E+00  0.00000000000E+00  0.12561744136E+04  0.12561744136E+04  0.00000000000E+00 0. -1.
         -3   -1    0    0    0  501 -0.00000000000E+00 -0.00000000000E+00 -0.91771375301E+02  0.91771375301E+02  0.00000000000E+00 0.  1.
         23    2    1    2    0    0  0.28674232959E+03 -0.14014720184E+03  0.51070710074E+03  0.60982033636E+03  0.95899416729E+02 0.  0.
          5    1    1    2  502    0 -0.16350096895E+03  0.11672484672E+03  0.28547750417E+03  0.34910189698E+03  0.41800000000E+01 0.  1.
         -5    1    1    2    0  502 -0.12324136064E+03  0.23422355126E+02  0.36821843334E+03  0.38902355551E+03  0.41800000000E+01 0.  1.
        -11    1    3    3    0    0  0.23994126141E+03 -0.10692424474E+03  0.33957465313E+03  0.42931986686E+03  0.00000000000E+00 0.  1.
         11    1    3    3    0    0  0.46801068184E+02 -0.33222957099E+02  0.17113244762E+03  0.18050046950E+03  0.00000000000E+00 0. -1.
</event>
<event>
 7    1  0.4096326E-006  0.2241778E+03  0.7561462E-02  0.1130806E+00
          1   -1    0    0  501    0  0.00000000000E+00  0.00000000000E+00  0.79940893318E+02  0.79940893318E+02  0.00000000000E+00 0. -1.
         -1   -1    0    0    0  501 -0.00000000000E+00 -0.00000000000E+00 -0.18062133887E+04  0.18062133887E+04  0.00000000000E+00 0.  1.
         23    2    1    2    0    0  0.55157219226E+02 -0.31286005782E+02 -0.10986695707E+02  0.11214252532E+03  0.91837386249E+02 0.  0.
          5    1    1    2  502    0  0.31425375575E+02  0.17455533669E+03 -0.29758201268E+03  0.34645294986E+03  0.41800000000E+01 0. -1.
         -5    1    1    2    0  502 -0.86582594802E+02 -0.14326933091E+03 -0.14177037870E+04  0.14275588068E+04  0.41800000000E+01 0.  1.
        -11    1    3    3    0    0 -0.13918442404E+02  0.14907372112E+02 -0.19990423378E+02  0.28558182874E+02  0.00000000000E+00 0.  1.
         11    1    3    3    0    0  0.69075661631E+02 -0.46193377893E+02  0.90037276704E+01  0.83584342450E+02  0.00000000000E+00 0. -1.
</event>
<event>
 7    1  0.4096326E-006  0.1377431E+03  0.7561462E-02  0.1216398E+00
         -1   -1    0    0    0  501 -0.00000000000E+00  0.00000000000E+00  0.82911924732E+02  0.82911924732E+02  0.00000000000E+00 0.  1.
          1   -1    0    0  501    0  0.00000000000E+00 -0.00000000000E+00 -0.33119078143E+03  0.33119078143E+03  0.00000000000E+00 0. -1.
         23    2    1    2    0    0 -0.34047865241E+01 -0.12452400528E+03 -0.13619302402E+03  0.20498788070E+03  0.89183355964E+02 0.  0.
          5    1    1    2  502    0 -0.30764746235E+02  0.32512008352E+02 -0.10062163800E+03  0.11020747130E+03  0.41800000000E+01 0.  1.
         -5    1    1    2    0  502  0.34169532759E+02  0.92011996926E+02 -0.11464194686E+02  0.98907354161E+02  0.41800000000E+01 0.  1.
        -11    1    3    3    0    0  0.19453960303E+02 -0.36665692433E+02 -0.98131419199E+02  0.10654860397E+03  0.00000000000E+00 0. -1.
         11    1    3    3    0    0 -0.22858746827E+02 -0.87858312845E+02 -0.38061604817E+02  0.98439276733E+02  0.00000000000E+00 0.  1.
</event>
<event>
 7    1  0.4096326E-006  0.1396758E+03  0.7561462E-02  0.1213766E+00
         -3   -1    0    0    0  501 -0.00000000000E+00  0.00000000000E+00  0.31412967932E+03  0.31412967932E+03  0.00000000000E+00 0.  1.
          3   -1    0    0  501    0  0.00000000000E+00 -0.00000000000E+00 -0.65290218119E+02  0.65290218119E+02  0.00000000000E+00 0. -1.
         23    2    1    2    0    0 -0.21559731232E+02  0.87955556387E+02  0.10428330527E+03  0.16788873855E+03  0.95449561888E+02 0.  0.
          5    1    1    2  502    0 -0.81758912089E+00 -0.11684282747E+03  0.10081858303E+03  0.15438514782E+03  0.41800000000E+01 0. -1.
         -5    1    1    2    0  502  0.22377320353E+02  0.28887271086E+02  0.43737572901E+02  0.57146011062E+02  0.41800000000E+01 0. -1.
        -11    1    3    3    0    0 -0.38850769202E+02  0.98163980081E+02  0.10342412436E+03  0.14779072621E+03  0.00000000000E+00 0. -1.
         11    1    3    3    0    0  0.17291037970E+02 -0.10208423694E+02  0.85918090633E+00  0.20098012345E+02  0.00000000000E+00 0.  1.
</event>
<event>
 7    1  0.4096326E-006  0.1515911E+03  0.7561462E-02  0.1198531E+00
         -2   -1    0    0    0  501 -0.00000000000E+00  0.00000000000E+00  0.80762945021E+03  0.80762945021E+03  0.00000000000E+00 0. -1.
          2   -1    0    0  501    0  0.00000000000E+00 -0.00000000000E+00 -0.34970323320E+02  0.34970323320E+02  0.00000000000E+00 0.  1.
         23    2    1    2    0    0 -0.78704269695E+02  0.89793844013E+02  0.25728390995E+03  0.29898508487E+03  0.94550378986E+02 0.  0.
          5    1    1    2  502    0  0.93480857521E+02 -0.10119105360E+03  0.33522331709E+03  0.36245061011E+03  0.41800000000E+01 0.  1.
         -5    1    1    2    0  502 -0.14776587826E+02  0.11397209587E+02  0.18015189986E+03  0.18116407855E+03  0.41800000000E+01 0.  1.
        -11    1    3    3    0    0 -0.26592173506E+02  0.90284264004E+02  0.12253538971E+03  0.15450991473E+03  0.00000000000E+00 0.  1.
         11    1    3    3    0    0 -0.52112096189E+02 -0.49041999045E+00  0.13474852024E+03  0.14447517014E+03  0.00000000000E+00 0. -1.
</event>
<event>
 7    1  0.4096326E-006  0.1643754E+03  0.7561462E-02  0.1183844E+00
          2   -1    0    0  501    0  0.00000000000E+00  0.00000000000E+00  0.37971697685E+03  0.37971697685E+03  0.00000000000E+00 0. -1.
         -2   -1    0    0    0  501 -0.00000000000E+00 -0.00000000000E+00 -0.89045545603E+02  0.89045545603E+02  0.00000000000E+00 0.  1.
         23    2    1    2    0    0 -0.60535807098E+02  0.13640248894E+03  0.13400299820E+03  0.21883705669E+03  0.87536454829E+02 0.  0.
          5    1    1    2  502    0 -0.21411804537E+02 -0.66247667289E+02  0.11440817348E+03  0.13399224363E+03  0.41800000000E+01 0. -1.
         -5    1    1    2    0  502  0.81947611635E+02 -0.70154821656E+02  0.42260259568E+02  0.11593322213E+03  0.41800000000E+01 0. -1.
        -11    1    3    3    0    0 -0.30973441845E+02  0.96753401604E+02  0.13550406967E+03  0.16935739641E+03  0.00000000000E+00 0. -1.
         11    1    3    3    0    0 -0.29562365253E+02  0.39649087341E+02 -0.15010714681E+01  0.49479660284E+02  0.00000000000E+00 0.  1.
</event>
<event>
 7    1  0.4096326E-006  0.8347462E+02  0.7561462E-02  0.1319470E+00
         -2   -1    0    0    0  501 -0.00000000000E+00  0.00000000000E+00  0.65664839391E+02  0.65664839391E+02  0.00000000000E+00 0.  1.
          2   -1    0    0  501    0  0.00000000000E+00 -0.00000000000E+00 -0.24678860255E+03  0.24678860255E+03  0.00000000000E+00 0. -1.
         23    2    1    2    0    0  0.61107482960E+02  0.26399325398E+02 -0.88839554620E+02  0.14335605946E+03  0.90705261498E+02 0.  0.
          5    1    1    2  502    0 -0.46034420557E+02 -0.42225088839E+02  0.10893680045E+02  0.63547389155E+02  0.41800000000E+01 0.  1.
         -5    1    1    2    0  502 -0.15073062402E+02  0.15825763441E+02 -0.10317788858E+03  0.10554999333E+03  0.41800000000E+01 0.  1.
        -11    1    3    3    0    0  0.39298724494E+02  0.40251898668E+02 -0.10037297158E+03  0.11506232449E+03  0.00000000000E+00 0. -1.
         11    1    3    3    0    0  0.21808758466E+02 -0.13852573270E+02  0.11533416956E+02  0.28293734973E+02  0.00000000000E+00 0.  1.
</event>
<event>
 7    1  0.4096326E-006  0.2236394E+03  0.7561462E-02  0.1131198E+00
         -1   -1    0    0    0  501 -0.00000000000E+00  0.00000000000E+00  0.38518318191E+02  0.38518318191E+02  0.00000000000E+00 0.  1.
          1   -1    0    0  501    0  0.00000000000E+00 -0.00000000000E+00 -0.13838330883E+04  0.13838330883E+04  0.00000000000E+00 0. -1.
         23    2    1    2    0    0  0.18524036770E+03 -0.80718553511E+02 -0.72549081394E+03  0.75852945705E+03  0.90556818606E+02 0.  0.
          5    1    1    2  502    0 -0.12231570298E+03  0.11319982436E+03 -0.43611879171E+03  0.46689656704E+03  0.41800000000E+01 0. -1.
         -5    1    1    2    0  502 -0.62924664720E+02 -0.32481270850E+02 -0.18370516450E+03  0.19692538244E+03  0.41800000000E+01 0. -1.
        -11    1    3    3    0    0  0.32404431487E+02 -0.39970504840E+02 -0.90211681412E+02  0.10385487904E+03  0.00000000000E+00 0.  1.
         11    1    3    3    0    0  0.15283593621E+03 -0.40748048671E+02 -0.63527913253E+03  0.65467457801E+03  0.00000000000E+00 0. -1.
</event>
<event>
 7    1  0.4096326E-006  0.6342900E+02  0.7561462E-02  0.1383980E+00
          1   -1    0    0  501    0  0.00000000000E+00  0.00000000000E+00  0.15249972410E+03  0.15249972410E+03  0.00000000000E+00 0. -1.
         -1   -1    0    0    0  501 -0.00000000000E+00 -0.00000000000E+00 -0.97047329959E+02  0.97047329959E+02  0.00000000000E+00 0.  1.
         23    2    1    2    0    0  0.42626766092E+02 -0.10169008024E+02  0.59251006824E+02  0.11694766474E+03  0.90805421464E+02 0.  0.
          5    1    1    2  502    0 -0.55881876318E+02 -0.31196576875E+01  0.50187295377E+02  0.75291124193E+02  0.41800000000E+01 0.  1.
         -5    1    1    2    0  502  0.13255110226E+02  0.13288665712E+02 -0.53985908056E+02  0.57308265129E+02  0.41800000000E+01 0.  1.
        -11    1    3    3    0    0  0.24802943482E+02  0.79911540867E+01 -0.20550925210E+02  0.33187122141E+02  0.00000000000E+00 0.  1.
         11    1    3    3    0    0  0.17823822610E+02 -0.18160162111E+02  0.79801932034E+02  0.83760542600E+02  0.00000000000E+00 0. -1.
</event>
<event>
 7    1  0.4096326E-006  0.1005792E+03  0.7561462E-02  0.1279083E+00
          1   -1    0    0  501    0  0.00000000000E+00  0.00000000000E+00  0.48159474203E+03  0.48159474203E+03  0.00000000000E+00 0. -1.
         -1   -1    0    0    0  501 -0.00000000000E+00 -0.00000000000E+00 -0.38739873115E+02  0.38739873115E+02  0.00000000000E+00 0.  1.
         23    2    1    2    0    0 -0.12512984759E+02  0.78398150427E+02  0.24540167743E+03  0.27347900879E+03  0.90917216114E+02 0.  0.
          5    1    1    2  502    0 -0.48085109183E+01 -0.73174654335E+02  0.21129356187E+03  0.22369643158E+03  0.41800000000E+01 0. -1.
         -5    1    1    2    0  502  0.17321495677E+02 -0.52234960923E+01 -0.13840370383E+02  0.23159174775E+02  0.41800000000E+01 0. -1.
        -11    1    3    3    0    0  0.28089047740E+02  0.56285839185E+02  0.80183630552E+02  0.10191420364E+03  0.00000000000E+00 0.  1.
         11    1    3    3    0    0 -0.40602032499E+02  0.22112311243E+02  0.16521804688E+03  0.17156480515E+03  0.00000000000E+00 0. -1.
</event>
<event>
 7    1  0.4096326E-006  0.1708521E+03  0.7561462E-02  0.1176962E+00
         -2   -1    0    0    0  501 -0.00000000000E+00  0.00000000000E+00  0.40478002145E+02  0.40478002145E+02  0.00000000000E+00 0.  1.
          2   -1    0    0  501    0  0.00000000000E+00 -0.00000000000E+00 -0.12604860818E+04  0.12604860818E+04  0.00000000000E+00 0. -1.
         23    2    1    2    0    0 -0.92422428656E+02 -0.22221738047E+02 -0.55730290347E+03  0.57259917784E+03  0.90816195127E+02 0.  0.
          5    1    1    2  502    0 -0.20690911365E+02 -0.68218513698E+02 -0.52042169537E+03  0.52529809902E+03  0.41800000000E+01 0. -1.
         -5    1    1    2    0  502  0.11311334002E+03  0.90440251746E+02 -0.14228348085E+03  0.20306680711E+03  0.41800000000E+01 0.  1.
        -11    1    3    3    0    0 -0.62226137647E+02  0.26866030003E+02 -0.38480427141E+03  0.39072778641E+03  0.00000000000E+00 0.  1.
         11    1    3    3    0    0 -0.30196291009E+02 -0.49087768050E+02 -0.17249863205E+03  0.18187139144E+03  0.00000000000E+00 0. -1.
</event>
<event>
 7    1  0.4096326E-006  0.1270940E+03  0.7561462E-02  0.1231832E+00
          1   -1    0    0  501    0  0.00000000000E+00  0.00000000000E+00  0.34908230245E+03  0.34908230245E+03  0.00000000000E+00 0. -1.
         -1   -1    0    0    0  501 -0.00000000000E+00 -0.00000000000E+00 -0.60368516311E+02  0.60368516311E+02  0.00000000000E+00 0.  1.
         23    2    1    2    0    0  0.89771569527E+02 -0.14941060565E+02  0.17575784065E+03  0.21791066400E+03  0.91170548709E+02 0.  0.
          5    1    1    2  502    0 -0.64393123285E+02 -0.51733634098E+02  0.52752463569E+02  0.98097594446E+02  0.41800000000E+01 0.  1.
         -5    1    1    2    0  502 -0.25378446242E+02  0.66674694663E+02  0.60203481926E+02  0.93442560314E+02  0.41800000000E+01 0.  1.
        -11    1    3    3    0    0  0.36199540515E+02  0.14375213504E+02  0.85182355449E+01  0.39869961545E+02  0.00000000000E+00 0.  1.
         11    1    3    3    0    0  0.53572029012E+02 -0.29316274069E+02  0.16723960510E+03  0.17804070246E+03  0.00000000000E+00 0. -1.
</event>
<event>
 7    1  0.4096326E-006  0.2512308E+03  0.7561462E-02  0.1112529E+00
         -2   -1    0    0    0  501 -0.00000000000E+00  0.00000000000E+00  0.10715765149E+03  0.10715765149E+03  0.00000000000E+00 0.  1.
          2   -1    0    0  501    0  0.00000000000E+00 -0.00000000000E+00 -0.67825316742E+03  0.67825316742E+03  0.00000000000E+00 0. -1.
         23    2    1    2    0    0 -0.21875293461E+03  0.74931114935E+02 -0.40385474352E+03  0.47383065360E+03  0.89158936969E+02 0.  0.
          5    1    1    2  502    0  0.99072050435E+02  0.25486738244E+02 -0.93980468745E+02  0.13897714168E+03  0.41800000000E+01 0. -1.
         -5    1    1    2    0  502  0.11968088417E+03 -0.10041785318E+03 -0.73260303670E+02  0.17260302363E+03  0.41800000000E+01 0. -1.
        -11    1    3    3    0    0 -0.15186964835E+03  0.12636977866E+02 -0.20957580320E+03  0.25912564633E+03  0.00000000000E+00 0.  1.
         11    1    3    3    0    0 -0.66883286256E+02  0.62294137069E+02 -0.19427894032E+03  0.21470500727E+03  0.00000000000E+00 0. -1.
</event>
<event>
 7    1  0.4096326E-006  0.1280992E+03  0.7561462E-02  0.1230304E+00
          1   -1    0    0  501    0  0.00000000000E+00  0.00000000000E+00  0.37162163607E+03  0.37162163607E+03  0.00000000000E+00 0. -1.
         -1   -1    0    0    0  501 -0.00000000000E+00 -0.00000000000E+00 -0.63677099297E+02  0.63677099297E+02  0.00000000000E+00 0.  1.
         23    2    1    2    0    0  0.47651359429E+02 -0.68869385700E+02  0.25654100744E+03  0.28572956294E+03  0.93885303946E+02 0.  0.
          5    1    1    2  502    0  0.22193994719E+02  0.60399935900E+02  0.39558829997E+01  0.64605317649E+02  0.41800000000E+01 0. -1.
         -5    1    1    2    0  502 -0.69845354148E+02  0.84694498007E+01  0.47447646330E+02  0.84963854775E+02  0.41800000000E+01 0.  1.
        -11    1    3    3    0    0 -0.25231635845E+02 -0.85943980187E+01  0.93678008600E+02  0.97396449729E+02  0.00000000000E+00 0.  1.
         11    1    3    3    0    0  0.72882995274E+02 -0.60274987682E+02  0.16286299884E+03  0.18833311321E+03  0.00000000000E+00 0. -1.
</event>
<event>
 7    1  0.4096326E-006  0.1599104E+03  0.7561462E-02  0.1188798E+00
         -2   -1    0    0    0  501 -0.00000000000E+00  0.00000000000E+00  0.25810601031E+03  0.25810601031E+03  0.00000000000E+00 0.  1.
          2   -1    0    0  501    0  0.00000000000E+00 -0.00000000000E+00 -0.13184969473E+03  0.13184969473E+03  0.00000000000E+00 0. -1.
         23    2    1    2    0    0  0.14839888624E+03  0.49437994782E+01  0.56671953605E+02  0.18371442006E+03  0.92155342882E+02 0.  0.
          5    1    1    2  502    0 -0.98953431511E+02  0.19267270228E+02 -0.18209990934E+02  0.10252846180E+03  0.41800000000E+01 0. -1.
         -5    1    1    2    0  502 -0.49445454734E+02 -0.24211069706E+02  0.87794352905E+02  0.10371282318E+03  0.41800000000E+01 0. -1.
        -11    1    3    3    0    0  0.10543970992E+03  0.35205134034E+02  0.67516921051E+02  0.13005948069E+03  0.00000000000E+00 0.  1.
         11    1    3    3    0    0  0.42959176327E+02 -0.30261334556E+02 -0.10844967447E+02  0.53654939369E+02  0.00000000000E+00 0. -1.
</event>
<event>
 7    1  0.4096326E-006  0.1126952E+03  0.7561462E-02  0.1255659E+00
         -3   -1    0    0    0  501 -0.00000000000E+00  0.00000000000E+00  0.16357703156E+03  0.16357703156E+03  0.00000000000E+00 0.  1.
          3   -1    0    0  501    0  0.00000000000E+00 -0.00000000000E+00 -0.10643267130E+03  0.10643267130E+03  0.00000000000E+00 0. -1.
         23    2    1    2    0    0 -0.23163707823E+02  0.51075437922E+02  0.16780524366E+02  0.11276263328E+03  0.96377215913E+02 0.  0.
          5    1    1    2  502    0  0.16013139878E+02  0.46082917668E+02 -0.58985822907E+01  0.49318572796E+02  0.41800000000E+01 0. -1.
         -5    1    1    2    0  502  0.71505679455E+01 -0.97158355590E+02  0.46262418181E+02  0.10792849679E+03  0.41800000000E+01 0.  1.
        -11    1    3    3    0    0  0.96966270987E+00 -0.11658796740E+02  0.39979210376E+02  0.41655792509E+02  0.00000000000E+00 0.  1.
         11    1    3    3    0    0 -0.24133370533E+02  0.62734234662E+02 -0.23198686010E+02  0.71106840772E+02  0.00000000000E+00 0. -1.
</event>
<event>
 7    1  0.4096326E-006  0.1157607E+03  0.7561462E-02  0.1250259E+00
         -1   -1    0    0    0  501 -0.00000000000E+00  0.00000000000E+00  0.59387952356E+02  0.59387952356E+02  0.00000000000E+00 0.  1.
          1   -1    0    0  501    0  0.00000000000E+00 -0.00000000000E+00 -0.43888795159E+03  0.43888795159E+03  0.00000000000E+00 0. -1.
         23    2    1    2    0    0  0.61755035931E+02 -0.39834682139E+02 -0.32113556842E+03  0.34188863842E+03  0.91429215302E+02 0.  0.
          5    1    1    2  502    0  0.21652882924E+02 -0.13377848452E+02 -0.50923544627E+02  0.57083219649E+02  0.41800000000E+01 0. -1.
         -5    1    1    2    0  502 -0.83407918855E+02  0.53212530591E+02 -0.74408861800E+01  0.99304045873E+02  0.41800000000E+01 0. -1.
        -11    1    3    3    0    0  0.10359646683E+02  0.23178512522E+02 -0.28512560635E+02  0.38177635287E+02  0.00000000000E+00 0.  1.
         11    1    3    3    0    0  0.51395389247E+02 -0.63013194661E+02 -0.29262300779E+03  0.30371100313E+03  0.00000000000E+00 0. -1.
</event>
<event>
 7    1  0.4096326E-006  0.9302096E+02  0.7561462E-02  0.1295697E+00
         -1   -1    0    0    0  501 -0.00000000000E+00  0.00000000000E+00  0.60867040572E+02  0.60867040572E+02  0.00000000000E+00 0.  1.
          1   -1    0    0  501    0  0.00000000000E+00 -0.00000000000E+00 -0.26093576635E+03  0.26093576635E+03  0.00000000000E+00 0. -1.
         23    2    1    2    0    0 -0.14445918709E+00  0.14616256732E+02 -0.16822409723E+03  0.19189137061E+03  0.91155336635E+02 0.  0.
          5    1    1    2  502    0 -0.54674307640E+02  0.11433972174E+02 -0.39577295619E+02  0.68584621921E+02  0.41800000000E+01 0. -1.
         -5    1    1    2    0  502  0.54818766827E+02 -0.26050228907E+02  0.77326670745E+01  0.61326814385E+02  0.41800000000E+01 0. -1.
        -11    1    3    3    0    0  0.31982717109E+02 -0.37223101656E+01 -0.17404831798E+02  0.36601611393E+02  0.00000000000E+00 0.  1.
         11    1    3    3    0    0 -0.32127176296E+02  0.18338566898E+02 -0.15081926543E+03  0.15528975922E+03  0.00000000000E+00 0. -1.
</event>
<event>
 7    1  0.4096326E-006  0.1065869E+03  0.7561462E-02  0.1267024E+00
          1   -1    0    0  501    0  0.00000000000E+00  0.00000000000E+00  0.21091483298E+03  0.21091483298E+03  0.00000000000E+00 0. -1.
         -1   -1    0    0    0  501 -0.00000000000E+00 -0.00000000000E+00 -0.76176694418E+02  0.76176694418E+02  0.00000000000E+00 0.  1.
         23    2    1    2    0    0  0.34452069084E+02  0.16257011629E+02  0.11952686029E+03  0.15543818470E+03  0.91777575904E+02 0.  0.
          5    1    1    2  502    0 -0.27876024952E+02 -0.70428974897E+02  0.54084288909E+01  0.76052855142E+02  0.41800000000E+01 0. -1.
         -5    1    1    2    0  502 -0.65760441326E+01  0.54171963268E+02  0.98028493764E+01  0.55600487558E+02  0.41800000000E+01 0. -1.
        -11    1    3    3    0    0  0.50297814582E+02 -0.10598327326E+02  0.27550606715E+02  0.58320070509E+02  0.00000000000E+00 0.  1.
         11    1    3    3    0    0 -0.15845745498E+02  0.26855338955E+02  0.91976253580E+02  0.97118114188E+02  0.00000000000E+00 0. -1.
</event>
<event>
 7    1  0.4096326E-006  0.1845785E+03  0.7561462E-02  0.1163444E+00
          1   -1    0    0  501    0  0.00000000000E+00  0.00000000000E+00  0.55857189822E+02  0.55857189822E+02  0.00000000000E+00 0. -1.
         -1   -1    0    0    0  501 -0.00000000000E+00 -0.00000000000E+00 -0.85153196511E+03  0.85153196511E+03  0.00000000000E+00 0.  1.
         23    2    1    2    0    0  0.13127287813E+03  0.11224968703E+03 -0.22898162530E+03  0.30189658945E+03  0.94214676254E+02 0.  0.
          5    1    1    2  502    0 -0.10716694325E+03 -0.39649494534E+02 -0.46090636226E+03  0.47487786147E+03  0.41800000000E+01 0.  1.
         -5    1    1    2    0  502 -0.24105934886E+02 -0.72600192501E+02 -0.10578678773E+03  0.13061470402E+03  0.41800000000E+01 0.  1.
        -11    1    3    3    0    0  0.12160942940E+03  0.82577802485E+02 -0.22724292560E+03  0.27064237292E+03  0.00000000000E+00 0.  1.
         11    1    3    3    0    0  0.96634487286E+01  0.29671884550E+02 -0.17386996979E+01  0.31254216527E+02  0.00000000000E+00 0. -1.
</event>
<event>
 7    1  0.4096326E-006  0.1468007E+03  0.7561462E-02  0.1204460E+00
         -1   -1    0    0    0  501 -0.00000000000E+00  0.00000000000E+00  0.27768119039E+02  0.27768119039E+02  0.00000000000E+00 0.  1.
          1   -1    0    0  501    0  0.00000000000E+00 -0.00000000000E+00 -0.11905169147E+04  0.11905169147E+04  0.00000000000E+00 0. -1.
         23    2    1    2    0    0 -0.11751174619E+03  0.57747428653E+02 -0.76137000329E+03  0.77794805658E+03  0.91515686131E+02 0.  0.
          5    1    1    2  502    0  0.90033572121E+02 -0.64335272584E+02 -0.14538697007E+03  0.18275643593E+03  0.41800000000E+01 0.  1.
         -5    1    1    2    0  502  0.27478174073E+02  0.65878439306E+01 -0.25599182233E+03  0.25758054127E+03  0.41800000000E+01 0.  1.
        -11    1    3    3    0    0 -0.11200691088E+03  0.75920225368E+02 -0.71745843616E+03  0.73010686637E+03  0.00000000000E+00 0. -1.
         11    1    3    3    0    0 -0.55048353105E+01 -0.18172796714E+02 -0.43911567132E+02  0.47841190205E+02  0.00000000000E+00 0.  1.
</event>
<event>
 7    1  0.4666613E-006  0.1586517E+03  0.7561462E-02  0.1190227E+00
          2   -1    0    0  501    0  0.00000000000E+00  0.00000000000E+00  0.94246420301E+03  0.94246420301E+03  0.00000000000E+00 0. -1.
         -2   -1    0    0    0  501 -0.00000000000E+00 -0.00000000000E+00 -0.28656134076E+02  0.28656134076E+02  0.00000000000E+00 0.  1.
         23    2    1    2    0    0  0.10293847695E+03 -0.55653016431E+02  0.54645364070E+03  0.56579342815E+03  0.88413989958E+02 0.  0.
          5    1    1    2  502    0 -0.90366132980E+01  0.74633265718E+02  0.15457511705E+03  0.17193813987E+03  0.41800000000E+01 0.  1.
         -5    1    1    2    0  502 -0.93901863653E+02 -0.18980249287E+02  0.21277931118E+03  0.23338876907E+03  0.41800000000E+01 0.  1.
        -11    1    3    3    0    0  0.91526265604E+02 -0.22979752781E+01  0.31824267785E+03  0.33115063037E+03  0.00000000000E+00 0.  1.
         11    1    3    3    0    0  0.11412211348E+02 -0.53355041153E+02  0.22821096285E+03  0.23464279778E+03  0.00000000000E+00 0. -1.
</event>
<event>
 7    1  0.4096326E-006  0.1485395E+03  0.7561462E-02  0.1202279E+00
          2   -1    0    0  501    0  0.00000000000E+00  0.00000000000E+00  0.28266601745E+03  0.28266601745E+03  0.00000000000E+00 0. -1.
         -2   -1    0    0    0  501 -0.00000000000E+00 -0.00000000000E+00 -0.82683540008E+02  0.82683540008E+02  0.00000000000E+00 0.  1.
         23    2    1    2    0    0  0.10763325359E+03  0.16352008138E+02  0.92263535471E+02  0.16760277445E+03  0.87896669894E+02 0.  0.
          5    1    1    2  502    0  0.23584467910E+02 -0.12114944936E+02  0.44509475589E+02  0.51976579674E+02  0.41800000000E+01 0. -1.
         -5    1    1    2    0  502 -0.13121772150E+03 -0.42370632020E+01  0.63209466384E+02  0.14577020333E+03  0.41800000000E+01 0. -1.
        -11    1    3    3    0    0  0.37566060227E+02 -0.35524824065E+02  0.24669802194E+02  0.57287181342E+02  0.00000000000E+00 0.  1.
         11    1    3    3    0    0  0.70067193361E+02  0.51876832203E+02  0.67593733276E+02  0.11031559311E+03  0.00000000000E+00 0. -1.
</event>
<event>
 7    1  0.4096326E-006  0.1269253E+03  0.7561462E-02  0.1232091E+00
          2   -1    0    0  501    0  0.00000000000E+00  0.00000000000E+00  0.19280284718E+03  0.19280284718E+03  0.00000000000E+00 0.  1.
         -2   -1    0    0    0  501 -0.00000000000E+00 -0.00000000000E+00 -0.11085047518E+03  0.11085047518E+03  0.00000000000E+00 0. -1.
         23    2    1    2    0    0  0.94590069305E+02  0.22979217424E+02  0.26277090940E+02  0.13565501973E+03  0.90755017624E+02 0.  0.
          5    1    1    2  502    0 -0.47779765106E+02 -0.73226826976E+02  0.44831992203E+02  0.98348635310E+02  0.41800000000E+01 0. -1.
         -5    1    1    2    0  502 -0.46810304199E+02  0.50247609552E+02  0.10843288859E+02  0.69649667323E+02  0.41800000000E+01 0. -1.
        -11    1    3    3    0    0  0.57306021614E+02  0.16831160553E+02 -0.30801849847E+02  0.67201354397E+02  0.00000000000E+00 0. -1.
         11    1    3    3    0    0  0.37284047691E+02  0.61480568713E+01  0.57078940787E+02  0.68453665328E+02  0.00000000000E+00 0.  1.
</event>
<event>
 7    1  0.4096326E-006  0.2048974E+03  0.7561462E-02  0.1145672E+00
          4   -1    0    0  501    0  0.00000000000E+00  0.00000000000E+00  0.59510201860E+03  0.59510201860E+03  0.00000000000E+00 0. -1.
         -4   -1    0    0    0  501 -0.00000000000E+00 -0.00000000000E+00 -0.89431654914E+02  0.89431654914E+02  0.00000000000E+00 0.  1.
         23    2    1    2    0    0  0.19866113981E+03  0.33573603380E+02  0.20693474418E+03  0.30311015916E+03  0.91980133289E+02 0.  0.
          5    1    1    2  502    0 -0.11708714340E+03 -0.24268477738E+01  0.26120815543E+03  0.28629086888E+03  0.41800000000E+01 0. -1.
         -5    1    1    2    0  502 -0.81573996413E+02 -0.31146755607E+02  0.37527464073E+02  0.95132645476E+02  0.41800000000E+01 0. -1.
        -11    1    3    3    0    0  0.93375797995E+02 -0.38394541268E+01  0.15241088910E+03  0.17878159910E+03  0.00000000000E+00 0. -1.
         11    1    3    3    0    0  0.10528534182E+03  0.37413057507E+02  0.54523855076E+02  0.12432856006E+03  0.00000000000E+00 0.  1.
</event>
<event>
 7    1  0.4096326E-006  0.8047091E+02  0.7561462E-02  0.1327720E+00
         -2   -1    0    0    0  501 -0.00000000000E+00  0.00000000000E+00  0.12746907786E+03  0.12746907786E+03  0.00000000000E+00 0.  1.
          2   -1    0    0  501    0  0.00000000000E+00 -0.00000000000E+00 -0.14118289256E+03  0.14118289256E+03  0.00000000000E+00 0. -1.
         23    2    1    2    0    0 -0.55600868606E+02 -0.27942027323E+02 -0.18967851515E+02  0.12883613885E+03  0.11120592521E+03 0.  0.
          5    1    1    2  502    0  0.20449187382E+02  0.43959986463E+02  0.57101722972E+02  0.75024854820E+02  0.41800000000E+01 0. -1.
         -5    1    1    2    0  502  0.35151681225E+02 -0.16017959140E+02 -0.51847686157E+02  0.64790976746E+02  0.41800000000E+01 0. -1.
        -11    1    3    3    0    0 -0.48011025168E+02 -0.38507615962E+01 -0.62258989574E+02  0.78715110908E+02  0.00000000000E+00 0. -1.
         11    1    3    3    0    0 -0.75898434386E+01 -0.24091265727E+02  0.43291138059E+02  0.50121027944E+02  0.00000000000E+00 0.  1.
</event>
<event>
 7    1  0.4096326E-006  0.1290584E+03  0.7561462E-02  0.1228860E+00
          1   -1    0    0  501    0  0.00000000000E+00  0.00000000000E+00  0.51959427456E+03  0.51959427456E+03  0.00000000000E+00 0. -1.
         -1   -1    0    0    0  501 -0.00000000000E+00 -0.00000000000E+00 -0.37725837563E+02  0.37725837563E+02  0.00000000000E+00 0.  1.
         23    2    1    2    0    0 -0.70130000639E+02 -0.55209780025E+02  0.20614494258E+03  0.24166742836E+03  0.89112691469E+02 0.  0.
          5    1    1    2  502    0 -0.21016097797E+02 -0.84485933057E+01  0.58763963115E+01  0.23770980818E+02  0.41800000000E+01 0.  1.
         -5    1    1    2    0  502  0.91146098436E+02  0.63658373331E+02  0.26984709811E+03  0.29188170294E+03  0.41800000000E+01 0.  1.
        -11    1    3    3    0    0 -0.76682741628E+02 -0.90592215038E+01  0.14988770562E+03  0.16860793770E+03  0.00000000000E+00 0. -1.
         11    1    3    3    0    0  0.65527409890E+01 -0.46150558522E+02  0.56257236952E+02  0.73059490662E+02  0.00000000000E+00 0.  1.
</event>
<event>
 7    1  0.4096326E-006  0.1080152E+03  0.7561462E-02  0.1264290E+00
          2   -1    0    0  501    0  0.00000000000E+00  0.00000000000E+00  0.29999549285E+03  0.29999549285E+03  0.00000000000E+00 0. -1.
         -2   -1    0    0    0  501 -0.00000000000E+00 -0.00000000000E+00 -0.44855786779E+02  0.44855786779E+02  0.00000000000E+00 0.  1.
         23    2    1    2    0    0  0.32349685570E+02 -0.26837430654E+02  0.10468382477E+03  0.14472915945E+03  0.90670152680E+02 0.  0.
          5    1    1    2  502    0 -0.67143180145E+02 -0.17089155405E+02  0.11291704824E+03  0.13254424942E+03  0.41800000000E+01 0.  1.
         -5    1    1    2    0  502  0.34793494575E+02  0.43926586060E+02  0.37538833061E+02  0.67577870750E+02  0.41800000000E+01 0.  1.
        -11    1    3    3    0    0 -0.25176534085E+02 -0.20665349396E+02  0.10551372992E+02  0.34238078308E+02  0.00000000000E+00 0.  1.
         11    1    3    3    0    0  0.57526219655E+02 -0.61720812582E+01  0.94132451779E+02  0.11049108115E+03  0.00000000000E+00 0. -1.
</event>
<event>
 7    1  0.4096326E-006  0.8239360E+02  0.7561462E-02  0.1322393E+00
         -2   -1    0    0    0  501 -0.00000000000E+00  0.00000000000E+00  0.14513761335E+03  0.14513761335E+03  0.00000000000E+00 0. -1.
          2   -1    0    0  501    0  0.00000000000E+00 -0.00000000000E+00 -0.12985592337E+03  0.12985592337E+03  0.00000000000E+00 0.  1.
         23    2    1    2    0    0 -0.38809974882E+02  0.50047698802E+02 -0.49510453068E+02  0.12053142046E+03  0.89808418589E+02 0.  0.
          5    1    1    2  502    0  0.40945952915E+02  0.60299668468E+01  0.85029930049E+02  0.94659880437E+02  0.41800000000E+01 0.  1.
         -5    1    1    2    0  502 -0.21359780322E+01 -0.56077665649E+02 -0.20237786999E+02  0.59802235823E+02  0.41800000000E+01 0.  1.
        -11    1    3    3    0    0 -0.24073188075E+02  0.13711051520E+02 -0.70719063972E+02  0.75951940904E+02  0.00000000000E+00 0.  1.
         11    1    3    3    0    0 -0.14736786807E+02  0.36336647282E+02  0.21208610905E+02  0.44579479557E+02  0.00000000000E+00 0. -1.
</event>
<event>
 7    1  0.4096326E-006  0.2457444E+03  0.7561462E-02  0.1116024E+00
          1   -1    0    0  501    0  0.00000000000E+00  0.00000000000E+00  0.98998308206E+03  0.98998308206E+03  0.00000000000E+00 0. -1.
         -1   -1    0    0    0  501 -0.00000000000E+00 -0.00000000000E+00 -0.78541365906E+02  0.78541365906E+02  0.00000000000E+00 0.  1.
         23    2    1    2    0    0  0.17491799483E+03 -0.17174240851E+03  0.58723866885E+03  0.64324716390E+03  0.93946260562E+02 0.  0.
          5    1    1    2  502    0 -0.39352566139E+02  0.28733964350E+02  0.16445328868E+03  0.17157103989E+03  0.41800000000E+01 0.  1.
         -5    1    1    2    0  502 -0.13556542869E+03  0.14300844416E+03  0.15974975862E+03  0.25370624418E+03  0.41800000000E+01 0.  1.
        -11    1    3    3    0    0  0.14797969920E+03 -0.13831375970E+03  0.37008695753E+03  0.42189221803E+03  0.00000000000E+00 0.  1.
         11    1    3    3    0    0  0.26938295637E+02 -0.33428648809E+02  0.21715171132E+03  0.22135494588E+03  0.00000000000E+00 0. -1.
</event>
<event>
 7    1  0.4096326E-006  0.9706469E+02  0.7561462E-02  0.1286592E+00
         -1   -1    0    0    0  501 -0.00000000000E+00  0.00000000000E+00  0.28673895440E+02  0.28673895440E+02  0.00000000000E+00 0.  1.
          1   -1    0    0  501    0  0.00000000000E+00 -0.00000000000E+00 -0.55832372528E+03  0.55832372528E+03  0.00000000000E+00 0. -1.
         23    2    1    2    0    0 -0.25258956625E+00 -0.57675826448E+02 -0.29921221565E+03  0.31852754650E+03  0.92764665305E+02 0.  0.
          5    1    1    2  502    0 -0.12288482338E+02 -0.20565405172E+02  0.45460712962E+00  0.24323276007E+02  0.41800000000E+01 0.  1.
         -5    1    1    2    0  502  0.12541071904E+02  0.78241231620E+02 -0.23089222132E+03  0.24414679821E+03  0.41800000000E+01 0.  1.
        -11    1    3    3    0    0 -0.13705242800E+02  0.12775358452E+02 -0.11441869874E+02  0.21953583989E+02  0.00000000000E+00 0.  1.
         11    1    3    3    0    0  0.13452653234E+02 -0.70451184899E+02 -0.28777034578E+03  0.29657396251E+03  0.00000000000E+00 0. -1.
</event>
<event>
 7    1  0.4096326E-006  0.8214948E+02  0.7561462E-02  0.1323060E+00
         -1   -1    0    0    0  501 -0.00000000000E+00  0.00000000000E+00  0.31264946963E+03  0.31264946963E+03  0.00000000000E+00 0.  1.
          1   -1    0    0  501    0  0.00000000000E+00 -0.00000000000E+00 -0.67910785353E+02  0.67910785353E+02  0.00000000000E+00 0. -1.
         23    2    1    2    0    0 -0.50730927690E+02 -0.58754935526E+02  0.34400371806E+02  0.12381938299E+03  0.90122608432E+02 0.  0.
          5    1    1    2  502    0  0.14727108780E+02  0.43610908952E+02  0.36620966853E+01  0.46364668281E+02  0.41800000000E+01 0.  1.
         -5    1    1    2    0  502  0.36003818910E+02  0.15144026574E+02  0.20667621578E+03  0.21037620371E+03  0.41800000000E+01 0.  1.
        -11    1    3    3    0    0 -0.88326665113E+01 -0.19391336999E+02 -0.30444265547E+02  0.37160372078E+02  0.00000000000E+00 0. -1.
         11    1    3    3    0    0 -0.41898261179E+02 -0.39363598527E+02  0.64844637353E+02  0.86659010912E+02  0.00000000000E+00 0.  1.
</event>
<event>
 7    1  0.4096326E-006  0.9309652E+02  0.7561462E-02  0.1295522E+00
          1   -1    0    0  501    0  0.00000000000E+00  0.00000000000E+00  0.57748952010E+03  0.57748952010E+03  0.00000000000E+00 0. -1.
         -1   -1    0    0    0  501 -0.00000000000E+00 -0.00000000000E+00 -0.27175173522E+02  0.27175173522E+02  0.00000000000E+00 0.  1.
         23    2    1    2    0    0  0.47795675011E+02 -0.11215707555E+02  0.28057683787E+03  0.30331145771E+03  0.10423175995E+03 0.  0.
          5    1    1    2  502    0  0.13950397635E+01  0.21008089140E+02 -0.50031597280E+01  0.22040643197E+02  0.41800000000E+01 0.  1.
         -5    1    1    2    0  502 -0.49190714775E+02 -0.97923815849E+01  0.27474066844E+03  0.27931259272E+03  0.41800000000E+01 0.  1.
        -11    1    3    3    0    0  0.79687894397E+02 -0.18223057062E+02  0.21594994631E+03  0.23090391861E+03  0.00000000000E+00 0. -1.
         11    1    3    3    0    0 -0.31892219386E+02  0.70073495066E+01  0.64626891561E+02  0.72407539092E+02  0.00000000000E+00 0.  1.
</event>
<event>
 7    1  0.4096326E-006  0.1070180E+03  0.7561462E-02  0.1266194E+00
          2   -1    0    0  501    0  0.00000000000E+00  0.00000000000E+00  0.27077018652E+03  0.27077018652E+03  0.00000000000E+00 0. -1.
         -2   -1    0    0    0  501 -0.00000000000E+00 -0.00000000000E+00 -0.75659412248E+02  0.75659412248E+02  0.00000000000E+00 0.  1.
         23    2    1    2    0    0  0.71209695716E+02  0.10287335373E+02  0.15985835838E+03  0.19801826268E+03  0.92086305061E+02 0.  0.
          5    1    1    2  502    0 -0.19382096761E+02 -0.34914502593E+02  0.70361439282E+02  0.81011682515E+02  0.41800000000E+01 0. -1.
         -5    1    1    2    0  502 -0.51827598955E+02  0.24627167220E+02 -0.35109023384E+02  0.67399653573E+02  0.41800000000E+01 0. -1.
        -11    1    3    3    0    0 -0.90350303026E+01 -0.26557158105E+02  0.30984053787E+02  0.41796243949E+02  0.00000000000E+00 0.  1.
         11    1    3    3    0    0  0.80244726019E+02  0.36844493478E+02  0.12887430459E+03  0.15622201873E+03  0.00000000000E+00 0. -1.
</event>
<event>
 7    1  0.4096326E-006  0.7810413E+02  0.7561462E-02  0.1334519E+00
          4   -1    0    0  501    0  0.00000000000E+00  0.00000000000E+00  0.53530030964E+02  0.53530030964E+02  0.00000000000E+00 0. -1.
         -4   -1    0    0    0  501 -0.00000000000E+00 -0.00000000000E+00 -0.26423037830E+03  0.26423037830E+03  0.00000000000E+00 0.  1.
         23    2    1    2    0    0  0.48186531531E+02 -0.58078214889E+01 -0.75909225034E+02  0.12757253267E+03  0.90315380947E+02 0.  0.
          5    1    1    2  502    0  0.20862171980E+02  0.90857587910E+01  0.13312926229E+02  0.26692464055E+02  0.41800000000E+01 0. -1.
         -5    1    1    2    0  502 -0.69048703511E+02 -0.32779373021E+01 -0.14810404853E+03  0.16349541254E+03  0.41800000000E+01 0. -1.
        -11    1    3    3    0    0  0.27769752532E+02  0.17508238262E+02  0.11537241419E+02  0.34796630617E+02  0.00000000000E+00 0. -1.
         11    1    3    3    0    0  0.20416779000E+02 -0.23316059751E+02 -0.87446466453E+02  0.92775902055E+02  0.00000000000E+00 0.  1.
</event>
<event>
 7    1  0.4096326E-006  0.1409229E+03  0.7561462E-02  0.1212093E+00
         -2   -1    0    0    0  501 -0.00000000000E+00  0.00000000000E+00  0.20388871009E+03  0.20388871009E+03  0.00000000000E+00 0.  1.
          2   -1    0    0  501    0  0.00000000000E+00 -0.00000000000E+00 -0.12291888280E+03  0.12291888280E+03  0.00000000000E+00 0. -1.
         23    2    1    2    0    0  0.45738676247E+02  0.80900340954E+02 -0.31773215240E+02  0.13446656330E+03  0.91841318417E+02 0.  0.
          5    1    1    2  502    0 -0.55205230750E+02  0.12882371143E+02  0.20600062645E+02  0.60459969975E+02  0.41800000000E+01 0. -1.
         -5    1    1    2    0  502  0.94665545033E+01 -0.93782712097E+02  0.92142979888E+02  0.13188105961E+03  0.41800000000E+01 0. -1.
        -11    1    3    3    0    0  0.65666593480E+02  0.23261319569E+02 -0.17647781965E+02  0.71865392893E+02  0.00000000000E+00 0.  1.
         11    1    3    3    0    0 -0.19927917233E+02  0.57639021385E+02 -0.14125433275E+02  0.62601170410E+02  0.00000000000E+00 0. -1.
</event>
<event>
 7    1  0.4096326E-006  0.1111542E+03  0.7561462E-02  0.1258447E+00
          4   -1    0    0  501    0  0.00000000000E+00  0.00000000000E+00  0.13976071660E+03  0.13976071660E+03  0.00000000000E+00 0. -1.
         -4   -1    0    0    0  501 -0.00000000000E+00 -0.00000000000E+00 -0.40155391143E+03  0.40155391143E+03  0.00000000000E+00 0.  1.
         23    2    1    2    0    0  0.49333793983E+02 -0.31654789204E+02  0.10645834517E+03  0.15229052866E+03  0.91777867449E+02 0.  0.
          5    1    1    2  502    0  0.20677379394E+02  0.48781554777E+02 -0.14943270898E+03  0.15860265136E+03  0.41800000000E+01 0. -1.
         -5    1    1    2    0  502 -0.70011173377E+02 -0.17126765573E+02 -0.21881883102E+03  0.23042144802E+03  0.41800000000E+01 0.  1.
        -11    1    3    3    0    0 -0.20857969863E+01 -0.44027458244E+02  0.14848929549E+02  0.46510841073E+02  0.00000000000E+00 0.  1.
         11    1    3    3    0    0  0.51419590970E+02  0.12372669041E+02  0.91609415623E+02  0.10577968758E+03  0.00000000000E+00 0. -1.
</event>
<event>
 7    1  0.4096326E-006  0.9251246E+02  0.7561462E-02  0.1296879E+00
         -2   -1    0    0    0  501 -0.00000000000E+00  0.00000000000E+00  0.28827056149E+02  0.28827056149E+02  0.00000000000E+00 0. -1.
          2   -1    0    0  501    0  0.00000000000E+00 -0.00000000000E+00 -0.63745453827E+03  0.63745453827E+03  0.00000000000E+00 0.  1.
         23    2    1    2    0    0 -0.21868888959E+02  0.51097012857E+02 -0.41741067565E+03  0.43111947248E+03  0.92429293968E+02 0.  0.
          5    1    1    2  502    0 -0.24439440193E+02 -0.46188490118E+02 -0.17944838806E+03  0.18694881447E+03  0.41800000000E+01 0.  1.
         -5    1    1    2    0  502  0.46308329152E+02 -0.49085227396E+01 -0.11768418413E+02  0.48213307460E+02  0.41800000000E+01 0.  1.
        -11    1    3    3    0    0 -0.97145622971E+01 -0.15422174460E+02 -0.16626890244E+02  0.24671231524E+02  0.00000000000E+00 0. -1.
         11    1    3    3    0    0 -0.12154326662E+02  0.66519187317E+02 -0.40078378540E+03  0.40644824096E+03  0.00000000000E+00 0.  1.
</event>
<event>
 7    1  0.4096326E-006  0.1332707E+03  0.7561462E-02  0.1222682E+00
          2   -1    0    0  501    0  0.00000000000E+00  0.00000000000E+00  0.49063299775E+03  0.49063299775E+03  0.00000000000E+00 0. -1.
         -2   -1    0    0    0  501 -0.00000000000E+00 -0.00000000000E+00 -0.66626261807E+02  0.66626261807E+02  0.00000000000E+00 0.  1.
         23    2    1    2    0    0  0.97668558695E+01 -0.90183104577E+02  0.37299437763E+03  0.39454308945E+03  0.91165014478E+02 0.  0.
          5    1    1    2  502    0  0.54221588345E+02  0.18285317075E+02  0.11109292153E+02  0.58439902766E+02  0.41800000000E+01 0. -1.
         -5    1    1    2    0  502 -0.63988444215E+02  0.71897787502E+02  0.39903066155E+02  0.10427626733E+03  0.41800000000E+01 0. -1.
        -11    1    3    3    0    0 -0.26311313023E+02 -0.60970941542E+02  0.30544540354E+03  0.31258060633E+03  0.00000000000E+00 0. -1.
         11    1    3    3    0    0  0.36078168892E+02 -0.29212163035E+02  0.67548974090E+02  0.81962483127E+02  0.00000000000E+00 0.  1.
</event>
<event>
 7    1  0.4096326E-006  0.1325632E+03  0.7561462E-02  0.1223701E+00
         -2   -1    0    0    0  501 -0.00000000000E+00  0.00000000000E+00  0.16275906237E+03  0.16275906237E+03  0.00000000000E+00 0.  1.
          2   -1    0    0  501    0  0.00000000000E+00 -0.00000000000E+00 -0.13457420020E+03  0.13457420020E+03  0.00000000000E+00 0. -1.
         23    2    1    2    0    0  0.99731861693E+02  0.87107246265E+01  0.78946520313E+01  0.13583531268E+03  0.91469042198E+02 0.  0.
          5    1    1    2  502    0  0.34544405215E+01  0.33841532577E+02 -0.23468174255E+02  0.41538055916E+02  0.41800000000E+01 0. -1.
         -5    1    1    2    0  502 -0.10318630221E+03 -0.42552257203E+02  0.43758384392E+02  0.11995989397E+03  0.41800000000E+01 0. -1.
        -11    1    3    3    0    0  0.43882621603E+02 -0.28247772072E+02 -0.28657663091E+02  0.59538918025E+02  0.00000000000E+00 0. -1.
         11    1    3    3    0    0  0.55849240090E+02  0.36958496699E+02  0.36552315123E+02  0.76296394657E+02  0.00000000000E+00 0.  1.
</event>
<event>
 7    1  0.4096326E-006  0.1137188E+03  0.7561462E-02  0.1253834E+00
          1   -1    0    0  501    0  0.00000000000E+00  0.00000000000E+00  0.11931999097E+03  0.11931999097E+03  0.00000000000E+00 0. -1.
         -1   -1    0    0    0  501 -0.00000000000E+00 -0.00000000000E+00 -0.15025428943E+03  0.15025428943E+03  0.00000000000E+00 0.  1.
         23    2    1    2    0    0  0.73710024872E+00  0.72568395073E+02  0.16259788988E+02  0.11745164847E+03  0.90905410784E+02 0.  0.
          5    1    1    2  502    0  0.59031854127E+02 -0.14221757834E+02 -0.22961652216E+02  0.65051733797E+02  0.41800000000E+01 0. -1.
         -5    1    1    2    0  502 -0.59768954375E+02 -0.58346637239E+02 -0.24232435234E+02  0.87070898133E+02  0.41800000000E+01 0. -1.
        -11    1    3    3    0    0  0.18919464784E+02  0.52781358157E+02  0.49440440705E+02  0.74754097504E+02  0.00000000000E+00 0. -1.
         11    1    3    3    0    0 -0.18182364535E+02  0.19787036917E+02 -0.33180651717E+02  0.42697550965E+02  0.00000000000E+00 0.  1.
</event>
<event>
 7    1  0.4096326E-006  0.1028804E+03  0.7561462E-02  0.1274353E+00
          1   -1    0    0  501    0  0.00000000000E+00  0.00000000000E+00  0.19585991532E+03  0.19585991532E+03  0.00000000000E+00 0. -1.
         -1   -1    0    0    0  501 -0.00000000000E+00 -0.00000000000E+00 -0.10681835472E+03  0.10681835472E+03  0.00000000000E+00 0.  1.
         23    2    1    2    0    0 -0.73673497851E+02 -0.47769218276E+02  0.77631384826E+02  0.14942809488E+03  0.92695421295E+02 0.  0.
          5    1    1    2  502    0  0.47411119794E+02  0.23137652944E+02  0.67926644098E+02  0.86108458599E+02  0.41800000000E+01 0. -1.
         -5    1    1    2    0  502  0.26262378057E+02  0.24631565332E+02 -0.56516468318E+02  0.67141716564E+02  0.41800000000E+01 0. -1.
        -11    1    3    3    0    0 -0.25392718896E+02 -0.61383635706E+02  0.13125513973E+02  0.67712775918E+02  0.00000000000E+00 0.  1.
         11    1    3    3    0    0 -0.48280778956E+02  0.13614417430E+02  0.64505870854E+02  0.81715318962E+02  0.00000000000E+00 0. -1.
</event>
<event>
 7    1  0.8628818E-006  0.2241658E+03  0.7561462E-02  0.1130815E+00
         -1   -1    0    0    0  501 -0.00000000000E+00  0.00000000000E+00  0.85902649689E+02  0.85902649689E+02  0.00000000000E+00 0.  1.
          1   -1    0    0  501    0  0.00000000000E+00 -0.00000000000E+00 -0.64415042458E+03  0.64415042458E+03  0.00000000000E+00 0. -1.
         23    2    1    2    0    0  0.14408258605E+02  0.20685002475E+03 -0.29886539188E+03  0.37519917370E+03  0.91974816264E+02 0.  0.
          5    1    1    2  502    0  0.30206586344E+02 -0.11954844626E+03 -0.21336949796E+03  0.24647166961E+03  0.41800000000E+01 0. -1.
         -5    1    1    2    0  502 -0.44614844949E+02 -0.87301578486E+02 -0.46012885043E+02  0.10838223095E+03  0.41800000000E+01 0. -1.
        -11    1    3    3    0    0  0.53425658809E+02  0.10631069364E+03 -0.15504861452E+03  0.19543883305E+03  0.00000000000E+00 0.  1.
         11    1    3    3    0    0 -0.39017400204E+02  0.10053933111E+03 -0.14381677737E+03  0.17976034065E+03  0.00000000000E+00 0. -1.
</event>
<event>
 7    1  0.4096326E-006  0.1045234E+03  0.7561462E-02  0.1271062E+00
          1   -1    0    0  501    0  0.00000000000E+00  0.00000000000E+00  0.28209854835E+03  0.28209854835E+03  0.00000000000E+00 0. -1.
         -1   -1    0    0    0  501 -0.00000000000E+00 -0.00000000000E+00 -0.44045016689E+02  0.44045016689E+02  0.00000000000E+00 0.  1.
         23    2    1    2    0    0 -0.17161850943E+02 -0.19060875276E+02  0.89110781836E+02  0.12995652297E+03  0.91050097906E+02 0.  0.
          5    1    1    2  502    0  0.55645814827E+02  0.52086794255E+02  0.97533285243E+02  0.12385356262E+03  0.41800000000E+01 0.  1.
         -5    1    1    2    0  502 -0.38483963884E+02 -0.33025918979E+02  0.51409464583E+02  0.72333479450E+02  0.41800000000E+01 0.  1.
        -11    1    3    3    0    0  0.72167407850E+01  0.27952892844E+02  0.32160022014E+01  0.29048033257E+02  0.00000000000E+00 0.  1.
         11    1    3    3    0    0 -0.24378591728E+02 -0.47013768120E+02  0.85894779635E+02  0.10090848971E+03  0.00000000000E+00 0. -1.
</event>
<event>
 7    1  0.4096326E-006  0.7924448E+02  0.7561462E-02  0.1331209E+00
         -2   -1    0    0    0  501 -0.00000000000E+00  0.00000000000E+00  0.58284552847E+02  0.58284552847E+02  0.00000000000E+00 0. -1.
          2   -1    0    0  501    0  0.00000000000E+00 -0.00000000000E+00 -0.28883151588E+03  0.28883151588E+03  0.00000000000E+00 0.  1.
         23    2    1    2    0    0 -0.17414219497E+02 -0.64011867503E+02 -0.13593094816E+03  0.17682106980E+03  0.91584353655E+02 0.  0.
          5    1    1    2  502    0 -0.30896935441E+01  0.12335086768E+02 -0.11129795110E+03  0.11209998613E+03  0.41800000000E+01 0. -1.
         -5    1    1    2    0  502  0.20503913041E+02  0.51676780735E+02  0.16681936236E+02  0.58195012791E+02  0.41800000000E+01 0. -1.
        -11    1    3    3    0    0  0.41382426806E+01 -0.67405689184E+02 -0.13924069043E+03  0.15475342277E+03  0.00000000000E+00 0.  1.
         11    1    3    3    0    0 -0.21552462178E+02  0.33938216803E+01  0.33097422693E+01  0.22067647029E+02  0.00000000000E+00 0. -1.
</event>
<event>
 7    1  0.4096326E-006  0.1100670E+03  0.7561462E-02  0.1260446E+00
         -1   -1    0    0    0  501 -0.00000000000E+00  0.00000000000E+00  0.11759060823E+03  0.11759060823E+03  0.00000000000E+00 0.  1.
          1   -1    0    0  501    0  0.00000000000E+00 -0.00000000000E+00 -0.13004177954E+03  0.13004177954E+03  0.00000000000E+00 0. -1.
         23    2    1    2    0    0  0.44770785447E+02 -0.38016895122E+02 -0.12631013304E+02  0.10944025987E+03  0.91476338133E+02 0.  0.
          5    1    1    2  502    0  0.40071432348E+02  0.33850594322E+02 -0.57689761651E+01  0.52937093916E+02  0.41800000000E+01 0. -1.
         -5    1    1    2    0  502 -0.84842217795E+02  0.41663008000E+01  0.59488181615E+01  0.85255033987E+02  0.41800000000E+01 0. -1.
        -11    1    3    3    0    0  0.56629469088E+02 -0.18402793660E+02 -0.41499427239E+02  0.72579349989E+02  0.00000000000E+00 0. -1.
         11    1    3    3    0    0 -0.11858683641E+02 -0.19614101462E+02  0.28868413935E+02  0.36860909877E+02  0.00000000000E+00 0.  1.
</event>
<event>
 7    1  0.4096326E-006  0.1106832E+03  0.7561462E-02  0.1259310E+00
          2   -1    0    0  501    0  0.00000000000E+00  0.00000000000E+00  0.19507516159E+02  0.19507516159E+02  0.00000000000E+00 0.  1.
         -2   -1    0    0    0  501 -0.00000000000E+00 -0.00000000000E+00 -0.65928922882E+03  0.65928922882E+03  0.00000000000E+00 0. -1.
         23    2    1    2    0    0 -0.23441982185E+02  0.25999241647E+02 -0.26466311799E+03  0.28182554164E+03  0.90297191558E+02 0.  0.
          5    1    1    2  502    0 -0.53372408638E+01 -0.71070602818E+02 -0.26552121331E+03  0.27495182095E+03  0.41800000000E+01 0.  1.
         -5    1    1    2    0  502  0.28779223048E+02  0.45071361171E+02 -0.10959738137E+03  0.12201938239E+03  0.41800000000E+01 0.  1.
        -11    1    3    3    0    0  0.34201015914E+02  0.32155072308E+01 -0.80915185644E+02  0.87905154821E+02  0.00000000000E+00 0.  1.
         11    1    3    3    0    0 -0.57642998099E+02  0.22783734416E+02 -0.18374793234E+03  0.19392038682E+03  0.00000000000E+00 0. -1.
</event>
<event>
 7    1  0.4096326E-006  0.1306221E+03  0.7561462E-02  0.1226536E+00
         -2   -1    0    0    0  501 -0.00000000000E+00  0.00000000000E+00  0.21335954586E+02  0.21335954586E+02  0.00000000000E+00 0.  1.
          2   -1    0    0  501    0  0.00000000000E+00 -0.00000000000E+00 -0.90855389281E+03  0.90855389281E+03  0.00000000000E+00 0. -1.
         23    2    1    2    0    0 -0.41867189790E+02 -0.75282486211E+02 -0.46745149838E+03  0.48374115505E+03  0.89857038925E+02 0.  0.
          5    1    1    2  502    0  0.90210626270E+01 -0.29212173138E+02 -0.37966684446E+02  0.48925168964E+02  0.41800000000E+01 0. -1.
         -5    1    1    2    0  502  0.32846127163E+02  0.10449465935E+03 -0.38179975540E+03  0.39722352338E+03  0.41800000000E+01 0.  1.
        -11    1    3    3    0    0 -0.38752865111E+02  0.61859001857E+01 -0.10159771647E+03  0.10891347900E+03  0.00000000000E+00 0.  1.
         11    1    3    3    0    0 -0.31143246785E+01 -0.81468386397E+02 -0.36585378190E+03  0.37482767605E+03  0.00000000000E+00 0. -1.
</event>
<event>
 7    1  0.4096326E-006  0.1277429E+03  0.7561462E-02  0.1230844E+00
         -1   -1    0    0    0  501 -0.00000000000E+00  0.00000000000E+00  0.52705677875E+02  0.52705677875E+02  0.00000000000E+00 0.  1.
          1   -1    0    0  501    0  0.00000000000E+00 -0.00000000000E+00 -0.53334536346E+03  0.53334536346E+03  0.00000000000E+00 0. -1.
         23    2    1    2    0    0  0.19144030526E+02 -0.87221916593E+02 -0.38390891498E+03  0.40445137258E+03  0.90668082258E+02 0.  0.
          5    1    1    2  502    0 -0.16291704200E+02  0.11937023351E+03 -0.82521049534E+02  0.14608856318E+03  0.41800000000E+01 0. -1.
         -5    1    1    2    0  502 -0.28523263263E+01 -0.32148316922E+02 -0.14209721066E+02  0.35511105575E+02  0.41800000000E+01 0. -1.
        -11    1    3    3    0    0  0.31020623111E+02 -0.27356013444E+02 -0.49436768174E+02  0.64456377320E+02  0.00000000000E+00 0.  1.
         11    1    3    3    0    0 -0.11876592585E+02 -0.59865903149E+02 -0.33447214681E+03  0.33999499526E+03  0.00000000000E+00 0. -1.
</event>
<event>
 7    1  0.4096326E-006  0.2042675E+03  0.7561462E-02  0.1146188E+00
         -1   -1    0    0    0  501 -0.00000000000E+00  0.00000000000E+00  0.10787426437E+04  0.10787426437E+04  0.00000000000E+00 0.  1.
          1   -1    0    0  501    0  0.00000000000E+00 -0.00000000000E+00 -0.49561993862E+02  0.49561993862E+02  0.00000000000E+00 0. -1.
         23    2    1    2    0    0  0.46768424384E+02 -0.18233221732E+03  0.30613616042E+03  0.37076056806E+03  0.91168674007E+02 0.  0.
          5    1    1    2  502    0  0.19186679776E+02  0.59157704866E+02  0.40996397995E+03  0.41467541521E+03  0.41800000000E+01 0.  1.
         -5    1    1    2    0  502 -0.65955104160E+02  0.12317451245E+03  0.31308050944E+03  0.34286865426E+03  0.41800000000E+01 0.  1.
        -11    1    3    3    0    0  0.54334209323E+01 -0.15872564257E+03  0.25868945540E+03  0.30355162000E+03  0.00000000000E+00 0. -1.
         11    1    3    3    0    0  0.41335003452E+02 -0.23606574753E+02  0.47446705025E+02  0.67208948062E+02  0.00000000000E+00 0.  1.
</event>
<event>
 7    1  0.4096326E-006  0.1072806E+03  0.7561462E-02  0.1265690E+00
         -1   -1    0    0    0  501 -0.00000000000E+00  0.00000000000E+00  0.22842527440E+02  0.22842527440E+02  0.00000000000E+00 0.  1.
          1   -1    0    0  501    0  0.00000000000E+00 -0.00000000000E+00 -0.61634645122E+03  0.61634645122E+03  0.00000000000E+00 0. -1.
         23    2    1    2    0    0  0.34858244053E+02  0.34696210743E+02 -0.25350285784E+03  0.27358312822E+03  0.90360969998E+02 0.  0.
          5    1    1    2  502    0 -0.51394801207E+02 -0.70576577084E+02 -0.28251627588E+03  0.29572858732E+03  0.41800000000E+01 0. -1.
         -5    1    1    2    0  502  0.16536557154E+02  0.35880366341E+02 -0.57484790066E+02  0.69877263114E+02  0.41800000000E+01 0. -1.
        -11    1    3    3    0    0  0.11397421613E+02  0.55141276402E+02 -0.22303214685E+03  0.23002999829E+03  0.00000000000E+00 0. -1.
         11    1    3    3    0    0  0.23460822441E+02 -0.20445065659E+02 -0.30470710986E+02  0.43553129937E+02  0.00000000000E+00 0.  1.
</event>
<event>
 7    1  0.4096326E-006  0.7592179E+02  0.7561462E-02  0.1341040E+00
          1   -1    0    0  501    0  0.00000000000E+00  0.00000000000E+00  0.21369467518E+02  0.21369467518E+02  0.00000000000E+00 0. -1.
         -1   -1    0    0    0  501 -0.00000000000E+00 -0.00000000000E+00 -0.58789335937E+03  0.58789335937E+03  0.00000000000E+00 0.  1.
         23    2    1    2    0    0 -0.25539285650E+02  0.13053021349E+01 -0.19335200348E+03  0.21618132640E+03  0.93249180735E+02 0.  0.
          5    1    1    2  502    0 -0.16518712097E+02 -0.12307563550E+01  0.43718333046E+00  0.17089357502E+02  0.41800000000E+01 0. -1.
         -5    1    1    2    0  502  0.42057997747E+02 -0.74545779942E-01 -0.37360907170E+03  0.37599214299E+03  0.41800000000E+01 0.  1.
        -11    1    3    3    0    0  0.31556733245E+02  0.13142974351E+02 -0.43095286864E+02  0.55006989899E+02  0.00000000000E+00 0.  1.
         11    1    3    3    0    0 -0.57096018895E+02 -0.11837672216E+02 -0.15025671662E+03  0.16117433650E+03  0.00000000000E+00 0. -1.
</event>
<event>
 7    1  0.4096326E-006  0.1393801E+03  0.7561462E-02  0.1214166E+00
          1   -1    0    0  501    0  0.00000000000E+00  0.00000000000E+00  0.51040910436E+03  0.51040910436E+03  0.00000000000E+00 0.  1.
         -1   -1    0    0    0  501 -0.00000000000E+00 -0.00000000000E+00 -0.64625982968E+02  0.64625982968E+02  0.00000000000E+00 0. -1.
         23    2    1    2    0    0 -0.12577942356E+03 -0.32895991979E+02  0.31170812774E+03  0.35025560945E+03  0.92813928768E+02 0.  0.
          5    1    1    2  502    0  0.88143577707E+02  0.51429085213E+02  0.21233617843E+02  0.10431960517E+03  0.41800000000E+01 0.  1.
         -5    1    1    2    0  502  0.37635845849E+02 -0.18533093233E+02  0.11284137580E+03  0.12045987270E+03  0.41800000000E+01 0.  1.
        -11    1    3    3    0    0 -0.37923676664E+02 -0.26722275428E+02  0.21288780633E+03  0.21788415119E+03  0.00000000000E+00 0.  1.
         11    1    3    3    0    0 -0.87855746893E+02 -0.61737165510E+01  0.98820321409E+02  0.13237145826E+03  0.00000000000E+00 0. -1.
</event>
<event>
 7    1  0.4285391E-006  0.2604121E+03  0.7561462E-02  0.1106896E+00
          4   -1    0    0  501    0  0.00000000000E+00  0.00000000000E+00  0.85643240510E+03  0.85643240510E+03  0.00000000000E+00 0. -1.
         -4   -1    0    0    0  501 -0.00000000000E+00 -0.00000000000E+00 -0.89273787371E+02  0.89273787371E+02  0.00000000000E+00 0.  1.
         23    2    1    2    0    0 -0.23871810164E+03 -0.69965295977E+02  0.46278634824E+03  0.53318871531E+03  0.90760824833E+02 0.  0.
          5    1    1    2  502    0  0.98035118202E+02  0.68711625765E+02  0.68915817294E+02  0.13819925539E+03  0.41800000000E+01 0.  1.
         -5    1    1    2    0  502  0.14068298344E+03  0.12536702117E+01  0.23545645220E+03  0.27431822178E+03  0.41800000000E+01 0.  1.
        -11    1    3    3    0    0 -0.11960397095E+03  0.47106577483E+01  0.16457503621E+03  0.20349998208E+03  0.00000000000E+00 0. -1.
         11    1    3    3    0    0 -0.11911413069E+03 -0.74675953725E+02  0.29821131203E+03  0.32968873323E+03  0.00000000000E+00 0.  1.
</event>
<event>
 7    1  0.4096326E-006  0.6615669E+02  0.7561462E-02  0.1373673E+00
          2   -1    0    0  501    0  0.00000000000E+00  0.00000000000E+00  0.74800424958E+03  0.74800424958E+03  0.00000000000E+00 0. -1.
         -2   -1    0    0    0  501 -0.00000000000E+00 -0.00000000000E+00 -0.15860929747E+02  0.15860929747E+02  0.00000000000E+00 0.  1.
         23    2    1    2    0    0  0.92121945932E+01 -0.10861230912E+02  0.31357611439E+03  0.32677682437E+03  0.90831066093E+02 0.  0.
          5    1    1    2  502    0  0.17943437082E+02 -0.62176565051E+01  0.39859479658E+03  0.39906880415E+03  0.41800000000E+01 0.  1.
         -5    1    1    2    0  502 -0.27155631675E+02  0.17078887417E+02  0.19972408863E+02  0.38019550798E+02  0.41800000000E+01 0.  1.
        -11    1    3    3    0    0 -0.18116622534E+02  0.27794212214E+02  0.57701050320E+02  0.66559307784E+02  0.00000000000E+00 0.  1.
         11    1    3    3    0    0  0.27328817127E+02 -0.38655443126E+02  0.25587506407E+03  0.26021751659E+03  0.00000000000E+00 0. -1.
</event>
<event>
 7    1  0.4096326E-006  0.1230109E+03  0.7561462E-02  0.1238211E+00
          1   -1    0    0  501    0  0.00000000000E+00  0.00000000000E+00  0.30672109158E+03  0.30672109158E+03  0.00000000000E+00 0. -1.
         -1   -1    0    0    0  501 -0.00000000000E+00 -0.00000000000E+00 -0.63070278037E+02  0.63070278037E+02  0.00000000000E+00 0.  1.
         23    2    1    2    0    0 -0.42767194191E+02 -0.75425326729E+02  0.10390989651E+03  0.16317027193E+03  0.91155132821E+02 0.  0.
          5    1    1    2  502    0  0.12021865299E+02  0.10680414528E+03  0.10657911421E+03  0.15142070757E+03  0.41800000000E+01 0. -1.
         -5    1    1    2    0  502  0.30745328892E+02 -0.31378818552E+02  0.33161802827E+02  0.55200390118E+02  0.41800000000E+01 0. -1.
        -11    1    3    3    0    0 -0.81154917733E+01 -0.51709824082E+02  0.13641647406E+01  0.52360558236E+02  0.00000000000E+00 0.  1.
         11    1    3    3    0    0 -0.34651702418E+02 -0.23715502647E+02  0.10254573177E+03  0.11080971370E+03  0.00000000000E+00 0. -1.
</event>
<event>
 7    1  0.4096326E-006  0.1148735E+03  0.7561462E-02  0.1251802E+00
         -2   -1    0    0    0  501 -0.00000000000E+00  0.00000000000E+00  0.27414308542E+02  0.27414308542E+02  0.00000000000E+00 0. -1.
          2   -1    0    0  501    0  0.00000000000E+00 -0.00000000000E+00 -0.48740131113E+03  0.48740131113E+03  0.00000000000E+00 0.  1.
         23    2    1    2    0    0 -0.39908032706E+02 -0.18040415409E+02 -0.19426291677E+03  0.21787380146E+03  0.88390072233E+02 0.  0.
          5    1    1    2  502    0  0.64918970113E+02  0.55931602334E+02 -0.19139237548E+03  0.20974110377E+03  0.41800000000E+01 0.  1.
         -5    1    1    2    0  502 -0.25010937407E+02 -0.37891186925E+02 -0.74331710340E+02  0.87200714439E+02  0.41800000000E+01 0.  1.
        -11    1    3    3    0    0 -0.52156630484E+02 -0.44912780757E+02 -0.14328894319E+03  0.15896286742E+03  0.00000000000E+00 0. -1.
         11    1    3    3    0    0  0.12248597779E+02  0.26872365348E+02 -0.50973973585E+02  0.58910934044E+02  0.00000000000E+00 0.  1.
</event>
<event>
 7    1  0.4096326E-006  0.1385082E+03  0.7561462E-02  0.1215350E+00
          2   -1    0    0  501    0  0.00000000000E+00  0.00000000000E+00  0.26759995475E+03  0.26759995475E+03  0.00000000000E+00 0.  1.
         -2   -1    0    0    0  501 -0.00000000000E+00 -0.00000000000E+00 -0.75438158139E+02  0.75438158139E+02  0.00000000000E+00 0. -1.
         23    2    1    2    0    0  0.37183996565E+02  0.82871074291E+02  0.10992107124E+03  0.16793352208E+03  0.88706039146E+02 0.  0.
          5    1    1    2  502    0 -0.45767810965E+02  0.18620408406E+02  0.11152446665E+02  0.50825796564E+02  0.41800000000E+01 0.  1.
         -5    1    1    2    0  502  0.85838143995E+01 -0.10149148270E+03  0.71088278708E+02  0.12427879425E+03  0.41800000000E+01 0.  1.
        -11    1    3    3    0    0 -0.25408422855E+02  0.46787063890E+02  0.59428583877E+02  0.79789559975E+02  0.00000000000E+00 0.  1.
         11    1    3    3    0    0  0.62592419420E+02  0.36084010400E+02  0.50492487362E+02  0.88143962104E+02  0.00000000000E+00 0. -1.
</event>
<event>
 7    1  0.4096326E-006  0.2701626E+03  0.7561462E-02  0.1101187E+00
         -4   -1    0    0    0  501 -0.00000000000E+00  0.00000000000E+00  0.69107421217E+03  0.69107421217E+03  0.00000000000E+00 0.  1.
          4   -1    0    0  501    0  0.00000000000E+00 -0.00000000000E+00 -0.14485410755E+03  0.14485410755E+03  0.00000000000E+00 0. -1.
         23    2    1    2    0    0  0.15275372755E+03 -0.85903752013E+02  0.18019516165E+02  0.19990321843E+03  0.94463950194E+02 0.  0.
          5    1    1    2  502    0 -0.11049218543E+03 -0.10119276476E+03  0.15058410555E+03  0.21246539465E+03  0.41800000000E+01 0. -1.
         -5    1    1    2    0  502 -0.42261542120E+02  0.18709651677E+03  0.37761648291E+03  0.42355970664E+03  0.41800000000E+01 0.  1.
        -11    1    3    3    0    0  0.43265187757E+02 -0.77516982053E+02  0.15145420881E+02  0.90056330993E+02  0.00000000000E+00 0. -1.
         11    1    3    3    0    0  0.10948853979E+03 -0.83867699594E+01  0.28740952847E+01  0.10984688744E+03  0.00000000000E+00 0.  1.
</event>
<event>
 7    1  0.4096326E-006  0.1674474E+03  0.7561462E-02  0.1180536E+00
          1   -1    0    0  501    0  0.00000000000E+00  0.00000000000E+00  0.33845766415E+03  0.33845766415E+03  0.00000000000E+00 0. -1.
         -1   -1    0    0    0  501 -0.00000000000E+00 -0.00000000000E+00 -0.11442506744E+03  0.11442506744E+03  0.00000000000E+00 0.  1.
         23    2    1    2    0    0  0.14800193361E+03 -0.30292207078E+02  0.17993296298E+03  0.25185259835E+03  0.90728550984E+02 0.  0.
          5    1    1    2  502    0 -0.61966662541E+02  0.37203411641E+02 -0.38060457726E+02  0.81792615476E+02  0.41800000000E+01 0.  1.
         -5    1    1    2    0  502 -0.86035271071E+02 -0.69112045627E+01  0.82160091450E+02  0.11923751777E+03  0.41800000000E+01 0.  1.
        -11    1    3    3    0    0 -0.12702084609E+02 -0.33523482838E+01  0.10923619467E+02  0.17085275962E+02  0.00000000000E+00 0.  1.
         11    1    3    3    0    0  0.16070401822E+03 -0.26939858795E+02  0.16900934351E+03  0.23476732238E+03  0.00000000000E+00 0. -1.
</event>
<event>
 7    1  0.4096326E-006  0.9131076E+02  0.7561462E-02  0.1299708E+00
          2   -1    0    0  501    0  0.00000000000E+00  0.00000000000E+00  0.42305308857E+02  0.42305308857E+02  0.00000000000E+00 0. -1.
         -2   -1    0    0    0  501 -0.00000000000E+00 -0.00000000000E+00 -0.28629124725E+03  0.28629124725E+03  0.00000000000E+00 0.  1.
         23    2    1    2    0    0  0.16279781365E+02 -0.80884345965E+01 -0.11332323457E+03  0.14679796993E+03  0.91526140679E+02 0.  0.
          5    1    1    2  502    0 -0.21280932905E+02 -0.37662433890E+02 -0.12837172923E+03  0.13552900169E+03  0.41800000000E+01 0. -1.
         -5    1    1    2    0  502  0.50011515396E+01  0.45750868486E+02 -0.22909745884E+01  0.46269584486E+02  0.41800000000E+01 0. -1.
        -11    1    3    3    0    0  0.50001229878E+02 -0.24229873520E+02 -0.61288513170E+02  0.82725398800E+02  0.00000000000E+00 0. -1.
         11    1    3    3    0    0 -0.33721448513E+02  0.16141438924E+02 -0.52034721400E+02  0.64072571132E+02  0.00000000000E+00 0.  1.
</event>
<event>
 7    1  0.4096326E-006  0.2879550E+03  0.7561462E-02  0.1091422E+00
         -2   -1    0    0    0  501 -0.00000000000E+00  0.00000000000E+00  0.77229067005E+02  0.77229067005E+02  0.00000000000E+00 0.  1.
          2   -1    0    0  501    0  0.00000000000E+00 -0.00000000000E+00 -0.13086087945E+04  0.13086087945E+04  0.00000000000E+00 0. -1.
         23    2    1    2    0    0  0.86031032155E+02  0.26629815151E+03 -0.38078241618E+03  0.48169239727E+03  0.93360982863E+02 0.  0.
          5    1    1    2  502    0  0.52048706294E+01 -0.14163568339E+02 -0.40988920099E+01  0.16185507780E+02  0.41800000000E+01 0.  1.
         -5    1    1    2    0  502 -0.91235902785E+02 -0.25213458317E+03 -0.84649841929E+03  0.88795995645E+03  0.41800000000E+01 0.  1.
        -11    1    3    3    0    0  0.69185110591E+01  0.15704060860E+03 -0.23838579494E+03  0.28554755431E+03  0.00000000000E+00 0. -1.
         11    1    3    3    0    0  0.79112521096E+02  0.10925754291E+03 -0.14239662124E+03  0.19614484296E+03  0.00000000000E+00 0.  1.
</event>
<event>
 7    1  0.4096326E-006  0.1229507E+03  0.7561462E-02  0.1238307E+00
          2   -1    0    0  501    0  0.00000000000E+00  0.00000000000E+00  0.42578955640E+03  0.42578955640E+03  0.00000000000E+00 0. -1.
         -2   -1    0    0    0  501 -0.00000000000E+00 -0.00000000000E+00 -0.37533417448E+02  0.37533417448E+02  0.00000000000E+00 0.  1.
         23    2    1    2    0    0 -0.39492005045E+02  0.25995642264E+02  0.22128418027E+03  0.24940072131E+03  0.10487439857E+03 0.  0.
          5    1    1    2  502    0 -0.29327562289E+02 -0.52123443135E+02  0.72187653248E+02  0.93837566654E+02  0.41800000000E+01 0.  1.
         -5    1    1    2    0  502  0.68819567334E+02  0.26127800871E+02  0.94784305437E+02  0.12008468588E+03  0.41800000000E+01 0.  1.
        -11    1    3    3    0    0 -0.46158162111E+00  0.60270985537E+02  0.14583768138E+03  0.15780188233E+03  0.00000000000E+00 0.  1.
         11    1    3    3    0    0 -0.39030423424E+02 -0.34275343273E+02  0.75446498885E+02  0.91598838984E+02  0.00000000000E+00 0. -1.
</event>
<event>
 7    1  0.4096326E-006  0.8652251E+02  0.7561462E-02  0.1311498E+00
         -1   -1    0    0    0  501 -0.00000000000E+00  0.00000000000E+00  0.14381507848E+03  0.14381507848E+03  0.00000000000E+00 0.  1.
          1   -1    0    0  501    0  0.00000000000E+00 -0.00000000000E+00 -0.11435981237E+03  0.11435981237E+03  0.00000000000E+00 0. -1.
         23    2    1    2    0    0  0.39637693727E+02  0.57177541603E+01 -0.44193820009E+02  0.10758932479E+03  0.89546242833E+02 0.  0.
          5    1    1    2  502    0 -0.33249397453E+01  0.26027332049E+02  0.94285463857E+02  0.97957635397E+02  0.41800000000E+01 0. -1.
         -5    1    1    2    0  502 -0.36312753982E+02 -0.31745086209E+02 -0.20636377733E+02  0.52627930665E+02  0.41800000000E+01 0. -1.
        -11    1    3    3    0    0  0.53066544497E+02 -0.29257430424E+02 -0.25979995839E+02  0.65931900956E+02  0.00000000000E+00 0.  1.
         11    1    3    3    0    0 -0.13428850771E+02  0.34975184584E+02 -0.18213824169E+02  0.41657423835E+02  0.00000000000E+00 0. -1.
</event>
<event>
 7    1  0.4096326E-006  0.4336519E+03  0.7561462E-02  0.1032713E+00
          1   -1    0    0  501    0  0.00000000000E+00  0.00000000000E+00  0.16615839579E+03  0.16615839579E+03  0.00000000000E+00 0. -1.
         -1   -1    0    0    0  501 -0.00000000000E+00 -0.00000000000E+00 -0.11997198758E+04  0.11997198758E+04  0.00000000000E+00 0.  1.
         23    2    1    2    0    0 -0.42221779005E+03  0.19266523370E+02 -0.38191121029E+03  0.57915450050E+03  0.10452129808E+03 0.  0.
          5    1    1    2  502    0  0.19542179551E+03 -0.71101480626E+02 -0.31598382056E+03  0.37829663753E+03  0.41800000000E+01 0.  1.
         -5    1    1    2    0  502  0.22679599454E+03  0.51834957256E+02 -0.33566644917E+03  0.40842713356E+03  0.41800000000E+01 0.  1.
        -11    1    3    3    0    0 -0.93704498704E+02  0.28624583503E+02 -0.14085246886E+03  0.17157889684E+03  0.00000000000E+00 0.  1.
         11    1    3    3    0    0 -0.32851329134E+03 -0.93580601322E+01 -0.24105874143E+03  0.40757560366E+03  0.00000000000E+00 0. -1.
</event>
<event>
 7    1  0.4096326E-006  0.1884306E+03  0.7561462E-02  0.1159884E+00
         -1   -1    0    0    0  501 -0.00000000000E+00  0.00000000000E+00  0.65649657711E+02  0.65649657711E+02  0.00000000000E+00 0.  1.
          1   -1    0    0  501    0  0.00000000000E+00 -0.00000000000E+00 -0.59877301907E+03  0.59877301907E+03  0.00000000000E+00 0. -1.
         23    2    1    2    0    0  0.11467736210E+03  0.12115890699E+03 -0.24424746360E+03  0.30815527892E+03  0.86443474771E+02 0.  0.
          5    1    1    2  502    0 -0.12492464077E+03 -0.47024097703E+02 -0.18351516356E+03  0.22696413658E+03  0.41800000000E+01 0.  1.
         -5    1    1    2    0  502  0.10247278664E+02 -0.74134809287E+02 -0.10536073420E+03  0.12930326128E+03  0.41800000000E+01 0.  1.
        -11    1    3    3    0    0  0.24293238321E+02  0.40443895753E+02 -0.14190390708E+03  0.14954126179E+03  0.00000000000E+00 0. -1.
         11    1    3    3    0    0  0.90384123780E+02  0.80715011237E+02 -0.10234355652E+03  0.15861401713E+03  0.00000000000E+00 0.  1.
</event>
<event>
 7    1  0.4096326E-006  0.1303808E+03  0.7561462E-02  0.1226892E+00
          3   -1    0    0  501    0  0.00000000000E+00  0.00000000000E+00  0.37651266751E+03  0.37651266751E+03  0.00000000000E+00 0. -1.
         -3   -1    0    0    0  501 -0.00000000000E+00 -0.00000000000E+00 -0.84394868861E+02  0.84394868861E+02  0.00000000000E+00 0.  1.
         23    2    1    2    0    0 -0.44680789632E+02  0.91167504688E+02  0.26316359901E+03  0.29721902527E+03  0.93681280225E+02 0.  0.
          5    1    1    2  502    0 -0.36493579544E+01 -0.93268329639E+02  0.55171644950E+02  0.10850659857E+03  0.41800000000E+01 0. -1.
         -5    1    1    2    0  502  0.48330147586E+02  0.21008249508E+01 -0.26217445317E+02  0.55181912527E+02  0.41800000000E+01 0. -1.
        -11    1    3    3    0    0 -0.60369450397E+02  0.70268236632E+02  0.11952587282E+03  0.15122344360E+03  0.00000000000E+00 0.  1.
         11    1    3    3    0    0  0.15688660765E+02  0.20899268055E+02  0.14363772619E+03  0.14599558167E+03  0.00000000000E+00 0. -1.
</event>
<event>
 7    1  0.4096326E-006  0.2756196E+03  0.7561462E-02  0.1098106E+00
         -2   -1    0    0    0  501 -0.00000000000E+00  0.00000000000E+00  0.21259659572E+04  0.21259659572E+04  0.00000000000E+00 0.  1.
          2   -1    0    0  501    0  0.00000000000E+00 -0.00000000000E+00 -0.78896724617E+02  0.78896724617E+02  0.00000000000E+00 0. -1.
         23    2    1    2    0    0 -0.17264713531E+02 -0.13830560305E+02  0.15817659552E+03  0.17516359472E+03  0.71924229664E+02 0.  0.
          5    1    1    2  502    0  0.22271694359E+03  0.12533815891E+03  0.19958724005E+03  0.32429158150E+03  0.41800000000E+01 0. -1.
         -5    1    1    2    0  502 -0.20545223006E+03 -0.11150759861E+03  0.16893053970E+04  0.17054075056E+04  0.41800000000E+01 0.  1.
        -11    1    3    3    0    0 -0.35261732841E+02 -0.22538874154E+02  0.50221271235E+02  0.65372522787E+02  0.00000000000E+00 0. -1.
         11    1    3    3    0    0  0.17997019311E+02  0.87083138496E+01  0.10795532429E+03  0.10979107194E+03  0.00000000000E+00 0.  1.
</event>
<event>
 7    1  0.4096326E-006  0.1299033E+03  0.7561462E-02  0.1227599E+00
         -2   -1    0    0    0  501 -0.00000000000E+00  0.00000000000E+00  0.40650911627E+02  0.40650911627E+02  0.00000000000E+00 0.  1.
          2   -1    0    0  501    0  0.00000000000E+00 -0.00000000000E+00 -0.47426673410E+03  0.47426673410E+03  0.00000000000E+00 0. -1.
         23    2    1    2    0    0  0.51803869720E+02 -0.21643721491E+02 -0.27182392515E+03  0.30280523489E+03  0.12103996197E+03 0.  0.
          5    1    1    2  502    0 -0.57251367883E+02 -0.37988585629E+02 -0.49506289683E+02  0.84789131855E+02  0.41800000000E+01 0.  1.
         -5    1    1    2    0  502  0.54474981637E+01  0.59632307120E+02 -0.11228560764E+03  0.12732327899E+03  0.41800000000E+01 0.  1.
        -11    1    3    3    0    0  0.83434234418E+02  0.12540951006E+02 -0.14582044629E+03  0.16847002547E+03  0.00000000000E+00 0.  1.
         11    1    3    3    0    0 -0.31630364698E+02 -0.34184672496E+02 -0.12600347886E+03  0.13433520942E+03  0.00000000000E+00 0. -1.
</event>
<event>
 7    1  0.4096326E-006  0.1617523E+03  0.7561462E-02  0.1186733E+00
         -2   -1    0    0    0  501 -0.00000000000E+00  0.00000000000E+00  0.84321647539E+02  0.84321647539E+02  0.00000000000E+00 0. -1.
          2   -1    0    0  501    0  0.00000000000E+00 -0.00000000000E+00 -0.38753994556E+03  0.38753994556E+03  0.00000000000E+00 0.  1.
         23    2    1    2    0    0  0.26503005213E+02 -0.13761249650E+03 -0.18560481090E+03  0.25023127980E+03  0.92341426696E+02 0.  0.
          5    1    1    2  502    0 -0.24901677349E+02 -0.14823389841E+02 -0.42563730705E+02  0.51662074994E+02  0.41800000000E+01 0.  1.
         -5    1    1    2    0  502 -0.16013278640E+01  0.15243588634E+03 -0.75049756420E+02  0.16996823831E+03  0.41800000000E+01 0.  1.
        -11    1    3    3    0    0  0.95607824415E+01 -0.10018023210E+03 -0.18326376491E+03  0.20907676819E+03  0.00000000000E+00 0.  1.
         11    1    3    3    0    0  0.16942222772E+02 -0.37432264393E+02 -0.23410459884E+01  0.41154511616E+02  0.00000000000E+00 0. -1.
</event>
<event>
 7    1  0.4096326E-006  0.2449129E+03  0.7561462E-02  0.1116563E+00
          2   -1    0    0  501    0  0.00000000000E+00  0.00000000000E+00  0.69367731905E+03  0.69367731905E+03  0.00000000000E+00 0. -1.
         -2   -1    0    0    0  501 -0.00000000000E+00 -0.00000000000E+00 -0.98667889049E+02  0.98667889049E+02  0.00000000000E+00 0.  1.
         23    2    1    2    0    0 -0.81654123508E+02  0.21876630463E+03  0.35860240009E+03  0.43729237331E+03  0.90015812347E+02 0.  0.
          5    1    1    2  502    0  0.51882217019E+02 -0.24256834393E+02  0.16113441854E+02  0.59642886131E+02  0.41800000000E+01 0. -1.
         -5    1    1    2    0  502  0.29771906489E+02 -0.19450947024E+03  0.22029358806E+03  0.29540994866E+03  0.41800000000E+01 0. -1.
        -11    1    3    3    0    0 -0.52333791403E+02  0.17683218605E+03  0.33161676658E+03  0.37944449874E+03  0.00000000000E+00 0.  1.
         11    1    3    3    0    0 -0.29320332105E+02  0.41934118580E+02  0.26985633509E+02  0.57847874565E+02  0.00000000000E+00 0. -1.
</event>
<event>
 7    1  0.4096326E-006  0.1107589E+03  0.7561462E-02  0.1259171E+00
         -2   -1    0    0    0  501 -0.00000000000E+00  0.00000000000E+00  0.49313474274E+02  0.49313474274E+02  0.00000000000E+00 0.  1.
          2   -1    0    0  501    0  0.00000000000E+00 -0.00000000000E+00 -0.58370114120E+03  0.58370114120E+03  0.00000000000E+00 0. -1.
         23    2    1    2    0    0 -0.67164623702E+02 -0.85764294413E+01 -0.38980278254E+03  0.40582088901E+03  0.90331295001E+02 0.  0.
          5    1    1    2  502    0 -0.16197730278E+02 -0.14380905280E+02 -0.13868244945E+03  0.14042603423E+03  0.41800000000E+01 0. -1.
         -5    1    1    2    0  502  0.83362353980E+02  0.22957334722E+02 -0.59024349320E+01  0.86767692240E+02  0.41800000000E+01 0.  1.
        -11    1    3    3    0    0 -0.63331031311E+02 -0.44092562497E+02 -0.26617764627E+03  0.27713807564E+03  0.00000000000E+00 0. -1.
         11    1    3    3    0    0 -0.38335923908E+01  0.35516133055E+02 -0.12362513627E+03  0.12868281337E+03  0.00000000000E+00 0.  1.
</event>
<event>
 7    1  0.4096326E-006  0.9700939E+02  0.7561462E-02  0.1286713E+00
         -2   -1    0    0    0  501 -0.00000000000E+00  0.00000000000E+00  0.15113596559E+03  0.15113596559E+03  0.00000000000E+00 0.  1.
          2   -1    0    0  501    0  0.00000000000E+00 -0.00000000000E+00 -0.88056205146E+02  0.88056205146E+02  0.00000000000E+00 0. -1.
         23    2    1    2    0    0  0.16238965032E+02 -0.25280145903E+02 -0.13518983286E+01  0.95316766012E+02  0.90447047999E+02 0.  0.
          5    1    1    2  502    0 -0.63064584867E+02 -0.16336536900E+02  0.39634958399E+02  0.76370325583E+02  0.41800000000E+01 0.  1.
         -5    1    1    2    0  502  0.46825619835E+02  0.41616682803E+02  0.24796700374E+02  0.67505079141E+02  0.41800000000E+01 0.  1.
        -11    1    3    3    0    0  0.19558736621E+02  0.15550623808E+02  0.33319879499E+02  0.41648294669E+02  0.00000000000E+00 0.  1.
         11    1    3    3    0    0 -0.33197715884E+01 -0.40830769711E+02 -0.34671777827E+02  0.53668471343E+02  0.00000000000E+00 0. -1.
</event>
<event>
 7    1  0.4096326E-006  0.1140890E+03  0.7561462E-02  0.1253180E+00
          1   -1    0    0  501    0  0.00000000000E+00  0.00000000000E+00  0.82544837307E+02  0.82544837307E+02  0.00000000000E+00 0. -1.
         -1   -1    0    0    0  501 -0.00000000000E+00 -0.00000000000E+00 -0.21215634369E+03  0.21215634369E+03  0.00000000000E+00 0.  1.
         23    2    1    2    0    0 -0.29662538951E+00 -0.65410134700E+02 -0.14947776881E+02  0.11284048082E+03  0.90724662411E+02 0.  0.
          5    1    1    2  502    0  0.40448106051E+02  0.81205506511E+02 -0.49040169920E+02  0.10321237444E+03  0.41800000000E+01 0.  1.
         -5    1    1    2    0  502 -0.40151480662E+02 -0.15795371811E+02 -0.65623559584E+02  0.78648325745E+02  0.41800000000E+01 0.  1.
        -11    1    3    3    0    0  0.32945626053E+02 -0.23254037089E+02  0.23622823571E+02  0.46735450254E+02  0.00000000000E+00 0. -1.
         11    1    3    3    0    0 -0.33242251443E+02 -0.42156097611E+02 -0.38570600452E+02  0.66105030565E+02  0.00000000000E+00 0.  1.
</event>
<event>
 7    1  0.4096326E-006  0.1443524E+03  0.7561462E-02  0.1207590E+00
         -1   -1    0    0    0  501 -0.00000000000E+00  0.00000000000E+00  0.59971276540E+02  0.59971276540E+02  0.00000000000E+00 0.  1.
          1   -1    0    0  501    0  0.00000000000E+00 -0.00000000000E+00 -0.52099518094E+03  0.52099518094E+03  0.00000000000E+00 0. -1.
         23    2    1    2    0    0  0.56331344721E+01 -0.13643009787E+03 -0.26225319689E+03  0.30930011756E+03  0.90801539812E+02 0.  0.
          5    1    1    2  502    0  0.28979568336E+02  0.44275754432E+02 -0.38041368611E+01  0.53217494010E+02  0.41800000000E+01 0.  1.
         -5    1    1    2    0  502 -0.34612702808E+02  0.92154343441E+02 -0.19496657065E+03  0.21844884591E+03  0.41800000000E+01 0.  1.
        -11    1    3    3    0    0 -0.38837558180E+01 -0.33047660862E+02 -0.16056393431E+03  0.16397563370E+03  0.00000000000E+00 0. -1.
         11    1    3    3    0    0  0.95168902902E+01 -0.10338243701E+03 -0.10168926258E+03  0.14532448385E+03  0.00000000000E+00 0.  1.
</event>
<event>
 7    1  0.4096326E-006  0.2474184E+03  0.7561462E-02  0.1114947E+00
         -2   -1    0    0    0  501 -0.00000000000E+00  0.00000000000E+00  0.66093220186E+02  0.66093220186E+02  0.00000000000E+00 0.  1.
          2   -1    0    0  501    0  0.00000000000E+00 -0.00000000000E+00 -0.10714925244E+04  0.10714925244E+04  0.00000000000E+00 0. -1.
         23    2    1    2    0    0 -0.23267139572E+03 -0.42107782618E+02 -0.60651674430E+03  0.65731078496E+03  0.91026716762E+02 0.  0.
          5    1    1    2  502    0  0.10121523097E+03  0.46125520242E+02 -0.28603311609E+03  0.30692751994E+03  0.41800000000E+01 0. -1.
         -5    1    1    2    0  502  0.13145616475E+03 -0.40177376245E+01 -0.11284944377E+03  0.17334743963E+03  0.41800000000E+01 0. -1.
        -11    1    3    3    0    0 -0.21127153429E+03 -0.64571771679E+02 -0.55229279448E+03  0.59483821812E+03  0.00000000000E+00 0. -1.
         11    1    3    3    0    0 -0.21399861431E+02  0.22463989061E+02 -0.54223949826E+02  0.62472566848E+02  0.00000000000E+00 0.  1.
</event>
<event>
 7    1  0.4096326E-006  0.2376350E+03  0.7561462E-02  0.1121378E+00
         -2   -1    0    0    0  501 -0.00000000000E+00  0.00000000000E+00  0.62814954585E+02  0.62814954585E+02  0.00000000000E+00 0.  1.
          2   -1    0    0  501    0  0.00000000000E+00 -0.00000000000E+00 -0.10532787335E+04  0.10532787335E+04  0.00000000000E+00 0. -1.
         23    2    1    2    0    0  0.23071530663E+03  0.60667347405E+01 -0.54709795339E+03  0.60083895272E+03  0.91787354881E+02 0.  0.
          5    1    1    2  502    0 -0.16743783337E+03 -0.38048290010E+02 -0.20985669639E+03  0.27118334358E+03  0.41800000000E+01 0.  1.
         -5    1    1    2    0  502 -0.63277473266E+02  0.31981555270E+02 -0.23350912915E+03  0.24407139180E+03  0.41800000000E+01 0.  1.
        -11    1    3    3    0    0  0.74465684498E+02  0.15090270741E+02 -0.90519994927E+02  0.11818089490E+03  0.00000000000E+00 0.  1.
         11    1    3    3    0    0  0.15624962213E+03 -0.90235360007E+01 -0.45657795847E+03  0.48265805782E+03  0.00000000000E+00 0. -1.
</event>
<event>
 7    1  0.4096326E-006  0.5583847E+02  0.7561462E-02  0.1416175E+00
          2   -1    0    0  501    0  0.00000000000E+00  0.00000000000E+00  0.11449576579E+03  0.11449576579E+03  0.00000000000E+00 0.  1.
         -2   -1    0    0    0  501 -0.00000000000E+00 -0.00000000000E+00 -0.11496888991E+03  0.11496888991E+03  0.00000000000E+00 0. -1.
         23    2    1    2    0    0 -0.28045864487E+02 -0.32795846220E+02  0.67066603370E+01  0.96948339831E+02  0.86555550133E+02 0.  0.
          5    1    1    2  502    0  0.20529594643E+02 -0.54020485391E+01  0.54962451266E+02  0.59067671647E+02  0.41800000000E+01 0.  1.
         -5    1    1    2    0  502  0.75162698439E+01  0.38197894759E+02 -0.62142235731E+02  0.73448644222E+02  0.41800000000E+01 0.  1.
        -11    1    3    3    0    0 -0.45178568776E+01 -0.26010389791E+02  0.44602323875E+02  0.51829708690E+02  0.00000000000E+00 0.  1.
         11    1    3    3    0    0 -0.23528007609E+02 -0.67854564294E+01 -0.37895663538E+02  0.45118631141E+02  0.00000000000E+00 0. -1.
</event>
<event>
 7    1  0.4096326E-006  0.5046850E+02  0.7561462E-02  0.1442831E+00
         -2   -1    0    0    0  501 -0.00000000000E+00  0.00000000000E+00  0.42469218392E+03  0.42469218392E+03  0.00000000000E+00 0.  1.
          2   -1    0    0  501    0  0.00000000000E+00 -0.00000000000E+00 -0.18496110796E+03  0.18496110796E+03  0.00000000000E+00 0. -1.
         23    2    1    2    0    0 -0.15671309657E+02  0.27645075919E+01 -0.16076643236E+03  0.18535172752E+03  0.90863549737E+02 0.  0.
          5    1    1    2  502    0  0.30975434509E+01  0.37681903611E+00 -0.11212474280E+02  0.12366436330E+02  0.41800000000E+01 0. -1.
         -5    1    1    2    0  502  0.12573766206E+02 -0.31413266280E+01  0.41170998261E+03  0.41193512803E+03  0.41800000000E+01 0.  1.
        -11    1    3    3    0    0 -0.38304320382E+02 -0.25408158988E+02 -0.45996175965E+02  0.65026484654E+02  0.00000000000E+00 0.  1.
         11    1    3    3    0    0  0.22633010726E+02  0.28172666580E+02 -0.11477025640E+03  0.12032524286E+03  0.00000000000E+00 0. -1.
</event>
<event>
 7    1  0.4096326E-006  0.1738872E+03  0.7561462E-02  0.1173854E+00
          2   -1    0    0  501    0  0.00000000000E+00  0.00000000000E+00  0.89516939128E+03  0.89516939128E+03  0.00000000000E+00 0. -1.
         -2   -1    0    0    0  501 -0.00000000000E+00 -0.00000000000E+00 -0.39957560180E+02  0.39957560180E+02  0.00000000000E+00 0.  1.
         23    2    1    2    0    0 -0.11555190542E+03 -0.98474733623E+02  0.47630503441E+03  0.50819662051E+03  0.91366313701E+02 0.  0.
          5    1    1    2  502    0  0.91978612363E+01  0.61074500734E+02  0.24065736359E+03  0.24849171886E+03  0.41800000000E+01 0.  1.
         -5    1    1    2    0  502  0.10635404419E+03  0.37400232890E+02  0.13824943310E+03  0.17843861210E+03  0.41800000000E+01 0.  1.
        -11    1    3    3    0    0 -0.10801802153E+03 -0.11322822749E+03  0.45531876677E+03  0.48145997118E+03  0.00000000000E+00 0. -1.
         11    1    3    3    0    0 -0.75338838958E+01  0.14753493863E+02  0.20986267639E+02  0.26736649325E+02  0.00000000000E+00 0.  1.
</event>
<event>
 7    1  0.4096326E-006  0.1041885E+03  0.7561462E-02  0.1271727E+00
         -1   -1    0    0    0  501 -0.00000000000E+00  0.00000000000E+00  0.13056141127E+02  0.13056141127E+02  0.00000000000E+00 0.  1.
          1   -1    0    0  501    0  0.00000000000E+00 -0.00000000000E+00 -0.88412782619E+03  0.88412782619E+03  0.00000000000E+00 0. -1.
         23    2    1    2    0    0 -0.20282299750E+02 -0.37948512667E+02 -0.41050584772E+03  0.42143729682E+03  0.85105128192E+02 0.  0.
          5    1    1    2  502    0  0.57377526410E+02 -0.36591215955E+01 -0.30601934059E+03  0.31140147547E+03  0.41800000000E+01 0. -1.
         -5    1    1    2    0  502 -0.37095226660E+02  0.41607634263E+02 -0.15454649675E+03  0.16434519502E+03  0.41800000000E+01 0.  1.
        -11    1    3    3    0    0 -0.12611625262E+02 -0.65258069315E+02 -0.26641364198E+03  0.27457949184E+03  0.00000000000E+00 0.  1.
         11    1    3    3    0    0 -0.76706744879E+01  0.27309556648E+02 -0.14409220573E+03  0.14685780498E+03  0.00000000000E+00 0. -1.
</event>
<event>
 7    1  0.4096326E-006  0.1277726E+03  0.7561462E-02  0.1230799E+00
          1   -1    0    0  501    0  0.00000000000E+00  0.00000000000E+00  0.28657129131E+03  0.28657129131E+03  0.00000000000E+00 0. -1.
         -1   -1    0    0    0  501 -0.00000000000E+00 -0.00000000000E+00 -0.70829123496E+02  0.70829123496E+02  0.00000000000E+00 0.  1.
         23    2    1    2    0    0 -0.18476132696E+02 -0.86927750240E+02  0.13627568440E+03  0.18459892628E+03  0.87223277752E+02 0.  0.
          5    1    1    2  502    0  0.26182383780E+02  0.11542340536E+03  0.43691154270E+02  0.12623180696E+03  0.41800000000E+01 0.  1.
         -5    1    1    2    0  502 -0.77062510840E+01 -0.28495655124E+02  0.35775329142E+02  0.46569681574E+02  0.41800000000E+01 0.  1.
        -11    1    3    3    0    0  0.13609435323E+02 -0.69437878211E+02  0.12930161051E+03  0.14739654725E+03  0.00000000000E+00 0. -1.
         11    1    3    3    0    0 -0.32085568019E+02 -0.17489872028E+02  0.69740738931E+01  0.37202379028E+02  0.00000000000E+00 0.  1.
</event>
<event>
 7    1  0.4096326E-006  0.1604515E+03  0.7561462E-02  0.1188188E+00
         -2   -1    0    0    0  501 -0.00000000000E+00  0.00000000000E+00  0.84435775978E+02  0.84435775978E+02  0.00000000000E+00 0.  1.
          2   -1    0    0  501    0  0.00000000000E+00 -0.00000000000E+00 -0.77079357843E+03  0.77079357843E+03  0.00000000000E+00 0. -1.
         23    2    1    2    0    0 -0.12180803136E+03 -0.83677894743E+02 -0.62999564550E+03  0.65357585057E+03  0.91802464742E+02 0.  0.
          5    1    1    2  502    0  0.70070403889E+02 -0.24128978386E+01 -0.71227265374E+02  0.10003239130E+03  0.41800000000E+01 0.  1.
         -5    1    1    2    0  502  0.51737627475E+02  0.86090792582E+02  0.14865108419E+02  0.10162111253E+03  0.41800000000E+01 0.  1.
        -11    1    3    3    0    0 -0.45209278207E+02 -0.46990578437E+02 -0.12014570029E+03  0.13670033868E+03  0.00000000000E+00 0.  1.
         11    1    3    3    0    0 -0.76598753157E+02 -0.36687316306E+02 -0.50984994521E+03  0.51687551189E+03  0.00000000000E+00 0. -1.
</event>
<event>
 7    1  0.4096326E-006  0.1206654E+03  0.7561462E-02  0.1242003E+00
         -1   -1    0    0    0  501 -0.00000000000E+00  0.00000000000E+00  0.23858183736E+02  0.23858183736E+02  0.00000000000E+00 0.  1.
          1   -1    0    0  501    0  0.00000000000E+00 -0.00000000000E+00 -0.83000113230E+03  0.83000113230E+03  0.00000000000E+00 0. -1.
         23    2    1    2    0    0 -0.24754416854E+02  0.75964844787E+02 -0.46253004083E+03  0.47955970566E+03  0.98285471064E+02 0.  0.
          5    1    1    2  502    0 -0.30120848444E+02 -0.15840567077E+02 -0.24015668155E+03  0.24259203031E+03  0.41800000000E+01 0. -1.
         -5    1    1    2    0  502  0.54875265298E+02 -0.60124277710E+02 -0.10345622619E+03  0.13170758007E+03  0.41800000000E+01 0. -1.
        -11    1    3    3    0    0  0.23001180621E+02  0.74267965423E+02 -0.25444881381E+03  0.26606199249E+03  0.00000000000E+00 0.  1.
         11    1    3    3    0    0 -0.47755597475E+02  0.16968793642E+01 -0.20808122702E+03  0.21349771317E+03  0.00000000000E+00 0. -1.
</event>
<event>
 7    1  0.4096326E-006  0.1134266E+03  0.7561462E-02  0.1254353E+00
          2   -1    0    0  501    0  0.00000000000E+00  0.00000000000E+00  0.57835440789E+03  0.57835440789E+03  0.00000000000E+00 0. -1.
         -2   -1    0    0    0  501 -0.00000000000E+00 -0.00000000000E+00 -0.28034446564E+02  0.28034446564E+02  0.00000000000E+00 0.  1.
         23    2    1    2    0    0 -0.57353061708E+02 -0.25260955878E+02  0.29135826146E+03  0.31204591404E+03  0.92496088393E+02 0.  0.
          5    1    1    2  502    0  0.11145924056E+02 -0.45442622557E+02  0.14508062881E+03  0.15249631085E+03  0.41800000000E+01 0.  1.
         -5    1    1    2    0  502  0.46207137652E+02  0.70703578435E+02  0.11388107106E+03  0.14184662956E+03  0.41800000000E+01 0.  1.
        -11    1    3    3    0    0  0.13501787809E+02  0.93805339494E+01  0.87206125283E+01  0.18610259914E+02  0.00000000000E+00 0.  1.
         11    1    3    3    0    0 -0.70854849517E+02 -0.34641489828E+02  0.28263764894E+03  0.29343565413E+03  0.00000000000E+00 0. -1.
</event>
<event>
 7    1  0.4096326E-006  0.8967745E+02  0.7561462E-02  0.1303635E+00
          1   -1    0    0  501    0  0.00000000000E+00  0.00000000000E+00  0.10339838807E+02  0.10339838807E+02  0.00000000000E+00 0. -1.
         -1   -1    0    0    0  501 -0.00000000000E+00 -0.00000000000E+00 -0.13485913127E+04  0.13485913127E+04  0.00000000000E+00 0.  1.
         23    2    1    2    0    0 -0.53815690903E+01 -0.37495340377E+02 -0.41967469423E+03  0.43110273492E+03  0.91037669360E+02 0.  0.
          5    1    1    2  502    0  0.32578919819E+02 -0.72020691929E+01 -0.76094270175E+03  0.76168531794E+03  0.41800000000E+01 0. -1.
         -5    1    1    2    0  502 -0.27197350729E+02  0.44697409570E+02 -0.15763407790E+03  0.16614309864E+03  0.41800000000E+01 0. -1.
        -11    1    3    3    0    0 -0.17334038046E+02 -0.62856954079E+02 -0.34957880288E+03  0.35560765596E+03  0.00000000000E+00 0.  1.
         11    1    3    3    0    0  0.11952468956E+02  0.25361613701E+02 -0.70095891345E+02  0.75495078960E+02  0.00000000000E+00 0. -1.
</event>
<event>
 7    1  0.4096326E-006  0.1031727E+03  0.7561462E-02  0.1273762E+00
         -1   -1    0    0    0  501 -0.00000000000E+00  0.00000000000E+00  0.70764913096E+02  0.70764913096E+02  0.00000000000E+00 0.  1.
          1   -1    0    0  501    0  0.00000000000E+00 -0.00000000000E+00 -0.17173231184E+03  0.17173231184E+03  0.00000000000E+00 0. -1.
         23    2    1    2    0    0  0.17752812243E+02  0.61991070160E+00 -0.44553886263E+02  0.10412918625E+03  0.92424520638E+02 0.  0.
          5    1    1    2  502    0 -0.36257137565E+02  0.52375417797E+02 -0.51210228909E+02  0.81839625846E+02  0.41800000000E+01 0. -1.
         -5    1    1    2    0  502  0.18504325323E+02 -0.52995328498E+02 -0.52032835680E+01  0.56528412840E+02  0.41800000000E+01 0. -1.
        -11    1    3    3    0    0  0.51984301944E+02  0.13553296989E+00 -0.46626836111E+02  0.69831567815E+02  0.00000000000E+00 0. -1.
         11    1    3    3    0    0 -0.34231489701E+02  0.48437773171E+00  0.20729498481E+01  0.34297618431E+02  0.00000000000E+00 0.  1.
</event>
<event>
 7    1  0.4096326E-006  0.1272067E+03  0.7561462E-02  0.1231660E+00
          1   -1    0    0  501    0  0.00000000000E+00  0.00000000000E+00  0.26991450404E+03  0.26991450404E+03  0.00000000000E+00 0. -1.
         -1   -1    0    0    0  501 -0.00000000000E+00 -0.00000000000E+00 -0.66406113376E+02  0.66406113376E+02  0.00000000000E+00 0.  1.
         23    2    1    2    0    0 -0.59475065176E+02  0.32705285513E+02  0.14164841955E+03  0.18170969430E+03  0.91363117079E+02 0.  0.
          5    1    1    2  502    0  0.17190370388E+02  0.47513996912E+02  0.18083932227E+02  0.53829264730E+02  0.41800000000E+01 0.  1.
         -5    1    1    2    0  502  0.42284694788E+02 -0.80219282425E+02  0.43776038878E+02  0.10078165838E+03  0.41800000000E+01 0.  1.
        -11    1    3    3    0    0 -0.77800893276E+00  0.51343855002E+02  0.75742835789E+02  0.91508327040E+02  0.00000000000E+00 0. -1.
         11    1    3    3    0    0 -0.58697056243E+02 -0.18638569488E+02  0.65905583765E+02  0.90201367261E+02  0.00000000000E+00 0.  1.
</event>
<event>
 7    1  0.4096326E-006  0.1815951E+03  0.7561462E-02  0.1166268E+00
          3   -1    0    0  501    0  0.00000000000E+00  0.00000000000E+00  0.12826337313E+03  0.12826337313E+03  0.00000000000E+00 0. -1.
         -3   -1    0    0    0  501 -0.00000000000E+00 -0.00000000000E+00 -0.33223555454E+03  0.33223555454E+03  0.00000000000E+00 0.  1.
         23    2    1    2    0    0 -0.10026660715E+03 -0.13807146430E+03 -0.11971582775E+03  0.22856178045E+03  0.93762926049E+02 0.  0.
          5    1    1    2  502    0  0.90723532346E+02  0.49919988403E+02  0.79604710949E+01  0.10394039669E+03  0.41800000000E+01 0. -1.
         -5    1    1    2    0  502  0.95430748083E+01  0.88151475901E+02 -0.92216824751E+02  0.12799675054E+03  0.41800000000E+01 0.  1.
        -11    1    3    3    0    0 -0.25060218919E+02 -0.40002912489E+02 -0.89732032516E+02  0.10139075520E+03  0.00000000000E+00 0.  1.
         11    1    3    3    0    0 -0.75206388235E+02 -0.98068551815E+02 -0.29983795238E+02  0.12717102525E+03  0.00000000000E+00 0. -1.
</event>
<event>
 7    1  0.4096326E-006  0.1970473E+03  0.7561462E-02  0.1152254E+00
         -1   -1    0    0    0  501 -0.00000000000E+00  0.00000000000E+00  0.38075991612E+03  0.38075991612E+03  0.00000000000E+00 0.  1.
          1   -1    0    0  501    0  0.00000000000E+00 -0.00000000000E+00 -0.21295651644E+03  0.21295651644E+03  0.00000000000E+00 0. -1.
         23    2    1    2    0    0  0.16066510669E+03 -0.10528983926E+03 -0.10499096253E+03  0.23739817467E+03  0.91845328490E+02 0.  0.
          5    1    1    2  502    0 -0.85204434224E+02  0.60005871652E+02  0.24108973192E+03  0.26268275825E+03  0.41800000000E+01 0. -1.
         -5    1    1    2    0  502 -0.75460672466E+02  0.45283967607E+02  0.31704630301E+02  0.93635499645E+02  0.41800000000E+01 0. -1.
        -11    1    3    3    0    0  0.13123425595E+02 -0.36721161441E+02  0.73528068591E+01  0.39682890087E+02  0.00000000000E+00 0.  1.
         11    1    3    3    0    0  0.14754168109E+03 -0.68568677817E+02 -0.11234376939E+03  0.19771528458E+03  0.00000000000E+00 0. -1.
</event>
<event>
 7    1  0.4096326E-006  0.5861951E+02  0.7561462E-02  0.1403718E+00
         -1   -1    0    0    0  501 -0.00000000000E+00  0.00000000000E+00  0.31533643587E+03  0.31533643587E+03  0.00000000000E+00 0.  1.
          1   -1    0    0  501    0  0.00000000000E+00 -0.00000000000E+00 -0.41046675543E+02  0.41046675543E+02  0.00000000000E+00 0. -1.
         23    2    1    2    0    0  0.20810037183E+02  0.78774499404E+01  0.79074616403E+02  0.12346420622E+03  0.92171055076E+02 0.  0.
          5    1    1    2  502    0 -0.38438102828E+02 -0.13500108029E+02  0.44296066424E+01  0.41192650811E+02  0.41800000000E+01 0.  1.
         -5    1    1    2    0  502  0.17628065645E+02  0.56226580881E+01  0.19078553728E+03  0.19172625438E+03  0.41800000000E+01 0.  1.
        -11    1    3    3    0    0  0.35507881920E+02  0.17663076258E+02  0.92917753027E+02  0.10102723776E+03  0.00000000000E+00 0.  1.
         11    1    3    3    0    0 -0.14697844737E+02 -0.97856263172E+01 -0.13843136624E+02  0.22436968465E+02  0.00000000000E+00 0. -1.
</event>
<event>
 7    1  0.4096326E-006  0.1102148E+03  0.7561462E-02  0.1260173E+00
         -3   -1    0    0    0  501 -0.00000000000E+00  0.00000000000E+00  0.78827032984E+03  0.78827032984E+03  0.00000000000E+00 0.  1.
          3   -1    0    0  501    0  0.00000000000E+00 -0.00000000000E+00 -0.20330447807E+02  0.20330447807E+02  0.00000000000E+00 0. -1.
         23    2    1    2    0    0 -0.20289563234E+02 -0.58273514176E+02  0.26253237972E+03  0.28429985980E+03  0.89976058208E+02 0.  0.
          5    1    1    2  502    0 -0.36164445513E+02  0.33739925105E+02  0.77934603721E+02  0.92398725762E+02  0.41800000000E+01 0. -1.
         -5    1    1    2    0  502  0.56454008748E+02  0.24533589071E+02  0.42747289859E+03  0.43190219209E+03  0.41800000000E+01 0. -1.
        -11    1    3    3    0    0  0.19237387847E+02  0.15960264377E+02  0.61195902193E+02  0.66104051127E+02  0.00000000000E+00 0.  1.
         11    1    3    3    0    0 -0.39526951082E+02 -0.74233778552E+02  0.20133647752E+03  0.21819580867E+03  0.00000000000E+00 0. -1.
</event>
<event>
 7    1  0.4096326E-006  0.1878624E+03  0.7561462E-02  0.1160404E+00
          1   -1    0    0  501    0  0.00000000000E+00  0.00000000000E+00  0.75131233903E+03  0.75131233903E+03  0.00000000000E+00 0. -1.
         -1   -1    0    0    0  501 -0.00000000000E+00 -0.00000000000E+00 -0.62713031452E+02  0.62713031452E+02  0.00000000000E+00 0.  1.
         23    2    1    2    0    0 -0.12656447026E+03  0.96551911276E+02  0.52665499944E+03  0.55762846290E+03  0.90791946241E+02 0.  0.
          5    1    1    2  502    0  0.10311239485E+02  0.24734586887E+02  0.74701356477E+01  0.28131775180E+02  0.41800000000E+01 0. -1.
         -5    1    1    2    0  502  0.11625323077E+03 -0.12128649816E+03  0.15447417249E+03  0.22826513240E+03  0.41800000000E+01 0.  1.
        -11    1    3    3    0    0  0.80928979026E+01  0.28586649729E+02  0.55992193544E+02  0.63386254638E+02  0.00000000000E+00 0.  1.
         11    1    3    3    0    0 -0.13465736816E+03  0.67965261548E+02  0.47066280589E+03  0.49424220826E+03  0.00000000000E+00 0. -1.
</event>
<event>
 7    1  0.4096326E-006  0.1092215E+03  0.7561462E-02  0.1262018E+00
         -3   -1    0    0    0  501 -0.00000000000E+00  0.00000000000E+00  0.15382764979E+03  0.15382764979E+03  0.00000000000E+00 0.  1.
          3   -1    0    0  501    0  0.00000000000E+00 -0.00000000000E+00 -0.94823291950E+02  0.94823291950E+02  0.00000000000E+00 0. -1.
         23    2    1    2    0    0  0.17932155020E+02 -0.46853616695E+02  0.77443092575E+01  0.10446104978E+03  0.91297935432E+02 0.  0.
          5    1    1    2  502    0 -0.42185603080E+02  0.70008222003E+02 -0.11265121381E+01  0.81850581457E+02  0.41800000000E+01 0.  1.
         -5    1    1    2    0  502  0.24253448060E+02 -0.23154605308E+02  0.52386560720E+02  0.62339310502E+02  0.41800000000E+01 0.  1.
        -11    1    3    3    0    0  0.98648776018E+01 -0.73915235005E+02  0.13118448545E+02  0.75715728011E+02  0.00000000000E+00 0. -1.
         11    1    3    3    0    0  0.80672774186E+01  0.27061618310E+02 -0.53741392878E+01  0.28745321769E+02  0.00000000000E+00 0.  1.
</event>
<event>
 7    1  0.4315344E-006  0.1711089E+03  0.7561462E-02  0.1176696E+00
         -1   -1    0    0    0  501 -0.00000000000E+00  0.00000000000E+00  0.42300266706E+02  0.42300266706E+02  0.00000000000E+00 0.  1.
          1   -1    0    0  501    0  0.00000000000E+00 -0.00000000000E+00 -0.81902756009E+03  0.81902756009E+03  0.00000000000E+00 0. -1.
         23    2    1    2    0    0  0.60437990187E+02 -0.13524303204E+03 -0.42162663528E+03  0.45674436996E+03  0.94355559129E+02 0.  0.
          5    1    1    2  502    0 -0.21086257503E+02  0.15000905073E+03 -0.27209103344E+03  0.31144557861E+03  0.41800000000E+01 0. -1.
         -5    1    1    2    0  502 -0.39351732684E+02 -0.14766018692E+02 -0.83009624665E+02  0.93137878225E+02  0.41800000000E+01 0. -1.
        -11    1    3    3    0    0  0.32136874644E+02 -0.83325062502E+02 -0.36167649925E+03  0.37253957489E+03  0.00000000000E+00 0. -1.
         11    1    3    3    0    0  0.28301115543E+02 -0.51917969540E+02 -0.59950136035E+02  0.84204795070E+02  0.00000000000E+00 0.  1.
</event>
<event>
 7    1  0.4096326E-006  0.1025825E+03  0.7561462E-02  0.1274957E+00
         -2   -1    0    0    0  501 -0.00000000000E+00  0.00000000000E+00  0.56286391784E+02  0.56286391784E+02  0.00000000000E+00 0. -1.
          2   -1    0    0  501    0  0.00000000000E+00 -0.00000000000E+00 -0.46975334582E+03  0.46975334582E+03  0.00000000000E+00 0.  1.
         23    2    1    2    0    0 -0.80616875451E+01 -0.70532985812E+02 -0.35048384182E+03  0.36903247303E+03  0.91138081393E+02 0.  0.
          5    1    1    2  502    0 -0.33024510610E+02  0.26191069404E+02  0.25741614894E+02  0.49565043680E+02  0.41800000000E+01 0.  1.
         -5    1    1    2    0  502  0.41086198155E+02  0.44341916408E+02 -0.88724727103E+02  0.10744222089E+03  0.41800000000E+01 0.  1.
        -11    1    3    3    0    0  0.42172356758E+01 -0.83932855549E+02 -0.33428380167E+03  0.34468560947E+03  0.00000000000E+00 0.  1.
         11    1    3    3    0    0 -0.12278923221E+02  0.13399869736E+02 -0.16200040158E+02  0.24346863567E+02  0.00000000000E+00 0. -1.
</event>
<event>
 7    1  0.4096326E-006  0.1346337E+03  0.7561462E-02  0.1220738E+00
         -1   -1    0    0    0  501 -0.00000000000E+00  0.00000000000E+00  0.32189905648E+03  0.32189905648E+03  0.00000000000E+00 0.  1.
          1   -1    0    0  501    0  0.00000000000E+00 -0.00000000000E+00 -0.86591467485E+02  0.86591467485E+02  0.00000000000E+00 0. -1.
         23    2    1    2    0    0 -0.75092857726E+02  0.69534210356E+02  0.17055487331E+02  0.13692033629E+03  0.89343970975E+02 0.  0.
          5    1    1    2  502    0 -0.19176552319E+02 -0.13344077243E+02  0.12577910164E+03  0.12799866939E+03  0.41800000000E+01 0. -1.
         -5    1    1    2    0  502  0.94269410046E+02 -0.56190133112E+02  0.92473000021E+02  0.14357151828E+03  0.41800000000E+01 0. -1.
        -11    1    3    3    0    0 -0.18256332073E+02  0.76315954135E+02  0.67355078727E+01  0.78757765221E+02  0.00000000000E+00 0. -1.
         11    1    3    3    0    0 -0.56836525653E+02 -0.67817437793E+01  0.10319979458E+02  0.58162571066E+02  0.00000000000E+00 0.  1.
</event>
<event>
 7    1  0.4096326E-006  0.1882680E+03  0.7561462E-02  0.1160033E+00
         -2   -1    0    0    0  501 -0.00000000000E+00  0.00000000000E+00  0.89059016852E+02  0.89059016852E+02  0.00000000000E+00 0.  1.
          2   -1    0    0  501    0  0.00000000000E+00 -0.00000000000E+00 -0.46371746963E+03  0.46371746963E+03  0.00000000000E+00 0. -1.
         23    2    1    2    0    0 -0.41211856257E+02  0.15311089591E+03 -0.89704887297E+02  0.20351581211E+03  0.90721306381E+02 0.  0.
          5    1    1    2  502    0  0.44223024116E+02  0.91875420832E-01 -0.37294863650E+02  0.58000547909E+02  0.41800000000E+01 0. -1.
         -5    1    1    2    0  502 -0.30111678592E+01 -0.15320277133E+03 -0.24765870183E+03  0.29126012646E+03  0.41800000000E+01 0. -1.
        -11    1    3    3    0    0  0.21762886335E+02  0.77124540389E+02 -0.19711754398E+02  0.82524973271E+02  0.00000000000E+00 0.  1.
         11    1    3    3    0    0 -0.62974742593E+02  0.75986355518E+02 -0.69993132899E+02  0.12099083884E+03  0.00000000000E+00 0. -1.
</event>
<event>
 7    1  0.4096326E-006  0.1155922E+03  0.7561462E-02  0.1250551E+00
          2   -1    0    0  501    0  0.00000000000E+00  0.00000000000E+00  0.27264097312E+03  0.27264097312E+03  0.00000000000E+00 0.  1.
         -2   -1    0    0    0  501 -0.00000000000E+00 -0.00000000000E+00 -0.64521160383E+02  0.64521160383E+02  0.00000000000E+00 0. -1.
         23    2    1    2    0    0 -0.63704573899E+02  0.65480317304E+01  0.14643955121E+03  0.18369492097E+03  0.90543538570E+02 0.  0.
          5    1    1    2  502    0  0.41141432613E+02 -0.63453872696E+02  0.17160711973E+02  0.77659345046E+02  0.41800000000E+01 0. -1.
         -5    1    1    2    0  502  0.22563141286E+02  0.56905840965E+02  0.44519549558E+02  0.75807867490E+02  0.41800000000E+01 0. -1.
        -11    1    3    3    0    0 -0.28434759989E+02  0.37568478405E+02  0.12192493681E+03  0.13071195952E+03  0.00000000000E+00 0.  1.
         11    1    3    3    0    0 -0.35269813910E+02 -0.31020446674E+02  0.24514614402E+02  0.52982961453E+02  0.00000000000E+00 0. -1.
</event>
<event>
 7    1  0.4096326E-006  0.1308656E+03  0.7561462E-02  0.1226177E+00
          2   -1    0    0  501    0  0.00000000000E+00  0.00000000000E+00  0.20604552657E+03  0.20604552657E+03  0.00000000000E+00 0. -1.
         -2   -1    0    0    0  501 -0.00000000000E+00 -0.00000000000E+00 -0.98668349142E+02  0.98668349142E+02  0.00000000000E+00 0.  1.
         23    2    1    2    0    0 -0.51566411385E+01 -0.92255460466E+02  0.49278463396E+02  0.13870353731E+03  0.90954072884E+02 0.  0.
          5    1    1    2  502    0  0.65603557335E+01 -0.26077164523E+02  0.36682982577E+02  0.45674614259E+02  0.41800000000E+01 0. -1.
         -5    1    1    2    0  502 -0.14037145950E+01  0.11833262499E+03  0.21415731457E+02  0.12033572414E+03  0.41800000000E+01 0. -1.
        -11    1    3    3    0    0 -0.13154739070E+02  0.80879420204E+01  0.33400268324E+02  0.36797281017E+02  0.00000000000E+00 0. -1.
         11    1    3    3    0    0  0.79980979318E+01 -0.10034340249E+03  0.15878195072E+02  0.10190625629E+03  0.00000000000E+00 0.  1.
</event>
<event>
 7    1  0.4096326E-006  0.1044182E+03  0.7561462E-02  0.1271270E+00
         -2   -1    0    0    0  501 -0.00000000000E+00  0.00000000000E+00  0.47971422452E+02  0.47971422452E+02  0.00000000000E+00 0.  1.
          2   -1    0    0  501    0  0.00000000000E+00 -0.00000000000E+00 -0.51132919449E+03  0.51132919449E+03  0.00000000000E+00 0. -1.
         23    2    1    2    0    0 -0.78224264986E+02 -0.68712046729E+02 -0.28980810430E+03  0.32137153214E+03  0.91926836941E+02 0.  0.
          5    1    1    2  502    0  0.33417744344E+02  0.31132640894E+02 -0.17333515778E+03  0.17930012908E+03  0.41800000000E+01 0. -1.
         -5    1    1    2    0  502  0.44806520642E+02  0.37579405835E+02 -0.21450995690E+00  0.58628955725E+02  0.41800000000E+01 0. -1.
        -11    1    3    3    0    0 -0.35199329645E+02 -0.35495418147E+02 -0.35481531816E+02  0.61301359013E+02  0.00000000000E+00 0.  1.
         11    1    3    3    0    0 -0.43024935341E+02 -0.33216628582E+02 -0.25432657249E+03  0.26007017312E+03  0.00000000000E+00 0. -1.
</event>
<event>
 7    1  0.4096326E-006  0.1382537E+03  0.7561462E-02  0.1215698E+00
          3   -1    0    0  501    0  0.00000000000E+00  0.00000000000E+00  0.12802776282E+03  0.12802776282E+03  0.00000000000E+00 0. -1.
         -3   -1    0    0    0  501 -0.00000000000E+00 -0.00000000000E+00 -0.22032010375E+03  0.22032010375E+03  0.00000000000E+00 0.  1.
         23    2    1    2    0    0 -0.66266418874E+02  0.97917670966E+02  0.36957497768E+01  0.15127149020E+03  0.94288369497E+02 0.  0.
          5    1    1    2  502    0 -0.11197622676E+02 -0.72892702030E+02 -0.37205478861E+01  0.73959770412E+02  0.41800000000E+01 0. -1.
         -5    1    1    2    0  502  0.77464041549E+02 -0.25024968936E+02 -0.92267542826E+02  0.12311660596E+03  0.41800000000E+01 0. -1.
        -11    1    3    3    0    0 -0.56248029944E+02  0.61436663421E+02  0.45481153725E+02  0.94904372023E+02  0.00000000000E+00 0. -1.
         11    1    3    3    0    0 -0.10018388929E+02  0.36481007545E+02 -0.41785403948E+02  0.56367118174E+02  0.00000000000E+00 0.  1.
</event>
<event>
 7    1  0.4096326E-006  0.1467382E+03  0.7561462E-02  0.1204539E+00
          1   -1    0    0  501    0  0.00000000000E+00  0.00000000000E+00  0.55623660147E+03  0.55623660147E+03  0.00000000000E+00 0. -1.
         -1   -1    0    0    0  501 -0.00000000000E+00 -0.00000000000E+00 -0.55862692491E+02  0.55862692491E+02  0.00000000000E+00 0.  1.
         23    2    1    2    0    0  0.72052740349E+02 -0.80221076467E+02  0.38851563469E+03  0.41263015306E+03  0.87705338010E+02 0.  0.
          5    1    1    2  502    0 -0.36998519329E+02 -0.29320965664E+02  0.17080953794E+02  0.50376987232E+02  0.41800000000E+01 0.  1.
         -5    1    1    2    0  502 -0.35054221021E+02  0.10954204213E+03  0.94777320497E+02  0.14909215367E+03  0.41800000000E+01 0.  1.
        -11    1    3    3    0    0  0.16531365993E+02 -0.73184089189E+02  0.15103254846E+03  0.16864171390E+03  0.00000000000E+00 0.  1.
         11    1    3    3    0    0  0.55521374356E+02 -0.70369872775E+01  0.23748308622E+03  0.24398843916E+03  0.00000000000E+00 0. -1.
</event>
<event>
 7    1  0.4096326E-006  0.1132705E+03  0.7561462E-02  0.1254630E+00
         -1   -1    0    0    0  501 -0.00000000000E+00  0.00000000000E+00  0.38612742855E+03  0.38612742855E+03  0.00000000000E+00 0.  1.
          1   -1    0    0  501    0  0.00000000000E+00 -0.00000000000E+00 -0.54005595593E+02  0.54005595593E+02  0.00000000000E+00 0. -1.
         23    2    1    2    0    0 -0.90037022880E+01  0.91993840348E+02  0.11713908352E+03  0.17477786137E+03  0.91004409893E+02 0.  0.
          5    1    1    2  502    0 -0.28430144768E+02 -0.79851731635E+02  0.20868646924E+03  0.22528223858E+03  0.41800000000E+01 0.  1.
         -5    1    1    2    0  502  0.37433847056E+02 -0.12142108713E+02  0.62962802024E+01  0.40072924199E+02  0.41800000000E+01 0.  1.
        -11    1    3    3    0    0 -0.26645631322E+02  0.56029540468E+02  0.11950424872E+03  0.13464978476E+03  0.00000000000E+00 0.  1.
         11    1    3    3    0    0  0.17641929034E+02  0.35964299879E+02 -0.23651652004E+01  0.40128076608E+02  0.00000000000E+00 0. -1.
</event>
<event>
 7    1  0.4096326E-006  0.1176439E+03  0.7561462E-02  0.1247035E+00
          2   -1    0    0  501    0  0.00000000000E+00  0.00000000000E+00  0.38575616871E+03  0.38575616871E+03  0.00000000000E+00 0. -1.
         -2   -1    0    0    0  501 -0.00000000000E+00 -0.00000000000E+00 -0.65271192309E+02  0.65271192309E+02  0.00000000000E+00 0.  1.
         23    2    1    2    0    0  0.74574074496E+02 -0.80976838811E+02  0.19800909376E+03  0.24422364840E+03  0.91208816532E+02 0.  0.
          5    1    1    2  502    0 -0.59484573858E+02  0.70493742208E+02  0.14838531800E+03  0.17476686532E+03  0.41800000000E+01 0. -1.
         -5    1    1    2    0  502 -0.15089500638E+02  0.10483096603E+02 -0.25909435362E+02  0.32036847296E+02  0.41800000000E+01 0. -1.
        -11    1    3    3    0    0  0.28702734706E+02  0.25530331143E+01  0.53839858451E+01  0.29314710663E+02  0.00000000000E+00 0.  1.
         11    1    3    3    0    0  0.45871339790E+02 -0.83529871925E+02  0.19262510792E+03  0.21490893773E+03  0.00000000000E+00 0. -1.
</event>
<event>
 7    1  0.4096326E-006  0.3349119E+03  0.7561462E-02  0.1068984E+00
         -1   -1    0    0    0  501 -0.00000000000E+00  0.00000000000E+00  0.64500045950E+02  0.64500045950E+02  0.00000000000E+00 0.  1.
          1   -1    0    0  501    0  0.00000000000E+00 -0.00000000000E+00 -0.19008718432E+04  0.19008718432E+04  0.00000000000E+00 0. -1.
         23    2    1    2    0    0  0.33087308360E+03 -0.13941983703E+02 -0.98861151289E+03  0.10466708274E+04  0.92172236362E+02 0.  0.
          5    1    1    2  502    0 -0.54674980461E+02  0.87102523694E+01 -0.50964911659E+02  0.75366548317E+02  0.41800000000E+01 0.  1.
         -5    1    1    2    0  502 -0.27619810314E+03  0.52317313336E+01 -0.79679537272E+03  0.84333451345E+03  0.41800000000E+01 0.  1.
        -11    1    3    3    0    0  0.10482909427E+03  0.27117218955E+02 -0.41159088724E+03  0.42559551341E+03  0.00000000000E+00 0. -1.
         11    1    3    3    0    0  0.22604398932E+03 -0.41059202658E+02 -0.57702062565E+03  0.62107531400E+03  0.00000000000E+00 0.  1.
</event>
<event>
 7    1  0.4096326E-006  0.9204451E+02  0.7561462E-02  0.1297975E+00
         -2   -1    0    0    0  501 -0.00000000000E+00  0.00000000000E+00  0.31890253253E+02  0.31890253253E+02  0.00000000000E+00 0.  1.
          2   -1    0    0  501    0  0.00000000000E+00 -0.00000000000E+00 -0.39669758499E+03  0.39669758499E+03  0.00000000000E+00 0. -1.
         23    2    1    2    0    0  0.20845325572E+02 -0.19511586074E+02 -0.17883614902E+03  0.20265068248E+03  0.90937898173E+02 0.  0.
          5    1    1    2  502    0  0.16780574916E+02 -0.47917164557E+02 -0.71321915916E+02  0.87646622545E+02  0.41800000000E+01 0.  1.
         -5    1    1    2    0  502 -0.37625900488E+02  0.67428750631E+02 -0.11464926680E+03  0.13829053322E+03  0.41800000000E+01 0.  1.
        -11    1    3    3    0    0  0.35061146444E+02 -0.48489276847E+01 -0.17875742779E+03  0.18222791795E+03  0.00000000000E+00 0. -1.
         11    1    3    3    0    0 -0.14215820872E+02 -0.14662658389E+02 -0.78721229503E-01  0.20422764532E+02  0.00000000000E+00 0.  1.
</event>
<event>
 7    1  0.4096326E-006  0.1156297E+03  0.7561462E-02  0.1250486E+00
          2   -1    0    0  501    0  0.00000000000E+00  0.00000000000E+00  0.13543392715E+03  0.13543392715E+03  0.00000000000E+00 0.  1.
         -2   -1    0    0    0  501 -0.00000000000E+00 -0.00000000000E+00 -0.15066247834E+03  0.15066247834E+03  0.00000000000E+00 0. -1.
         23    2    1    2    0    0  0.14012422348E+01  0.78746877740E+02  0.42745330885E+02  0.12731382829E+03  0.90435686141E+02 0.  0.
          5    1    1    2  502    0 -0.31204056422E+02  0.19477698232E+02 -0.39978487353E+02  0.54486931613E+02  0.41800000000E+01 0. -1.
         -5    1    1    2    0  502  0.29802814187E+02 -0.98224575971E+02 -0.17995394726E+02  0.10429564559E+03  0.41800000000E+01 0. -1.
        -11    1    3    3    0    0  0.24000853050E+02  0.39631747315E+02 -0.19612179622E+02  0.50312562366E+02  0.00000000000E+00 0. -1.
         11    1    3    3    0    0 -0.22599610815E+02  0.39115130425E+02  0.62357510507E+02  0.77001265924E+02  0.00000000000E+00 0.  1.
</event>
<event>
 7    1  0.4096326E-006  0.5147533E+02  0.7561462E-02  0.1437543E+00
         -2   -1    0    0    0  501 -0.00000000000E+00  0.00000000000E+00  0.10013001466E+03  0.10013001466E+03  0.00000000000E+00 0.  1.
          2   -1    0    0  501    0  0.00000000000E+00 -0.00000000000E+00 -0.14061827035E+03  0.14061827035E+03  0.00000000000E+00 0. -1.
         23    2    1    2    0    0 -0.10335732973E+02  0.85980204025E+01 -0.66316729036E+02  0.11231351358E+03  0.89641862156E+02 0.  0.
          5    1    1    2  502    0 -0.12442768731E+01 -0.58820270506E+01  0.76178862289E+02  0.76529980575E+02  0.41800000000E+01 0.  1.
         -5    1    1    2    0  502  0.11580009846E+02 -0.27159933519E+01 -0.50350388942E+02  0.51904790863E+02  0.41800000000E+01 0.  1.
        -11    1    3    3    0    0  0.25702478061E+02 -0.23451080789E+02 -0.63639707207E+01  0.35370477690E+02  0.00000000000E+00 0. -1.
         11    1    3    3    0    0 -0.36038211034E+02  0.32049101192E+02 -0.59952758315E+02  0.76943035886E+02  0.00000000000E+00 0.  1.
</event>
<event>
 7    1  0.4096326E-006  0.1256708E+03  0.7561462E-02  0.1234025E+00
         -2   -1    0    0    0  501 -0.00000000000E+00  0.00000000000E+00  0.48925694356E+03  0.48925694356E+03  0.00000000000E+00 0.  1.
          2   -1    0    0  501    0  0.00000000000E+00 -0.00000000000E+00 -0.21222130604E+03  0.21222130604E+03  0.00000000000E+00 0. -1.
         23    2    1    2    0    0  0.63680303943E+02  0.12760322129E+02 -0.17837539151E+03  0.21418561739E+03  0.99195218992E+02 0.  0.
          5    1    1    2  502    0  0.40918358809E+02 -0.34268004131E+01  0.35535787665E+02  0.54463929841E+02  0.41800000000E+01 0. -1.
         -5    1    1    2    0  502 -0.10459866275E+03 -0.93335217160E+01  0.41987524137E+03  0.43282870236E+03  0.41800000000E+01 0.  1.
        -11    1    3    3    0    0 -0.20054498276E+02 -0.11527521670E+01 -0.87734943455E+02  0.90005177861E+02  0.00000000000E+00 0. -1.
         11    1    3    3    0    0  0.83734802219E+02  0.13913074296E+02 -0.90640448055E+02  0.12418043953E+03  0.00000000000E+00 0.  1.
</event>
<event>
 7    1  0.4096326E-006  0.1509331E+03  0.7561462E-02  0.1199331E+00
         -2   -1    0    0    0  501 -0.00000000000E+00  0.00000000000E+00  0.71633653818E+02  0.71633653818E+02  0.00000000000E+00 0.  1.
          2   -1    0    0  501    0  0.00000000000E+00 -0.00000000000E+00 -0.35292391650E+03  0.35292391650E+03  0.00000000000E+00 0. -1.
         23    2    1    2    0    0 -0.10271392132E+02  0.11001470579E+03 -0.17632052717E+03  0.22739278230E+03  0.91705027954E+02 0.  0.
          5    1    1    2  502    0  0.42198964717E+02  0.77642385399E+01 -0.15578086528E+02  0.45838686753E+02  0.41800000000E+01 0. -1.
         -5    1    1    2    0  502 -0.31927572586E+02 -0.11777894433E+03 -0.89391648977E+02  0.15132610127E+03  0.41800000000E+01 0. -1.
        -11    1    3    3    0    0 -0.69368173554E+01 -0.12392531260E+02 -0.47846556480E+02  0.49909790954E+02  0.00000000000E+00 0. -1.
         11    1    3    3    0    0 -0.33345747761E+01  0.12240723705E+03 -0.12847397069E+03  0.17748299134E+03  0.00000000000E+00 0.  1.
</event>
<event>
 7    1  0.4096326E-006  0.1025758E+03  0.7561462E-02  0.1274971E+00
          1   -1    0    0  501    0  0.00000000000E+00  0.00000000000E+00  0.14324277964E+03  0.14324277964E+03  0.00000000000E+00 0. -1.
         -1   -1    0    0    0  501 -0.00000000000E+00 -0.00000000000E+00 -0.93990627231E+02  0.93990627231E+02  0.00000000000E+00 0.  1.
         23    2    1    2    0    0 -0.97156070538E+01  0.19791512866E+02  0.57812169094E+02  0.10993485162E+03  0.90869839352E+02 0.  0.
          5    1    1    2  502    0  0.62532892323E+02 -0.19048241257E+02 -0.27480620085E+02  0.71034181895E+02  0.41800000000E+01 0. -1.
         -5    1    1    2    0  502 -0.52817285269E+02 -0.74327160886E+00  0.18920603401E+02  0.56264373354E+02  0.41800000000E+01 0. -1.
        -11    1    3    3    0    0 -0.18644615167E+01  0.52748551750E+02  0.54539935333E+02  0.75897895060E+02  0.00000000000E+00 0. -1.
         11    1    3    3    0    0 -0.78511455371E+01 -0.32957038883E+02  0.32722337610E+01  0.34036956562E+02  0.00000000000E+00 0.  1.
</event>
<event>
 7    1  0.4096326E-006  0.1141136E+03  0.7561462E-02  0.1253136E+00
         -3   -1    0    0    0  501 -0.00000000000E+00  0.00000000000E+00  0.74666290066E+02  0.74666290066E+02  0.00000000000E+00 0.  1.
          3   -1    0    0  501    0  0.00000000000E+00 -0.00000000000E+00 -0.26395085514E+03  0.26395085514E+03  0.00000000000E+00 0. -1.
         23    2    1    2    0    0 -0.34252454697E+02 -0.81356109973E+02 -0.10373534108E+03  0.16323723529E+03  0.89962918541E+02 0.  0.
          5    1    1    2  502    0 -0.23405358664E+02  0.70922331851E+02 -0.89333527391E+02  0.11651497537E+03  0.41800000000E+01 0. -1.
         -5    1    1    2    0  502  0.57657813361E+02  0.10433778122E+02  0.37843033951E+01  0.58864934551E+02  0.41800000000E+01 0. -1.
        -11    1    3    3    0    0  0.59871113079E+01 -0.23214951869E+02  0.12611666041E+02  0.27089363456E+02  0.00000000000E+00 0.  1.
         11    1    3    3    0    0 -0.40239566005E+02 -0.58141158104E+02 -0.11634700712E+03  0.13614787183E+03  0.00000000000E+00 0. -1.
</event>
<event>
 7    1  0.4096326E-006  0.1133385E+03  0.7561462E-02  0.1254509E+00
         -1   -1    0    0    0  501 -0.00000000000E+00  0.00000000000E+00  0.63541377182E+03  0.63541377182E+03  0.00000000000E+00 0.  1.
          1   -1    0    0  501    0  0.00000000000E+00 -0.00000000000E+00 -0.22025824318E+02  0.22025824318E+02  0.00000000000E+00 0. -1.
         23    2    1    2    0    0  0.52633922437E+01  0.23845224295E+02  0.18142648594E+03  0.20706916706E+03  0.96776919389E+02 0.  0.
          5    1    1    2  502    0  0.45122562980E+02 -0.52045939371E+02  0.25547882938E+03  0.26463508867E+03  0.41800000000E+01 0.  1.
         -5    1    1    2    0  502 -0.50385955224E+02  0.28200715077E+02  0.17648263218E+03  0.18573534041E+03  0.41800000000E+01 0.  1.
        -11    1    3    3    0    0  0.91362360492E+01  0.61372559222E+02  0.11016502429E+03  0.12643731416E+03  0.00000000000E+00 0. -1.
         11    1    3    3    0    0 -0.38728438054E+01 -0.37527334927E+02  0.71261461655E+02  0.80631852906E+02  0.00000000000E+00 0.  1.
</event>
<event>
 7    1  0.4096326E-006  0.1777465E+03  0.7561462E-02  0.1170002E+00
         -2   -1    0    0    0  501 -0.00000000000E+00  0.00000000000E+00  0.39698986956E+02  0.39698986956E+02  0.00000000000E+00 0. -1.
          2   -1    0    0  501    0  0.00000000000E+00 -0.00000000000E+00 -0.11073569579E+04  0.11073569579E+04  0.00000000000E+00 0.  1.
         23    2    1    2    0    0 -0.20639541348E+02  0.15358581291E+03 -0.75747717743E+03  0.77844536522E+03  0.90503699966E+02 0.  0.
          5    1    1    2  502    0  0.51374243058E+02 -0.62755944274E+02 -0.22876095093E+03  0.24274815439E+03  0.41800000000E+01 0. -1.
         -5    1    1    2    0  502 -0.30734701710E+02 -0.90829868637E+02 -0.81419842629E+02  0.12586242529E+03  0.41800000000E+01 0. -1.
        -11    1    3    3    0    0 -0.55217637121E+02  0.10548326756E+03 -0.54576071553E+03  0.55859687235E+03  0.00000000000E+00 0.  1.
         11    1    3    3    0    0  0.34578095773E+02  0.48102545348E+02 -0.21171646190E+03  0.21984849287E+03  0.00000000000E+00 0. -1.
</event>
<event>
 7    1  0.4096326E-006  0.1031192E+03  0.7561462E-02  0.1273870E+00
         -1   -1    0    0    0  501 -0.00000000000E+00  0.00000000000E+00  0.31493535032E+02  0.31493535032E+02  0.00000000000E+00 0.  1.
          1   -1    0    0  501    0  0.00000000000E+00 -0.00000000000E+00 -0.46789488434E+03  0.46789488434E+03  0.00000000000E+00 0. -1.
         23    2    1    2    0    0 -0.61424755840E+01  0.56744386101E+02 -0.19322879556E+03  0.22003456918E+03  0.88431831595E+02 0.  0.
          5    1    1    2  502    0 -0.45176960951E+00  0.23631685185E+02 -0.94667989109E+00  0.24021432998E+02  0.41800000000E+01 0.  1.
         -5    1    1    2    0  502  0.65942451935E+01 -0.80376071286E+02 -0.24222587386E+03  0.25533241720E+03  0.41800000000E+01 0.  1.
        -11    1    3    3    0    0  0.38661886244E+02  0.32680254113E+02 -0.12558873085E+03  0.13540779066E+03  0.00000000000E+00 0.  1.
         11    1    3    3    0    0 -0.44804361828E+02  0.24064131988E+02 -0.67640064711E+02  0.84626778511E+02  0.00000000000E+00 0. -1.
</event>
<event>
 7    1  0.4096326E-006  0.9196775E+02  0.7561462E-02  0.1298155E+00
          2   -1    0    0  501    0  0.00000000000E+00  0.00000000000E+00  0.14664833282E+03  0.14664833282E+03  0.00000000000E+00 0. -1.
         -2   -1    0    0    0  501 -0.00000000000E+00 -0.00000000000E+00 -0.12269035392E+03  0.12269035392E+03  0.00000000000E+00 0.  1.
         23    2    1    2    0    0  0.13484569749E+02 -0.72828331634E+02  0.34325696925E+02  0.12359465914E+03  0.92798635708E+02 0.  0.
          5    1    1    2  502    0 -0.37018856850E+02  0.23205841958E+02  0.48306578780E+02  0.65267946320E+02  0.41800000000E+01 0. -1.
         -5    1    1    2    0  502  0.23534287101E+02  0.49622489676E+02 -0.58674296811E+02  0.80476081274E+02  0.41800000000E+01 0. -1.
        -11    1    3    3    0    0 -0.13492369936E+02 -0.10655935676E+02  0.50983740931E+02  0.53804598790E+02  0.00000000000E+00 0. -1.
         11    1    3    3    0    0  0.26976939686E+02 -0.62172395958E+02 -0.16658044006E+02  0.69790060353E+02  0.00000000000E+00 0.  1.
</event>
<event>
 7    1  0.4096326E-006  0.1074288E+03  0.7561462E-02  0.1265407E+00
          2   -1    0    0  501    0  0.00000000000E+00  0.00000000000E+00  0.87951362192E+02  0.87951362192E+02  0.00000000000E+00 0. -1.
         -2   -1    0    0    0  501 -0.00000000000E+00 -0.00000000000E+00 -0.20859073865E+03  0.20859073865E+03  0.00000000000E+00 0.  1.
         23    2    1    2    0    0 -0.62489652911E+02 -0.50253311782E+02 -0.41580427899E+02  0.12823549897E+03  0.91022300269E+02 0.  0.
          5    1    1    2  502    0  0.46146494626E+02  0.64528054812E+02 -0.10663207700E+03  0.13297082789E+03  0.41800000000E+01 0.  1.
         -5    1    1    2    0  502  0.16343158285E+02 -0.14274743030E+02  0.27573128437E+02  0.35335773985E+02  0.41800000000E+01 0.  1.
        -11    1    3    3    0    0 -0.72511048244E+02 -0.11656803251E+02 -0.48153915191E+02  0.87821026683E+02  0.00000000000E+00 0.  1.
         11    1    3    3    0    0  0.10021395333E+02 -0.38596508531E+02  0.65734872916E+01  0.40414472289E+02  0.00000000000E+00 0. -1.
</event>
<event>
 7    1  0.4096326E-006  0.5620859E+02  0.7561462E-02  0.1414468E+00
          2   -1    0    0  501    0  0.00000000000E+00  0.00000000000E+00  0.48572484798E+02  0.48572484798E+02  0.00000000000E+00 0. -1.
         -2   -1    0    0    0  501 -0.00000000000E+00 -0.00000000000E+00 -0.27018410886E+03  0.27018410886E+03  0.00000000000E+00 0.  1.
         23    2    1    2    0    0 -0.92042808121E+01  0.72924938137E+00 -0.44968315354E+02  0.10210579348E+03  0.91204128667E+02 0.  0.
          5    1    1    2  502    0 -0.30955053278E+02  0.48496569773E+01  0.36382854767E+01  0.31818925461E+02  0.41800000000E+01 0. -1.
         -5    1    1    2    0  502  0.40159334091E+02 -0.55789063586E+01 -0.18028159418E+03  0.18483187472E+03  0.41800000000E+01 0. -1.
        -11    1    3    3    0    0 -0.24589027508E+02 -0.67559298277E+00  0.22229751055E+02  0.33154766349E+02  0.00000000000E+00 0. -1.
         11    1    3    3    0    0  0.15384746696E+02  0.14048423641E+01 -0.67198066409E+02  0.68951027129E+02  0.00000000000E+00 0.  1.
</event>
<event>
 7    1  0.4096326E-006  0.2336400E+03  0.7561462E-02  0.1124104E+00
         -1   -1    0    0    0  501 -0.00000000000E+00  0.00000000000E+00  0.48164804949E+02  0.48164804949E+02  0.00000000000E+00 0.  1.
          1   -1    0    0  501    0  0.00000000000E+00 -0.00000000000E+00 -0.14359685931E+04  0.14359685931E+04  0.00000000000E+00 0. -1.
         23    2    1    2    0    0  0.30624944465E+02 -0.21966559839E+03 -0.93013497026E+03  0.96039779012E+03  0.89565562744E+02 0.  0.
          5    1    1    2  502    0  0.19660487441E+02  0.58158564738E+02 -0.24151375028E+03  0.24922944728E+03  0.41800000000E+01 0.  1.
         -5    1    1    2    0  502 -0.50285431905E+02  0.16150703366E+03 -0.21615506766E+03  0.27450616069E+03  0.41800000000E+01 0.  1.
        -11    1    3    3    0    0  0.57303165548E+02 -0.17861911662E+03 -0.78973182018E+03  0.81170486596E+03  0.00000000000E+00 0.  1.
         11    1    3    3    0    0 -0.26678221083E+02 -0.41046481771E+02 -0.14040315007E+03  0.14869292416E+03  0.00000000000E+00 0. -1.
</event>
<event>
 7    1  0.4096326E-006  0.1611111E+03  0.7561462E-02  0.1187448E+00
          1   -1    0    0  501    0  0.00000000000E+00  0.00000000000E+00  0.49153442758E+02  0.49153442758E+02  0.00000000000E+00 0. -1.
         -1   -1    0    0    0  501 -0.00000000000E+00 -0.00000000000E+00 -0.63388973392E+03  0.63388973392E+03  0.00000000000E+00 0.  1.
         23    2    1    2    0    0  0.13110770543E+03  0.35369363567E+02 -0.22278044349E+03  0.27671914083E+03  0.92207020328E+02 0.  0.
          5    1    1    2  502    0 -0.14160206018E+03 -0.58756113090E+01 -0.22636474917E+03  0.26710323533E+03  0.41800000000E+01 0. -1.
         -5    1    1    2    0  502  0.10494354749E+02 -0.29493752258E+02 -0.13559109851E+03  0.13922080052E+03  0.41800000000E+01 0. -1.
        -11    1    3    3    0    0  0.80248207433E+02 -0.97839894840E+01 -0.61156904571E+02  0.10136897071E+03  0.00000000000E+00 0. -1.
         11    1    3    3    0    0  0.50859498000E+02  0.45153353051E+02 -0.16162353892E+03  0.17535017012E+03  0.00000000000E+00 0.  1.
</event>
<event>
 7    1  0.4096326E-006  0.8687220E+02  0.7561462E-02  0.1310608E+00
          4   -1    0    0  501    0  0.00000000000E+00  0.00000000000E+00  0.55061245345E+03  0.55061245345E+03  0.00000000000E+00 0. -1.
         -4   -1    0    0    0  501 -0.00000000000E+00 -0.00000000000E+00 -0.29940956595E+02  0.29940956595E+02  0.00000000000E+00 0.  1.
         23    2    1    2    0    0 -0.37698779924E+02 -0.21928912653E+02  0.34616318386E+03  0.36068454078E+03  0.91445682673E+02 0.  0.
          5    1    1    2  502    0 -0.13175626573E+02  0.21549609233E+02 -0.10704881018E+02  0.27749768852E+02  0.41800000000E+01 0. -1.
         -5    1    1    2    0  502  0.50874406498E+02  0.37930341941E+00  0.18521319402E+03  0.19211910042E+03  0.41800000000E+01 0.  1.
        -11    1    3    3    0    0 -0.20966825886E+02  0.33320253449E+02  0.19366566354E+03  0.19762650711E+03  0.00000000000E+00 0. -1.
         11    1    3    3    0    0 -0.16731954038E+02 -0.55249166102E+02  0.15249752032E+03  0.16305803367E+03  0.00000000000E+00 0.  1.
</event>
<event>
 7    1  0.4096326E-006  0.1029844E+03  0.7561462E-02  0.1274142E+00
         -1   -1    0    0    0  501 -0.00000000000E+00  0.00000000000E+00  0.99484753789E+02  0.99484753789E+02  0.00000000000E+00 0.  1.
          1   -1    0    0  501    0  0.00000000000E+00 -0.00000000000E+00 -0.21555844361E+03  0.21555844361E+03  0.00000000000E+00 0. -1.
         23    2    1    2    0    0  0.43540519711E+02  0.19285088616E+02 -0.14542799826E+03  0.17801915857E+03  0.90960577395E+02 0.  0.
          5    1    1    2  502    0  0.16913362206E+02  0.40332023202E+02  0.27821470975E+02  0.52002313063E+02  0.41800000000E+01 0.  1.
         -5    1    1    2    0  502 -0.60453881918E+02 -0.59617111818E+02  0.15328374734E+01  0.85021725760E+02  0.41800000000E+01 0.  1.
        -11    1    3    3    0    0  0.82823338056E+01  0.36755923550E+02 -0.12981766443E+02  0.39851238742E+02  0.00000000000E+00 0. -1.
         11    1    3    3    0    0  0.35258185906E+02 -0.17470834934E+02 -0.13244623182E+03  0.13816791983E+03  0.00000000000E+00 0.  1.
</event>
<event>
 7    1  0.4096326E-006  0.1013960E+03  0.7561462E-02  0.1277387E+00
         -4   -1    0    0    0  501 -0.00000000000E+00  0.00000000000E+00  0.11544329021E+03  0.11544329021E+03  0.00000000000E+00 0.  1.
          4   -1    0    0  501    0  0.00000000000E+00 -0.00000000000E+00 -0.12574399224E+03  0.12574399224E+03  0.00000000000E+00 0. -1.
         23    2    1    2    0    0  0.29760731271E+02 -0.31112973295E+02 -0.36360683895E+02  0.10632747275E+03  0.90164926074E+02 0.  0.
          5    1    1    2  502    0 -0.67753658558E+02  0.16241260575E+02  0.51371072844E+02  0.86664850534E+02  0.41800000000E+01 0. -1.
         -5    1    1    2    0  502  0.37992927286E+02  0.14871712720E+02 -0.25311090979E+02  0.48194959172E+02  0.41800000000E+01 0. -1.
        -11    1    3    3    0    0  0.44351797027E+02  0.12427401047E+02 -0.38968979706E+02  0.60333270885E+02  0.00000000000E+00 0.  1.
         11    1    3    3    0    0 -0.14591065755E+02 -0.43540374342E+02  0.26082958113E+01  0.45994201860E+02  0.00000000000E+00 0. -1.
</event>
<event>
 7    1  0.4096326E-006  0.9467176E+02  0.7561462E-02  0.1291917E+00
         -2   -1    0    0    0  501 -0.00000000000E+00  0.00000000000E+00  0.37564980543E+02  0.37564980543E+02  0.00000000000E+00 0.  1.
          2   -1    0    0  501    0  0.00000000000E+00 -0.00000000000E+00 -0.55415700673E+03  0.55415700673E+03  0.00000000000E+00 0. -1.
         23    2    1    2    0    0  0.89723932296E+02  0.27589505501E+02 -0.26062694132E+03  0.29175320518E+03  0.91553073967E+02 0.  0.
          5    1    1    2  502    0 -0.69766332467E+02 -0.26637413520E+02 -0.43499747182E+02  0.86525102426E+02  0.41800000000E+01 0. -1.
         -5    1    1    2    0  502 -0.19957599828E+02 -0.95209198092E+00 -0.21246533768E+03  0.21344367966E+03  0.41800000000E+01 0. -1.
        -11    1    3    3    0    0  0.28023862586E+02  0.52243636186E+01 -0.64325527782E+01  0.29223425274E+02  0.00000000000E+00 0.  1.
         11    1    3    3    0    0  0.61700069709E+02  0.22365141882E+02 -0.25419438854E+03  0.26252977991E+03  0.00000000000E+00 0. -1.
</event>
<event>
 7    1  0.4096326E-006  0.1101851E+03  0.7561462E-02  0.1260227E+00
          3   -1    0    0  501    0  0.00000000000E+00  0.00000000000E+00  0.24719333054E+03  0.24719333054E+03  0.00000000000E+00 0. -1.
         -3   -1    0    0    0  501 -0.00000000000E+00 -0.00000000000E+00 -0.67363576756E+02  0.67363576756E+02  0.00000000000E+00 0.  1.
         23    2    1    2    0    0  0.45571938600E+02  0.49463329452E+02  0.55685024141E+02  0.12592388895E+03  0.90733573426E+02 0.  0.
          5    1    1    2  502    0  0.16296222461E+02  0.16316052507E+02 -0.11120619603E+02  0.25940721198E+02  0.41800000000E+01 0.  1.
         -5    1    1    2    0  502 -0.61868161061E+02 -0.65779381959E+02  0.13526534925E+03  0.16269229715E+03  0.41800000000E+01 0.  1.
        -11    1    3    3    0    0 -0.22987213182E+02  0.24439435029E+02  0.38263762920E+02  0.50890210327E+02  0.00000000000E+00 0. -1.
         11    1    3    3    0    0  0.68559151782E+02  0.25023894424E+02  0.17421261221E+02  0.75033678623E+02  0.00000000000E+00 0.  1.
</event>
<event>
 7    1  0.4096326E-006  0.2844406E+03  0.7561462E-02  0.1093288E+00
         -2   -1    0    0    0  501 -0.00000000000E+00  0.00000000000E+00  0.10961326037E+03  0.10961326037E+03  0.00000000000E+00 0.  1.
          2   -1    0    0  501    0  0.00000000000E+00 -0.00000000000E+00 -0.90004339194E+03  0.90004339194E+03  0.00000000000E+00 0. -1.
         23    2    1    2    0    0 -0.12540928397E+03  0.23757931573E+03 -0.57849284152E+03  0.64532620776E+03  0.98084284964E+02 0.  0.
          5    1    1    2  502    0 -0.56319741731E-01 -0.11489799345E+03 -0.49509483487E+02  0.12518072306E+03  0.41800000000E+01 0.  1.
         -5    1    1    2    0  502  0.12546560371E+03 -0.12268132228E+03 -0.16242780656E+03  0.23914972150E+03  0.41800000000E+01 0.  1.
        -11    1    3    3    0    0 -0.59440418633E+02  0.44242870461E+02 -0.95240438473E+02  0.12067036121E+03  0.00000000000E+00 0.  1.
         11    1    3    3    0    0 -0.65968865332E+02  0.19333644527E+03 -0.48325240305E+03  0.52465584655E+03  0.00000000000E+00 0. -1.
</event>
<event>
 7    1  0.4096326E-006  0.1171034E+03  0.7561462E-02  0.1247953E+00
         -1   -1    0    0    0  501 -0.00000000000E+00  0.00000000000E+00  0.30024942712E+03  0.30024942712E+03  0.00000000000E+00 0.  1.
          1   -1    0    0  501    0  0.00000000000E+00 -0.00000000000E+00 -0.55763695199E+02  0.55763695199E+02  0.00000000000E+00 0. -1.
         23    2    1    2    0    0 -0.68467234801E+02  0.17606511113E+02  0.10425004065E+03  0.15523664923E+03  0.90733647625E+02 0.  0.
          5    1    1    2  502    0  0.88687515497E+02 -0.45333266849E+02  0.13168656617E+03  0.16516478014E+03  0.41800000000E+01 0.  1.
         -5    1    1    2    0  502 -0.20220280696E+02  0.27726755736E+02  0.85491250923E+01  0.35611692952E+02  0.41800000000E+01 0.  1.
        -11    1    3    3    0    0  0.10193989859E+02 -0.12136985847E+02  0.56175113524E+02  0.58368375291E+02  0.00000000000E+00 0.  1.
         11    1    3    3    0    0 -0.78661224660E+02  0.29743496960E+02  0.48074927131E+02  0.96868273935E+02  0.00000000000E+00 0. -1.
</event>
<event>
 7    1  0.4096326E-006  0.1296862E+03  0.7561462E-02  0.1227922E+00
         -1   -1    0    0    0  501 -0.00000000000E+00  0.00000000000E+00  0.12452371159E+04  0.12452371159E+04  0.00000000000E+00 0.  1.
          1   -1    0    0  501    0  0.00000000000E+00 -0.00000000000E+00 -0.66719458823E+02  0.66719458823E+02  0.00000000000E+00 0. -1.
         23    2    1    2    0    0  0.15149148379E+02 -0.26146206357E+02 -0.17835331770E+02  0.80821726438E+02  0.72807496877E+02 0.  0.
          5    1    1    2  502    0 -0.69310522200E+02 -0.57367614468E+02  0.11929149294E+03  0.14947549754E+03  0.41800000000E+01 0. -1.
         -5    1    1    2    0  502  0.54161373821E+02  0.83513820825E+02  0.10770614959E+04  0.10816593508E+04  0.41800000000E+01 0.  1.
        -11    1    3    3    0    0  0.29219444340E+02 -0.40260912701E+02 -0.29394903844E+02  0.57782154607E+02  0.00000000000E+00 0. -1.
         11    1    3    3    0    0 -0.14070295960E+02  0.14114706344E+02  0.11559572074E+02  0.23039571831E+02  0.00000000000E+00 0.  1.
</event>
<event>
 7    1  0.4096326E-006  0.1034808E+03  0.7561462E-02  0.1273142E+00
          1   -1    0    0  501    0  0.00000000000E+00  0.00000000000E+00  0.15628451574E+03  0.15628451574E+03  0.00000000000E+00 0. -1.
         -1   -1    0    0    0  501 -0.00000000000E+00 -0.00000000000E+00 -0.89177961882E+02  0.89177961882E+02  0.00000000000E+00 0.  1.
         23    2    1    2    0    0 -0.35320374509E+02 -0.23836512663E+02  0.49034243469E+02  0.11208626063E+03  0.91341472501E+02 0.  0.
          5    1    1    2  502    0 -0.31093635492E+02 -0.31403758167E+02  0.14929329054E+02  0.46833401127E+02  0.41800000000E+01 0. -1.
         -5    1    1    2    0  502  0.66414010001E+02  0.55240270830E+02  0.31429813353E+01  0.86542815863E+02  0.41800000000E+01 0. -1.
        -11    1    3    3    0    0  0.14937690507E+02 -0.20969568709E+02  0.55646703840E+02  0.61314052694E+02  0.00000000000E+00 0. -1.
         11    1    3    3    0    0 -0.50258065016E+02 -0.28669439544E+01 -0.66124603708E+01  0.50772207939E+02  0.00000000000E+00 0.  1.
</event>
<event>
 7    1  0.4096326E-006  0.9700514E+02  0.7561462E-02  0.1286723E+00
         -1   -1    0    0    0  501 -0.00000000000E+00  0.00000000000E+00  0.34093309296E+03  0.34093309296E+03  0.00000000000E+00 0.  1.
          1   -1    0    0  501    0  0.00000000000E+00 -0.00000000000E+00 -0.39821890583E+02  0.39821890583E+02  0.00000000000E+00 0. -1.
         23    2    1    2    0    0 -0.30370798200E+02 -0.26576281173E+02  0.10917530758E+03  0.14812215094E+03  0.91609168262E+02 0.  0.
          5    1    1    2  502    0 -0.43818098930E+02  0.29889168749E+02  0.53340356689E+02  0.75339592872E+02  0.41800000000E+01 0. -1.
         -5    1    1    2    0  502  0.74188897130E+02 -0.33128875762E+01  0.13859553811E+03  0.15729323973E+03  0.41800000000E+01 0. -1.
        -11    1    3    3    0    0 -0.93742262047E+01  0.16231661182E+02 -0.89247982371E+01  0.20760418234E+02  0.00000000000E+00 0. -1.
         11    1    3    3    0    0 -0.20996571995E+02 -0.42807942355E+02  0.11810010581E+03  0.12736173270E+03  0.00000000000E+00 0.  1.
</event>
<event>
 7    1  0.5246647E-006  0.1987180E+03  0.7561462E-02  0.1150825E+00
          1   -1    0    0  501    0  0.00000000000E+00  0.00000000000E+00  0.86222873163E+03  0.86222873163E+03  0.00000000000E+00 0.  1.
         -1   -1    0    0    0  501 -0.00000000000E+00 -0.00000000000E+00 -0.65202753367E+02  0.65202753367E+02  0.00000000000E+00 0. -1.
         23    2    1    2    0    0 -0.64169146866E+02 -0.17152436313E+03  0.58792036327E+03  0.62261883480E+03  0.92008550413E+02 0.  0.
          5    1    1    2  502    0  0.86654796908E+02  0.13234709747E+03  0.10141072018E+03  0.18795322450E+03  0.41800000000E+01 0. -1.
         -5    1    1    2    0  502 -0.22485650041E+02  0.39177265663E+02  0.10769489482E+03  0.11685942569E+03  0.41800000000E+01 0. -1.
        -11    1    3    3    0    0 -0.70626724400E+02 -0.10237305381E+03  0.46592562608E+03  0.48223963482E+03  0.00000000000E+00 0.  1.
         11    1    3    3    0    0  0.64575775337E+01 -0.69151309320E+02  0.12199473719E+03  0.14037919999E+03  0.00000000000E+00 0. -1.
</event>
<event>
 7    1  0.4096326E-006  0.1273911E+03  0.7561462E-02  0.1231379E+00
          2   -1    0    0  501    0  0.00000000000E+00  0.00000000000E+00  0.81780688867E+03  0.81780688867E+03  0.00000000000E+00 0. -1.
         -2   -1    0    0    0  501 -0.00000000000E+00 -0.00000000000E+00 -0.25490836004E+02  0.25490836004E+02  0.00000000000E+00 0.  1.
         23    2    1    2    0    0 -0.67377399920E+01  0.80794278334E+02  0.50776770758E+03  0.52206792972E+03  0.90298204999E+02 0.  0.
          5    1    1    2  502    0  0.46157004951E+02 -0.92446574696E+02  0.23477739174E+03  0.25654382540E+03  0.41800000000E+01 0.  1.
         -5    1    1    2    0  502 -0.39419264959E+02  0.11652296362E+02  0.49770953343E+02  0.64685969554E+02  0.41800000000E+01 0.  1.
        -11    1    3    3    0    0 -0.19506942203E+02 -0.74551073246E+01  0.33390899297E+02  0.39383392124E+02  0.00000000000E+00 0.  1.
         11    1    3    3    0    0  0.12769202211E+02  0.88249385659E+02  0.47437680828E+03  0.48268453759E+03  0.00000000000E+00 0. -1.
</event>
<event>
 7    1  0.4096326E-006  0.1111762E+03  0.7561462E-02  0.1258407E+00
          2   -1    0    0  501    0  0.00000000000E+00  0.00000000000E+00  0.70155856743E+03  0.70155856743E+03  0.00000000000E+00 0.  1.
         -2   -1    0    0    0  501 -0.00000000000E+00 -0.00000000000E+00 -0.19569583371E+02  0.19569583371E+02  0.00000000000E+00 0. -1.
         23    2    1    2    0    0 -0.37599408318E+02 -0.16648148095E+02  0.35591607177E+03  0.36947312966E+03  0.90240052361E+02 0.  0.
          5    1    1    2  502    0  0.11297303097E+02 -0.54254508601E+02  0.15093564824E+03  0.16084223037E+03  0.41800000000E+01 0.  1.
         -5    1    1    2    0  502  0.26302105220E+02  0.70902656696E+02  0.17513726405E+03  0.19081279077E+03  0.41800000000E+01 0.  1.
        -11    1    3    3    0    0  0.25186107515E+01 -0.42977278947E+02  0.24299247263E+03  0.24677668379E+03  0.00000000000E+00 0.  1.
         11    1    3    3    0    0 -0.40118019069E+02  0.26329130852E+02  0.11292359914E+03  0.12269644587E+03  0.00000000000E+00 0. -1.
</event>
<event>
 7    1  0.4096326E-006  0.2240241E+03  0.7561462E-02  0.1130918E+00
          4   -1    0    0  501    0  0.00000000000E+00  0.00000000000E+00  0.36616666751E+03  0.36616666751E+03  0.00000000000E+00 0. -1.
         -4   -1    0    0    0  501 -0.00000000000E+00 -0.00000000000E+00 -0.18597241494E+03  0.18597241494E+03  0.00000000000E+00 0.  1.
         23    2    1    2    0    0  0.21953649570E+03 -0.10237479343E+02 -0.10965427314E+02  0.23513853511E+03  0.82878291316E+02 0.  0.
          5    1    1    2  502    0 -0.53767512564E+02  0.29021767769E+02 -0.25787782543E+01  0.61297070967E+02  0.41800000000E+01 0. -1.
         -5    1    1    2    0  502 -0.16576898314E+03 -0.18784288426E+02  0.19373845815E+03  0.25570347637E+03  0.41800000000E+01 0. -1.
        -11    1    3    3    0    0  0.83784271255E+02 -0.78332870385E+01 -0.44632054492E+02  0.95253266525E+02  0.00000000000E+00 0. -1.
         11    1    3    3    0    0  0.13575222445E+03 -0.24041923046E+01  0.33666627178E+02  0.13988526859E+03  0.00000000000E+00 0.  1.
</event>
<event>
 7    1  0.4096326E-006  0.5603549E+03  0.7561462E-02  0.9991252E-01
          1   -1    0    0  501    0  0.00000000000E+00  0.00000000000E+00  0.45795583879E+03  0.45795583879E+03  0.00000000000E+00 0. -1.
         -1   -1    0    0    0  501 -0.00000000000E+00 -0.00000000000E+00 -0.86814483157E+03  0.86814483157E+03  0.00000000000E+00 0.  1.
         23    2    1    2    0    0 -0.11826520204E+03  0.26220322780E+03  0.13661662978E+03  0.33184105584E+03  0.93365904513E+02 0.  0.
          5    1    1    2  502    0  0.13787474949E+03  0.26549031647E+03 -0.15684163353E+03  0.33780367833E+03  0.41800000000E+01 0. -1.
         -5    1    1    2    0  502 -0.19609547443E+02 -0.52769354427E+03 -0.38996398903E+03  0.65645593619E+03  0.41800000000E+01 0.  1.
        -11    1    3    3    0    0 -0.17614298872E+02  0.10718267053E+03  0.90409177279E+02  0.14132306154E+03  0.00000000000E+00 0. -1.
         11    1    3    3    0    0 -0.10065090317E+03  0.15502055727E+03  0.46207452499E+02  0.19051799430E+03  0.00000000000E+00 0.  1.
</event>
<event>
 7    1  0.4096326E-006  0.1057654E+03  0.7561462E-02  0.1268619E+00
         -1   -1    0    0    0  501 -0.00000000000E+00  0.00000000000E+00  0.22077508733E+02  0.22077508733E+02  0.00000000000E+00 0.  1.
          1   -1    0    0  501    0  0.00000000000E+00 -0.00000000000E+00 -0.63950866585E+03  0.63950866585E+03  0.00000000000E+00 0. -1.
         23    2    1    2    0    0 -0.46654807431E+02 -0.11038099324E+02 -0.25742467975E+03  0.27746416645E+03  0.91762667941E+02 0.  0.
          5    1    1    2  502    0 -0.10349766081E+01 -0.43866536318E+02 -0.54716570755E+02  0.70261794030E+02  0.41800000000E+01 0. -1.
         -5    1    1    2    0  502  0.47689784039E+02  0.54904635642E+02 -0.30528990662E+03  0.31386021410E+03  0.41800000000E+01 0. -1.
        -11    1    3    3    0    0  0.14870971026E+02  0.20614564641E+02 -0.13004532300E+03  0.13250619642E+03  0.00000000000E+00 0. -1.
         11    1    3    3    0    0 -0.61525778457E+02 -0.31652663965E+02 -0.12737935675E+03  0.14495797003E+03  0.00000000000E+00 0.  1.
</event>
<event>
 7    1  0.4096326E-006  0.1287900E+03  0.7561462E-02  0.1229262E+00
          3   -1    0    0  501    0  0.00000000000E+00  0.00000000000E+00  0.53338395262E+02  0.53338395262E+02  0.00000000000E+00 0. -1.
         -3   -1    0    0    0  501 -0.00000000000E+00 -0.00000000000E+00 -0.41450176036E+03  0.41450176036E+03  0.00000000000E+00 0.  1.
         23    2    1    2    0    0 -0.19761907266E+02  0.99550592459E+02 -0.13646854885E+03  0.19136352196E+03  0.87723880856E+02 0.  0.
          5    1    1    2  502    0  0.52108629925E+02 -0.17114201064E+01 -0.43683283409E+02  0.68146459342E+02  0.41800000000E+01 0.  1.
         -5    1    1    2    0  502 -0.32346722659E+02 -0.97839172353E+02 -0.18101153284E+03  0.20833017433E+03  0.41800000000E+01 0.  1.
        -11    1    3    3    0    0 -0.79646533377E-01  0.26146708734E+02  0.86578009524E+01  0.27542952611E+02  0.00000000000E+00 0. -1.
         11    1    3    3    0    0 -0.19682260733E+02  0.73403883725E+02 -0.14512634980E+03  0.16382056935E+03  0.00000000000E+00 0.  1.
</event>
<event>
 7    1  0.4096326E-006  0.4167326E+03  0.7561462E-02  0.1038135E+00
          2   -1    0    0  501    0  0.00000000000E+00  0.00000000000E+00  0.20660577792E+04  0.20660577792E+04  0.00000000000E+00 0. -1.
         -2   -1    0    0    0  501 -0.00000000000E+00 -0.00000000000E+00 -0.22138728698E+03  0.22138728698E+03  0.00000000000E+00 0.  1.
         23    2    1    2    0    0  0.23992018009E+03  0.31120786459E+03  0.73933740091E+03  0.84225365355E+03  0.91429736570E+02 0.  0.
          5    1    1    2  502    0 -0.20101153561E+03 -0.97867860528E+02  0.11911317159E+04  0.12119389393E+04  0.41800000000E+01 0. -1.
         -5    1    1    2    0  502 -0.38908644477E+02 -0.21334000407E+03 -0.85798624571E+02  0.23325247336E+03  0.41800000000E+01 0.  1.
        -11    1    3    3    0    0  0.19048525617E+03  0.24601013307E+03  0.65282768493E+03  0.72318020202E+03  0.00000000000E+00 0. -1.
         11    1    3    3    0    0  0.49434923912E+02  0.65197731523E+02  0.86509715988E+02  0.11907345153E+03  0.00000000000E+00 0.  1.
</event>
<event>
 7    1  0.4096326E-006  0.1070041E+03  0.7561462E-02  0.1266221E+00
          2   -1    0    0  501    0  0.00000000000E+00  0.00000000000E+00  0.28748682678E+02  0.28748682678E+02  0.00000000000E+00 0. -1.
         -2   -1    0    0    0  501 -0.00000000000E+00 -0.00000000000E+00 -0.43689117557E+03  0.43689117557E+03  0.00000000000E+00 0.  1.
         23    2    1    2    0    0 -0.13530659709E+02 -0.13184427554E+02 -0.12869616840E+03  0.15889131215E+03  0.91251506469E+02 0.  0.
          5    1    1    2  502    0 -0.52219555059E+02 -0.14836666829E+02 -0.10780667498E+03  0.12077566056E+03  0.41800000000E+01 0. -1.
         -5    1    1    2    0  502  0.65750214768E+02  0.28021094384E+02 -0.17163964951E+03  0.18597288554E+03  0.41800000000E+01 0. -1.
        -11    1    3    3    0    0  0.34854419763E+02  0.69828516331E+01 -0.79132270757E+02  0.86749680513E+02  0.00000000000E+00 0.  1.
         11    1    3    3    0    0 -0.48385079472E+02 -0.20167279188E+02 -0.49563897647E+02  0.72141631637E+02  0.00000000000E+00 0. -1.
</event>
<event>
 7    1  0.4096326E-006  0.1402760E+03  0.7561462E-02  0.1212958E+00
          1   -1    0    0  501    0  0.00000000000E+00  0.00000000000E+00  0.12276629759E+04  0.12276629759E+04  0.00000000000E+00 0. -1.
         -1   -1    0    0    0  501 -0.00000000000E+00 -0.00000000000E+00 -0.22878115078E+02  0.22878115078E+02  0.00000000000E+00 0.  1.
         23    2    1    2    0    0 -0.10553735866E+03 -0.72832174213E+02  0.58457153521E+03  0.60497592584E+03  0.88483509145E+02 0.  0.
          5    1    1    2  502    0  0.98520627582E+02  0.43417591309E+02  0.22811501072E+03  0.25228026441E+03  0.41800000000E+01 0.  1.
         -5    1    1    2    0  502  0.70167310812E+01  0.29414582904E+02  0.39209831486E+03  0.39328490070E+03  0.41800000000E+01 0.  1.
        -11    1    3    3    0    0 -0.33681045303E+02  0.74936491951E+01  0.57995210840E+02  0.67483420715E+02  0.00000000000E+00 0.  1.
         11    1    3    3    0    0 -0.71856313360E+02 -0.80325823409E+02  0.52657632437E+03  0.53749250512E+03  0.00000000000E+00 0. -1.
</event>
<event>
 7    1  0.4096326E-006  0.1656168E+03  0.7561462E-02  0.1182497E+00
         -2   -1    0    0    0  501 -0.00000000000E+00  0.00000000000E+00  0.42910197753E+03  0.42910197753E+03  0.00000000000E+00 0.  1.
          2   -1    0    0  501    0  0.00000000000E+00 -0.00000000000E+00 -0.81518987149E+02  0.81518987149E+02  0.00000000000E+00 0. -1.
         23    2    1    2    0    0  0.12711547821E+03 -0.38111544021E+02  0.64560499869E+02  0.17392982654E+03  0.92047226078E+02 0.  0.
          5    1    1    2  502    0 -0.87936508534E+02  0.81700632586E+02  0.21914332207E+03  0.24989816107E+03  0.41800000000E+01 0.  1.
         -5    1    1    2    0  502 -0.39178969680E+02 -0.43589088565E+02  0.63879168437E+02  0.86792977063E+02  0.41800000000E+01 0.  1.
        -11    1    3    3    0    0 -0.97650679322E+01 -0.69555213188E+01 -0.94203799633E+01  0.15247274746E+02  0.00000000000E+00 0. -1.
         11    1    3    3    0    0  0.13688054615E+03 -0.31156022702E+02  0.73980879832E+02  0.15868255180E+03  0.00000000000E+00 0.  1.
</event>
<event>
 7    1  0.4096326E-006  0.9064428E+02  0.7561462E-02  0.1301299E+00
         -2   -1    0    0    0  501 -0.00000000000E+00  0.00000000000E+00  0.48041458570E+03  0.48041458570E+03  0.00000000000E+00 0.  1.
          2   -1    0    0  501    0  0.00000000000E+00 -0.00000000000E+00 -0.32198822129E+02  0.32198822129E+02  0.00000000000E+00 0. -1.
         23    2    1    2    0    0  0.64766647949E+01  0.14896706230E+02  0.78587502330E+02  0.12205877992E+03  0.91970055935E+02 0.  0.
          5    1    1    2  502    0  0.10800420342E+02 -0.56778777944E+02  0.31095089090E+03  0.31630429598E+03  0.41800000000E+01 0. -1.
         -5    1    1    2    0  502 -0.17277085137E+02  0.41882071714E+02  0.58677370337E+02  0.74250331929E+02  0.41800000000E+01 0. -1.
        -11    1    3    3    0    0  0.41357195794E+02  0.10635034091E+02  0.83358021985E+01  0.43508702490E+02  0.00000000000E+00 0. -1.
         11    1    3    3    0    0 -0.34880530999E+02  0.42616721394E+01  0.70251700132E+02  0.78550077426E+02  0.00000000000E+00 0.  1.
</event>
<event>
 7    1  0.4096326E-006  0.1008442E+03  0.7561462E-02  0.1278531E+00
         -3   -1    0    0    0  501 -0.00000000000E+00  0.00000000000E+00  0.82123860241E+02  0.82123860241E+02  0.00000000000E+00 0.  1.
          3   -1    0    0  501    0  0.00000000000E+00 -0.00000000000E+00 -0.13750243637E+03  0.13750243637E+03  0.00000000000E+00 0. -1.
         23    2    1    2    0    0 -0.13962677020E+01  0.34178061862E+00 -0.52697012765E+02  0.10609789468E+03  0.92074544389E+02 0.  0.
          5    1    1    2  502    0  0.44440376525E+02  0.32787642468E+02 -0.15600538347E+02  0.57539775470E+02  0.41800000000E+01 0. -1.
         -5    1    1    2    0  502 -0.43044108823E+02 -0.33129423087E+02  0.12918974980E+02  0.55988626461E+02  0.41800000000E+01 0.  1.
        -11    1    3    3    0    0 -0.19218681207E+02 -0.41834999375E+02 -0.30401310996E+02  0.55170323456E+02  0.00000000000E+00 0.  1.
         11    1    3    3    0    0  0.17822413505E+02  0.42176779993E+02 -0.22295701769E+02  0.50927571227E+02  0.00000000000E+00 0. -1.
</event>
<event>
 7    1  0.4096326E-006  0.5586876E+02  0.7561462E-02  0.1416035E+00
          1   -1    0    0  501    0  0.00000000000E+00  0.00000000000E+00  0.63297185612E+02  0.63297185612E+02  0.00000000000E+00 0. -1.
         -1   -1    0    0    0  501 -0.00000000000E+00 -0.00000000000E+00 -0.20428298862E+03  0.20428298862E+03  0.00000000000E+00 0.  1.
         23    2    1    2    0    0 -0.11971568907E+02  0.26024605434E+01 -0.17025638894E+02  0.91036558289E+02  0.88587196041E+02 0.  0.
          5    1    1    2  502    0 -0.12243919759E+02 -0.33242629022E+02 -0.13175683270E+03  0.13650026124E+03  0.41800000000E+01 0. -1.
         -5    1    1    2    0  502  0.24215488666E+02  0.30640168479E+02  0.77966685765E+01  0.40043354713E+02  0.41800000000E+01 0. -1.
        -11    1    3    3    0    0 -0.15583572422E+02  0.16342858290E+02 -0.50146907075E+02  0.54996809323E+02  0.00000000000E+00 0.  1.
         11    1    3    3    0    0  0.36120035146E+01 -0.13740397747E+02  0.33121268181E+02  0.36039748966E+02  0.00000000000E+00 0. -1.
</event>
<event>
 7    1  0.4096326E-006  0.1475933E+03  0.7561462E-02  0.1203462E+00
         -2   -1    0    0    0  501 -0.00000000000E+00  0.00000000000E+00  0.85822069222E+03  0.85822069222E+03  0.00000000000E+00 0.  1.
          2   -1    0    0  501    0  0.00000000000E+00 -0.00000000000E+00 -0.42605332363E+02  0.42605332363E+02  0.00000000000E+00 0. -1.
         23    2    1    2    0    0 -0.10064149797E+03 -0.43212849891E+02  0.12173519273E+03  0.18730451640E+03  0.90925591575E+02 0.  0.
          5    1    1    2  502    0  0.49783895980E+02  0.83466197647E+02  0.33644830343E+03  0.35022846220E+03  0.41800000000E+01 0.  1.
         -5    1    1    2    0  502  0.50857601988E+02 -0.40253347756E+02  0.35743186369E+03  0.36329304599E+03  0.41800000000E+01 0.  1.
        -11    1    3    3    0    0 -0.80413579746E+02  0.50644225187E+01  0.39278842777E+02  0.89637155649E+02  0.00000000000E+00 0. -1.
         11    1    3    3    0    0 -0.20227918223E+02 -0.48277272409E+02  0.82456349958E+02  0.97667360747E+02  0.00000000000E+00 0.  1.
</event>
<event>
 7    1  0.4096326E-006  0.1037626E+03  0.7561462E-02  0.1272577E+00
         -3   -1    0    0    0  501 -0.00000000000E+00  0.00000000000E+00  0.15661601149E+03  0.15661601149E+03  0.00000000000E+00 0.  1.
          3   -1    0    0  501    0  0.00000000000E+00 -0.00000000000E+00 -0.10107169210E+03  0.10107169210E+03  0.00000000000E+00 0. -1.
         23    2    1    2    0    0  0.18219368116E+02 -0.42243808394E+02 -0.20445683084E+02  0.10426632144E+03  0.91306928032E+02 0.  0.
          5    1    1    2  502    0  0.31624440978E+02 -0.27981145434E+02  0.44878639341E+02  0.61762565005E+02  0.41800000000E+01 0.  1.
         -5    1    1    2    0  502 -0.49843809095E+02  0.70224953828E+02  0.31111363129E+02  0.91658817148E+02  0.41800000000E+01 0.  1.
        -11    1    3    3    0    0 -0.73497998406E+01 -0.51243949270E+02 -0.44317105518E+02  0.68146663425E+02  0.00000000000E+00 0. -1.
         11    1    3    3    0    0  0.25569167957E+02  0.90001408755E+01  0.23871422434E+02  0.36119658011E+02  0.00000000000E+00 0.  1.
</event>
<event>
 7    1  0.4096326E-006  0.9659002E+02  0.7561462E-02  0.1287635E+00
         -2   -1    0    0    0  501 -0.00000000000E+00  0.00000000000E+00  0.87146830629E+02  0.87146830629E+02  0.00000000000E+00 0.  1.
          2   -1    0    0  501    0  0.00000000000E+00 -0.00000000000E+00 -0.14118128305E+03  0.14118128305E+03  0.00000000000E+00 0. -1.
         23    2    1    2    0    0 -0.12298683834E+02  0.57254317702E+01 -0.40190444138E+02  0.10167564507E+03  0.92404690395E+02 0.  0.
          5    1    1    2  502    0  0.10415015570E+02 -0.53196029373E+02 -0.44244919959E+02  0.70095473696E+02  0.41800000000E+01 0. -1.
         -5    1    1    2    0  502  0.18836682633E+01  0.47470597603E+02  0.30400911677E+02  0.56556994914E+02  0.41800000000E+01 0. -1.
        -11    1    3    3    0    0 -0.39510534423E+02 -0.27526993642E+02 -0.10052244113E+02  0.49192126617E+02  0.00000000000E+00 0.  1.
         11    1    3    3    0    0  0.27211850590E+02  0.33252425412E+02 -0.30138200025E+02  0.52483518452E+02  0.00000000000E+00 0. -1.
</event>
<event>
 7    1  0.4096326E-006  0.1571383E+03  0.7561462E-02  0.1191966E+00
         -1   -1    0    0    0  501 -0.00000000000E+00  0.00000000000E+00  0.57182086144E+03  0.57182086144E+03  0.00000000000E+00 0.  1.
          1   -1    0    0  501    0  0.00000000000E+00 -0.00000000000E+00 -0.50911797316E+02  0.50911797316E+02  0.00000000000E+00 0. -1.
         23    2    1    2    0    0 -0.10730558953E+03  0.32613882820E+02  0.12616286050E+03  0.19372168913E+03  0.95041415043E+02 0.  0.
          5    1    1    2  502    0  0.42760545947E+02 -0.77911294263E+02  0.20301166012E+03  0.22165252223E+03  0.41800000000E+01 0. -1.
         -5    1    1    2    0  502  0.64545043587E+02  0.45297411443E+02  0.19173454351E+03  0.20735844740E+03  0.41800000000E+01 0. -1.
        -11    1    3    3    0    0  0.60848518715E+01  0.32382288189E+02  0.36435462270E+02  0.49124137871E+02  0.00000000000E+00 0.  1.
         11    1    3    3    0    0 -0.11339044140E+03  0.23159463038E+00  0.89727398226E+02  0.14459755126E+03  0.00000000000E+00 0. -1.
</event>
<event>
 7    1  0.4096326E-006  0.2113719E+03  0.7561462E-02  0.1140484E+00
          1   -1    0    0  501    0  0.00000000000E+00  0.00000000000E+00  0.37442860833E+03  0.37442860833E+03  0.00000000000E+00 0. -1.
         -1   -1    0    0    0  501 -0.00000000000E+00 -0.00000000000E+00 -0.14371540557E+03  0.14371540557E+03  0.00000000000E+00 0.  1.
         23    2    1    2    0    0 -0.18456707241E+02 -0.20450433204E+03  0.11392113138E+03  0.25083975335E+03  0.88203661022E+02 0.  0.
          5    1    1    2  502    0  0.45180026682E+02  0.10710554042E+03  0.47713797344E+01  0.11641765358E+03  0.41800000000E+01 0. -1.
         -5    1    1    2    0  502 -0.26723319441E+02  0.97398791621E+02  0.11202069164E+03  0.15088660698E+03  0.41800000000E+01 0. -1.
        -11    1    3    3    0    0 -0.31924623011E+01 -0.40899302232E+02  0.69368729795E+02  0.80591348245E+02  0.00000000000E+00 0. -1.
         11    1    3    3    0    0 -0.15264244940E+02 -0.16360502981E+03  0.44552401589E+02  0.17024840510E+03  0.00000000000E+00 0.  1.
</event>
<event>
 7    1  0.4096326E-006  0.1436725E+03  0.7561462E-02  0.1208471E+00
         -2   -1    0    0    0  501 -0.00000000000E+00  0.00000000000E+00  0.34115515278E+02  0.34115515278E+02  0.00000000000E+00 0.  1.
          2   -1    0    0  501    0  0.00000000000E+00 -0.00000000000E+00 -0.89800869476E+03  0.89800869476E+03  0.00000000000E+00 0. -1.
         23    2    1    2    0    0  0.10170296026E+03 -0.40620677798E+02 -0.62501706775E+03  0.64108677034E+03  0.91391359194E+02 0.  0.
          5    1    1    2  502    0 -0.23695674187E+02  0.70004139973E+02 -0.66453716760E+02  0.99476798600E+02  0.41800000000E+01 0.  1.
         -5    1    1    2    0  502 -0.78007286074E+02 -0.29383462175E+02 -0.17242239497E+03  0.19156064110E+03  0.41800000000E+01 0.  1.
        -11    1    3    3    0    0  0.24849535339E+02  0.20061058926E+02 -0.63319362266E+02  0.70917467028E+02  0.00000000000E+00 0.  1.
         11    1    3    3    0    0  0.76853424922E+02 -0.60681736723E+02 -0.56169770549E+03  0.57016930331E+03  0.00000000000E+00 0. -1.
</event>
<event>
 7    1  0.4096326E-006  0.1045591E+03  0.7561462E-02  0.1270991E+00
          2   -1    0    0  501    0  0.00000000000E+00  0.00000000000E+00  0.32192435275E+03  0.32192435275E+03  0.00000000000E+00 0. -1.
         -2   -1    0    0    0  501 -0.00000000000E+00 -0.00000000000E+00 -0.43157722489E+02  0.43157722489E+02  0.00000000000E+00 0.  1.
         23    2    1    2    0    0  0.97774052617E+01 -0.41180825939E+02  0.14986137145E+03  0.18053682170E+03  0.91343610939E+02 0.  0.
          5    1    1    2  502    0  0.22969939205E+02 -0.32856515082E+02  0.80765595898E+02  0.90264736034E+02  0.41800000000E+01 0. -1.
         -5    1    1    2    0  502 -0.32747344466E+02  0.74037341021E+02  0.48139662915E+02  0.94280517503E+02  0.41800000000E+01 0. -1.
        -11    1    3    3    0    0  0.72940777816E+01 -0.64190695768E+02  0.61503530245E+02  0.89198280401E+02  0.00000000000E+00 0.  1.
         11    1    3    3    0    0  0.24833274801E+01  0.23009869829E+02  0.88357841206E+02  0.91338541304E+02  0.00000000000E+00 0. -1.
</event>
<event>
 7    1  0.4096326E-006  0.1145701E+03  0.7561462E-02  0.1252333E+00
         -1   -1    0    0    0  501 -0.00000000000E+00  0.00000000000E+00  0.10310646507E+03  0.10310646507E+03  0.00000000000E+00 0.  1.
          1   -1    0    0  501    0  0.00000000000E+00 -0.00000000000E+00 -0.15380530442E+03  0.15380530442E+03  0.00000000000E+00 0. -1.
         23    2    1    2    0    0 -0.29861937783E+02  0.16115598270E+02 -0.74128857596E+02  0.12519860263E+03  0.95016602430E+02 0.  0.
          5    1    1    2  502    0 -0.38018520858E+02 -0.41275042663E+02  0.28868716889E+01  0.56345749646E+02  0.41800000000E+01 0. -1.
         -5    1    1    2    0  502  0.67880458641E+02  0.25159444392E+02  0.20543146559E+02  0.75367417217E+02  0.41800000000E+01 0. -1.
        -11    1    3    3    0    0 -0.57150788616E+02  0.35139463979E+02 -0.43334836258E+02  0.79868032414E+02  0.00000000000E+00 0.  1.
         11    1    3    3    0    0  0.27288850833E+02 -0.19023865709E+02 -0.30794021339E+02  0.45330570220E+02  0.00000000000E+00 0. -1.
</event>
<event>
 7    1  0.4096326E-006  0.7372344E+02  0.7561462E-02  0.1347870E+00
         -4   -1    0    0    0  501 -0.00000000000E+00  0.00000000000E+00  0.84088355203E+02  0.84088355203E+02  0.00000000000E+00 0.  1.
          4   -1    0    0  501    0  0.00000000000E+00 -0.00000000000E+00 -0.17207250816E+03  0.17207250816E+03  0.00000000000E+00 0. -1.
         23    2    1    2    0    0 -0.45820761255E+02 -0.21298795189E+02 -0.43826430226E+02  0.11421551742E+03  0.92581032588E+02 0.  0.
          5    1    1    2  502    0 -0.22461629268E+01 -0.26896661563E+02 -0.65107390054E+02  0.70603967954E+02  0.41800000000E+01 0.  1.
         -5    1    1    2    0  502  0.48066924182E+02  0.48195456752E+02  0.20949667325E+02  0.71341377986E+02  0.41800000000E+01 0.  1.
        -11    1    3    3    0    0 -0.10767879696E+02 -0.11025779159E+02  0.28944436488E+02  0.32791697773E+02  0.00000000000E+00 0.  1.
         11    1    3    3    0    0 -0.35052881559E+02 -0.10273016030E+02 -0.72770866714E+02  0.81423819649E+02  0.00000000000E+00 0. -1.
</event>
<event>
 7    1  0.4096326E-006  0.8377812E+02  0.7561462E-02  0.1318659E+00
          1   -1    0    0  501    0  0.00000000000E+00  0.00000000000E+00  0.23252415647E+03  0.23252415647E+03  0.00000000000E+00 0. -1.
         -1   -1    0    0    0  501 -0.00000000000E+00 -0.00000000000E+00 -0.28170087569E+03  0.28170087569E+03  0.00000000000E+00 0.  1.
         23    2    1    2    0    0 -0.48147926859E+02  0.30358686959E+02  0.20382861569E+03  0.22630412141E+03  0.80172177588E+02 0.  0.
          5    1    1    2  502    0  0.48705330292E+02  0.10888529460E+02 -0.23894860386E+03  0.24414069092E+03  0.41800000000E+01 0.  1.
         -5    1    1    2    0  502 -0.55740343359E+00 -0.41247216419E+02 -0.14056731039E+02  0.43780219831E+02  0.41800000000E+01 0.  1.
        -11    1    3    3    0    0 -0.36002653910E+02  0.44584908742E+02  0.19885662802E+03  0.20694918141E+03  0.00000000000E+00 0. -1.
         11    1    3    3    0    0 -0.12145272949E+02 -0.14226221783E+02  0.49719876654E+01  0.19354940004E+02  0.00000000000E+00 0.  1.
</event>
<event>
 7    1  0.4096326E-006  0.1233441E+03  0.7561462E-02  0.1237680E+00
         -2   -1    0    0    0  501 -0.00000000000E+00  0.00000000000E+00  0.11893857962E+03  0.11893857962E+03  0.00000000000E+00 0.  1.
          2   -1    0    0  501    0  0.00000000000E+00 -0.00000000000E+00 -0.16995623078E+03  0.16995623078E+03  0.00000000000E+00 0. -1.
         23    2    1    2    0    0 -0.48842926740E+02  0.60496989086E+02 -0.72855114774E+02  0.13999763588E+03  0.90807230560E+02 0.  0.
          5    1    1    2  502    0 -0.45552396657E+01  0.27152938795E+02 -0.23670034620E+02  0.36548258953E+02  0.41800000000E+01 0.  1.
         -5    1    1    2    0  502  0.53398166406E+02 -0.87649927881E+02  0.45507498232E+02  0.11234891556E+03  0.41800000000E+01 0.  1.
        -11    1    3    3    0    0  0.91583163324E+01  0.57304376920E+02 -0.53049069952E+02  0.78624870079E+02  0.00000000000E+00 0. -1.
         11    1    3    3    0    0 -0.58001243073E+02  0.31926121665E+01 -0.19806044822E+02  0.61372765800E+02  0.00000000000E+00 0.  1.
</event>
<event>
 7    1  0.4096326E-006  0.9067293E+02  0.7561462E-02  0.1301230E+00
         -1   -1    0    0    0  501 -0.00000000000E+00  0.00000000000E+00  0.11876953063E+04  0.11876953063E+04  0.00000000000E+00 0.  1.
          1   -1    0    0  501    0  0.00000000000E+00 -0.00000000000E+00 -0.14880339480E+02  0.14880339480E+02  0.00000000000E+00 0. -1.
         23    2    1    2    0    0 -0.59509698829E+02 -0.77053735510E+01  0.31188572669E+03  0.33053909455E+03  0.91556591653E+02 0.  0.
          5    1    1    2  502    0 -0.37264363173E+01 -0.85222293108E+01  0.17211744545E+01  0.10341642111E+02  0.41800000000E+01 0.  1.
         -5    1    1    2    0  502  0.63236135146E+02  0.16227602862E+02  0.85920806563E+03  0.86169490907E+03  0.41800000000E+01 0.  1.
        -11    1    3    3    0    0  0.22937201573E+02 -0.32051057010E+01  0.38232239871E+02  0.44700023312E+02  0.00000000000E+00 0. -1.
         11    1    3    3    0    0 -0.82446900402E+02 -0.45002678500E+01  0.27365348682E+03  0.28583907124E+03  0.00000000000E+00 0.  1.
</event>
<event>
 7    1  0.4096326E-006  0.1320379E+03  0.7561462E-02  0.1224463E+00
          3   -1    0    0  501    0  0.00000000000E+00  0.00000000000E+00  0.61678345946E+02  0.61678345946E+02  0.00000000000E+00 0. -1.
         -3   -1    0    0    0  501 -0.00000000000E+00 -0.00000000000E+00 -0.39460683070E+03  0.39460683070E+03  0.00000000000E+00 0.  1.
         23    2    1    2    0    0  0.99168893137E+02 -0.97056516302E+01 -0.82775068081E+02  0.15937990932E+03  0.92852434328E+02 0.  0.
          5    1    1    2  502    0 -0.12468074222E+03 -0.11839763237E+02 -0.20964466326E+03  0.24424132474E+03  0.41800000000E+01 0.  1.
         -5    1    1    2    0  502  0.25511849088E+02  0.21545414867E+02 -0.40508753409E+02  0.52663942583E+02  0.41800000000E+01 0.  1.
        -11    1    3    3    0    0  0.28336052666E+02  0.12369552691E+02 -0.79290207612E+02  0.85105080563E+02  0.00000000000E+00 0.  1.
         11    1    3    3    0    0  0.70832840471E+02 -0.22075204321E+02 -0.34848604690E+01  0.74274828761E+02  0.00000000000E+00 0. -1.
</event>
<event>
 7    1  0.4096326E-006  0.1065389E+03  0.7561462E-02  0.1267117E+00
         -1   -1    0    0    0  501 -0.00000000000E+00  0.00000000000E+00  0.15409080626E+03  0.15409080626E+03  0.00000000000E+00 0.  1.
          1   -1    0    0  501    0  0.00000000000E+00 -0.00000000000E+00 -0.12771662879E+03  0.12771662879E+03  0.00000000000E+00 0. -1.
         23    2    1    2    0    0 -0.56161558394E+02  0.22322339970E+02 -0.57280734140E+02  0.11964271746E+03  0.85912105291E+02 0.  0.
          5    1    1    2  502    0  0.20685475671E+02  0.40622475303E+02 -0.68429140494E+01  0.46285767533E+02  0.41800000000E+01 0. -1.
         -5    1    1    2    0  502  0.35476082723E+02 -0.62944815273E+02  0.90497825665E+02  0.11587895005E+03  0.41800000000E+01 0. -1.
        -11    1    3    3    0    0 -0.28926594230E+02 -0.26364997031E+02  0.74938187017E+00  0.39146168336E+02  0.00000000000E+00 0.  1.
         11    1    3    3    0    0 -0.27234964164E+02  0.48687337001E+02 -0.58030116010E+02  0.80496549128E+02  0.00000000000E+00 0. -1.
</event>
<event>
 7    1  0.4096326E-006  0.1121928E+03  0.7561462E-02  0.1256562E+00
          1   -1    0    0  501    0  0.00000000000E+00  0.00000000000E+00  0.16625902640E+03  0.16625902640E+03  0.00000000000E+00 0. -1.
         -1   -1    0    0    0  501 -0.00000000000E+00 -0.00000000000E+00 -0.10733097330E+03  0.10733097330E+03  0.00000000000E+00 0.  1.
         23    2    1    2    0    0 -0.37213562660E+02  0.69476536868E+02  0.21123936400E+02  0.12098507606E+03  0.89327092867E+02 0.  0.
          5    1    1    2  502    0  0.93429428290E+01  0.13906068369E+02  0.59499259529E+02  0.61954044280E+02  0.41800000000E+01 0.  1.
         -5    1    1    2    0  502  0.27870619831E+02 -0.83382605237E+02 -0.21695142827E+02  0.90650879357E+02  0.41800000000E+01 0.  1.
        -11    1    3    3    0    0 -0.51110185101E+02  0.30102355475E+01  0.10294222795E+02  0.52223400522E+02  0.00000000000E+00 0. -1.
         11    1    3    3    0    0  0.13896622441E+02  0.66466301321E+02  0.10829713605E+02  0.68761675542E+02  0.00000000000E+00 0.  1.
</event>
<event>
 7    1  0.4096326E-006  0.1179382E+03  0.7561462E-02  0.1246538E+00
         -2   -1    0    0    0  501 -0.00000000000E+00  0.00000000000E+00  0.20003935115E+03  0.20003935115E+03  0.00000000000E+00 0. -1.
          2   -1    0    0  501    0  0.00000000000E+00 -0.00000000000E+00 -0.12804932823E+03  0.12804932823E+03  0.00000000000E+00 0.  1.
         23    2    1    2    0    0  0.10399205736E+03  0.15745059305E+02 -0.19209802996E+02  0.14093157260E+03  0.91817409781E+02 0.  0.
          5    1    1    2  502    0 -0.83717966148E+02 -0.12183749335E+02 -0.86298944789E+01  0.85141582570E+02  0.41800000000E+01 0. -1.
         -5    1    1    2    0  502 -0.20274091213E+02 -0.35613099705E+01  0.99829720398E+02  0.10201552420E+03  0.41800000000E+01 0. -1.
        -11    1    3    3    0    0  0.79096213379E+01  0.31786944553E+02  0.17125840946E+02  0.36963040754E+02  0.00000000000E+00 0.  1.
         11    1    3    3    0    0  0.96082436023E+02 -0.16041885247E+02 -0.36335643942E+02  0.10396853185E+03  0.00000000000E+00 0. -1.
</event>
<event>
 7    1  0.4096326E-006  0.9096392E+02  0.7561462E-02  0.1300534E+00
          2   -1    0    0  501    0  0.00000000000E+00  0.00000000000E+00  0.15603033583E+02  0.15603033583E+02  0.00000000000E+00 0. -1.
         -2   -1    0    0    0  501 -0.00000000000E+00 -0.00000000000E+00 -0.88542972901E+03  0.88542972901E+03  0.00000000000E+00 0.  1.
         23    2    1    2    0    0 -0.17150310565E+02 -0.27113468670E+02 -0.23938985469E+03  0.25750713910E+03  0.89292501492E+02 0.  0.
          5    1    1    2  502    0  0.48783895687E+02  0.25671354185E+02 -0.58706017718E+03  0.58965753699E+03  0.41800000000E+01 0.  1.
         -5    1    1    2    0  502 -0.31633585122E+02  0.14421144851E+01 -0.43376663561E+02  0.53868086503E+02  0.41800000000E+01 0.  1.
        -11    1    3    3    0    0  0.31607232146E+02 -0.32876124424E+02 -0.12319294908E+03  0.13136346290E+03  0.00000000000E+00 0.  1.
         11    1    3    3    0    0 -0.48757542712E+02  0.57626557536E+01 -0.11619690561E+03  0.12614367620E+03  0.00000000000E+00 0. -1.
</event>
<event>
 7    1  0.4096326E-006  0.1091415E+03  0.7561462E-02  0.1262168E+00
          4   -1    0    0  501    0  0.00000000000E+00  0.00000000000E+00  0.15807257910E+03  0.15807257910E+03  0.00000000000E+00 0.  1.
         -4   -1    0    0    0  501 -0.00000000000E+00 -0.00000000000E+00 -0.84140120367E+02  0.84140120367E+02  0.00000000000E+00 0. -1.
         23    2    1    2    0    0  0.33277308814E+02  0.15093198653E+02  0.48926723384E+02  0.10951567684E+03  0.90910259519E+02 0.  0.
          5    1    1    2  502    0  0.44399626587E+02 -0.13275696078E+02 -0.96461065853E+01  0.47519372046E+02  0.41800000000E+01 0. -1.
         -5    1    1    2    0  502 -0.77676935400E+02 -0.18175025758E+01  0.34651841937E+02  0.85177650580E+02  0.41800000000E+01 0. -1.
        -11    1    3    3    0    0  0.19360232018E+02 -0.36060751958E+02  0.37006804585E+02  0.55178800287E+02  0.00000000000E+00 0.  1.
         11    1    3    3    0    0  0.13917076795E+02  0.51153950611E+02  0.11919918800E+02  0.54336876556E+02  0.00000000000E+00 0. -1.
</event>
<event>
 7    1  0.4096326E-006  0.1510821E+03  0.7561462E-02  0.1199150E+00
          1   -1    0    0  501    0  0.00000000000E+00  0.00000000000E+00  0.43125893724E+03  0.43125893724E+03  0.00000000000E+00 0. -1.
         -1   -1    0    0    0  501 -0.00000000000E+00 -0.00000000000E+00 -0.53321958945E+02  0.53321958945E+02  0.00000000000E+00 0.  1.
         23    2    1    2    0    0  0.10439353069E+03 -0.11810399494E+02  0.16554205137E+03  0.21663823410E+03  0.92143686256E+02 0.  0.
          5    1    1    2  502    0  0.22768515492E+02 -0.21696743223E+02  0.38711123537E+02  0.50051747718E+02  0.41800000000E+01 0. -1.
         -5    1    1    2    0  502 -0.12716204618E+03  0.33507142717E+02  0.17368380339E+03  0.21789091436E+03  0.41800000000E+01 0. -1.
        -11    1    3    3    0    0  0.35219803526E+02 -0.48989506752E+02  0.84057266507E+02  0.10346994919E+03  0.00000000000E+00 0.  1.
         11    1    3    3    0    0  0.69173727166E+02  0.37179107258E+02  0.81484784862E+02  0.11316828491E+03  0.00000000000E+00 0. -1.
</event>
<event>
 7    1  0.4096326E-006  0.1320457E+03  0.7561462E-02  0.1224452E+00
          2   -1    0    0  501    0  0.00000000000E+00  0.00000000000E+00  0.32443743362E+03  0.32443743362E+03  0.00000000000E+00 0.  1.
         -2   -1    0    0    0  501 -0.00000000000E+00 -0.00000000000E+00 -0.11275020614E+03  0.11275020614E+03  0.00000000000E+00 0. -1.
         23    2    1    2    0    0  0.61130988416E+02  0.75620285368E+02  0.24111131166E+03  0.27604135752E+03  0.92783302101E+02 0.  0.
          5    1    1    2  502    0  0.11484544816E+02 -0.56180735682E+02  0.30350823700E+02  0.65013957968E+02  0.41800000000E+01 0. -1.
         -5    1    1    2    0  502 -0.72615533232E+02 -0.19439549685E+02 -0.59774907876E+02  0.96132324273E+02  0.41800000000E+01 0. -1.
        -11    1    3    3    0    0 -0.23078101186E+02  0.14490523409E+02  0.29081403252E+02  0.39853507225E+02  0.00000000000E+00 0.  1.
         11    1    3    3    0    0  0.84209089603E+02  0.61129761958E+02  0.21202990840E+03  0.23618785029E+03  0.00000000000E+00 0. -1.
</event>
<event>
 7    1  0.4096326E-006  0.1237765E+03  0.7561462E-02  0.1236994E+00
         -2   -1    0    0    0  501 -0.00000000000E+00  0.00000000000E+00  0.17642031782E+03  0.17642031782E+03  0.00000000000E+00 0.  1.
          2   -1    0    0  501    0  0.00000000000E+00 -0.00000000000E+00 -0.97980605816E+02  0.97980605816E+02  0.00000000000E+00 0. -1.
         23    2    1    2    0    0 -0.59455208481E+02 -0.54533204035E+01 -0.54361175719E+00  0.11037817102E+03  0.92835255186E+02 0.  0.
          5    1    1    2  502    0 -0.89778405419E+01 -0.49729904563E+02  0.88200735289E+01  0.51467767833E+02  0.41800000000E+01 0. -1.
         -5    1    1    2    0  502  0.68433049023E+02  0.55183224967E+02  0.70163250237E+02  0.11255498479E+03  0.41800000000E+01 0.  1.
        -11    1    3    3    0    0  0.12584117119E+02 -0.30158760775E+02  0.82780101064E+01  0.33711070978E+02  0.00000000000E+00 0.  1.
         11    1    3    3    0    0 -0.72039325600E+02  0.24705440372E+02 -0.88216218635E+01  0.76667100044E+02  0.00000000000E+00 0. -1.
</event>
<event>
 7    1  0.4096326E-006  0.9648834E+02  0.7561462E-02  0.1287859E+00
          2   -1    0    0  501    0  0.00000000000E+00  0.00000000000E+00  0.52198012711E+03  0.52198012711E+03  0.00000000000E+00 0. -1.
         -2   -1    0    0    0  501 -0.00000000000E+00 -0.00000000000E+00 -0.23719332341E+02  0.23719332341E+02  0.00000000000E+00 0.  1.
         23    2    1    2    0    0 -0.14562073588E+02  0.24267559037E+01  0.24346254070E+03  0.26146693230E+03  0.94196628536E+02 0.  0.
          5    1    1    2  502    0  0.24272440016E+02 -0.51772260559E+02  0.59936174183E+02  0.82941760793E+02  0.41800000000E+01 0.  1.
         -5    1    1    2    0  502 -0.97103664288E+01  0.49345504656E+02  0.19486207988E+03  0.20129076636E+03  0.41800000000E+01 0.  1.
        -11    1    3    3    0    0 -0.29967778162E+02  0.36831372571E+02  0.19132611462E+03  0.19713015972E+03  0.00000000000E+00 0. -1.
         11    1    3    3    0    0  0.15405704574E+02 -0.34404616667E+02  0.52136426079E+02  0.64336772578E+02  0.00000000000E+00 0.  1.
</event>
<event>
 7    1  0.4096326E-006  0.1426975E+03  0.7561462E-02  0.1209745E+00
         -2   -1    0    0    0  501 -0.00000000000E+00  0.00000000000E+00  0.16132822304E+03  0.16132822304E+03  0.00000000000E+00 0.  1.
          2   -1    0    0  501    0  0.00000000000E+00 -0.00000000000E+00 -0.15938997877E+03  0.15938997877E+03  0.00000000000E+00 0. -1.
         23    2    1    2    0    0 -0.25604051303E+02 -0.10243565921E+03 -0.52438818832E+02  0.14822712526E+03  0.89848868774E+02 0.  0.
          5    1    1    2  502    0  0.19571420607E+02 -0.27160914446E+02  0.82201595809E+01  0.34724619533E+02  0.41800000000E+01 0. -1.
         -5    1    1    2    0  502  0.60326306955E+01  0.12959657366E+03  0.46156903524E+02  0.13776645702E+03  0.41800000000E+01 0. -1.
        -11    1    3    3    0    0  0.17234258230E+02 -0.56376211353E+02  0.97742609021E+01  0.59756447681E+02  0.00000000000E+00 0. -1.
         11    1    3    3    0    0 -0.42838309532E+02 -0.46059447857E+02 -0.62213079734E+02  0.88470677575E+02  0.00000000000E+00 0.  1.
</event>
<event>
 7    1  0.4096326E-006  0.1438764E+03  0.7561462E-02  0.1208206E+00
         -2   -1    0    0    0  501 -0.00000000000E+00  0.00000000000E+00  0.86738918796E+02  0.86738918796E+02  0.00000000000E+00 0.  1.
          2   -1    0    0  501    0  0.00000000000E+00 -0.00000000000E+00 -0.31910319048E+03  0.31910319048E+03  0.00000000000E+00 0. -1.
         23    2    1    2    0    0  0.63610710294E+02 -0.10469979602E+03 -0.15204717143E+03  0.21643024885E+03  0.93355988149E+02 0.  0.
          5    1    1    2  502    0 -0.84240898497E+02  0.93209406101E+02 -0.98184574012E+02  0.15950612947E+03  0.41800000000E+01 0. -1.
         -5    1    1    2    0  502  0.20630188203E+02  0.11490389923E+02  0.17867473758E+02  0.29905730962E+02  0.41800000000E+01 0.  1.
        -11    1    3    3    0    0 -0.13154169054E+02 -0.13311007377E+02 -0.67812277828E+02  0.70347139992E+02  0.00000000000E+00 0.  1.
         11    1    3    3    0    0  0.76764879348E+02 -0.91388788647E+02 -0.84234893604E+02  0.14608310885E+03  0.00000000000E+00 0. -1.
</event>
<event>
 7    1  0.4096326E-006  0.1006618E+03  0.7561462E-02  0.1278910E+00
          3   -1    0    0  501    0  0.00000000000E+00  0.00000000000E+00  0.20157495328E+03  0.20157495328E+03  0.00000000000E+00 0. -1.
         -3   -1    0    0    0  501 -0.00000000000E+00 -0.00000000000E+00 -0.83360396958E+02  0.83360396958E+02  0.00000000000E+00 0.  1.
         23    2    1    2    0    0  0.14936341318E+02 -0.67124082839E+02  0.83276309121E+02  0.13797778466E+03  0.85873095958E+02 0.  0.
          5    1    1    2  502    0 -0.15917782666E+02 -0.12931410282E+02  0.59528296336E+02  0.63100615223E+02  0.41800000000E+01 0.  1.
         -5    1    1    2    0  502  0.98144134842E+00  0.80055493121E+02 -0.24590049138E+02  0.83856950354E+02  0.41800000000E+01 0.  1.
        -11    1    3    3    0    0  0.42616315247E+02 -0.23801132230E+02  0.69184495607E+02  0.84670766224E+02  0.00000000000E+00 0. -1.
         11    1    3    3    0    0 -0.27679973929E+02 -0.43322950610E+02  0.14091813515E+02  0.53307018434E+02  0.00000000000E+00 0.  1.
</event>
<event>
 7    1  0.4096326E-006  0.2232961E+03  0.7561462E-02  0.1131449E+00
         -1   -1    0    0    0  501 -0.00000000000E+00  0.00000000000E+00  0.37878405252E+02  0.37878405252E+02  0.00000000000E+00 0.  1.
          1   -1    0    0  501    0  0.00000000000E+00 -0.00000000000E+00 -0.15545261271E+04  0.15545261271E+04  0.00000000000E+00 0. -1.
         23    2    1    2    0    0 -0.86587209385E+02  0.19476277024E+03 -0.87119797741E+03  0.90126853975E+03  0.88708417846E+02 0.  0.
          5    1    1    2  502    0  0.29688849844E+02 -0.11204298526E+03 -0.50679373328E+03  0.51989654629E+03  0.41800000000E+01 0.  1.
         -5    1    1    2    0  502  0.56898359542E+02 -0.82719784985E+02 -0.13865601119E+03  0.17123944635E+03  0.41800000000E+01 0.  1.
        -11    1    3    3    0    0 -0.10256716388E+03  0.14322741091E+03 -0.69612620637E+03  0.71807089451E+03  0.00000000000E+00 0. -1.
         11    1    3    3    0    0  0.15979954498E+02  0.51535359329E+02 -0.17507177104E+03  0.18319764524E+03  0.00000000000E+00 0.  1.
</event>
<event>
 7    1  0.4096326E-006  0.1077743E+03  0.7561462E-02  0.1264748E+00
         -2   -1    0    0    0  501 -0.00000000000E+00  0.00000000000E+00  0.12632364828E+03  0.12632364828E+03  0.00000000000E+00 0.  1.
          2   -1    0    0  501    0  0.00000000000E+00 -0.00000000000E+00 -0.18287592717E+03  0.18287592717E+03  0.00000000000E+00 0. -1.
         23    2    1    2    0    0  0.88468769311E+01 -0.73069213647E+02 -0.10275877529E+03  0.15687922120E+03  0.92921186662E+02 0.  0.
          5    1    1    2  502    0  0.27626825135E+02  0.39392969776E+02 -0.33180906712E+02  0.58596011000E+02  0.41800000000E+01 0. -1.
         -5    1    1    2    0  502 -0.36473702066E+02  0.33676243870E+02  0.79387403121E+02  0.93724343251E+02  0.41800000000E+01 0. -1.
        -11    1    3    3    0    0 -0.36652811860E+02 -0.59624474068E+02 -0.50564432801E+02  0.86343896076E+02  0.00000000000E+00 0.  1.
         11    1    3    3    0    0  0.45499688791E+02 -0.13444739579E+02 -0.52194342494E+02  0.70535325127E+02  0.00000000000E+00 0. -1.
</event>
<event>
 7    1  0.4096326E-006  0.1026829E+03  0.7561462E-02  0.1274753E+00
         -1   -1    0    0    0  501 -0.00000000000E+00  0.00000000000E+00  0.24384614310E+02  0.24384614310E+02  0.00000000000E+00 0.  1.
          1   -1    0    0  501    0  0.00000000000E+00 -0.00000000000E+00 -0.47084219402E+03  0.47084219402E+03  0.00000000000E+00 0. -1.
         23    2    1    2    0    0 -0.25857160947E+02 -0.15136230600E+02 -0.25019383758E+03  0.26790710621E+03  0.90992103737E+02 0.  0.
          5    1    1    2  502    0  0.54622796981E+02  0.43247314471E+02 -0.91927708230E+02  0.11542164485E+03  0.41800000000E+01 0. -1.
         -5    1    1    2    0  502 -0.28765636034E+02 -0.28111083871E+02 -0.10433603390E+03  0.11189805728E+03  0.41800000000E+01 0.  1.
        -11    1    3    3    0    0 -0.44451453601E+02 -0.42861301750E+02 -0.17693483816E+03  0.18740053327E+03  0.00000000000E+00 0.  1.
         11    1    3    3    0    0  0.18594292654E+02  0.27725071150E+02 -0.73258999421E+02  0.80506572936E+02  0.00000000000E+00 0. -1.
</event>
<event>
 7    1  0.4096326E-006  0.8464475E+02  0.7561462E-02  0.1316364E+00
         -2   -1    0    0    0  501 -0.00000000000E+00  0.00000000000E+00  0.40669580934E+03  0.40669580934E+03  0.00000000000E+00 0.  1.
          2   -1    0    0  501    0  0.00000000000E+00 -0.00000000000E+00 -0.44645163904E+02  0.44645163904E+02  0.00000000000E+00 0. -1.
         23    2    1    2    0    0 -0.68759927172E+01 -0.39847842360E+02  0.47142385513E+02  0.11009234795E+03  0.90899894105E+02 0.  0.
          5    1    1    2  502    0  0.51428266750E+02  0.94142171974E+01  0.25574673406E+03  0.26106964298E+03  0.41800000000E+01 0.  1.
         -5    1    1    2    0  502 -0.44552274033E+02  0.30433625163E+02  0.59161525863E+02  0.80178982311E+02  0.41800000000E+01 0.  1.
        -11    1    3    3    0    0  0.18006071921E+02 -0.31850274924E+02 -0.17359152008E+02  0.40496898613E+02  0.00000000000E+00 0. -1.
         11    1    3    3    0    0 -0.24882064638E+02 -0.79975674354E+01  0.64501537522E+02  0.69595449336E+02  0.00000000000E+00 0.  1.
</event>
<event>
 7    1  0.4590460E-006  0.1318980E+03  0.7561462E-02  0.1224666E+00
         -2   -1    0    0    0  501 -0.00000000000E+00  0.00000000000E+00  0.11756641256E+03  0.11756641256E+03  0.00000000000E+00 0.  1.
          2   -1    0    0  501    0  0.00000000000E+00 -0.00000000000E+00 -0.22827070234E+03  0.22827070234E+03  0.00000000000E+00 0. -1.
         23    2    1    2    0    0  0.12047684866E+03 -0.68024418658E+01 -0.75585852907E+02  0.16851947958E+03  0.90136837966E+02 0.  0.
          5    1    1    2  502    0 -0.21155033533E+02 -0.28334480057E+02  0.35607982430E+02  0.50356519108E+02  0.41800000000E+01 0.  1.
         -5    1    1    2    0  502 -0.99321815131E+02  0.35136921923E+02 -0.70726419307E+02  0.12696111622E+03  0.41800000000E+01 0.  1.
        -11    1    3    3    0    0  0.85683443654E+02 -0.15049230502E+02 -0.94184754201E+02  0.12821427291E+03  0.00000000000E+00 0. -1.
         11    1    3    3    0    0  0.34793405009E+02  0.82467886359E+01  0.18598901293E+02  0.40305206664E+02  0.00000000000E+00 0.  1.
</event>
<event>
 7    1  0.4096326E-006  0.1194526E+03  0.7561462E-02  0.1244003E+00
         -1   -1    0    0    0  501 -0.00000000000E+00  0.00000000000E+00  0.85067637687E+03  0.85067637687E+03  0.00000000000E+00 0.  1.
          1   -1    0    0  501    0  0.00000000000E+00 -0.00000000000E+00 -0.24576239143E+02  0.24576239143E+02  0.00000000000E+00 0. -1.
         23    2    1    2    0    0  0.88967176224E+02  0.12691092264E+02  0.27488273437E+03  0.30291950074E+03  0.90130372262E+02 0.  0.
          5    1    1    2  502    0 -0.72687777549E+02  0.19509609608E+02  0.51688539075E+03  0.52235248391E+03  0.41800000000E+01 0. -1.
         -5    1    1    2    0  502 -0.16279398675E+02 -0.32200701872E+02  0.34332012601E+02  0.49980631364E+02  0.41800000000E+01 0. -1.
        -11    1    3    3    0    0 -0.20741564921E+01  0.33706358977E+02  0.77566490983E+02  0.84598943753E+02  0.00000000000E+00 0.  1.
         11    1    3    3    0    0  0.91041332716E+02 -0.21015266713E+02  0.19731624339E+03  0.21832055698E+03  0.00000000000E+00 0. -1.
</event>
<event>
 7    1  0.4096326E-006  0.1056418E+03  0.7561462E-02  0.1268860E+00
         -1   -1    0    0    0  501 -0.00000000000E+00  0.00000000000E+00  0.19352502057E+03  0.19352502057E+03  0.00000000000E+00 0.  1.
          1   -1    0    0  501    0  0.00000000000E+00 -0.00000000000E+00 -0.76791593431E+02  0.76791593431E+02  0.00000000000E+00 0. -1.
         23    2    1    2    0    0 -0.35937133595E+02  0.26126706889E+01  0.22827758872E+02  0.11927325024E+03  0.11138535823E+03 0.  0.
          5    1    1    2  502    0  0.41724309164E+02  0.42937136062E+02  0.85051743968E+02  0.10409508721E+03  0.41800000000E+01 0. -1.
         -5    1    1    2    0  502 -0.57871755691E+01 -0.45549806750E+02  0.88539242968E+01  0.46948276555E+02  0.41800000000E+01 0.  1.
        -11    1    3    3    0    0  0.53995131938E+01 -0.43153827605E+02  0.35708412371E+02  0.56271647335E+02  0.00000000000E+00 0.  1.
         11    1    3    3    0    0 -0.41336646789E+02  0.45766498294E+02 -0.12880653499E+02  0.63001602903E+02  0.00000000000E+00 0. -1.
</event>
<event>
 7    1  0.4096326E-006  0.1446497E+03  0.7561462E-02  0.1207206E+00
         -3   -1    0    0    0  501 -0.00000000000E+00  0.00000000000E+00  0.64492428736E+02  0.64492428736E+02  0.00000000000E+00 0.  1.
          3   -1    0    0  501    0  0.00000000000E+00 -0.00000000000E+00 -0.64288351525E+03  0.64288351525E+03  0.00000000000E+00 0. -1.
         23    2    1    2    0    0 -0.65214584029E+02  0.26214833058E+02 -0.49509769475E+03  0.50779717483E+03  0.88295435765E+02 0.  0.
          5    1    1    2  502    0 -0.72610036393E+01  0.64202690783E+02 -0.38120777288E+02  0.75135702157E+02  0.41800000000E+01 0. -1.
         -5    1    1    2    0  502  0.72475587669E+02 -0.90417523842E+02 -0.45172614477E+02  0.12444306700E+03  0.41800000000E+01 0.  1.
        -11    1    3    3    0    0 -0.16467633516E+02  0.51226526513E+02 -0.17640080248E+03  0.18442500667E+03  0.00000000000E+00 0.  1.
         11    1    3    3    0    0 -0.48746950513E+02 -0.25011693455E+02 -0.31869689227E+03  0.32337216816E+03  0.00000000000E+00 0. -1.
</event>
<event>
 7    1  0.4096326E-006  0.1797308E+03  0.7561462E-02  0.1168064E+00
          1   -1    0    0  501    0  0.00000000000E+00  0.00000000000E+00  0.42545752575E+03  0.42545752575E+03  0.00000000000E+00 0. -1.
         -1   -1    0    0    0  501 -0.00000000000E+00 -0.00000000000E+00 -0.97022635499E+02  0.97022635499E+02  0.00000000000E+00 0.  1.
         23    2    1    2    0    0  0.14417778441E+03 -0.20712314385E+02  0.28028724153E+03  0.32888087809E+03  0.91572161304E+02 0.  0.
          5    1    1    2  502    0  0.17592349783E+02  0.18172574634E+02  0.79040324461E+01  0.26826840452E+02  0.41800000000E+01 0. -1.
         -5    1    1    2    0  502 -0.16177013420E+03  0.25397397502E+01  0.40243616282E+02  0.16677244271E+03  0.41800000000E+01 0.  1.
        -11    1    3    3    0    0  0.11662519663E+03  0.24371928469E+02  0.19846026015E+03  0.23147764956E+03  0.00000000000E+00 0. -1.
         11    1    3    3    0    0  0.27552587779E+02 -0.45084242853E+02  0.81826981374E+02  0.97403228528E+02  0.00000000000E+00 0.  1.
</event>
<event>
 7    1  0.4096326E-006  0.1080694E+03  0.7561462E-02  0.1264187E+00
          1   -1    0    0  501    0  0.00000000000E+00  0.00000000000E+00  0.41906617618E+03  0.41906617618E+03  0.00000000000E+00 0. -1.
         -1   -1    0    0    0  501 -0.00000000000E+00 -0.00000000000E+00 -0.29278185310E+02  0.29278185310E+02  0.00000000000E+00 0.  1.
         23    2    1    2    0    0  0.15563831725E+02  0.16591891521E+02  0.17182154918E+03  0.19600822076E+03  0.91537173421E+02 0.  0.
          5    1    1    2  502    0 -0.14328556004E+02 -0.70250063825E+02  0.14325396251E+03  0.16024839831E+03  0.41800000000E+01 0. -1.
         -5    1    1    2    0  502 -0.12352757215E+01  0.53658172304E+02  0.74712479179E+02  0.92087742432E+02  0.41800000000E+01 0. -1.
        -11    1    3    3    0    0 -0.22416425427E+02  0.40013149782E+02  0.59334503810E+02  0.74994210622E+02  0.00000000000E+00 0.  1.
         11    1    3    3    0    0  0.37980257153E+02 -0.23421258261E+02  0.11248704537E+03  0.12101401013E+03  0.00000000000E+00 0. -1.
</event>
<event>
 7    1  0.4096326E-006  0.1026661E+03  0.7561462E-02  0.1274787E+00
          1   -1    0    0  501    0  0.00000000000E+00  0.00000000000E+00  0.29142859389E+03  0.29142859389E+03  0.00000000000E+00 0. -1.
         -1   -1    0    0    0  501 -0.00000000000E+00 -0.00000000000E+00 -0.44515211079E+02  0.44515211079E+02  0.00000000000E+00 0.  1.
         23    2    1    2    0    0  0.28115317549E+02 -0.14933891238E+02  0.12831579515E+03  0.16065645705E+03  0.91280127720E+02 0.  0.
          5    1    1    2  502    0 -0.28177406603E+02 -0.53404517521E+02  0.52539692988E+02  0.80149238760E+02  0.41800000000E+01 0. -1.
         -5    1    1    2    0  502  0.62089053141E-01  0.68338408759E+02  0.66057894669E+02  0.95138109162E+02  0.41800000000E+01 0. -1.
        -11    1    3    3    0    0  0.45573127765E+02  0.92601175356E+01  0.24348297143E+02  0.52492850226E+02  0.00000000000E+00 0.  1.
         11    1    3    3    0    0 -0.17457810215E+02 -0.24194008774E+02  0.10396749801E+03  0.10816360682E+03  0.00000000000E+00 0. -1.
</event>
<event>
 7    1  0.4096326E-006  0.1113235E+03  0.7561462E-02  0.1258138E+00
          1   -1    0    0  501    0  0.00000000000E+00  0.00000000000E+00  0.24003701956E+03  0.24003701956E+03  0.00000000000E+00 0. -1.
         -1   -1    0    0    0  501 -0.00000000000E+00 -0.00000000000E+00 -0.82987065026E+02  0.82987065026E+02  0.00000000000E+00 0.  1.
         23    2    1    2    0    0 -0.24409572691E+02  0.39845574839E+02  0.16035364502E+03  0.18945032839E+03  0.89412741735E+02 0.  0.
          5    1    1    2  502    0  0.69649638974E+00 -0.79841251342E+02  0.18473178573E+02  0.82059985680E+02  0.41800000000E+01 0.  1.
         -5    1    1    2    0  502  0.23713076302E+02  0.39995676504E+02 -0.21776869056E+02  0.51513770514E+02  0.41800000000E+01 0.  1.
        -11    1    3    3    0    0  0.28464141605E+02  0.31543187998E+02  0.42908516679E+02  0.60384773494E+02  0.00000000000E+00 0. -1.
         11    1    3    3    0    0 -0.52873714296E+02  0.83023868405E+01  0.11744512834E+03  0.12906555490E+03  0.00000000000E+00 0.  1.
</event>
<event>
 7    1  0.4096326E-006  0.7098917E+02  0.7561462E-02  0.1356761E+00
          1   -1    0    0  501    0  0.00000000000E+00  0.00000000000E+00  0.73756749738E+03  0.73756749738E+03  0.00000000000E+00 0. -1.
         -1   -1    0    0    0  501 -0.00000000000E+00 -0.00000000000E+00 -0.17431241648E+02  0.17431241648E+02  0.00000000000E+00 0.  1.
         23    2    1    2    0    0  0.24955950654E+02  0.19677285710E+02  0.28646126567E+03  0.30252672869E+03  0.91936770667E+02 0.  0.
          5    1    1    2  502    0 -0.24040493363E+02  0.12736229369E+02  0.41272317947E+03  0.41364000306E+03  0.41800000000E+01 0. -1.
         -5    1    1    2    0  502 -0.91545729074E+00 -0.32413515079E+02  0.20951810596E+02  0.38832007276E+02  0.41800000000E+01 0. -1.
        -11    1    3    3    0    0 -0.16983243013E+02 -0.18451634488E+02  0.26607357030E+02  0.36562888379E+02  0.00000000000E+00 0.  1.
         11    1    3    3    0    0  0.41939193667E+02  0.38128920198E+02  0.25985390864E+03  0.26596384031E+03  0.00000000000E+00 0. -1.
</event>
<event>
 7    1  0.4096326E-006  0.2551938E+03  0.7561462E-02  0.1110066E+00
          2   -1    0    0  501    0  0.00000000000E+00  0.00000000000E+00  0.80311873601E+03  0.80311873601E+03  0.00000000000E+00 0. -1.
         -2   -1    0    0    0  501 -0.00000000000E+00 -0.00000000000E+00 -0.10707866503E+03  0.10707866503E+03  0.00000000000E+00 0.  1.
         23    2    1    2    0    0 -0.36777434726E+01  0.11772780384E+03  0.38783144981E+03  0.41546212737E+03  0.91226006310E+02 0.  0.
          5    1    1    2  502    0 -0.10203814692E+03  0.90447797326E+02  0.18746850781E+03  0.23185016991E+03  0.41800000000E+01 0. -1.
         -5    1    1    2    0  502  0.10571589039E+03 -0.20817560116E+03  0.12074011337E+03  0.26288510376E+03  0.41800000000E+01 0.  1.
        -11    1    3    3    0    0  0.31486856194E+02  0.90966820654E+02  0.32272593331E+03  0.33677650245E+03  0.00000000000E+00 0.  1.
         11    1    3    3    0    0 -0.35164599666E+02  0.26760983183E+02  0.65105516494E+02  0.78685624916E+02  0.00000000000E+00 0. -1.
</event>
<event>
 7    1  0.4096326E-006  0.1250050E+03  0.7561462E-02  0.1235061E+00
         -2   -1    0    0    0  501 -0.00000000000E+00  0.00000000000E+00  0.45124577131E+02  0.45124577131E+02  0.00000000000E+00 0.  1.
          2   -1    0    0  501    0  0.00000000000E+00 -0.00000000000E+00 -0.45697747515E+03  0.45697747515E+03  0.00000000000E+00 0. -1.
         23    2    1    2    0    0  0.88387033096E+02  0.26975420670E+01 -0.23951347201E+03  0.27152125862E+03  0.92398843351E+02 0.  0.
          5    1    1    2  502    0 -0.47880836355E+02  0.59191441662E+02 -0.65205484280E+02  0.10032661081E+03  0.41800000000E+01 0. -1.
         -5    1    1    2    0  502 -0.40506196742E+02 -0.61888983729E+02 -0.10713394173E+03  0.13025418285E+03  0.41800000000E+01 0. -1.
        -11    1    3    3    0    0  0.63634015310E+02 -0.19370008667E+02 -0.22621656105E+03  0.23579316706E+03  0.00000000000E+00 0.  1.
         11    1    3    3    0    0  0.24753017787E+02  0.22067550734E+02 -0.13296910962E+02  0.35728091554E+02  0.00000000000E+00 0. -1.
</event>
<event>
 7    1  0.4096326E-006  0.1481644E+03  0.7561462E-02  0.1202747E+00
          2   -1    0    0  501    0  0.00000000000E+00  0.00000000000E+00  0.20113735485E+03  0.20113735485E+03  0.00000000000E+00 0. -1.
         -2   -1    0    0    0  501 -0.00000000000E+00 -0.00000000000E+00 -0.22982877666E+03  0.22982877666E+03  0.00000000000E+00 0.  1.
         23    2    1    2    0    0  0.14082683747E+03 -0.27081570556E+01  0.10624183248E+03  0.19924518317E+03  0.92583928305E+02 0.  0.
          5    1    1    2  502    0 -0.11334530376E+03 -0.24585311984E+02 -0.30118619973E+02  0.11990078865E+03  0.41800000000E+01 0. -1.
         -5    1    1    2    0  502 -0.27481533712E+02  0.27293469040E+02 -0.10481463432E+03  0.11182015970E+03  0.41800000000E+01 0. -1.
        -11    1    3    3    0    0  0.42871765190E+02  0.44346863825E+01 -0.12758325243E+02  0.44949188612E+02  0.00000000000E+00 0.  1.
         11    1    3    3    0    0  0.97955072281E+02 -0.71428434382E+01  0.11900015773E+03  0.15429599456E+03  0.00000000000E+00 0. -1.
</event>
<event>
 7    1  0.4096326E-006  0.1478693E+03  0.7561462E-02  0.1203116E+00
         -2   -1    0    0    0  501 -0.00000000000E+00  0.00000000000E+00  0.84032047881E+02  0.84032047881E+02  0.00000000000E+00 0.  1.
          2   -1    0    0  501    0  0.00000000000E+00 -0.00000000000E+00 -0.33709224034E+03  0.33709224034E+03  0.00000000000E+00 0. -1.
         23    2    1    2    0    0 -0.56135563984E+02 -0.11369669383E+03 -0.95240506128E+02  0.18313607125E+03  0.91596543888E+02 0.  0.
          5    1    1    2  502    0 -0.10430226252E+02  0.36994395258E+02 -0.12551221707E+03  0.13133226539E+03  0.41800000000E+01 0.  1.
         -5    1    1    2    0  502  0.66565790236E+02  0.76702298576E+02 -0.32307469261E+02  0.10665595158E+03  0.41800000000E+01 0.  1.
        -11    1    3    3    0    0  0.24122691680E+02 -0.15785337933E+02 -0.26082297637E+02  0.38876308950E+02  0.00000000000E+00 0. -1.
         11    1    3    3    0    0 -0.80258255665E+02 -0.97911355902E+02 -0.69158208491E+02  0.14425976230E+03  0.00000000000E+00 0.  1.
</event>
<event>
 7    1  0.4096326E-006  0.9114734E+02  0.7561462E-02  0.1300097E+00
          4   -1    0    0  501    0  0.00000000000E+00  0.00000000000E+00  0.42350719450E+02  0.42350719450E+02  0.00000000000E+00 0. -1.
         -4   -1    0    0    0  501 -0.00000000000E+00 -0.00000000000E+00 -0.31398754923E+03  0.31398754923E+03  0.00000000000E+00 0.  1.
         23    2    1    2    0    0  0.24744269038E+02  0.31061850039E+02 -0.10915047911E+03  0.14746985571E+03  0.90864810982E+02 0.  0.
          5    1    1    2  502    0 -0.65756437367E+02 -0.16273940509E+02 -0.14786266325E+03  0.16269477490E+03  0.41800000000E+01 0. -1.
         -5    1    1    2    0  502  0.41012168328E+02 -0.14787909530E+02 -0.14623687417E+02  0.46173638074E+02  0.41800000000E+01 0. -1.
        -11    1    3    3    0    0  0.41576970996E+02  0.33790333633E+02 -0.11701061833E+03  0.12869310769E+03  0.00000000000E+00 0. -1.
         11    1    3    3    0    0 -0.16832701957E+02 -0.27284835937E+01  0.78601392161E+01  0.18776748025E+02  0.00000000000E+00 0.  1.
</event>
<event>
 7    1  0.4096326E-006  0.1674180E+03  0.7561462E-02  0.1180567E+00
         -2   -1    0    0    0  501 -0.00000000000E+00  0.00000000000E+00  0.37821748507E+02  0.37821748507E+02  0.00000000000E+00 0.  1.
          2   -1    0    0  501    0  0.00000000000E+00 -0.00000000000E+00 -0.97804158965E+03  0.97804158965E+03  0.00000000000E+00 0. -1.
         23    2    1    2    0    0 -0.29099323683E+02 -0.12367882786E+03 -0.69642819348E+03  0.71382904267E+03  0.91632147090E+02 0.  0.
          5    1    1    2  502    0 -0.80427767253E+01 -0.24113665217E+02 -0.31917531159E+02  0.41016536945E+02  0.41800000000E+01 0.  1.
         -5    1    1    2    0  502  0.37142100408E+02  0.14779249308E+03 -0.21187411650E+03  0.26101775855E+03  0.41800000000E+01 0.  1.
        -11    1    3    3    0    0  0.12610462284E+02 -0.11282927370E+03 -0.51008265898E+03  0.52256462543E+03  0.00000000000E+00 0. -1.
         11    1    3    3    0    0 -0.41709785967E+02 -0.10849554155E+02 -0.18634553450E+03  0.19126441724E+03  0.00000000000E+00 0.  1.
</event>
<event>
 7    1  0.4096326E-006  0.1115062E+03  0.7561462E-02  0.1257806E+00
          1   -1    0    0  501    0  0.00000000000E+00  0.00000000000E+00  0.17706669177E+03  0.17706669177E+03  0.00000000000E+00 0. -1.
         -1   -1    0    0    0  501 -0.00000000000E+00 -0.00000000000E+00 -0.85933187504E+02  0.85933187504E+02  0.00000000000E+00 0.  1.
         23    2    1    2    0    0  0.55748187004E+02  0.12541358537E+02  0.59190838466E+02  0.12181591973E+03  0.89835499184E+02 0.  0.
          5    1    1    2  502    0  0.23271370790E+02  0.25395256120E+02 -0.19158254991E+02  0.39635676683E+02  0.41800000000E+01 0. -1.
         -5    1    1    2    0  502 -0.79019557794E+02 -0.37936614657E+02  0.51100920790E+02  0.10154828286E+03  0.41800000000E+01 0. -1.
        -11    1    3    3    0    0  0.37382637635E+02  0.47873709457E+02  0.54705271337E+02  0.81743625842E+02  0.00000000000E+00 0. -1.
         11    1    3    3    0    0  0.18365549368E+02 -0.35332350920E+02  0.44855671281E+01  0.40072293890E+02  0.00000000000E+00 0.  1.
</event>
<event>
 7    1  0.4096326E-006  0.8117185E+02  0.7561462E-02  0.1325758E+00
          4   -1    0    0  501    0  0.00000000000E+00  0.00000000000E+00  0.94108501229E+02  0.94108501229E+02  0.00000000000E+00 0. -1.
         -4   -1    0    0    0  501 -0.00000000000E+00 -0.00000000000E+00 -0.17159983727E+03  0.17159983727E+03  0.00000000000E+00 0.  1.
         23    2    1    2    0    0  0.32356231278E+02  0.16831386931E+02  0.21407136516E+02  0.10212699737E+03  0.92959328797E+02 0.  0.
          5    1    1    2  502    0 -0.45861796197E+02 -0.56001321473E+01 -0.12415239865E+03  0.13253662256E+03  0.41800000000E+01 0. -1.
         -5    1    1    2    0  502  0.13505564919E+02 -0.11231254783E+02  0.25253926088E+02  0.31044718563E+02  0.41800000000E+01 0. -1.
        -11    1    3    3    0    0 -0.22595603151E+02 -0.21266980947E+02 -0.24625978957E+01  0.31127321580E+02  0.00000000000E+00 0.  1.
         11    1    3    3    0    0  0.54951834429E+02  0.38098367878E+02  0.23869734411E+02  0.70999675795E+02  0.00000000000E+00 0. -1.
</event>
<event>
 7    1  0.4096326E-006  0.1062177E+03  0.7561462E-02  0.1267739E+00
          2   -1    0    0  501    0  0.00000000000E+00  0.00000000000E+00  0.67179697083E+02  0.67179697083E+02  0.00000000000E+00 0. -1.
         -2   -1    0    0    0  501 -0.00000000000E+00 -0.00000000000E+00 -0.43120872444E+03  0.43120872444E+03  0.00000000000E+00 0.  1.
         23    2    1    2    0    0  0.48684428776E+02 -0.15376460650E+02  0.87609551684E+01  0.10187317476E+03  0.87719896562E+02 0.  0.
          5    1    1    2  502    0 -0.19226206863E+01  0.64986607002E+02 -0.15123740473E+03  0.16467295027E+03  0.41800000000E+01 0. -1.
         -5    1    1    2    0  502 -0.46761808090E+02 -0.49610146352E+02 -0.22155257779E+03  0.23184229649E+03  0.41800000000E+01 0. -1.
        -11    1    3    3    0    0  0.45258669747E+02  0.15559124239E+02 -0.26609262597E+02  0.54758436704E+02  0.00000000000E+00 0.  1.
         11    1    3    3    0    0  0.34257590293E+01 -0.30935584889E+02  0.35370217765E+02  0.47114738056E+02  0.00000000000E+00 0. -1.
</event>
<event>
 7    1  0.4096326E-006  0.8155993E+02  0.7561462E-02  0.1324682E+00
         -2   -1    0    0    0  501 -0.00000000000E+00  0.00000000000E+00  0.10451128541E+03  0.10451128541E+03  0.00000000000E+00 0.  1.
          2   -1    0    0  501    0  0.00000000000E+00 -0.00000000000E+00 -0.14282257641E+03  0.14282257641E+03  0.00000000000E+00 0. -1.
         23    2    1    2    0    0 -0.46390370426E+01  0.52688615679E+02 -0.24051232295E+02  0.11077811262E+03  0.94317111777E+02 0.  0.
          5    1    1    2  502    0 -0.24621410586E+02  0.25501787245E+01 -0.55935698590E+02  0.61310619370E+02  0.41800000000E+01 0.  1.
         -5    1    1    2    0  502  0.29260447629E+02 -0.55238794403E+02  0.41675639894E+02  0.75245129830E+02  0.41800000000E+01 0.  1.
        -11    1    3    3    0    0  0.24450559637E+02  0.19824806930E+02 -0.50520996790E+02  0.59524985956E+02  0.00000000000E+00 0. -1.
         11    1    3    3    0    0 -0.29089596680E+02  0.32863808749E+02  0.26469764495E+02  0.51253126665E+02  0.00000000000E+00 0.  1.
</event>
<event>
 7    1  0.4096326E-006  0.8822028E+02  0.7561462E-02  0.1307220E+00
          1   -1    0    0  501    0  0.00000000000E+00  0.00000000000E+00  0.23904963936E+03  0.23904963936E+03  0.00000000000E+00 0. -1.
         -1   -1    0    0    0  501 -0.00000000000E+00 -0.00000000000E+00 -0.53253290620E+02  0.53253290620E+02  0.00000000000E+00 0.  1.
         23    2    1    2    0    0 -0.27024443806E+02  0.60375824712E+01  0.94435837262E+02  0.13494480018E+03  0.92332002956E+02 0.  0.
          5    1    1    2  502    0 -0.38430489575E+02 -0.17981219755E+02 -0.19498355418E+01  0.42679046984E+02  0.41800000000E+01 0. -1.
         -5    1    1    2    0  502  0.65454933381E+02  0.11943637284E+02  0.93310347022E+02  0.11467908282E+03  0.41800000000E+01 0. -1.
        -11    1    3    3    0    0 -0.28109493418E+02 -0.24073163876E+02  0.12730023343E+01  0.37030816547E+02  0.00000000000E+00 0.  1.
         11    1    3    3    0    0  0.10850496115E+01  0.30110746347E+02  0.93162834928E+02  0.97913983628E+02  0.00000000000E+00 0. -1.
</event>
<event>
 7    1  0.4096326E-006  0.1132289E+03  0.7561462E-02  0.1254705E+00
          1   -1    0    0  501    0  0.00000000000E+00  0.00000000000E+00  0.25117500238E+03  0.25117500238E+03  0.00000000000E+00 0. -1.
         -1   -1    0    0    0  501 -0.00000000000E+00 -0.00000000000E+00 -0.72287338541E+02  0.72287338541E+02  0.00000000000E+00 0.  1.
         23    2    1    2    0    0  0.21328835668E+02 -0.15721103903E+02  0.15027343803E+03  0.18021377435E+03  0.95879225851E+02 0.  0.
          5    1    1    2  502    0 -0.44735202657E+02 -0.45803939273E+02  0.40991011070E+02  0.76137865732E+02  0.41800000000E+01 0. -1.
         -5    1    1    2    0  502  0.23406366989E+02  0.61525043176E+02 -0.12376785262E+02  0.67110700838E+02  0.41800000000E+01 0.  1.
        -11    1    3    3    0    0  0.56578964662E+02 -0.21672321586E+02  0.11504443650E+03  0.13002342533E+03  0.00000000000E+00 0. -1.
         11    1    3    3    0    0 -0.35250128994E+02  0.59512176825E+01  0.35229001530E+02  0.50190349020E+02  0.00000000000E+00 0.  1.
</event>
<event>
 7    1  0.4096326E-006  0.1331216E+03  0.7561462E-02  0.1222896E+00
         -3   -1    0    0    0  501 -0.00000000000E+00  0.00000000000E+00  0.83010811909E+02  0.83010811909E+02  0.00000000000E+00 0.  1.
          3   -1    0    0  501    0  0.00000000000E+00 -0.00000000000E+00 -0.24451788933E+03  0.24451788933E+03  0.00000000000E+00 0. -1.
         23    2    1    2    0    0 -0.29551658116E+02  0.87061900440E+02 -0.81428552321E+02  0.15282828540E+03  0.90954937627E+02 0.  0.
          5    1    1    2  502    0 -0.39482495179E+02 -0.29376946198E+02  0.64495731102E+01  0.49809053261E+02  0.41800000000E+01 0.  1.
         -5    1    1    2    0  502  0.69034153295E+02 -0.57684954242E+02 -0.86528098208E+02  0.12489136258E+03  0.41800000000E+01 0.  1.
        -11    1    3    3    0    0 -0.21542730549E+01  0.97464264561E+02 -0.74550798128E+02  0.12272630224E+03  0.00000000000E+00 0. -1.
         11    1    3    3    0    0 -0.27397385061E+02 -0.10402364121E+02 -0.68777541923E+01  0.30101983161E+02  0.00000000000E+00 0.  1.
</event>
<event>
 7    1  0.4096326E-006  0.1039346E+03  0.7561462E-02  0.1272233E+00
          2   -1    0    0  501    0  0.00000000000E+00  0.00000000000E+00  0.20623341489E+03  0.20623341489E+03  0.00000000000E+00 0. -1.
         -2   -1    0    0    0  501 -0.00000000000E+00 -0.00000000000E+00 -0.86757458818E+02  0.86757458818E+02  0.00000000000E+00 0.  1.
         23    2    1    2    0    0  0.22273027408E+02  0.74621390303E+02  0.59942800960E+02  0.13406935617E+03  0.91197660262E+02 0.  0.
          5    1    1    2  502    0  0.33267546069E+02 -0.19804709992E+02  0.69973334465E+02  0.80079311282E+02  0.41800000000E+01 0. -1.
         -5    1    1    2    0  502 -0.55540573476E+02 -0.54816680311E+02 -0.10440179351E+02  0.78842206255E+02  0.41800000000E+01 0. -1.
        -11    1    3    3    0    0  0.33235685058E+02  0.29805657305E+02  0.73487752655E+02  0.85985101959E+02  0.00000000000E+00 0. -1.
         11    1    3    3    0    0 -0.10962657650E+02  0.44815732998E+02 -0.13544951695E+02  0.48084254214E+02  0.00000000000E+00 0.  1.
</event>
<event>
 7    1  0.4096326E-006  0.8377642E+02  0.7561462E-02  0.1318664E+00
          1   -1    0    0  501    0  0.00000000000E+00  0.00000000000E+00  0.44391877436E+03  0.44391877436E+03  0.00000000000E+00 0. -1.
         -1   -1    0    0    0  501 -0.00000000000E+00 -0.00000000000E+00 -0.47152081945E+02  0.47152081945E+02  0.00000000000E+00 0.  1.
         23    2    1    2    0    0 -0.70581414439E+02  0.16002178972E+01  0.28803924313E+03  0.31092374622E+03  0.93395254810E+02 0.  0.
          5    1    1    2  502    0  0.17628137011E+02 -0.55620513766E+01 -0.27772519858E+02  0.33622505695E+02  0.41800000000E+01 0.  1.
         -5    1    1    2    0  502  0.52953277428E+02  0.39618334794E+01  0.13649996915E+03  0.14652460440E+03  0.41800000000E+01 0.  1.
        -11    1    3    3    0    0 -0.72934429490E+01 -0.25475735291E+02  0.17480507621E+02  0.31745480708E+02  0.00000000000E+00 0.  1.
         11    1    3    3    0    0 -0.63287971490E+02  0.27075953188E+02  0.27055873550E+03  0.27917826551E+03  0.00000000000E+00 0. -1.
</event>
<event>
 7    1  0.4096326E-006  0.1215022E+03  0.7561462E-02  0.1240639E+00
          2   -1    0    0  501    0  0.00000000000E+00  0.00000000000E+00  0.89594650076E+03  0.89594650076E+03  0.00000000000E+00 0.  1.
         -2   -1    0    0    0  501 -0.00000000000E+00 -0.00000000000E+00 -0.19477592120E+02  0.19477592120E+02  0.00000000000E+00 0. -1.
         23    2    1    2    0    0 -0.16926083582E+02  0.74614213447E+02  0.45220796497E+03  0.46653861121E+03  0.85512917275E+02 0.  0.
          5    1    1    2  502    0  0.48066918713E+02 -0.84870225263E+02  0.20397897711E+03  0.22613774411E+03  0.41800000000E+01 0.  1.
         -5    1    1    2    0  502 -0.31140835131E+02  0.10256011816E+02  0.22028196656E+03  0.22274773755E+03  0.41800000000E+01 0.  1.
        -11    1    3    3    0    0  0.14631273406E+02  0.79109104274E+02  0.27665105615E+03  0.28811131774E+03  0.00000000000E+00 0. -1.
         11    1    3    3    0    0 -0.31557356988E+02 -0.44948908272E+01  0.17555690882E+03  0.17842729348E+03  0.00000000000E+00 0.  1.
</event>
<event>
 7    1  0.4096326E-006  0.7720081E+02  0.7561462E-02  0.1337188E+00
         -1   -1    0    0    0  501 -0.00000000000E+00  0.00000000000E+00  0.19199754162E+03  0.19199754162E+03  0.00000000000E+00 0.  1.
          1   -1    0    0  501    0  0.00000000000E+00 -0.00000000000E+00 -0.65351812051E+02  0.65351812051E+02  0.00000000000E+00 0. -1.
         23    2    1    2    0    0 -0.22822126645E+01 -0.50414017840E+01  0.21736629164E+02  0.93990206484E+02  0.91274605673E+02 0.  0.
          5    1    1    2  502    0  0.12502196652E+02  0.50319674704E+02  0.10452402226E+03  0.11675237990E+03  0.41800000000E+01 0. -1.
         -5    1    1    2    0  502 -0.10219983988E+02 -0.45278272920E+02  0.38507814207E+00  0.46606767282E+02  0.41800000000E+01 0. -1.
        -11    1    3    3    0    0 -0.12928017380E+02  0.22667547277E+02 -0.26602574591E+02  0.37264571751E+02  0.00000000000E+00 0. -1.
         11    1    3    3    0    0  0.10645804715E+02 -0.27708949061E+02  0.48339203755E+02  0.56725634732E+02  0.00000000000E+00 0.  1.
</event>
<event>
 7    1  0.4096326E-006  0.1652985E+03  0.7561462E-02  0.1182841E+00
         -2   -1    0    0    0  501 -0.00000000000E+00  0.00000000000E+00  0.57968595050E+02  0.57968595050E+02  0.00000000000E+00 0.  1.
          2   -1    0    0  501    0  0.00000000000E+00 -0.00000000000E+00 -0.48263129796E+03  0.48263129796E+03  0.00000000000E+00 0. -1.
         23    2    1    2    0    0  0.95898719222E+02  0.75070976278E+02 -0.17689590512E+03  0.23750145943E+03  0.10140298890E+03 0.  0.
          5    1    1    2  502    0 -0.11964619353E+03 -0.32822525593E+02 -0.19649045397E+03  0.23241880457E+03  0.41800000000E+01 0. -1.
         -5    1    1    2    0  502  0.23747474313E+02 -0.42248450686E+02 -0.51276343818E+02  0.70679629010E+02  0.41800000000E+01 0. -1.
        -11    1    3    3    0    0  0.38914757128E+02 -0.22405619585E+02 -0.60441508397E+02  0.75296388019E+02  0.00000000000E+00 0.  1.
         11    1    3    3    0    0  0.56983962094E+02  0.97476595863E+02 -0.11645439672E+03  0.16220507141E+03  0.00000000000E+00 0. -1.
</event>
<event>
 7    1  0.4096326E-006  0.1335917E+03  0.7561462E-02  0.1222222E+00
          2   -1    0    0  501    0  0.00000000000E+00  0.00000000000E+00  0.16373980325E+03  0.16373980325E+03  0.00000000000E+00 0.  1.
         -2   -1    0    0    0  501 -0.00000000000E+00 -0.00000000000E+00 -0.13906372475E+03  0.13906372475E+03  0.00000000000E+00 0. -1.
         23    2    1    2    0    0 -0.11739799729E+01 -0.83440548551E+02  0.73053509989E+02  0.14484580440E+03  0.93165381770E+02 0.  0.
          5    1    1    2  502    0 -0.40148136870E+02  0.94907079709E+02 -0.16696054127E+02  0.10447706589E+03  0.41800000000E+01 0. -1.
         -5    1    1    2    0  502  0.41322116843E+02 -0.11466531158E+02 -0.31681377362E+02  0.53480657706E+02  0.41800000000E+01 0. -1.
        -11    1    3    3    0    0  0.59086057600E+01  0.18169250291E+02 -0.65536131462E+00  0.19117080756E+02  0.00000000000E+00 0. -1.
         11    1    3    3    0    0 -0.70825857329E+01 -0.10160979884E+03  0.73708871303E+02  0.12572872365E+03  0.00000000000E+00 0.  1.
</event>
<event>
 7    1  0.4096326E-006  0.8971499E+02  0.7561462E-02  0.1303543E+00
          1   -1    0    0  501    0  0.00000000000E+00  0.00000000000E+00  0.21755200475E+03  0.21755200475E+03  0.00000000000E+00 0. -1.
         -1   -1    0    0    0  501 -0.00000000000E+00 -0.00000000000E+00 -0.80042762726E+02  0.80042762726E+02  0.00000000000E+00 0.  1.
         23    2    1    2    0    0 -0.15004343706E+02  0.74715253953E+01  0.14349256326E+03  0.17124495519E+03  0.91944357875E+02 0.  0.
          5    1    1    2  502    0 -0.39199291542E+02  0.46941773432E+01  0.38316036879E+02  0.55174367603E+02  0.41800000000E+01 0. -1.
         -5    1    1    2    0  502  0.54203635248E+02 -0.12165702739E+02 -0.44299358111E+02  0.71175444686E+02  0.41800000000E+01 0. -1.
        -11    1    3    3    0    0 -0.31751263776E+02 -0.29558264300E+02  0.11111807022E+03  0.11928562055E+03  0.00000000000E+00 0. -1.
         11    1    3    3    0    0  0.16746920070E+02  0.37029789696E+02  0.32374493034E+02  0.51959334637E+02  0.00000000000E+00 0.  1.
</event>
<event>
 7    1  0.4096326E-006  0.9947951E+02  0.7561462E-02  0.1281394E+00
         -1   -1    0    0    0  501 -0.00000000000E+00  0.00000000000E+00  0.47700197186E+02  0.47700197186E+02  0.00000000000E+00 0.  1.
          1   -1    0    0  501    0  0.00000000000E+00 -0.00000000000E+00 -0.39872655906E+03  0.39872655906E+03  0.00000000000E+00 0. -1.
         23    2    1    2    0    0  0.46983135880E+02 -0.34499919109E+02 -0.25793328727E+03  0.27995850031E+03  0.91921280103E+02 0.  0.
          5    1    1    2  502    0 -0.67247707773E+02 -0.23850341186E+02 -0.28358377999E+02  0.76894492508E+02  0.41800000000E+01 0. -1.
         -5    1    1    2    0  502  0.20264571893E+02  0.58350260295E+02 -0.64734696601E+02  0.89573763428E+02  0.41800000000E+01 0. -1.
        -11    1    3    3    0    0  0.16302982185E+02  0.35615259449E+01  0.74219166323E+00  0.16703967901E+02  0.00000000000E+00 0.  1.
         11    1    3    3    0    0  0.30680153695E+02 -0.38061445054E+02 -0.25867547893E+03  0.26325453241E+03  0.00000000000E+00 0. -1.
</event>
<event>
 7    1  0.4096326E-006  0.8390352E+02  0.7561462E-02  0.1318325E+00
          1   -1    0    0  501    0  0.00000000000E+00  0.00000000000E+00  0.59276207761E+02  0.59276207761E+02  0.00000000000E+00 0. -1.
         -1   -1    0    0    0  501 -0.00000000000E+00 -0.00000000000E+00 -0.22815986799E+03  0.22815986799E+03  0.00000000000E+00 0.  1.
         23    2    1    2    0    0  0.30135243808E+02 -0.33820998448E+02 -0.80866717145E+02  0.12791770918E+03  0.88156233611E+02 0.  0.
          5    1    1    2  502    0 -0.58039130846E+02 -0.50078497172E+01 -0.94493117806E+02  0.11108573707E+03  0.41800000000E+01 0.  1.
         -5    1    1    2    0  502  0.27903887038E+02  0.38828848165E+02  0.64761747167E+01  0.48432629504E+02  0.41800000000E+01 0.  1.
        -11    1    3    3    0    0 -0.10439292349E+02 -0.94008508049E+01 -0.79300602039E+02  0.80535335750E+02  0.00000000000E+00 0.  1.
         11    1    3    3    0    0  0.40574536157E+02 -0.24420147643E+02 -0.15661151059E+01  0.47382373429E+02  0.00000000000E+00 0. -1.
</event>
<event>
 7    1  0.4096326E-006  0.2892704E+03  0.7561462E-02  0.1090731E+00
          2   -1    0    0  501    0  0.00000000000E+00  0.00000000000E+00  0.18227024572E+03  0.18227024572E+03  0.00000000000E+00 0. -1.
         -2   -1    0    0    0  501 -0.00000000000E+00 -0.00000000000E+00 -0.49827386120E+03  0.49827386120E+03  0.00000000000E+00 0.  1.
         23    2    1    2    0    0  0.19394110152E+03 -0.20157885103E+03 -0.18456610642E+03  0.34712157026E+03  0.90451936741E+02 0.  0.
          5    1    1    2  502    0 -0.19319813751E+03  0.14626309272E+03 -0.13573717792E+03  0.27777772859E+03  0.41800000000E+01 0. -1.
         -5    1    1    2    0  502 -0.74296400452E+00  0.55315758314E+02  0.42996688545E+01  0.55644808074E+02  0.41800000000E+01 0. -1.
        -11    1    3    3    0    0  0.13290217027E+03 -0.12193807662E+03 -0.16589619893E+03  0.24505801397E+03  0.00000000000E+00 0. -1.
         11    1    3    3    0    0  0.61038931247E+02 -0.79640774407E+02 -0.18669907487E+02  0.10206355628E+03  0.00000000000E+00 0.  1.
</event>
<event>
 7    1  0.4096326E-006  0.1374607E+03  0.7561462E-02  0.1216787E+00
          1   -1    0    0  501    0  0.00000000000E+00  0.00000000000E+00  0.10083199230E+03  0.10083199230E+03  0.00000000000E+00 0. -1.
         -1   -1    0    0    0  501 -0.00000000000E+00 -0.00000000000E+00 -0.22203978792E+03  0.22203978792E+03  0.00000000000E+00 0.  1.
         23    2    1    2    0    0  0.18643708450E+02 -0.10068366795E+03 -0.60693862364E+02  0.15027426810E+03  0.91726887386E+02 0.  0.
          5    1    1    2  502    0 -0.67939746820E+02  0.82423238292E+02 -0.27487589773E+02  0.11037408844E+03  0.41800000000E+01 0. -1.
         -5    1    1    2    0  502  0.49296038370E+02  0.18260429655E+02 -0.33026343477E+02  0.62223423673E+02  0.41800000000E+01 0. -1.
        -11    1    3    3    0    0  0.33197746704E+02 -0.35923587801E+02 -0.67709189365E+02  0.83529209689E+02  0.00000000000E+00 0.  1.
         11    1    3    3    0    0 -0.14554038254E+02 -0.64760080146E+02  0.70153270007E+01  0.66745058416E+02  0.00000000000E+00 0. -1.
</event>
<event>
 7    1  0.4096326E-006  0.1098439E+03  0.7561462E-02  0.1260859E+00
         -2   -1    0    0    0  501 -0.00000000000E+00  0.00000000000E+00  0.79465327311E+02  0.79465327311E+02  0.00000000000E+00 0. -1.
          2   -1    0    0  501    0  0.00000000000E+00 -0.00000000000E+00 -0.23866741998E+03  0.23866741998E+03  0.00000000000E+00 0.  1.
         23    2    1    2    0    0 -0.43268623112E+02 -0.51635092594E+02 -0.13218849269E+03  0.17351102781E+03  0.89966230547E+02 0.  0.
          5    1    1    2  502    0  0.23808690819E+02 -0.25839851106E+02  0.30001696022E+02  0.46391010206E+02  0.41800000000E+01 0.  1.
         -5    1    1    2    0  502  0.19459932292E+02  0.77474943701E+02 -0.57015295998E+02  0.98230709271E+02  0.41800000000E+01 0.  1.
        -11    1    3    3    0    0  0.22932275250E+02 -0.22010280793E+02 -0.13754708747E+02  0.34634285346E+02  0.00000000000E+00 0. -1.
         11    1    3    3    0    0 -0.66200898362E+02 -0.29624811802E+02 -0.11843378395E+03  0.13887674247E+03  0.00000000000E+00 0.  1.
</event>
<event>
 7    1  0.4096326E-006  0.1285171E+03  0.7561462E-02  0.1229673E+00
          1   -1    0    0  501    0  0.00000000000E+00  0.00000000000E+00  0.55313426162E+02  0.55313426162E+02  0.00000000000E+00 0.  1.
         -1   -1    0    0    0  501 -0.00000000000E+00 -0.00000000000E+00 -0.35264272575E+03  0.35264272575E+03  0.00000000000E+00 0. -1.
         23    2    1    2    0    0 -0.78279323120E+02  0.15846310178E+02 -0.80948310478E+02  0.14556741589E+03  0.90876210442E+02 0.  0.
          5    1    1    2  502    0  0.82510844563E+02  0.39443854262E+02 -0.15069698777E+03  0.17632615130E+03  0.41800000000E+01 0.  1.
         -5    1    1    2    0  502 -0.42315214435E+01 -0.55290164440E+02 -0.65684001341E+02  0.86062584726E+02  0.41800000000E+01 0.  1.
        -11    1    3    3    0    0 -0.72869683915E+02 -0.18438667033E+02 -0.24053733158E+02  0.78921209790E+02  0.00000000000E+00 0.  1.
         11    1    3    3    0    0 -0.54096392042E+01  0.34284977210E+02 -0.56894577320E+02  0.66646206097E+02  0.00000000000E+00 0. -1.
</event>
<event>
 7    1  0.4096326E-006  0.1544021E+03  0.7561462E-02  0.1195166E+00
          2   -1    0    0  501    0  0.00000000000E+00  0.00000000000E+00  0.24893508963E+03  0.24893508963E+03  0.00000000000E+00 0. -1.
         -2   -1    0    0    0  501 -0.00000000000E+00 -0.00000000000E+00 -0.12044640797E+03  0.12044640797E+03  0.00000000000E+00 0.  1.
         23    2    1    2    0    0  0.27616024904E+01  0.12921108530E+03  0.98092042615E+02  0.18697088912E+03  0.92913581041E+02 0.  0.
          5    1    1    2  502    0  0.34954681208E+02  0.84823776540E+01 -0.78495814994E+00  0.36219732582E+02  0.41800000000E+01 0.  1.
         -5    1    1    2    0  502 -0.37716283698E+02 -0.13769346295E+03  0.31181597196E+02  0.14619087591E+03  0.41800000000E+01 0.  1.
        -11    1    3    3    0    0 -0.46090935759E+01  0.52290061134E+02 -0.10656862746E+02  0.53563634684E+02  0.00000000000E+00 0.  1.
         11    1    3    3    0    0  0.73706960663E+01  0.76921024161E+02  0.10874890536E+03  0.13340725443E+03  0.00000000000E+00 0. -1.
</event>
<event>
 7    1  0.4096326E-006  0.8104254E+02  0.7561462E-02  0.1326119E+00
          1   -1    0    0  501    0  0.00000000000E+00  0.00000000000E+00  0.45767236820E+03  0.45767236820E+03  0.00000000000E+00 0. -1.
         -1   -1    0    0    0  501 -0.00000000000E+00 -0.00000000000E+00 -0.30471693223E+02  0.30471693223E+02  0.00000000000E+00 0.  1.
         23    2    1    2    0    0 -0.27749254211E+02  0.27551614690E+02  0.23277427518E+03  0.25315665958E+03  0.91516766340E+02 0.  0.
          5    1    1    2  502    0  0.24818206177E+02  0.16692490924E+02  0.18749734103E+03  0.18991394869E+03  0.41800000000E+01 0. -1.
         -5    1    1    2    0  502  0.29310480338E+01 -0.44244105614E+02  0.69290587612E+01  0.45073453157E+02  0.41800000000E+01 0.  1.
        -11    1    3    3    0    0  0.37075736698E+01 -0.25447242452E+02  0.22947685487E+02  0.34465990775E+02  0.00000000000E+00 0.  1.
         11    1    3    3    0    0 -0.31456827881E+02  0.52998857142E+02  0.20982658969E+03  0.21869066880E+03  0.00000000000E+00 0. -1.
</event>
<event>
 7    1  0.4096326E-006  0.9912820E+02  0.7561462E-02  0.1282140E+00
         -2   -1    0    0    0  501 -0.00000000000E+00  0.00000000000E+00  0.35140282347E+02  0.35140282347E+02  0.00000000000E+00 0.  1.
          2   -1    0    0  501    0  0.00000000000E+00 -0.00000000000E+00 -0.37678108631E+03  0.37678108631E+03  0.00000000000E+00 0. -1.
         23    2    1    2    0    0  0.10631997609E+02  0.22077387090E+02 -0.17022256033E+03  0.19830374443E+03  0.98732996577E+02 0.  0.
          5    1    1    2  502    0  0.31268871649E+02  0.20170124378E+02 -0.14248295717E+03  0.14732088017E+03  0.41800000000E+01 0. -1.
         -5    1    1    2    0  502 -0.41900869257E+02 -0.42247511468E+02 -0.28935286459E+02  0.66296744055E+02  0.41800000000E+01 0. -1.
        -11    1    3    3    0    0 -0.33089506721E+02 -0.21478226909E+02 -0.56404717133E+02  0.68831110706E+02  0.00000000000E+00 0.  1.
         11    1    3    3    0    0  0.43721504329E+02  0.43555613999E+02 -0.11381784320E+03  0.12947263372E+03  0.00000000000E+00 0. -1.
</event>
<event>
 7    1  0.4096326E-006  0.9943206E+02  0.7561462E-02  0.1281495E+00
         -2   -1    0    0    0  501 -0.00000000000E+00  0.00000000000E+00  0.19798960284E+03  0.19798960284E+03  0.00000000000E+00 0. -1.
          2   -1    0    0  501    0  0.00000000000E+00 -0.00000000000E+00 -0.17828363462E+03  0.17828363462E+03  0.00000000000E+00 0.  1.
         23    2    1    2    0    0  0.60552108987E+02 -0.39216620995E+02 -0.11605821435E+03  0.16417173937E+03  0.90985436338E+02 0.  0.
          5    1    1    2  502    0 -0.55819241770E+01  0.24959891432E+02  0.15095831701E+03  0.15316670634E+03  0.41800000000E+01 0. -1.
         -5    1    1    2    0  502 -0.54970184810E+02  0.14256729563E+02 -0.15194134444E+02  0.58934791739E+02  0.41800000000E+01 0.  1.
        -11    1    3    3    0    0  0.79327847576E+02 -0.50559323638E+02 -0.96840996408E+02  0.13500863377E+03  0.00000000000E+00 0.  1.
         11    1    3    3    0    0 -0.18775738590E+02  0.11342702643E+02 -0.19217217939E+02  0.29163105598E+02  0.00000000000E+00 0. -1.
</event>
<event>
 7    1  0.4096326E-006  0.1108015E+03  0.7561462E-02  0.1259093E+00
         -2   -1    0    0    0  501 -0.00000000000E+00  0.00000000000E+00  0.44110320832E+02  0.44110320832E+02  0.00000000000E+00 0.  1.
          2   -1    0    0  501    0  0.00000000000E+00 -0.00000000000E+00 -0.32892966633E+03  0.32892966633E+03  0.00000000000E+00 0. -1.
         23    2    1    2    0    0 -0.13544135243E+02 -0.38635722831E+02 -0.15793399813E+03  0.19021785380E+03  0.97793258772E+02 0.  0.
          5    1    1    2  502    0  0.15860129134E+02 -0.44872871655E+02 -0.41343388789E+02  0.63181219546E+02  0.41800000000E+01 0. -1.
         -5    1    1    2    0  502 -0.23159938912E+01  0.83508594487E+02 -0.85541958581E+02  0.11964091382E+03  0.41800000000E+01 0. -1.
        -11    1    3    3    0    0  0.32009008963E+02 -0.29892958759E+02 -0.27337220385E+02  0.51628376467E+02  0.00000000000E+00 0.  1.
         11    1    3    3    0    0 -0.45553144206E+02 -0.87427640724E+01 -0.13059677774E+03  0.13858947733E+03  0.00000000000E+00 0. -1.
</event>
<event>
 7    1  0.4096326E-006  0.1185475E+03  0.7561462E-02  0.1245513E+00
          1   -1    0    0  501    0  0.00000000000E+00  0.00000000000E+00  0.84765358723E+03  0.84765358723E+03  0.00000000000E+00 0. -1.
         -1   -1    0    0    0  501 -0.00000000000E+00 -0.00000000000E+00 -0.20829833624E+02  0.20829833624E+02  0.00000000000E+00 0.  1.
         23    2    1    2    0    0 -0.59825183175E+02 -0.45265907780E+02  0.41771235328E+03  0.43414816131E+03  0.91503884805E+02 0.  0.
          5    1    1    2  502    0  0.90371682245E+02  0.30337720915E+02  0.37107797797E+03  0.38314978324E+03  0.41800000000E+01 0. -1.
         -5    1    1    2    0  502 -0.30546499070E+02  0.14928186865E+02  0.38033422345E+02  0.51185476297E+02  0.41800000000E+01 0. -1.
        -11    1    3    3    0    0  0.17937922736E+02 -0.10569801634E+01  0.21774151491E+02  0.28231187582E+02  0.00000000000E+00 0.  1.
         11    1    3    3    0    0 -0.77763105911E+02 -0.44208927617E+02  0.39593820179E+03  0.40591697373E+03  0.00000000000E+00 0. -1.
</event>
<event>
 7    1  0.4096326E-006  0.8791244E+02  0.7561462E-02  0.1307987E+00
          2   -1    0    0  501    0  0.00000000000E+00  0.00000000000E+00  0.29187953734E+03  0.29187953734E+03  0.00000000000E+00 0.  1.
         -2   -1    0    0    0  501 -0.00000000000E+00 -0.00000000000E+00 -0.44347409390E+02  0.44347409390E+02  0.00000000000E+00 0. -1.
         23    2    1    2    0    0 -0.24900541776E+02 -0.18058741232E+02  0.13351671601E+03  0.16420121729E+03  0.90494039533E+02 0.  0.
          5    1    1    2  502    0  0.53393416518E+02  0.84982676780E+01  0.12770203329E+03  0.13873845605E+03  0.41800000000E+01 0.  1.
         -5    1    1    2    0  502 -0.28492874743E+02  0.95604735540E+01 -0.13686621347E+02  0.33287273388E+02  0.41800000000E+01 0.  1.
        -11    1    3    3    0    0 -0.55356705341E+02 -0.23810267096E+02  0.63031845224E+02  0.87202678616E+02  0.00000000000E+00 0.  1.
         11    1    3    3    0    0  0.30456163565E+02  0.57515258638E+01  0.70484870783E+02  0.76998538675E+02  0.00000000000E+00 0. -1.
</event>
<event>
 7    1  0.4096326E-006  0.1243159E+03  0.7561462E-02  0.1236142E+00
          2   -1    0    0  501    0  0.00000000000E+00  0.00000000000E+00  0.32193716291E+03  0.32193716291E+03  0.00000000000E+00 0. -1.
         -2   -1    0    0    0  501 -0.00000000000E+00 -0.00000000000E+00 -0.54272455235E+02  0.54272455235E+02  0.00000000000E+00 0.  1.
         23    2    1    2    0    0  0.15029177222E+01  0.73841640627E+02  0.13700804849E+03  0.18083163390E+03  0.92054482870E+02 0.  0.
          5    1    1    2  502    0 -0.44672086865E+02 -0.77490317237E+02  0.47121827172E+02  0.10118440397E+03  0.41800000000E+01 0. -1.
         -5    1    1    2    0  502  0.43169169143E+02  0.36486766101E+01  0.83534832021E+02  0.94193580282E+02  0.41800000000E+01 0. -1.
        -11    1    3    3    0    0  0.11427466153E+02 -0.19012387546E+02  0.42668379271E+02  0.48090003665E+02  0.00000000000E+00 0.  1.
         11    1    3    3    0    0 -0.99245484310E+01  0.92854028174E+02  0.94339669215E+02  0.13274163023E+03  0.00000000000E+00 0. -1.
</event>
<event>
 7    1  0.4096326E-006  0.9649530E+02  0.7561462E-02  0.1287843E+00
          1   -1    0    0  501    0  0.00000000000E+00  0.00000000000E+00  0.61620072423E+02  0.61620072423E+02  0.00000000000E+00 0. -1.
         -1   -1    0    0    0  501 -0.00000000000E+00 -0.00000000000E+00 -0.25870644892E+03  0.25870644892E+03  0.00000000000E+00 0.  1.
         23    2    1    2    0    0 -0.62214449133E+02  0.55891739555E+01 -0.70928249090E+02  0.13200499718E+03  0.92155445932E+02 0.  0.
          5    1    1    2  502    0  0.15739956916E+02  0.22344856381E+02 -0.13084596368E+03  0.13373547570E+03  0.41800000000E+01 0.  1.
         -5    1    1    2    0  502  0.46474492217E+02 -0.27934030336E+02  0.46878362712E+01  0.54586048461E+02  0.41800000000E+01 0.  1.
        -11    1    3    3    0    0 -0.84332183477E+02  0.17060964056E+02 -0.50350932371E+02  0.99690571546E+02  0.00000000000E+00 0. -1.
         11    1    3    3    0    0  0.22117734344E+02 -0.11471790101E+02 -0.20577316718E+02  0.32314425633E+02  0.00000000000E+00 0.  1.
</event>
<event>
 7    1  0.4096326E-006  0.1307091E+03  0.7561462E-02  0.1226407E+00
          1   -1    0    0  501    0  0.00000000000E+00  0.00000000000E+00  0.40983490452E+02  0.40983490452E+02  0.00000000000E+00 0. -1.
         -1   -1    0    0    0  501 -0.00000000000E+00 -0.00000000000E+00 -0.42091852810E+03  0.42091852810E+03  0.00000000000E+00 0.  1.
         23    2    1    2    0    0 -0.70731672771E+02  0.21924156989E+02 -0.17695054590E+03  0.21223456206E+03  0.90820567316E+02 0.  0.
          5    1    1    2  502    0  0.87717320568E+02  0.28125974472E+02 -0.13402198411E+03  0.16267994158E+03  0.41800000000E+01 0. -1.
         -5    1    1    2    0  502 -0.16985647797E+02 -0.50050131460E+02 -0.68962507639E+02  0.86987514909E+02  0.41800000000E+01 0. -1.
        -11    1    3    3    0    0 -0.55160136080E+02  0.56073301310E+02 -0.13218478662E+03  0.15381701319E+03  0.00000000000E+00 0. -1.
         11    1    3    3    0    0 -0.15571536691E+02 -0.34149144321E+02 -0.44765759275E+02  0.58417548872E+02  0.00000000000E+00 0.  1.
</event>
<event>
 7    1  0.4096326E-006  0.7716505E+02  0.7561462E-02  0.1337295E+00
          2   -1    0    0  501    0  0.00000000000E+00  0.00000000000E+00  0.16319832851E+03  0.16319832851E+03  0.00000000000E+00 0. -1.
         -2   -1    0    0    0  501 -0.00000000000E+00 -0.00000000000E+00 -0.75660385708E+02  0.75660385708E+02  0.00000000000E+00 0.  1.
         23    2    1    2    0    0 -0.18953801053E+02 -0.61212757309E+00  0.53959587766E+02  0.10795939225E+03  0.91564032175E+02 0.  0.
          5    1    1    2  502    0 -0.29642012872E+02 -0.30105886878E+02  0.54934378808E+02  0.69428176750E+02  0.41800000000E+01 0.  1.
         -5    1    1    2    0  502  0.48595813924E+02  0.30718014451E+02 -0.21356023776E+02  0.61471145217E+02  0.41800000000E+01 0.  1.
        -11    1    3    3    0    0 -0.30508816953E+01 -0.24962816418E+02 -0.17613310329E+02  0.30703074494E+02  0.00000000000E+00 0.  1.
         11    1    3    3    0    0 -0.15902919357E+02  0.24350688845E+02  0.71572898095E+02  0.77256317754E+02  0.00000000000E+00 0. -1.
</event>
<event>
 7    1  0.4096326E-006  0.1067356E+03  0.7561462E-02  0.1266737E+00
          2   -1    0    0  501    0  0.00000000000E+00  0.00000000000E+00  0.53301828673E+03  0.53301828673E+03  0.00000000000E+00 0. -1.
         -2   -1    0    0    0  501 -0.00000000000E+00 -0.00000000000E+00 -0.79946198040E+02  0.79946198040E+02  0.00000000000E+00 0.  1.
         23    2    1    2    0    0  0.36954166011E+02 -0.18927622003E+02  0.45699266139E+03  0.46786942114E+03  0.91299712021E+02 0.  0.
          5    1    1    2  502    0 -0.26246508129E+02 -0.45831015739E+02  0.39674111455E+02  0.66188131205E+02  0.41800000000E+01 0. -1.
         -5    1    1    2    0  502 -0.10707657882E+02  0.64758637741E+02 -0.43594684149E+02  0.78906932430E+02  0.41800000000E+01 0.  1.
        -11    1    3    3    0    0 -0.13890875198E+02  0.24295667743E+02  0.74184098708E+02  0.79287555051E+02  0.00000000000E+00 0.  1.
         11    1    3    3    0    0  0.50845041208E+02 -0.43223289746E+02  0.38280856268E+03  0.38858186609E+03  0.00000000000E+00 0. -1.
</event>
<event>
 7    1  0.4096326E-006  0.1071908E+03  0.7561462E-02  0.1265862E+00
          1   -1    0    0  501    0  0.00000000000E+00  0.00000000000E+00  0.19502752225E+03  0.19502752225E+03  0.00000000000E+00 0. -1.
         -1   -1    0    0    0  501 -0.00000000000E+00 -0.00000000000E+00 -0.97312806189E+02  0.97312806189E+02  0.00000000000E+00 0.  1.
         23    2    1    2    0    0 -0.35557566001E+02 -0.70716731569E+02  0.79487545825E+02  0.14319286603E+03  0.88998484918E+02 0.  0.
          5    1    1    2  502    0  0.15264746542E+02  0.91527332341E+02 -0.25639065094E+02  0.96359219130E+02  0.41800000000E+01 0. -1.
         -5    1    1    2    0  502  0.20292819460E+02 -0.20810600772E+02  0.43866235333E+02  0.52788243278E+02  0.41800000000E+01 0. -1.
        -11    1    3    3    0    0 -0.32032849655E+02 -0.13428476368E+02 -0.10652399576E+02  0.36330442487E+02  0.00000000000E+00 0.  1.
         11    1    3    3    0    0 -0.35247163465E+01 -0.57288255201E+02  0.90139945400E+02  0.10686242355E+03  0.00000000000E+00 0. -1.
</event>
<event>
 7    1  0.4096326E-006  0.2250927E+03  0.7561462E-02  0.1130142E+00
          2   -1    0    0  501    0  0.00000000000E+00  0.00000000000E+00  0.71374501240E+03  0.71374501240E+03  0.00000000000E+00 0. -1.
         -2   -1    0    0    0  501 -0.00000000000E+00 -0.00000000000E+00 -0.88611292964E+02  0.88611292964E+02  0.00000000000E+00 0.  1.
         23    2    1    2    0    0 -0.91744721061E+02 -0.18204569554E+03  0.43331562754E+03  0.48734270331E+03  0.90458544618E+02 0.  0.
          5    1    1    2  502    0  0.60421891097E+02  0.16263644421E+02  0.11191351512E+03  0.12828646975E+03  0.41800000000E+01 0. -1.
         -5    1    1    2    0  502  0.31322829964E+02  0.16578205112E+03  0.79904576780E+02  0.18672713231E+03  0.41800000000E+01 0.  1.
        -11    1    3    3    0    0 -0.32262179853E+02 -0.59113237303E+01  0.36100870011E+02  0.48775657993E+02  0.00000000000E+00 0. -1.
         11    1    3    3    0    0 -0.59482541208E+02 -0.17613437181E+03  0.39721475752E+03  0.43856704532E+03  0.00000000000E+00 0.  1.
</event>
<event>
 7    1  0.4096326E-006  0.5180633E+02  0.7561462E-02  0.1435835E+00
         -1   -1    0    0    0  501 -0.00000000000E+00  0.00000000000E+00  0.16915279867E+03  0.16915279867E+03  0.00000000000E+00 0.  1.
          1   -1    0    0  501    0  0.00000000000E+00 -0.00000000000E+00 -0.93705159763E+02  0.93705159763E+02  0.00000000000E+00 0. -1.
         23    2    1    2    0    0 -0.12787242554E+02  0.47867635927E+02 -0.83585906820E+01  0.10431351421E+03  0.91414545161E+02 0.  0.
          5    1    1    2  502    0  0.12088311463E+02 -0.10771915465E+02  0.11106430995E+03  0.11231613767E+03  0.41800000000E+01 0. -1.
         -5    1    1    2    0  502  0.69893109072E+00 -0.37095720463E+02 -0.27258080364E+02  0.46228306549E+02  0.41800000000E+01 0. -1.
        -11    1    3    3    0    0 -0.65482648866E+01  0.22877736530E+02 -0.49986352908E+02  0.55361593897E+02  0.00000000000E+00 0. -1.
         11    1    3    3    0    0 -0.62389776675E+01  0.24989899397E+02  0.41627762226E+02  0.48951920312E+02  0.00000000000E+00 0.  1.
</event>
<event>
 7    1  0.4096326E-006  0.9653350E+02  0.7561462E-02  0.1287759E+00
         -1   -1    0    0    0  501 -0.00000000000E+00  0.00000000000E+00  0.11210564327E+03  0.11210564327E+03  0.00000000000E+00 0.  1.
          1   -1    0    0  501    0  0.00000000000E+00 -0.00000000000E+00 -0.12608670018E+03  0.12608670018E+03  0.00000000000E+00 0. -1.
         23    2    1    2    0    0 -0.27442213302E+02 -0.11647993090E+02 -0.42688120459E+02  0.10643334853E+03  0.92827965819E+02 0.  0.
          5    1    1    2  502    0 -0.53089047382E+01  0.55698224938E+02 -0.18667551989E+02  0.59130589613E+02  0.41800000000E+01 0.  1.
         -5    1    1    2    0  502  0.32751118040E+02 -0.44050231848E+02  0.47374615535E+02  0.72628405296E+02  0.41800000000E+01 0.  1.
        -11    1    3    3    0    0 -0.41460070731E+02 -0.35276223854E+02  0.14355111827E+01  0.54455579390E+02  0.00000000000E+00 0.  1.
         11    1    3    3    0    0  0.14017857429E+02  0.23628230764E+02 -0.44123631642E+02  0.51977769144E+02  0.00000000000E+00 0. -1.
</event>
<event>
 7    1  0.4096326E-006  0.3195584E+03  0.7561462E-02  0.1075853E+00
         -2   -1    0    0    0  501 -0.00000000000E+00  0.00000000000E+00  0.81961706395E+02  0.81961706395E+02  0.00000000000E+00 0.  1.
          2   -1    0    0  501    0  0.00000000000E+00 -0.00000000000E+00 -0.20799286321E+04  0.20799286321E+04  0.00000000000E+00 0. -1.
         23    2    1    2    0    0 -0.36720729631E+02 -0.30157274218E+03 -0.16672869816E+04  0.16971523804E+04  0.90475369590E+02 0.  0.
          5    1    1    2  502    0  0.59178719057E+02  0.78579742649E+02 -0.13561442627E+03  0.16758771362E+03  0.41800000000E+01 0. -1.
         -5    1    1    2    0  502 -0.22457989426E+02  0.22299299953E+03 -0.19506551780E+03  0.29715024443E+03  0.41800000000E+01 0.  1.
        -11    1    3    3    0    0 -0.60427673998E+02 -0.13076853362E+03 -0.71215456942E+03  0.72657831231E+03  0.00000000000E+00 0.  1.
         11    1    3    3    0    0  0.23706944367E+02 -0.17080420857E+03 -0.95513241217E+03  0.97057406809E+03  0.00000000000E+00 0. -1.
</event>
<event>
 7    1  0.4096326E-006  0.9036173E+02  0.7561462E-02  0.1301978E+00
          1   -1    0    0  501    0  0.00000000000E+00  0.00000000000E+00  0.27632765500E+03  0.27632765500E+03  0.00000000000E+00 0. -1.
         -1   -1    0    0    0  501 -0.00000000000E+00 -0.00000000000E+00 -0.43910596245E+02  0.43910596245E+02  0.00000000000E+00 0.  1.
         23    2    1    2    0    0  0.18134531625E+02 -0.59992620505E+01  0.11709932444E+03  0.14902403878E+03  0.90172390279E+02 0.  0.
          5    1    1    2  502    0  0.28808890081E+02 -0.45242488069E+02  0.31836999835E+02  0.62513213266E+02  0.41800000000E+01 0. -1.
         -5    1    1    2    0  502 -0.46943421706E+02  0.51241750120E+02  0.83480734481E+02  0.10870099920E+03  0.41800000000E+01 0. -1.
        -11    1    3    3    0    0 -0.18432024326E+02 -0.91969001679E+01  0.10965196934E+03  0.11157005366E+03  0.00000000000E+00 0. -1.
         11    1    3    3    0    0  0.36566555951E+02  0.31976381175E+01  0.74473550989E+01  0.37453985123E+02  0.00000000000E+00 0.  1.
</event>
<event>
 7    1  0.4096326E-006  0.2004561E+03  0.7561462E-02  0.1149355E+00
          1   -1    0    0  501    0  0.00000000000E+00  0.00000000000E+00  0.11165409232E+04  0.11165409232E+04  0.00000000000E+00 0. -1.
         -1   -1    0    0    0  501 -0.00000000000E+00 -0.00000000000E+00 -0.44036793788E+02  0.44036793788E+02  0.00000000000E+00 0.  1.
         23    2    1    2    0    0  0.12711184061E+03 -0.11386909569E+03  0.75300442790E+03  0.77736932282E+03  0.90353774923E+02 0.  0.
          5    1    1    2  502    0 -0.11751764286E+03  0.13885119132E+03  0.25508050980E+03  0.31332664839E+03  0.41800000000E+01 0. -1.
         -5    1    1    2    0  502 -0.95941977462E+01 -0.24982095628E+02  0.64419191741E+02  0.69881745806E+02  0.41800000000E+01 0. -1.
        -11    1    3    3    0    0  0.41792982383E+02 -0.95998875601E+02  0.36689106956E+03  0.38153832628E+03  0.00000000000E+00 0. -1.
         11    1    3    3    0    0  0.85318858225E+02 -0.17870220087E+02  0.38611335834E+03  0.39583099654E+03  0.00000000000E+00 0.  1.
</event>
<event>
 7    1  0.4096326E-006  0.1905387E+03  0.7561462E-02  0.1157976E+00
         -2   -1    0    0    0  501 -0.00000000000E+00  0.00000000000E+00  0.55613097896E+02  0.55613097896E+02  0.00000000000E+00 0.  1.
          2   -1    0    0  501    0  0.00000000000E+00 -0.00000000000E+00 -0.68707097666E+03  0.68707097666E+03  0.00000000000E+00 0. -1.
         23    2    1    2    0    0 -0.11826349226E+03 -0.10833900530E+03 -0.33868266688E+03  0.38618711755E+03  0.93332455498E+02 0.  0.
          5    1    1    2  502    0  0.10234988704E+03  0.16936709654E+02 -0.19933700748E+03  0.22475557048E+03  0.41800000000E+01 0. -1.
         -5    1    1    2    0  502  0.15913605226E+02  0.91402295647E+02 -0.93438204406E+02  0.13174138652E+03  0.41800000000E+01 0. -1.
        -11    1    3    3    0    0 -0.13194100919E+03 -0.83850423726E+02 -0.26991458132E+03  0.31191858662E+03  0.00000000000E+00 0.  1.
         11    1    3    3    0    0  0.13677516929E+02 -0.24488581575E+02 -0.68768085554E+02  0.74268530938E+02  0.00000000000E+00 0. -1.
</event>
<event>
 7    1  0.4096326E-006  0.1118539E+03  0.7561462E-02  0.1257175E+00
          4   -1    0    0  501    0  0.00000000000E+00  0.00000000000E+00  0.75857777093E+02  0.75857777093E+02  0.00000000000E+00 0. -1.
         -4   -1    0    0    0  501 -0.00000000000E+00 -0.00000000000E+00 -0.26117863268E+03  0.26117863268E+03  0.00000000000E+00 0.  1.
         23    2    1    2    0    0 -0.58575326484E+02 -0.49728339890E+02 -0.25092135350E+02  0.11972257124E+03  0.88317054682E+02 0.  0.
          5    1    1    2  502    0  0.83675578078E+02  0.52803799274E+02 -0.16382536030E+03  0.19143161876E+03  0.41800000000E+01 0.  1.
         -5    1    1    2    0  502 -0.25100251595E+02 -0.30754593838E+01  0.35966400608E+01  0.25882219771E+02  0.41800000000E+01 0.  1.
        -11    1    3    3    0    0 -0.88271750085E+01  0.15001793901E+02 -0.33398863386E+02  0.37662407177E+02  0.00000000000E+00 0.  1.
         11    1    3    3    0    0 -0.49748151475E+02 -0.64730133791E+02  0.83067280359E+01  0.82060164066E+02  0.00000000000E+00 0. -1.
</event>
<event>
 7    1  0.4096326E-006  0.8157229E+02  0.7561462E-02  0.1324648E+00
         -1   -1    0    0    0  501 -0.00000000000E+00  0.00000000000E+00  0.93763406234E+02  0.93763406234E+02  0.00000000000E+00 0.  1.
          1   -1    0    0  501    0  0.00000000000E+00 -0.00000000000E+00 -0.13145010739E+03  0.13145010739E+03  0.00000000000E+00 0. -1.
         23    2    1    2    0    0 -0.91143352093E+01 -0.15554813059E+02 -0.12362335131E+02  0.96319804529E+02  0.93806471520E+02 0.  0.
          5    1    1    2  502    0 -0.18639795525E+02 -0.19338294958E+02  0.40804397523E+02  0.49029408383E+02  0.41800000000E+01 0.  1.
         -5    1    1    2    0  502  0.27754130735E+02  0.34893108017E+02 -0.66128763550E+02  0.79864300714E+02  0.41800000000E+01 0.  1.
        -11    1    3    3    0    0 -0.35550500656E+02  0.24510193976E+02 -0.20219249904E+02  0.47680245095E+02  0.00000000000E+00 0.  1.
         11    1    3    3    0    0  0.26436165447E+02 -0.40065007034E+02  0.78569147729E+01  0.48639559434E+02  0.00000000000E+00 0. -1.
</event>
<event>
 6    1  0.4096326E-006  0.9630305E+02  0.7561462E-02  0.1288268E+00
         -2   -1    0    0    0  501 -0.00000000000E+00  0.00000000000E+00  0.16946066321E+03  0.16946066321E+03  0.00000000000E+00 0. -1.
          2   -1    0    0  501    0  0.00000000000E+00 -0.00000000000E+00 -0.75614426460E+02  0.75614426460E+02  0.00000000000E+00 0.  1.
          5    1    1    2  502    0  0.32643281432E+02 -0.89282644115E+02  0.88697413252E+02  0.13008334974E+03  0.41800000000E+01 0.  1.
         -5    1    1    2    0  502 -0.88393537497E+01  0.28057969253E+02 -0.10369292394E+02  0.31470278646E+02  0.41800000000E+01 0.  1.
        -11    1    1    2    0    0  0.11426536757E+01  0.16396983674E+02  0.26380865193E+02  0.31082419137E+02  0.00000000000E+00 0. -1.
         11    1    1    2    0    0 -0.24946581358E+02  0.44827691189E+02 -0.10862749301E+02  0.52439042145E+02  0.00000000000E+00 0.  1.
</event>
<event>
 7    1  0.4096326E-006  0.1884502E+03  0.7561462E-02  0.1159867E+00
          2   -1    0    0  501    0  0.00000000000E+00  0.00000000000E+00  0.11481290236E+04  0.11481290236E+04  0.00000000000E+00 0. -1.
         -2   -1    0    0    0  501 -0.00000000000E+00 -0.00000000000E+00 -0.37515296825E+02  0.37515296825E+02  0.00000000000E+00 0.  1.
         23    2    1    2    0    0  0.20857074903E+02 -0.16964538907E+03  0.43117170639E+03  0.47395536362E+03  0.97519591411E+02 0.  0.
          5    1    1    2  502    0  0.22968970631E+02  0.11959182425E+03  0.57513392416E+03  0.58789989042E+03  0.41800000000E+01 0. -1.
         -5    1    1    2    0  502 -0.43826045534E+02  0.50053564828E+02  0.10430809627E+03  0.12378906643E+03  0.41800000000E+01 0. -1.
        -11    1    3    3    0    0 -0.23838629423E+02 -0.11666571072E+03  0.20152437615E+03  0.23407529236E+03  0.00000000000E+00 0.  1.
         11    1    3    3    0    0  0.44695704326E+02 -0.52979678355E+02  0.22964733024E+03  0.23988007126E+03  0.00000000000E+00 0. -1.
</event>
<event>
 7    1  0.4096326E-006  0.1509975E+03  0.7561462E-02  0.1199253E+00
         -2   -1    0    0    0  501 -0.00000000000E+00  0.00000000000E+00  0.13085088040E+03  0.13085088040E+03  0.00000000000E+00 0.  1.
          2   -1    0    0  501    0  0.00000000000E+00 -0.00000000000E+00 -0.20832360398E+03  0.20832360398E+03  0.00000000000E+00 0. -1.
         23    2    1    2    0    0 -0.34382096684E+01  0.11980274843E+03 -0.49480311599E+02  0.16368867718E+03  0.99905765518E+02 0.  0.
          5    1    1    2  502    0  0.10432504036E+02 -0.13692529942E+03  0.49507552667E+01  0.13747493277E+03  0.41800000000E+01 0. -1.
         -5    1    1    2    0  502 -0.69942943674E+01  0.17122550995E+02 -0.32943167250E+02  0.38010874428E+02  0.41800000000E+01 0. -1.
        -11    1    3    3    0    0  0.39625376695E+02  0.61614350887E+02 -0.54226649258E+02  0.91142899905E+02  0.00000000000E+00 0. -1.
         11    1    3    3    0    0 -0.43063586363E+02  0.58188397540E+02  0.47463376595E+01  0.72545777271E+02  0.00000000000E+00 0.  1.
</event>
<event>
 7    1  0.4096326E-006  0.1199460E+03  0.7561462E-02  0.1243186E+00
         -3   -1    0    0    0  501 -0.00000000000E+00  0.00000000000E+00  0.66433285527E+02  0.66433285527E+02  0.00000000000E+00 0.  1.
          3   -1    0    0  501    0  0.00000000000E+00 -0.00000000000E+00 -0.32424167622E+03  0.32424167622E+03  0.00000000000E+00 0. -1.
         23    2    1    2    0    0  0.92617855892E+02 -0.14624104771E+02 -0.16043951621E+03  0.20649839328E+03  0.90048966661E+02 0.  0.
          5    1    1    2  502    0 -0.10711668748E+03 -0.19369995736E+02 -0.40487245073E+02  0.11621476190E+03  0.41800000000E+01 0. -1.
         -5    1    1    2    0  502  0.14498831584E+02  0.33994100507E+02 -0.56881629415E+02  0.67961806564E+02  0.41800000000E+01 0. -1.
        -11    1    3    3    0    0  0.30228445306E+02 -0.48201418729E+01 -0.13497569775E+03  0.13840314901E+03  0.00000000000E+00 0. -1.
         11    1    3    3    0    0  0.62389410586E+02 -0.98039628982E+01 -0.25463818458E+02  0.68095244270E+02  0.00000000000E+00 0.  1.
</event>
<event>
 7    1  0.4096326E-006  0.1705357E+03  0.7561462E-02  0.1177290E+00
         -1   -1    0    0    0  501 -0.00000000000E+00  0.00000000000E+00  0.14470440261E+03  0.14470440261E+03  0.00000000000E+00 0.  1.
          1   -1    0    0  501    0  0.00000000000E+00 -0.00000000000E+00 -0.22460682991E+03  0.22460682991E+03  0.00000000000E+00 0. -1.
         23    2    1    2    0    0 -0.32361584919E+02  0.15349290302E+02 -0.17056243472E+02  0.99635644673E+02  0.91397337799E+02 0.  0.
          5    1    1    2  502    0 -0.10292439951E+03  0.42267640458E+02 -0.49866228224E+02  0.12200040394E+03  0.41800000000E+01 0. -1.
         -5    1    1    2    0  502  0.13528598443E+03 -0.57616930760E+02 -0.12979955605E+02  0.14767518391E+03  0.41800000000E+01 0.  1.
        -11    1    3    3    0    0  0.17238195242E+02  0.26662917466E+02 -0.33514549143E+02  0.46165913262E+02  0.00000000000E+00 0.  1.
         11    1    3    3    0    0 -0.49599780161E+02 -0.11313627164E+02  0.16458305671E+02  0.53469731411E+02  0.00000000000E+00 0. -1.
</event>
<event>
 7    1  0.4096326E-006  0.1153806E+03  0.7561462E-02  0.1250918E+00
         -1   -1    0    0    0  501 -0.00000000000E+00  0.00000000000E+00  0.47767221945E+03  0.47767221945E+03  0.00000000000E+00 0.  1.
          1   -1    0    0  501    0  0.00000000000E+00 -0.00000000000E+00 -0.41158146245E+02  0.41158146245E+02  0.00000000000E+00 0. -1.
         23    2    1    2    0    0 -0.38010837443E+02  0.64111665475E+02  0.78016632098E+02  0.13188715057E+03  0.75845212037E+02 0.  0.
          5    1    1    2  502    0 -0.34105150219E+02 -0.24954847418E+02  0.23368569111E+03  0.23751290557E+03  0.41800000000E+01 0.  1.
         -5    1    1    2    0  502  0.72115987662E+02 -0.39156818057E+02  0.12481175000E+03  0.14943030956E+03  0.41800000000E+01 0.  1.
        -11    1    3    3    0    0 -0.60830621732E+02  0.39318474171E+02  0.49336036242E+02  0.87637614205E+02  0.00000000000E+00 0. -1.
         11    1    3    3    0    0  0.22819784289E+02  0.24793191304E+02  0.28680595856E+02  0.44249536367E+02  0.00000000000E+00 0.  1.
</event>
<event>
 7    1  0.4096326E-006  0.1112105E+03  0.7561462E-02  0.1258345E+00
         -1   -1    0    0    0  501 -0.00000000000E+00  0.00000000000E+00  0.10407801147E+03  0.10407801147E+03  0.00000000000E+00 0.  1.
          1   -1    0    0  501    0  0.00000000000E+00 -0.00000000000E+00 -0.19396534013E+03  0.19396534013E+03  0.00000000000E+00 0. -1.
         23    2    1    2    0    0  0.30030904937E+02 -0.10746585643E+02 -0.13196243220E+03  0.16226708450E+03  0.88877324692E+02 0.  0.
          5    1    1    2  502    0 -0.37538915337E+02 -0.52800057925E+02  0.23025905852E+02  0.68881645029E+02  0.41800000000E+01 0. -1.
         -5    1    1    2    0  502  0.75080104004E+01  0.63546643567E+02  0.19049197687E+02  0.66894622066E+02  0.41800000000E+01 0. -1.
        -11    1    3    3    0    0  0.60363997384E+02 -0.16330839578E+02 -0.76510897943E+02  0.98815110209E+02  0.00000000000E+00 0. -1.
         11    1    3    3    0    0 -0.30333092448E+02  0.55842539352E+01 -0.55451534257E+02  0.63451974287E+02  0.00000000000E+00 0.  1.
</event>
<event>
 7    1  0.4096326E-006  0.1046948E+03  0.7561462E-02  0.1270722E+00
         -1   -1    0    0    0  501 -0.00000000000E+00  0.00000000000E+00  0.43519768176E+02  0.43519768176E+02  0.00000000000E+00 0.  1.
          1   -1    0    0  501    0  0.00000000000E+00 -0.00000000000E+00 -0.41855061763E+03  0.41855061763E+03  0.00000000000E+00 0. -1.
         23    2    1    2    0    0  0.29675108561E+02  0.72649972526E+02 -0.16250548205E+03  0.20328066194E+03  0.93575452150E+02 0.  0.
          5    1    1    2  502    0  0.29442559445E+01 -0.71505838878E+02 -0.37898561318E+02  0.81089623175E+02  0.41800000000E+01 0.  1.
         -5    1    1    2    0  502 -0.32619364505E+02 -0.11441336476E+01 -0.17462680608E+03  0.17770010069E+03  0.41800000000E+01 0.  1.
        -11    1    3    3    0    0 -0.18114385638E+02  0.47404236151E+02 -0.27194390180E+02  0.57574538030E+02  0.00000000000E+00 0.  1.
         11    1    3    3    0    0  0.47789494198E+02  0.25245736375E+02 -0.13531109187E+03  0.14570612391E+03  0.00000000000E+00 0. -1.
</event>
<event>
 7    1  0.4096326E-006  0.1605534E+03  0.7561462E-02  0.1188073E+00
          1   -1    0    0  501    0  0.00000000000E+00  0.00000000000E+00  0.85263128930E+02  0.85263128930E+02  0.00000000000E+00 0. -1.
         -1   -1    0    0    0  501 -0.00000000000E+00 -0.00000000000E+00 -0.70692577736E+03  0.70692577736E+03  0.00000000000E+00 0.  1.
         23    2    1    2    0    0  0.20511179422E+02 -0.15738415593E+03 -0.56508441512E+02  0.19199166949E+03  0.92071255954E+02 0.  0.
          5    1    1    2  502    0 -0.16022871702E+02  0.14999951852E+03 -0.30918985114E+03  0.34405293840E+03  0.41800000000E+01 0. -1.
         -5    1    1    2    0  502 -0.44883077199E+01  0.73846374083E+01 -0.25596435578E+03  0.25614429840E+03  0.41800000000E+01 0. -1.
        -11    1    3    3    0    0 -0.40080240498E+01 -0.61383591899E+02 -0.68638430443E+02  0.92169646549E+02  0.00000000000E+00 0.  1.
         11    1    3    3    0    0  0.24519203471E+02 -0.96000564026E+02  0.12129988931E+02  0.99822022939E+02  0.00000000000E+00 0. -1.
</event>
<event>
 7    1  0.4096326E-006  0.1322655E+03  0.7561462E-02  0.1224132E+00
         -2   -1    0    0    0  501 -0.00000000000E+00  0.00000000000E+00  0.19452668116E+03  0.19452668116E+03  0.00000000000E+00 0.  1.
          2   -1    0    0  501    0  0.00000000000E+00 -0.00000000000E+00 -0.91737844219E+02  0.91737844219E+02  0.00000000000E+00 0. -1.
         23    2    1    2    0    0  0.19388975867E+02 -0.72582962504E+02  0.31773419174E+02  0.12398442318E+03  0.93372202471E+02 0.  0.
          5    1    1    2  502    0 -0.80899892196E+01 -0.35311852904E+02  0.10315465854E+02  0.37897969825E+02  0.41800000000E+01 0.  1.
         -5    1    1    2    0  502 -0.11298986648E+02  0.10789481541E+03  0.60699951909E+02  0.12438213237E+03  0.41800000000E+01 0.  1.
        -11    1    3    3    0    0  0.57158967106E+02 -0.43492708843E+02  0.14472010060E+02  0.73268017022E+02  0.00000000000E+00 0. -1.
         11    1    3    3    0    0 -0.37769991239E+02 -0.29090253661E+02  0.17301409114E+02  0.50716406158E+02  0.00000000000E+00 0.  1.
</event>
<event>
 7    1  0.4096326E-006  0.8162079E+02  0.7561462E-02  0.1324514E+00
         -1   -1    0    0    0  501 -0.00000000000E+00  0.00000000000E+00  0.81532339039E+02  0.81532339039E+02  0.00000000000E+00 0.  1.
          1   -1    0    0  501    0  0.00000000000E+00 -0.00000000000E+00 -0.15776391200E+03  0.15776391200E+03  0.00000000000E+00 0. -1.
         23    2    1    2    0    0  0.22393783289E+02  0.15847857398E+02 -0.43132268324E+02  0.10702818095E+03  0.94031924535E+02 0.  0.
          5    1    1    2  502    0  0.32153222101E+02  0.19392554844E+01 -0.60409633620E+02  0.68588531384E+02  0.41800000000E+01 0.  1.
         -5    1    1    2    0  502 -0.54547005390E+02 -0.17787112882E+02  0.27310328979E+02  0.63679538712E+02  0.41800000000E+01 0.  1.
        -11    1    3    3    0    0  0.45270091453E+02 -0.23375975672E+00 -0.59394302285E+02  0.74680110924E+02  0.00000000000E+00 0. -1.
         11    1    3    3    0    0 -0.22876308164E+02  0.16081617154E+02  0.16262033961E+02  0.32348070021E+02  0.00000000000E+00 0.  1.
</event>
<event>
 7    1  0.4096326E-006  0.1190723E+03  0.7561462E-02  0.1244635E+00
          4   -1    0    0  501    0  0.00000000000E+00  0.00000000000E+00  0.88289068225E+02  0.88289068225E+02  0.00000000000E+00 0. -1.
         -4   -1    0    0    0  501 -0.00000000000E+00 -0.00000000000E+00 -0.20422504246E+03  0.20422504246E+03  0.00000000000E+00 0.  1.
         23    2    1    2    0    0 -0.18418383947E+02  0.68608704041E+02 -0.81108928927E+01  0.11273936641E+03  0.87166432854E+02 0.  0.
          5    1    1    2  502    0  0.45216545624E+02  0.87845715448E+01 -0.81385806437E+02  0.93609970542E+02  0.41800000000E+01 0. -1.
         -5    1    1    2    0  502 -0.26798161677E+02 -0.77393275586E+02 -0.26439274900E+02  0.86164773733E+02  0.41800000000E+01 0. -1.
        -11    1    3    3    0    0  0.27173277067E+02  0.56528271253E+02  0.72455259534E+01  0.63137390536E+02  0.00000000000E+00 0. -1.
         11    1    3    3    0    0 -0.45591661014E+02  0.12080432789E+02 -0.15356418846E+02  0.49601975869E+02  0.00000000000E+00 0.  1.
</event>
<event>
 7    1  0.4096326E-006  0.1574688E+03  0.7561462E-02  0.1191584E+00
          2   -1    0    0  501    0  0.00000000000E+00  0.00000000000E+00  0.57502684353E+03  0.57502684353E+03  0.00000000000E+00 0. -1.
         -2   -1    0    0    0  501 -0.00000000000E+00 -0.00000000000E+00 -0.57082122675E+02  0.57082122675E+02  0.00000000000E+00 0.  1.
         23    2    1    2    0    0 -0.11940640016E+03 -0.16693780994E+02  0.38495223699E+03  0.41331600588E+03  0.90029579742E+02 0.  0.
          5    1    1    2  502    0  0.12830965113E+03  0.46695597839E+02  0.83554692594E+02  0.16013339591E+03  0.41800000000E+01 0. -1.
         -5    1    1    2    0  502 -0.89032509665E+01 -0.30001816845E+02  0.49437791266E+02  0.58659564412E+02  0.41800000000E+01 0. -1.
        -11    1    3    3    0    0 -0.22909839561E+02  0.31456980547E+02  0.14704658270E+03  0.15210884214E+03  0.00000000000E+00 0. -1.
         11    1    3    3    0    0 -0.96496560602E+02 -0.48150761541E+02  0.23790565430E+03  0.26120716374E+03  0.00000000000E+00 0.  1.
</event>
<event>
 7    1  0.4096326E-006  0.9006491E+02  0.7561462E-02  0.1302695E+00
         -1   -1    0    0    0  501 -0.00000000000E+00  0.00000000000E+00  0.27567513222E+03  0.27567513222E+03  0.00000000000E+00 0.  1.
          1   -1    0    0  501    0  0.00000000000E+00 -0.00000000000E+00 -0.52545034485E+02  0.52545034485E+02  0.00000000000E+00 0. -1.
         23    2    1    2    0    0 -0.44115864927E+02  0.20417359774E+02  0.70241263768E+02  0.12478337541E+03  0.90961406785E+02 0.  0.
          5    1    1    2  502    0 -0.26274630895E+02  0.99507392711E+01 -0.40811543856E+01  0.28696718660E+02  0.41800000000E+01 0.  1.
         -5    1    1    2    0  502  0.70390495822E+02 -0.30368099045E+02  0.15696998835E+03  0.17474007264E+03  0.41800000000E+01 0.  1.
        -11    1    3    3    0    0  0.13360581203E+02  0.96290609950E+01  0.63867775568E+02  0.65956930657E+02  0.00000000000E+00 0.  1.
         11    1    3    3    0    0 -0.57476446130E+02  0.10788298779E+02  0.63734881997E+01  0.58826444751E+02  0.00000000000E+00 0. -1.
</event>
<event>
 7    1  0.4096326E-006  0.1057138E+03  0.7561462E-02  0.1268720E+00
         -1   -1    0    0    0  501 -0.00000000000E+00  0.00000000000E+00  0.28453309000E+02  0.28453309000E+02  0.00000000000E+00 0.  1.
          1   -1    0    0  501    0  0.00000000000E+00 -0.00000000000E+00 -0.58886925241E+03  0.58886925241E+03  0.00000000000E+00 0. -1.
         23    2    1    2    0    0  0.34988522386E+02  0.25795229919E+02 -0.38582577648E+03  0.39818254656E+03  0.88307530821E+02 0.  0.
          5    1    1    2  502    0  0.17212965276E+02  0.33765877197E+02 -0.11136924371E+03  0.11771576565E+03  0.41800000000E+01 0. -1.
         -5    1    1    2    0  502 -0.52201487662E+02 -0.59561107116E+02 -0.63220923213E+02  0.10142424921E+03  0.41800000000E+01 0. -1.
        -11    1    3    3    0    0  0.31345776225E+02 -0.26815925259E+02 -0.11270766004E+03  0.12001944912E+03  0.00000000000E+00 0. -1.
         11    1    3    3    0    0  0.36427461613E+01  0.52611155178E+02 -0.27311811644E+03  0.27816309744E+03  0.00000000000E+00 0.  1.
</event>
<event>
 7    1  0.4096326E-006  0.2343448E+03  0.7561462E-02  0.1123619E+00
          2   -1    0    0  501    0  0.00000000000E+00  0.00000000000E+00  0.68107651724E+03  0.68107651724E+03  0.00000000000E+00 0. -1.
         -2   -1    0    0    0  501 -0.00000000000E+00 -0.00000000000E+00 -0.11665236521E+03  0.11665236521E+03  0.00000000000E+00 0.  1.
         23    2    1    2    0    0  0.18992919340E+03  0.91568169072E+02  0.48995075058E+03  0.54150313693E+03  0.93359955134E+02 0.  0.
          5    1    1    2  502    0  0.16130999028E+02 -0.12768546884E+02  0.19895842510E+02  0.28923379269E+02  0.41800000000E+01 0.  1.
         -5    1    1    2    0  502 -0.20606019243E+03 -0.78799622187E+02  0.54577558950E+02  0.22730236625E+03  0.41800000000E+01 0.  1.
        -11    1    3    3    0    0  0.14691393148E+03  0.10656031626E+03  0.42540058270E+03  0.46249806489E+03  0.00000000000E+00 0.  1.
         11    1    3    3    0    0  0.43015261923E+02 -0.14992147188E+02  0.64550167872E+02  0.79005072039E+02  0.00000000000E+00 0. -1.
</event>
<event>
 7    1  0.4096326E-006  0.1109618E+03  0.7561462E-02  0.1258799E+00
         -4   -1    0    0    0  501 -0.00000000000E+00  0.00000000000E+00  0.12258088334E+03  0.12258088334E+03  0.00000000000E+00 0.  1.
          4   -1    0    0  501    0  0.00000000000E+00 -0.00000000000E+00 -0.10835753425E+03  0.10835753425E+03  0.00000000000E+00 0. -1.
         23    2    1    2    0    0 -0.39424300615E+02  0.12988081047E+02  0.20123953706E+02  0.99011560857E+02  0.87609074543E+02 0.  0.
          5    1    1    2  502    0  0.20408274624E+02  0.53090761852E+02  0.16700505786E+02  0.59426475250E+02  0.41800000000E+01 0. -1.
         -5    1    1    2    0  502  0.19016025990E+02 -0.66078842900E+02 -0.22601110402E+02  0.72500381480E+02  0.41800000000E+01 0. -1.
        -11    1    3    3    0    0 -0.67270392478E+02  0.96486916374E+01  0.20433324894E+02  0.70964242550E+02  0.00000000000E+00 0.  1.
         11    1    3    3    0    0  0.27846091863E+02  0.33393894100E+01 -0.30937118766E+00  0.28047318307E+02  0.00000000000E+00 0. -1.
</event>
<event>
 7    1  0.4096326E-006  0.1531023E+03  0.7561462E-02  0.1196712E+00
          2   -1    0    0  501    0  0.00000000000E+00  0.00000000000E+00  0.16077960371E+03  0.16077960371E+03  0.00000000000E+00 0. -1.
         -2   -1    0    0    0  501 -0.00000000000E+00 -0.00000000000E+00 -0.19795282412E+03  0.19795282412E+03  0.00000000000E+00 0.  1.
         23    2    1    2    0    0  0.10612920369E+03 -0.48910156505E+02  0.61897671525E+02  0.16095014500E+03  0.91749747400E+02 0.  0.
          5    1    1    2  502    0 -0.66904956239E+01  0.58662742496E+02 -0.32465716427E+01  0.59279783369E+02  0.41800000000E+01 0.  1.
         -5    1    1    2    0  502 -0.99438708071E+02 -0.97525859908E+01 -0.95824320298E+02  0.13850249946E+03  0.41800000000E+01 0.  1.
        -11    1    3    3    0    0  0.10814230504E+03 -0.68045807668E+02  0.61265648415E+02  0.14169851713E+03  0.00000000000E+00 0. -1.
         11    1    3    3    0    0 -0.20131013429E+01  0.19135651163E+02  0.63202310992E+00  0.19251627870E+02  0.00000000000E+00 0.  1.
</event>
<event>
 7    1  0.4096326E-006  0.1639578E+03  0.7561462E-02  0.1184299E+00
          2   -1    0    0  501    0  0.00000000000E+00  0.00000000000E+00  0.65946943129E+03  0.65946943129E+03  0.00000000000E+00 0. -1.
         -2   -1    0    0    0  501 -0.00000000000E+00 -0.00000000000E+00 -0.46900849982E+02  0.46900849982E+02  0.00000000000E+00 0.  1.
         23    2    1    2    0    0 -0.11338915342E+03  0.78536721136E+02  0.31251782991E+03  0.35323744510E+03  0.89912078882E+02 0.  0.
          5    1    1    2  502    0  0.11537736187E+03 -0.12876798457E+02  0.22562835212E+03  0.25377819696E+03  0.41800000000E+01 0.  1.
         -5    1    1    2    0  502 -0.19882084441E+01 -0.65659922679E+02  0.74422399271E+02  0.99354639209E+02  0.41800000000E+01 0.  1.
        -11    1    3    3    0    0 -0.93750614690E+02  0.38534864154E+02  0.28081489513E+03  0.29854835260E+03  0.00000000000E+00 0. -1.
         11    1    3    3    0    0 -0.19638538733E+02  0.40001856982E+02  0.31702934783E+02  0.54689092509E+02  0.00000000000E+00 0.  1.
</event>
<event>
 7    1  0.4096326E-006  0.8250966E+02  0.7561462E-02  0.1322077E+00
         -2   -1    0    0    0  501 -0.00000000000E+00  0.00000000000E+00  0.22984034002E+03  0.22984034002E+03  0.00000000000E+00 0.  1.
          2   -1    0    0  501    0  0.00000000000E+00 -0.00000000000E+00 -0.46740545348E+02  0.46740545348E+02  0.00000000000E+00 0. -1.
         23    2    1    2    0    0  0.72980016125E+01 -0.13031980870E+02  0.55616275327E+02  0.97352506192E+02  0.78493611382E+02 0.  0.
          5    1    1    2  502    0  0.38793308004E+02 -0.52805492655E+01 -0.30859291306E+01  0.39494307249E+02  0.41800000000E+01 0. -1.
         -5    1    1    2    0  502 -0.46091309617E+02  0.18312530136E+02  0.13056944848E+03  0.13973407193E+03  0.41800000000E+01 0. -1.
        -11    1    3    3    0    0  0.32159177267E+02  0.17410591080E+02  0.42155602774E+02  0.55807134038E+02  0.00000000000E+00 0.  1.
         11    1    3    3    0    0 -0.24861175655E+02 -0.30442571951E+02  0.13460672553E+02  0.41545372155E+02  0.00000000000E+00 0. -1.
</event>
<event>
 7    1  0.4096326E-006  0.1098146E+03  0.7561462E-02  0.1260914E+00
         -1   -1    0    0    0  501 -0.00000000000E+00  0.00000000000E+00  0.59153335766E+02  0.59153335766E+02  0.00000000000E+00 0.  1.
          1   -1    0    0  501    0  0.00000000000E+00 -0.00000000000E+00 -0.38663647678E+03  0.38663647678E+03  0.00000000000E+00 0. -1.
         23    2    1    2    0    0 -0.67108151578E+02  0.59928052290E+02 -0.22897259184E+03  0.26291074234E+03  0.92729365163E+02 0.  0.
          5    1    1    2  502    0  0.41484349850E+02 -0.29183538987E+02  0.22284240813E+02  0.55557987895E+02  0.41800000000E+01 0.  1.
         -5    1    1    2    0  502  0.25623801729E+02 -0.30744513303E+02 -0.12079478999E+03  0.12732108232E+03  0.41800000000E+01 0.  1.
        -11    1    3    3    0    0 -0.38135747582E+02  0.83076582332E+02 -0.14989339236E+03  0.17556788672E+03  0.00000000000E+00 0.  1.
         11    1    3    3    0    0 -0.28972403997E+02 -0.23148530042E+02 -0.79079199484E+02  0.87342855618E+02  0.00000000000E+00 0. -1.
</event>
<event>
 7    1  0.4096326E-006  0.1265724E+03  0.7561462E-02  0.1232632E+00
         -1   -1    0    0    0  501 -0.00000000000E+00  0.00000000000E+00  0.16041276607E+03  0.16041276607E+03  0.00000000000E+00 0.  1.
          1   -1    0    0  501    0  0.00000000000E+00 -0.00000000000E+00 -0.13243956694E+03  0.13243956694E+03  0.00000000000E+00 0. -1.
         23    2    1    2    0    0 -0.84109059501E+02 -0.12227737779E+02 -0.34490685568E+02  0.12922703700E+03  0.91028392491E+02 0.  0.
          5    1    1    2  502    0  0.85752660745E+02 -0.42861164100E+02  0.39148625402E+02  0.10363727845E+03  0.41800000000E+01 0. -1.
         -5    1    1    2    0  502 -0.16436012435E+01  0.55088901879E+02  0.23315259296E+02  0.59988017564E+02  0.41800000000E+01 0. -1.
        -11    1    3    3    0    0 -0.33635639515E+02 -0.33196714046E+02 -0.53477845314E+02  0.71367065292E+02  0.00000000000E+00 0. -1.
         11    1    3    3    0    0 -0.50473419986E+02  0.20968976267E+02  0.18987159746E+02  0.57859971708E+02  0.00000000000E+00 0.  1.
</event>
<event>
 7    1  0.4096326E-006  0.7552582E+02  0.7561462E-02  0.1342250E+00
         -2   -1    0    0    0  501 -0.00000000000E+00  0.00000000000E+00  0.24132063824E+03  0.24132063824E+03  0.00000000000E+00 0. -1.
          2   -1    0    0  501    0  0.00000000000E+00 -0.00000000000E+00 -0.65592501074E+02  0.65592501074E+02  0.00000000000E+00 0.  1.
         23    2    1    2    0    0 -0.14364931439E+02 -0.35924071326E+02  0.74115626805E+01  0.93664772366E+02  0.84978045195E+02 0.  0.
          5    1    1    2  502    0 -0.32816577209E+02  0.20461954858E+02  0.12592992633E+01  0.38918858808E+02  0.41800000000E+01 0. -1.
         -5    1    1    2    0  502  0.47181508648E+02  0.15462116468E+02  0.16705727522E+03  0.17432950814E+03  0.41800000000E+01 0. -1.
        -11    1    3    3    0    0 -0.20399161154E+02  0.49653371729E+01 -0.30866809353E+02  0.37330152272E+02  0.00000000000E+00 0.  1.
         11    1    3    3    0    0  0.60342297146E+01 -0.40889408498E+02  0.38278372033E+02  0.56334620094E+02  0.00000000000E+00 0. -1.
</event>
<event>
 6    1  0.4096326E-006  0.1185091E+03  0.7561462E-02  0.1245577E+00
          1   -1    0    0  501    0  0.00000000000E+00  0.00000000000E+00  0.21170077174E+02  0.21170077174E+02  0.00000000000E+00 0. -1.
         -1   -1    0    0    0  501 -0.00000000000E+00 -0.00000000000E+00 -0.11691033618E+04  0.11691033618E+04  0.00000000000E+00 0.  1.
          5    1    1    2  502    0  0.21239311291E+02  0.39754113537E+02 -0.13970436834E+03  0.14685462478E+03  0.41800000000E+01 0. -1.
         -5    1    1    2    0  502  0.60444533924E+01 -0.46944365327E+02 -0.58798548800E+03  0.58990229306E+03  0.41800000000E+01 0.  1.
        -11    1    1    2    0    0  0.43087692031E+02 -0.40575442695E+02 -0.30268794375E+03  0.30842001726E+03  0.00000000000E+00 0.  1.
         11    1    1    2    0    0 -0.70371456715E+02  0.47765694485E+02 -0.11755548449E+03  0.14509650383E+03  0.00000000000E+00 0. -1.
</event>
<event>
 7    1  0.4096326E-006  0.1172209E+03  0.7561462E-02  0.1247753E+00
         -2   -1    0    0    0  501 -0.00000000000E+00  0.00000000000E+00  0.95437971443E+02  0.95437971443E+02  0.00000000000E+00 0. -1.
          2   -1    0    0  501    0  0.00000000000E+00 -0.00000000000E+00 -0.19271978922E+03  0.19271978922E+03  0.00000000000E+00 0.  1.
         23    2    1    2    0    0 -0.65685148964E+02 -0.47182037460E+02 -0.54601100353E+02  0.13320788211E+03  0.90677319346E+02 0.  0.
          5    1    1    2  502    0  0.24737898971E+00  0.71545364949E+02  0.24396427263E+01  0.71709306918E+02  0.41800000000E+01 0. -1.
         -5    1    1    2    0  502  0.65437769974E+02 -0.24363327488E+02 -0.45120360149E+02  0.83240571631E+02  0.41800000000E+01 0. -1.
        -11    1    3    3    0    0 -0.36825861624E+02  0.79555071997E+00  0.18427507883E+02  0.41186770109E+02  0.00000000000E+00 0. -1.
         11    1    3    3    0    0 -0.28859287340E+02 -0.47977588180E+02 -0.73028608236E+02  0.92021112003E+02  0.00000000000E+00 0.  1.
</event>
<event>
 7    1  0.4096326E-006  0.9601623E+02  0.7561462E-02  0.1288904E+00
          3   -1    0    0  501    0  0.00000000000E+00  0.00000000000E+00  0.14179372385E+03  0.14179372385E+03  0.00000000000E+00 0. -1.
         -3   -1    0    0    0  501 -0.00000000000E+00 -0.00000000000E+00 -0.87918302849E+02  0.87918302849E+02  0.00000000000E+00 0.  1.
         23    2    1    2    0    0  0.16329702460E+02  0.12629763515E+02  0.43235023775E+02  0.10248507367E+03  0.90596649697E+02 0.  0.
          5    1    1    2  502    0 -0.55333514847E+02 -0.27242088983E+02 -0.30150937390E+02  0.68778490119E+02  0.41800000000E+01 0.  1.
         -5    1    1    2    0  502  0.39003812388E+02  0.14612325468E+02  0.40791334618E+02  0.58448462908E+02  0.41800000000E+01 0.  1.
        -11    1    3    3    0    0 -0.11436729073E+02  0.44580811259E+02  0.65844596651E+01  0.46493038334E+02  0.00000000000E+00 0.  1.
         11    1    3    3    0    0  0.27766431533E+02 -0.31951047744E+02  0.36650564110E+02  0.55992035340E+02  0.00000000000E+00 0. -1.
</event>
<event>
 6    1  0.4096326E-006  0.1003686E+03  0.7561462E-02  0.1279523E+00
          4   -1    0    0  501    0  0.00000000000E+00  0.00000000000E+00  0.53943415473E+02  0.53943415473E+02  0.00000000000E+00 0. -1.
         -4   -1    0    0    0  501 -0.00000000000E+00 -0.00000000000E+00 -0.44050523997E+03  0.44050523997E+03  0.00000000000E+00 0.  1.
          5    1    1    2  502    0  0.74096523747E+01  0.82017403627E+02 -0.16190036962E+03  0.18168918385E+03  0.41800000000E+01 0. -1.
         -5    1    1    2    0  502  0.45621752786E+00 -0.88965151304E+02 -0.25347389827E+03  0.26866614187E+03  0.41800000000E+01 0.  1.
        -11    1    1    2    0    0  0.10222690086E+02  0.34688582420E+01  0.21905237244E+02  0.24420806473E+02  0.00000000000E+00 0. -1.
         11    1    1    2    0    0 -0.18088559988E+02  0.34788894349E+01  0.69072061511E+01  0.19672523249E+02  0.00000000000E+00 0.  1.
</event>
<event>
 7    1  0.4096326E-006  0.7218739E+02  0.7561462E-02  0.1352809E+00
          2   -1    0    0  501    0  0.00000000000E+00  0.00000000000E+00  0.16362851967E+03  0.16362851967E+03  0.00000000000E+00 0.  1.
         -2   -1    0    0    0  501 -0.00000000000E+00 -0.00000000000E+00 -0.96409487975E+02  0.96409487975E+02  0.00000000000E+00 0. -1.
         23    2    1    2    0    0 -0.45061953636E+02 -0.27815256528E+02  0.62016027299E+02  0.12078647095E+03  0.89101715817E+02 0.  0.
          5    1    1    2  502    0 -0.48799500961E+01  0.17680418482E+02 -0.56247933409E+02  0.59310315489E+02  0.41800000000E+01 0. -1.
         -5    1    1    2    0  502  0.49941903732E+02  0.10134838046E+02  0.61450937803E+02  0.79941221203E+02  0.41800000000E+01 0.  1.
        -11    1    3    3    0    0 -0.48900572006E+02 -0.26464557503E+01  0.76993124104E+02  0.91248073020E+02  0.00000000000E+00 0. -1.
         11    1    3    3    0    0  0.38386183706E+01 -0.25168800778E+02 -0.14977096805E+02  0.29538397930E+02  0.00000000000E+00 0.  1.
</event>
<event>
 7    1  0.4096326E-006  0.1087221E+03  0.7561462E-02  0.1262955E+00
          1   -1    0    0  501    0  0.00000000000E+00  0.00000000000E+00  0.48600736719E+02  0.48600736719E+02  0.00000000000E+00 0. -1.
         -1   -1    0    0    0  501 -0.00000000000E+00 -0.00000000000E+00 -0.35357642690E+03  0.35357642690E+03  0.00000000000E+00 0.  1.
         23    2    1    2    0    0 -0.61678434906E+02 -0.10811483761E+02 -0.76865513891E+02  0.13458675314E+03  0.91017412522E+02 0.  0.
          5    1    1    2  502    0 -0.16114743907E+02 -0.23087035789E+02 -0.50635092474E+01  0.28910339302E+02  0.41800000000E+01 0. -1.
         -5    1    1    2    0  502  0.77793178812E+02  0.33898519550E+02 -0.22304666705E+03  0.23868007118E+03  0.41800000000E+01 0. -1.
        -11    1    3    3    0    0 -0.59054094022E+02  0.27834231693E+02 -0.25123476828E+02  0.69952266315E+02  0.00000000000E+00 0.  1.
         11    1    3    3    0    0 -0.26243408836E+01 -0.38645715454E+02 -0.51742037063E+02  0.64634486827E+02  0.00000000000E+00 0. -1.
</event>
<event>
 7    1  0.4096326E-006  0.1363172E+03  0.7561462E-02  0.1218372E+00
         -1   -1    0    0    0  501 -0.00000000000E+00  0.00000000000E+00  0.33599550976E+02  0.33599550976E+02  0.00000000000E+00 0.  1.
          1   -1    0    0  501    0  0.00000000000E+00 -0.00000000000E+00 -0.66719524376E+03  0.66719524376E+03  0.00000000000E+00 0. -1.
         23    2    1    2    0    0 -0.99855482890E+02 -0.13924121052E+02 -0.33102698775E+03  0.35821601281E+03  0.92600467625E+02 0.  0.
          5    1    1    2  502    0  0.31492952733E+02  0.66840186123E+02 -0.14567330470E+03  0.16339400434E+03  0.41800000000E+01 0. -1.
         -5    1    1    2    0  502  0.68362530157E+02 -0.52916065071E+02 -0.15689540033E+03  0.17918477758E+03  0.41800000000E+01 0. -1.
        -11    1    3    3    0    0 -0.77790801600E+02 -0.31441853866E+02 -0.31461516552E+03  0.32561127340E+03  0.00000000000E+00 0. -1.
         11    1    3    3    0    0 -0.22064681290E+02  0.17517732813E+02 -0.16411822233E+02  0.32604739415E+02  0.00000000000E+00 0.  1.
</event>
<event>
 7    1  0.4096326E-006  0.1688464E+03  0.7561462E-02  0.1179056E+00
          2   -1    0    0  501    0  0.00000000000E+00  0.00000000000E+00  0.16656928702E+02  0.16656928702E+02  0.00000000000E+00 0. -1.
         -2   -1    0    0    0  501 -0.00000000000E+00 -0.00000000000E+00 -0.19095518723E+04  0.19095518723E+04  0.00000000000E+00 0.  1.
         23    2    1    2    0    0 -0.30974858603E+02 -0.44279137119E+01 -0.34436826018E+03  0.35980906959E+03  0.99468686825E+02 0.  0.
          5    1    1    2  502    0 -0.49624511960E+02 -0.94899074570E+02 -0.64214831284E+03  0.65103022558E+03  0.41800000000E+01 0. -1.
         -5    1    1    2    0  502  0.80599370563E+02  0.99326988282E+02 -0.90637837054E+03  0.91536950578E+03  0.41800000000E+01 0.  1.
        -11    1    3    3    0    0 -0.30686762497E+02  0.44255360193E+02 -0.14792515002E+03  0.15742320130E+03  0.00000000000E+00 0.  1.
         11    1    3    3    0    0 -0.28809610605E+00 -0.48683273905E+02 -0.19644311016E+03  0.20238586830E+03  0.00000000000E+00 0. -1.
</event>
<event>
 7    1  0.4096326E-006  0.1258213E+03  0.7561462E-02  0.1233791E+00
         -2   -1    0    0    0  501 -0.00000000000E+00  0.00000000000E+00  0.40643931058E+02  0.40643931058E+02  0.00000000000E+00 0.  1.
          2   -1    0    0  501    0  0.00000000000E+00 -0.00000000000E+00 -0.43248700821E+03  0.43248700821E+03  0.00000000000E+00 0. -1.
         23    2    1    2    0    0 -0.43922587331E+02 -0.48536014997E+02 -0.24432861536E+03  0.26893669939E+03  0.91353913789E+02 0.  0.
          5    1    1    2  502    0  0.74638760385E+02 -0.91496766575E+01 -0.86437432400E+02  0.11464538043E+03  0.41800000000E+01 0. -1.
         -5    1    1    2    0  502 -0.30716173054E+02  0.57685691655E+02 -0.61077029390E+02  0.89548859445E+02  0.41800000000E+01 0. -1.
        -11    1    3    3    0    0  0.26910990982E+02 -0.40939105698E+01 -0.80909272976E+02  0.85365519930E+02  0.00000000000E+00 0.  1.
         11    1    3    3    0    0 -0.70833578313E+02 -0.44442104428E+02 -0.16341934238E+03  0.18357117946E+03  0.00000000000E+00 0. -1.
</event>
<event>
 7    1  0.4096326E-006  0.8856366E+02  0.7561462E-02  0.1306368E+00
         -2   -1    0    0    0  501 -0.00000000000E+00  0.00000000000E+00  0.59410984762E+02  0.59410984762E+02  0.00000000000E+00 0.  1.
          2   -1    0    0  501    0  0.00000000000E+00 -0.00000000000E+00 -0.27135067823E+03  0.27135067823E+03  0.00000000000E+00 0. -1.
         23    2    1    2    0    0  0.34292975636E+02 -0.26654653849E+02 -0.15825650642E+03  0.18787783547E+03  0.91468467182E+02 0.  0.
          5    1    1    2  502    0 -0.36311135098E+01  0.56414212894E+02  0.17872797169E+02  0.59436164752E+02  0.41800000000E+01 0. -1.
         -5    1    1    2    0  502 -0.30661862127E+02 -0.29759559046E+02 -0.71555984219E+02  0.83447662767E+02  0.41800000000E+01 0. -1.
        -11    1    3    3    0    0 -0.13295079174E+02  0.10655781028E+02  0.14564180909E+01  0.17100466462E+02  0.00000000000E+00 0.  1.
         11    1    3    3    0    0  0.47588054810E+02 -0.37310434877E+02 -0.15971292451E+03  0.17077736901E+03  0.00000000000E+00 0. -1.
</event>
<event>
 7    1  0.4096326E-006  0.2083403E+03  0.7561462E-02  0.1142887E+00
          1   -1    0    0  501    0  0.00000000000E+00  0.00000000000E+00  0.62929409806E+03  0.62929409806E+03  0.00000000000E+00 0. -1.
         -1   -1    0    0    0  501 -0.00000000000E+00 -0.00000000000E+00 -0.10181118749E+03  0.10181118749E+03  0.00000000000E+00 0.  1.
         23    2    1    2    0    0  0.15053149947E+03  0.10998153200E+03  0.44602825305E+03  0.49227980134E+03  0.92965211633E+02 0.  0.
          5    1    1    2  502    0  0.46608800460E+01 -0.50754473408E+02 -0.52388981933E+01  0.51406797489E+02  0.41800000000E+01 0. -1.
         -5    1    1    2    0  502 -0.15519237952E+03 -0.59227058590E+02  0.86693555713E+02  0.18741868672E+03  0.41800000000E+01 0. -1.
        -11    1    3    3    0    0  0.85639605536E+02  0.19160029817E+02  0.26943874027E+03  0.28336987056E+03  0.00000000000E+00 0. -1.
         11    1    3    3    0    0  0.64891893939E+02  0.90821502182E+02  0.17658951278E+03  0.20890993078E+03  0.00000000000E+00 0.  1.
</event>
<event>
 7    1  0.4096326E-006  0.1256726E+03  0.7561462E-02  0.1234022E+00
         -2   -1    0    0    0  501 -0.00000000000E+00  0.00000000000E+00  0.32791521832E+02  0.32791521832E+02  0.00000000000E+00 0.  1.
          2   -1    0    0  501    0  0.00000000000E+00 -0.00000000000E+00 -0.68335074274E+03  0.68335074274E+03  0.00000000000E+00 0. -1.
         23    2    1    2    0    0  0.59156386862E+02  0.83860954169E+02 -0.31157325427E+03  0.34052008468E+03  0.91344937223E+02 0.  0.
          5    1    1    2  502    0  0.23483018907E+02 -0.39839190154E+02 -0.21631933867E+03  0.22124678965E+03  0.41800000000E+01 0.  1.
         -5    1    1    2    0  502 -0.82639405769E+02 -0.44021764015E+02 -0.12266662797E+03  0.15437539023E+03  0.41800000000E+01 0.  1.
        -11    1    3    3    0    0  0.13120517944E+01  0.36230170310E+02 -0.21626880293E+03  0.21928643789E+03  0.00000000000E+00 0. -1.
         11    1    3    3    0    0  0.57844335068E+02  0.47630783859E+02 -0.95304451338E+02  0.12123364680E+03  0.00000000000E+00 0.  1.
</event>
<event>
 7    1  0.4096326E-006  0.1164386E+03  0.7561462E-02  0.1249091E+00
          2   -1    0    0  501    0  0.00000000000E+00  0.00000000000E+00  0.32740125186E+03  0.32740125186E+03  0.00000000000E+00 0.  1.
         -2   -1    0    0    0  501 -0.00000000000E+00 -0.00000000000E+00 -0.67787220053E+02  0.67787220053E+02  0.00000000000E+00 0. -1.
         23    2    1    2    0    0  0.10074029933E+03 -0.83105105841E+01  0.15044843800E+03  0.20081301589E+03  0.86449189461E+02 0.  0.
          5    1    1    2  502    0  0.27333290969E+01 -0.33075423343E+01 -0.24310806875E+02  0.25037944308E+02  0.41800000000E+01 0. -1.
         -5    1    1    2    0  502 -0.10347362843E+03  0.11618052918E+02  0.13347640069E+03  0.16933751172E+03  0.41800000000E+01 0. -1.
        -11    1    3    3    0    0  0.40961966395E+02 -0.38053500550E+02  0.10822433174E+03  0.12181320772E+03  0.00000000000E+00 0.  1.
         11    1    3    3    0    0  0.59778332940E+02  0.29742989966E+02  0.42224106257E+02  0.78999808167E+02  0.00000000000E+00 0. -1.
</event>
<event>
 7    1  0.4096326E-006  0.1229402E+03  0.7561462E-02  0.1238324E+00
          1   -1    0    0  501    0  0.00000000000E+00  0.00000000000E+00  0.25406934256E+03  0.25406934256E+03  0.00000000000E+00 0. -1.
         -1   -1    0    0    0  501 -0.00000000000E+00 -0.00000000000E+00 -0.62353846485E+02  0.62353846485E+02  0.00000000000E+00 0.  1.
         23    2    1    2    0    0 -0.33304750089E+02  0.46149660024E+02  0.91511442371E+02  0.14634377355E+03  0.99010900785E+02 0.  0.
          5    1    1    2  502    0  0.15208906063E+02 -0.88511970332E+02  0.54950273059E+02  0.10536927743E+03  0.41800000000E+01 0. -1.
         -5    1    1    2    0  502  0.18095844026E+02  0.42362310309E+02  0.45253780641E+02  0.64710138062E+02  0.41800000000E+01 0. -1.
        -11    1    3    3    0    0  0.32837105976E+02  0.20886808000E+02  0.13989224666E+02  0.41354959607E+02  0.00000000000E+00 0.  1.
         11    1    3    3    0    0 -0.66141856065E+02  0.25262852023E+02  0.77522217705E+02  0.10498881395E+03  0.00000000000E+00 0. -1.
</event>
<event>
 7    1  0.4096326E-006  0.1043516E+03  0.7561462E-02  0.1271403E+00
         -1   -1    0    0    0  501 -0.00000000000E+00  0.00000000000E+00  0.79693575821E+02  0.79693575821E+02  0.00000000000E+00 0.  1.
          1   -1    0    0  501    0  0.00000000000E+00 -0.00000000000E+00 -0.16323939897E+03  0.16323939897E+03  0.00000000000E+00 0. -1.
         23    2    1    2    0    0 -0.39280353485E+02 -0.64626481923E+01 -0.43393094418E+02  0.10566026032E+03  0.87729231026E+02 0.  0.
          5    1    1    2  502    0 -0.17586462004E+02 -0.46773426176E+02 -0.30441465077E+02  0.58661676059E+02  0.41800000000E+01 0. -1.
         -5    1    1    2    0  502  0.56866815489E+02  0.53236074368E+02 -0.97112636513E+01  0.78611038409E+02  0.41800000000E+01 0. -1.
        -11    1    3    3    0    0  0.19052930022E+02  0.76529886032E+01  0.12173389714E+02  0.23869934941E+02  0.00000000000E+00 0.  1.
         11    1    3    3    0    0 -0.58333283507E+02 -0.14115636796E+02 -0.55566484133E+02  0.81790325380E+02  0.00000000000E+00 0. -1.
</event>
<event>
 7    1  0.4096326E-006  0.1049005E+03  0.7561462E-02  0.1270316E+00
         -1   -1    0    0    0  501 -0.00000000000E+00  0.00000000000E+00  0.30691304427E+03  0.30691304427E+03  0.00000000000E+00 0.  1.
          1   -1    0    0  501    0  0.00000000000E+00 -0.00000000000E+00 -0.67356707832E+02  0.67356707832E+02  0.00000000000E+00 0. -1.
         23    2    1    2    0    0  0.33511139106E+02  0.51351310692E+02  0.14387835356E+02  0.11260173952E+03  0.93339104253E+02 0.  0.
          5    1    1    2  502    0 -0.65938402869E+02  0.80721548884E-01  0.15638332795E+03  0.16976777418E+03  0.41800000000E+01 0. -1.
         -5    1    1    2    0  502  0.32427263763E+02 -0.51432032241E+02  0.68785173127E+02  0.91900238398E+02  0.41800000000E+01 0.  1.
        -11    1    3    3    0    0  0.15262025428E+02 -0.10350956923E+02  0.39451099145E+02  0.43548374862E+02  0.00000000000E+00 0.  1.
         11    1    3    3    0    0  0.18249113679E+02  0.61702267615E+02 -0.25063263789E+02  0.69053364658E+02  0.00000000000E+00 0. -1.
</event>
<event>
 7    1  0.4096326E-006  0.1128001E+03  0.7561462E-02  0.1255471E+00
         -1   -1    0    0    0  501 -0.00000000000E+00  0.00000000000E+00  0.14045718577E+02  0.14045718577E+02  0.00000000000E+00 0.  1.
          1   -1    0    0  501    0  0.00000000000E+00 -0.00000000000E+00 -0.10691162998E+04  0.10691162998E+04  0.00000000000E+00 0. -1.
         23    2    1    2    0    0 -0.21694855327E+02  0.51017584209E+02 -0.46192514091E+03  0.47444053985E+03  0.92981338969E+02 0.  0.
          5    1    1    2  502    0  0.51652623100E+02  0.13033965804E+02 -0.13600570315E+03  0.14612632011E+03  0.41800000000E+01 0. -1.
         -5    1    1    2    0  502 -0.29957767773E+02 -0.64051550013E+02 -0.45713973716E+03  0.46259515843E+03  0.41800000000E+01 0. -1.
        -11    1    3    3    0    0 -0.52152636844E+01  0.73372459482E+02 -0.39804131102E+03  0.40478093096E+03  0.00000000000E+00 0. -1.
         11    1    3    3    0    0 -0.16479591643E+02 -0.22354875274E+02 -0.63883829890E+02  0.69659608889E+02  0.00000000000E+00 0.  1.
</event>
<event>
 7    1  0.4096326E-006  0.2254109E+03  0.7561462E-02  0.1129912E+00
         -2   -1    0    0    0  501 -0.00000000000E+00  0.00000000000E+00  0.22716646419E+03  0.22716646419E+03  0.00000000000E+00 0.  1.
          2   -1    0    0  501    0  0.00000000000E+00 -0.00000000000E+00 -0.44000400800E+03  0.44000400800E+03  0.00000000000E+00 0. -1.
         23    2    1    2    0    0 -0.19939153365E+03  0.66887196387E+02 -0.32541623046E+03  0.39780250090E+03  0.90112296264E+02 0.  0.
          5    1    1    2  502    0  0.21236523019E+03 -0.73046261457E+02  0.89338282256E+02  0.24173032160E+03  0.41800000000E+01 0. -1.
         -5    1    1    2    0  502 -0.12973696532E+02  0.61590650708E+01  0.23240404393E+02  0.27637649694E+02  0.41800000000E+01 0. -1.
        -11    1    3    3    0    0 -0.10962775267E+03  0.26315941740E+02 -0.24831231152E+03  0.27270822686E+03  0.00000000000E+00 0.  1.
         11    1    3    3    0    0 -0.89763780986E+02  0.40571254646E+02 -0.77103918943E+02  0.12509427404E+03  0.00000000000E+00 0. -1.
</event>
<event>
 7    1  0.4096326E-006  0.9629834E+02  0.7561462E-02  0.1288278E+00
         -1   -1    0    0    0  501 -0.00000000000E+00  0.00000000000E+00  0.30622331543E+03  0.30622331543E+03  0.00000000000E+00 0.  1.
          1   -1    0    0  501    0  0.00000000000E+00 -0.00000000000E+00 -0.54818228964E+02  0.54818228964E+02  0.00000000000E+00 0. -1.
         23    2    1    2    0    0 -0.34739874225E+02  0.14716174565E+02  0.27235789913E+02  0.10157842329E+03  0.90293760425E+02 0.  0.
          5    1    1    2  502    0  0.47604531403E+02 -0.49556813316E+02  0.20734718017E+03  0.21847744662E+03  0.41800000000E+01 0. -1.
         -5    1    1    2    0  502 -0.12864657178E+02  0.34840638751E+02  0.16822116379E+02  0.40985674478E+02  0.41800000000E+01 0. -1.
        -11    1    3    3    0    0  0.21040481749E+02 -0.12329378058E+02 -0.13038239558E+02  0.27653410754E+02  0.00000000000E+00 0. -1.
         11    1    3    3    0    0 -0.55780355974E+02  0.27045552623E+02  0.40274029471E+02  0.73925012541E+02  0.00000000000E+00 0.  1.
</event>
<event>
 7    1  0.4096326E-006  0.9588517E+02  0.7561462E-02  0.1289195E+00
         -2   -1    0    0    0  501 -0.00000000000E+00  0.00000000000E+00  0.38077918474E+02  0.38077918474E+02  0.00000000000E+00 0.  1.
          2   -1    0    0  501    0  0.00000000000E+00 -0.00000000000E+00 -0.32844379572E+03  0.32844379572E+03  0.00000000000E+00 0. -1.
         23    2    1    2    0    0  0.26495537553E+02  0.52215417554E+01 -0.12573138617E+03  0.15799966887E+03  0.91794530815E+02 0.  0.
          5    1    1    2  502    0 -0.11173478861E+02  0.56850648522E+02 -0.47614489204E+02  0.75109618887E+02  0.41800000000E+01 0.  1.
         -5    1    1    2    0  502 -0.15322058692E+02 -0.62072190277E+02 -0.11702000187E+03  0.13341242643E+03  0.41800000000E+01 0.  1.
        -11    1    3    3    0    0 -0.15086188308E+02 -0.16781159231E+02  0.12337138797E+01  0.22599168850E+02  0.00000000000E+00 0.  1.
         11    1    3    3    0    0  0.41581725861E+02  0.22002700986E+02 -0.12696510005E+03  0.13540050002E+03  0.00000000000E+00 0. -1.
</event>
<event>
 7    1  0.4096326E-006  0.7756584E+02  0.7561462E-02  0.1336105E+00
          1   -1    0    0  501    0  0.00000000000E+00  0.00000000000E+00  0.49114950475E+03  0.49114950475E+03  0.00000000000E+00 0. -1.
         -1   -1    0    0    0  501 -0.00000000000E+00 -0.00000000000E+00 -0.29960862167E+02  0.29960862167E+02  0.00000000000E+00 0.  1.
         23    2    1    2    0    0 -0.42731406032E+02 -0.18183394828E+02  0.28214798980E+03  0.29781388842E+03  0.83240705665E+02 0.  0.
          5    1    1    2  502    0 -0.75775732931E+01  0.16813069523E+01 -0.17559743738E+02  0.19648496386E+02  0.41800000000E+01 0. -1.
         -5    1    1    2    0  502  0.50308979325E+02  0.16502087876E+02  0.19660039653E+03  0.20364798212E+03  0.41800000000E+01 0. -1.
        -11    1    3    3    0    0 -0.49514836153E+02  0.20748535447E+02  0.19241641289E+03  0.19976560433E+03  0.00000000000E+00 0. -1.
         11    1    3    3    0    0  0.67834301216E+01 -0.38931930275E+02  0.89731576906E+02  0.98048284091E+02  0.00000000000E+00 0.  1.
</event>
<event>
 7    1  0.4096326E-006  0.1300127E+03  0.7561462E-02  0.1227437E+00
          2   -1    0    0  501    0  0.00000000000E+00  0.00000000000E+00  0.85968091492E+03  0.85968091492E+03  0.00000000000E+00 0. -1.
         -2   -1    0    0    0  501 -0.00000000000E+00 -0.00000000000E+00 -0.25380326184E+02  0.25380326184E+02  0.00000000000E+00 0.  1.
         23    2    1    2    0    0  0.22428456306E+02 -0.10048111005E+03  0.36089481300E+03  0.38470200891E+03  0.84564061407E+02 0.  0.
          5    1    1    2  502    0 -0.57484905840E+02  0.85043392576E+01  0.24083704835E+03  0.24778376550E+03  0.41800000000E+01 0. -1.
         -5    1    1    2    0  502  0.35056449534E+02  0.91976770790E+02  0.23256872739E+03  0.25257546670E+03  0.41800000000E+01 0. -1.
        -11    1    3    3    0    0  0.33776484926E+01 -0.31530625454E+02  0.22633962504E+02  0.38960045039E+02  0.00000000000E+00 0. -1.
         11    1    3    3    0    0  0.19050807813E+02 -0.68950484594E+02  0.33826085049E+03  0.34574196387E+03  0.00000000000E+00 0.  1.
</event>
<event>
 7    1  0.4096326E-006  0.1081789E+03  0.7561462E-02  0.1263980E+00
         -2   -1    0    0    0  501 -0.00000000000E+00  0.00000000000E+00  0.32826774332E+03  0.32826774332E+03  0.00000000000E+00 0.  1.
          2   -1    0    0  501    0  0.00000000000E+00 -0.00000000000E+00 -0.18506891866E+03  0.18506891866E+03  0.00000000000E+00 0. -1.
         23    2    1    2    0    0 -0.30130761370E+02 -0.50032170136E+01 -0.15514831467E+03  0.18221564765E+03  0.90546384494E+02 0.  0.
          5    1    1    2  502    0 -0.51279207245E+02  0.27295454808E+02  0.10406806461E+03  0.11925700575E+03  0.41800000000E+01 0. -1.
         -5    1    1    2    0  502  0.81409968615E+02 -0.22292237794E+02  0.19427907472E+03  0.21186400858E+03  0.41800000000E+01 0.  1.
        -11    1    3    3    0    0  0.21526796320E+02 -0.42527548709E+01 -0.11421036868E+03  0.11629917110E+03  0.00000000000E+00 0.  1.
         11    1    3    3    0    0 -0.51657557690E+02 -0.75046214270E+00 -0.40937945982E+02  0.65916476553E+02  0.00000000000E+00 0. -1.
</event>
<event>
 7    1  0.4096326E-006  0.1150540E+03  0.7561462E-02  0.1251487E+00
         -1   -1    0    0    0  501 -0.00000000000E+00  0.00000000000E+00  0.10584471939E+03  0.10584471939E+03  0.00000000000E+00 0. -1.
          1   -1    0    0  501    0  0.00000000000E+00 -0.00000000000E+00 -0.17678394384E+03  0.17678394384E+03  0.00000000000E+00 0.  1.
         23    2    1    2    0    0 -0.92352483648E+01 -0.60607424293E+02 -0.92265451882E+02  0.14169999918E+03  0.88359642738E+02 0.  0.
          5    1    1    2  502    0  0.18677724996E+02  0.90530460431E+02 -0.13899476666E+02  0.93569704117E+02  0.41800000000E+01 0. -1.
         -5    1    1    2    0  502 -0.94424766315E+01 -0.29923036138E+02  0.35225704098E+02  0.47358959932E+02  0.41800000000E+01 0. -1.
        -11    1    3    3    0    0  0.20669092131E+02  0.14388120631E+02 -0.33163084208E+02  0.41641560238E+02  0.00000000000E+00 0.  1.
         11    1    3    3    0    0 -0.29904340496E+02 -0.74995544924E+02 -0.59102367673E+02  0.10005843894E+03  0.00000000000E+00 0. -1.
</event>
<event>
 7    1  0.4096326E-006  0.1451133E+03  0.7561462E-02  0.1206610E+00
          2   -1    0    0  501    0  0.00000000000E+00  0.00000000000E+00  0.18993350756E+03  0.18993350756E+03  0.00000000000E+00 0. -1.
         -2   -1    0    0    0  501 -0.00000000000E+00 -0.00000000000E+00 -0.14794528354E+03  0.14794528354E+03  0.00000000000E+00 0.  1.
         23    2    1    2    0    0 -0.76916397101E+02  0.93486830080E+02  0.60313526074E+02  0.16283746400E+03  0.90677443250E+02 0.  0.
          5    1    1    2  502    0  0.30278082251E+02  0.90002316422E+01 -0.48831407712E+02  0.58307334132E+02  0.41800000000E+01 0. -1.
         -5    1    1    2    0  502  0.46638314850E+02 -0.10248706172E+03  0.30506105660E+02  0.11673399297E+03  0.41800000000E+01 0. -1.
        -11    1    3    3    0    0 -0.36698737589E+02 -0.70805135522E+01 -0.27990129456E+01  0.37480201257E+02  0.00000000000E+00 0.  1.
         11    1    3    3    0    0 -0.40217659511E+02  0.10056734363E+03  0.63112539019E+02  0.12535726275E+03  0.00000000000E+00 0. -1.
</event>
<event>
 7    1  0.4096326E-006  0.8656885E+02  0.7561462E-02  0.1311380E+00
         -1   -1    0    0    0  501 -0.00000000000E+00  0.00000000000E+00  0.17511821022E+03  0.17511821022E+03  0.00000000000E+00 0.  1.
          1   -1    0    0  501    0  0.00000000000E+00 -0.00000000000E+00 -0.60492009663E+02  0.60492009663E+02  0.00000000000E+00 0. -1.
         23    2    1    2    0    0  0.54512391752E+01  0.21450092171E+02  0.65234050121E+02  0.99306352247E+02  0.71529349492E+02 0.  0.
          5    1    1    2  502    0  0.56698724752E+02 -0.48541173742E+01  0.34867654267E+01  0.57165879484E+02  0.41800000000E+01 0. -1.
         -5    1    1    2    0  502 -0.62149963927E+02 -0.16595974797E+02  0.45905385005E+02  0.79137988148E+02  0.41800000000E+01 0. -1.
        -11    1    3    3    0    0  0.23261854899E+02 -0.60078212620E+00  0.66980328073E+02  0.70907257607E+02  0.00000000000E+00 0.  1.
         11    1    3    3    0    0 -0.17810615724E+02  0.22050874297E+02 -0.17462779522E+01  0.28399094641E+02  0.00000000000E+00 0. -1.
</event>
<event>
 7    1  0.4096326E-006  0.1851410E+03  0.7561462E-02  0.1162918E+00
          2   -1    0    0  501    0  0.00000000000E+00  0.00000000000E+00  0.92090656415E+03  0.92090656415E+03  0.00000000000E+00 0. -1.
         -2   -1    0    0    0  501 -0.00000000000E+00 -0.00000000000E+00 -0.51334325702E+02  0.51334325702E+02  0.00000000000E+00 0.  1.
         23    2    1    2    0    0  0.60392477600E+02  0.15223374533E+03  0.62813008150E+03  0.65480645649E+03  0.86033316839E+02 0.  0.
          5    1    1    2  502    0 -0.92060679861E+02 -0.90077486325E+02  0.11383644868E+03  0.17194572332E+03  0.41800000000E+01 0.  1.
         -5    1    1    2    0  502  0.31668202262E+02 -0.62156259005E+02  0.12760570827E+03  0.14548871005E+03  0.41800000000E+01 0.  1.
        -11    1    3    3    0    0  0.40546051338E+02  0.37943522632E+02  0.33477037698E+03  0.33934480767E+03  0.00000000000E+00 0. -1.
         11    1    3    3    0    0  0.19846426262E+02  0.11429022270E+03  0.29335970452E+03  0.31546164882E+03  0.00000000000E+00 0.  1.
</event>
<event>
 7    1  0.4096326E-006  0.1095728E+03  0.7561462E-02  0.1261363E+00
          1   -1    0    0  501    0  0.00000000000E+00  0.00000000000E+00  0.79370114988E+03  0.79370114988E+03  0.00000000000E+00 0. -1.
         -1   -1    0    0    0  501 -0.00000000000E+00 -0.00000000000E+00 -0.17188184305E+02  0.17188184305E+02  0.00000000000E+00 0.  1.
         23    2    1    2    0    0  0.41296855096E+01 -0.35828635599E+02  0.41715237083E+03  0.42867410292E+03  0.91894725604E+02 0.  0.
          5    1    1    2  502    0 -0.57459999485E+02  0.25903561706E+01  0.24462783591E+03  0.25133366664E+03  0.41800000000E+01 0. -1.
         -5    1    1    2    0  502  0.53330313976E+02  0.33238279428E+02  0.11473275883E+03  0.13088156462E+03  0.41800000000E+01 0. -1.
        -11    1    3    3    0    0 -0.12570950947E+02  0.28970176274E+02  0.14750870939E+03  0.15085131510E+03  0.00000000000E+00 0.  1.
         11    1    3    3    0    0  0.16700636456E+02 -0.64798811872E+02  0.26964366144E+03  0.27782278782E+03  0.00000000000E+00 0. -1.
</event>
<event>
 7    1  0.4096326E-006  0.1107735E+03  0.7561462E-02  0.1259144E+00
         -2   -1    0    0    0  501 -0.00000000000E+00  0.00000000000E+00  0.29842904225E+02  0.29842904225E+02  0.00000000000E+00 0.  1.
          2   -1    0    0  501    0  0.00000000000E+00 -0.00000000000E+00 -0.43113386096E+03  0.43113386096E+03  0.00000000000E+00 0. -1.
         23    2    1    2    0    0 -0.19215837805E+02 -0.25054054776E+02 -0.20516206982E+03  0.22621942109E+03  0.89926622876E+02 0.  0.
          5    1    1    2  502    0  0.22433611694E+02  0.75142294043E+02 -0.12433736260E+03  0.14706081540E+03  0.41800000000E+01 0.  1.
         -5    1    1    2    0  502 -0.32177738892E+01 -0.50088239267E+02 -0.71791524308E+02  0.87696528689E+02  0.41800000000E+01 0.  1.
        -11    1    3    3    0    0 -0.28296263518E+02 -0.54732544832E+02 -0.15969743159E+03  0.17117125825E+03  0.00000000000E+00 0. -1.
         11    1    3    3    0    0  0.90804257125E+01  0.29678490056E+02 -0.45464638229E+02  0.55048162843E+02  0.00000000000E+00 0.  1.
</event>
<event>
 7    1  0.4096326E-006  0.2169443E+03  0.7561462E-02  0.1136182E+00
         -1   -1    0    0    0  501 -0.00000000000E+00  0.00000000000E+00  0.11204519626E+03  0.11204519626E+03  0.00000000000E+00 0.  1.
          1   -1    0    0  501    0  0.00000000000E+00 -0.00000000000E+00 -0.45982983940E+03  0.45982983940E+03  0.00000000000E+00 0. -1.
         23    2    1    2    0    0  0.15747755962E+03 -0.11207523649E+03 -0.22741085988E+03  0.31206703748E+03  0.91159729427E+02 0.  0.
          5    1    1    2  502    0 -0.15639383595E+03  0.57593509332E+02 -0.57151603787E+02  0.17623797110E+03  0.41800000000E+01 0. -1.
         -5    1    1    2    0  502 -0.10837236698E+01  0.54481727156E+02 -0.63222179472E+02  0.83570027092E+02  0.41800000000E+01 0. -1.
        -11    1    3    3    0    0  0.77198817024E+02 -0.10718862418E+03 -0.12513152609E+03  0.18195317344E+03  0.00000000000E+00 0.  1.
         11    1    3    3    0    0  0.80278742595E+02 -0.48866123034E+01 -0.10227933379E+03  0.13011386403E+03  0.00000000000E+00 0. -1.
</event>
<event>
 7    1  0.4096326E-006  0.1344605E+03  0.7561462E-02  0.1220983E+00
         -1   -1    0    0    0  501 -0.00000000000E+00  0.00000000000E+00  0.17644037776E+02  0.17644037776E+02  0.00000000000E+00 0.  1.
          1   -1    0    0  501    0  0.00000000000E+00 -0.00000000000E+00 -0.11157704841E+04  0.11157704841E+04  0.00000000000E+00 0. -1.
         23    2    1    2    0    0  0.45324566396E+02  0.72847951548E+02 -0.59547881950E+03  0.60837777230E+03  0.90373386516E+02 0.  0.
          5    1    1    2  502    0  0.36791529466E+02 -0.47734144749E+02 -0.14263482022E+03  0.15490103148E+03  0.41800000000E+01 0.  1.
         -5    1    1    2    0  502 -0.82116095862E+02 -0.25113806799E+02 -0.36001280665E+03  0.37013571814E+03  0.41800000000E+01 0.  1.
        -11    1    3    3    0    0  0.65044198636E+02  0.23102751046E+02 -0.38906452120E+03  0.39514008471E+03  0.00000000000E+00 0. -1.
         11    1    3    3    0    0 -0.19719632240E+02  0.49745200502E+02 -0.20641429829E+03  0.21323768759E+03  0.00000000000E+00 0.  1.
</event>
<event>
 7    1  0.4096326E-006  0.1250557E+03  0.7561462E-02  0.1234982E+00
          2   -1    0    0  501    0  0.00000000000E+00  0.00000000000E+00  0.68593568258E+03  0.68593568258E+03  0.00000000000E+00 0. -1.
         -2   -1    0    0    0  501 -0.00000000000E+00 -0.00000000000E+00 -0.28306376778E+02  0.28306376778E+02  0.00000000000E+00 0.  1.
         23    2    1    2    0    0  0.36853993112E+02  0.66959277739E+02  0.40774865989E+03  0.42453579445E+03  0.90166010461E+02 0.  0.
          5    1    1    2  502    0 -0.19361511413E+02 -0.10335102217E+03  0.19302751395E+03  0.21984857390E+03  0.41800000000E+01 0.  1.
         -5    1    1    2    0  502 -0.17492481700E+02  0.36391744427E+02  0.56853131968E+02  0.69857691008E+02  0.41800000000E+01 0.  1.
        -11    1    3    3    0    0 -0.75774017069E+01 -0.11703580919E+02  0.11367051026E+02  0.17988904136E+02  0.00000000000E+00 0.  1.
         11    1    3    3    0    0  0.44431394819E+02  0.78662858659E+02  0.39638160887E+03  0.40654689031E+03  0.00000000000E+00 0. -1.
</event>
<event>
 6    1  0.4096326E-006  0.9666227E+02  0.7561462E-02  0.1287476E+00
          3   -1    0    0  501    0  0.00000000000E+00  0.00000000000E+00  0.25364490733E+03  0.25364490733E+03  0.00000000000E+00 0. -1.
         -3   -1    0    0    0  501 -0.00000000000E+00 -0.00000000000E+00 -0.65819666075E+02  0.65819666075E+02  0.00000000000E+00 0.  1.
          5    1    1    2  502    0 -0.15703092501E+02 -0.75567252052E+01  0.91301594862E+02  0.93043779127E+02  0.41800000000E+01 0. -1.
         -5    1    1    2    0  502 -0.67363052647E+02  0.39043085720E+02 -0.13254528630E+02  0.79090444010E+02  0.41800000000E+01 0. -1.
        -11    1    1    2    0    0  0.42206398055E+02 -0.37092236374E+02  0.53735043627E+02  0.77747469088E+02  0.00000000000E+00 0.  1.
         11    1    1    2    0    0  0.40859747094E+02  0.56058758588E+01  0.56043131394E+02  0.69582881179E+02  0.00000000000E+00 0. -1.
</event>
<event>
 7    1  0.4096326E-006  0.1273192E+03  0.7561462E-02  0.1231489E+00
          3   -1    0    0  501    0  0.00000000000E+00  0.00000000000E+00  0.75755415096E+02  0.75755415096E+02  0.00000000000E+00 0. -1.
         -3   -1    0    0    0  501 -0.00000000000E+00 -0.00000000000E+00 -0.31891235220E+03  0.31891235220E+03  0.00000000000E+00 0.  1.
         23    2    1    2    0    0 -0.54282104265E+01 -0.10904575221E+03 -0.85118100957E+02  0.16544870923E+03  0.90596593383E+02 0.  0.
          5    1    1    2  502    0 -0.26198335542E+02  0.23699650118E+02 -0.12865809573E+03  0.13348559547E+03  0.41800000000E+01 0. -1.
         -5    1    1    2    0  502  0.31626545969E+02  0.85346102093E+02 -0.29380740413E+02  0.95733462591E+02  0.41800000000E+01 0. -1.
        -11    1    3    3    0    0  0.30727547112E+02 -0.52647425117E+02 -0.52205345677E+01  0.61181594488E+02  0.00000000000E+00 0. -1.
         11    1    3    3    0    0 -0.36155757539E+02 -0.56398327094E+02 -0.79897566389E+02  0.10426711474E+03  0.00000000000E+00 0.  1.
</event>
<event>
 7    1  0.4096326E-006  0.1483301E+03  0.7561462E-02  0.1202540E+00
          2   -1    0    0  501    0  0.00000000000E+00  0.00000000000E+00  0.48709757623E+03  0.48709757623E+03  0.00000000000E+00 0. -1.
         -2   -1    0    0    0  501 -0.00000000000E+00 -0.00000000000E+00 -0.71414575010E+02  0.71414575010E+02  0.00000000000E+00 0.  1.
         23    2    1    2    0    0 -0.12740546383E+03 -0.23067027241E+02  0.31359674863E+03  0.35154936982E+03  0.92085822541E+02 0.  0.
          5    1    1    2  502    0  0.12431462812E+03  0.31182478940E+02  0.12685944208E+03  0.18038088647E+03  0.41800000000E+01 0. -1.
         -5    1    1    2    0  502  0.30908357127E+01 -0.81154516993E+01 -0.24773189487E+02  0.26581894948E+02  0.41800000000E+01 0. -1.
        -11    1    3    3    0    0 -0.12794707493E+03  0.75471220011E+01  0.24820563272E+03  0.27934467804E+03  0.00000000000E+00 0.  1.
         11    1    3    3    0    0  0.54161109559E+00 -0.30614149242E+02  0.65391115909E+02  0.72204691788E+02  0.00000000000E+00 0. -1.
</event>
<event>
 7    1  0.4096326E-006  0.1075821E+03  0.7561462E-02  0.1265114E+00
          1   -1    0    0  501    0  0.00000000000E+00  0.00000000000E+00  0.80042925971E+03  0.80042925971E+03  0.00000000000E+00 0. -1.
         -1   -1    0    0    0  501 -0.00000000000E+00 -0.00000000000E+00 -0.25774999830E+02  0.25774999830E+02  0.00000000000E+00 0.  1.
         23    2    1    2    0    0 -0.28381813012E+02 -0.87226694815E+02  0.29812793764E+03  0.32506123755E+03  0.91490531518E+02 0.  0.
          5    1    1    2  502    0  0.40354756672E+02  0.68861226469E+02  0.12159143022E+03  0.14550712423E+03  0.41800000000E+01 0. -1.
         -5    1    1    2    0  502 -0.11972943660E+02  0.18365468345E+02  0.35493489201E+03  0.35563589776E+03  0.41800000000E+01 0. -1.
        -11    1    3    3    0    0  0.20971616752E+02 -0.36840425054E+02  0.43074214124E+02  0.60435201247E+02  0.00000000000E+00 0.  1.
         11    1    3    3    0    0 -0.49353429764E+02 -0.50386269761E+02  0.25505372352E+03  0.26462603631E+03  0.00000000000E+00 0. -1.
</event>
<event>
 7    1  0.4096326E-006  0.1032161E+03  0.7561462E-02  0.1273675E+00
         -2   -1    0    0    0  501 -0.00000000000E+00  0.00000000000E+00  0.21690254348E+02  0.21690254348E+02  0.00000000000E+00 0.  1.
          2   -1    0    0  501    0  0.00000000000E+00 -0.00000000000E+00 -0.71810903614E+03  0.71810903614E+03  0.00000000000E+00 0. -1.
         23    2    1    2    0    0  0.34856693944E+02  0.59046575274E+01 -0.45716101476E+03  0.46751060054E+03  0.91214659479E+02 0.  0.
          5    1    1    2  502    0  0.84629036572E+01  0.45159294336E+02 -0.36834544406E+02  0.59035909960E+02  0.41800000000E+01 0.  1.
         -5    1    1    2    0  502 -0.43319597601E+02 -0.51063951863E+02 -0.20242322262E+03  0.21325277999E+03  0.41800000000E+01 0.  1.
        -11    1    3    3    0    0  0.62065167871E+02  0.16146154921E+02 -0.37292129332E+03  0.37839539426E+03  0.00000000000E+00 0. -1.
         11    1    3    3    0    0 -0.27208473927E+02 -0.10241497394E+02 -0.84239721439E+02  0.89115206280E+02  0.00000000000E+00 0.  1.
</event>
<event>
 7    1  0.4096326E-006  0.1647559E+03  0.7561462E-02  0.1183430E+00
         -1   -1    0    0    0  501 -0.00000000000E+00  0.00000000000E+00  0.70986225040E+02  0.70986225040E+02  0.00000000000E+00 0.  1.
          1   -1    0    0  501    0  0.00000000000E+00 -0.00000000000E+00 -0.40755920147E+03  0.40755920147E+03  0.00000000000E+00 0. -1.
         23    2    1    2    0    0 -0.20364921881E+02 -0.12889842469E+03 -0.20226982823E+03  0.25334646854E+03  0.79005163006E+02 0.  0.
          5    1    1    2  502    0 -0.53704828553E+01  0.14736516171E+03 -0.99426467544E+02  0.17790005008E+03  0.41800000000E+01 0. -1.
         -5    1    1    2    0  502  0.25735404736E+02 -0.18466737020E+02 -0.34876680658E+02  0.47298907882E+02  0.41800000000E+01 0. -1.
        -11    1    3    3    0    0 -0.47381051101E+02 -0.98931982023E+02 -0.12596922720E+03  0.16703516777E+03  0.00000000000E+00 0.  1.
         11    1    3    3    0    0  0.27016129220E+02 -0.29966442667E+02 -0.76300601027E+02  0.86311300773E+02  0.00000000000E+00 0. -1.
</event>
<event>
 7    1  0.4096326E-006  0.2815981E+03  0.7561462E-02  0.1094819E+00
          2   -1    0    0  501    0  0.00000000000E+00  0.00000000000E+00  0.10748284208E+04  0.10748284208E+04  0.00000000000E+00 0. -1.
         -2   -1    0    0    0  501 -0.00000000000E+00 -0.00000000000E+00 -0.80721224416E+02  0.80721224416E+02  0.00000000000E+00 0.  1.
         23    2    1    2    0    0  0.26722502184E+03  0.55372094082E+02  0.47605312968E+03  0.55679774714E+03  0.94455639551E+02 0.  0.
          5    1    1    2  502    0 -0.23845846155E+02  0.23261841511E+02  0.12777967021E+03  0.13211682016E+03  0.41800000000E+01 0. -1.
         -5    1    1    2    0  502 -0.24337917568E+03 -0.78633935593E+02  0.39027439649E+03  0.46663507791E+03  0.41800000000E+01 0. -1.
        -11    1    3    3    0    0  0.21672596873E+03  0.53771104121E+02  0.44393066615E+03  0.49692646691E+03  0.00000000000E+00 0. -1.
         11    1    3    3    0    0  0.50499053109E+02  0.16009899603E+01  0.32122463522E+02  0.59871280231E+02  0.00000000000E+00 0.  1.
</event>
<event>
 7    1  0.4096326E-006  0.1912840E+03  0.7561462E-02  0.1157308E+00
         -1   -1    0    0    0  501 -0.00000000000E+00  0.00000000000E+00  0.42674366585E+03  0.42674366585E+03  0.00000000000E+00 0.  1.
          1   -1    0    0  501    0  0.00000000000E+00 -0.00000000000E+00 -0.12993785631E+03  0.12993785631E+03  0.00000000000E+00 0. -1.
         23    2    1    2    0    0  0.95966432210E+02 -0.64263831595E+02 -0.23953734357E+02  0.14907748038E+03  0.91164234232E+02 0.  0.
          5    1    1    2  502    0 -0.14213851233E+03 -0.17207359748E+02  0.12319126681E+03  0.18892593929E+03  0.41800000000E+01 0. -1.
         -5    1    1    2    0  502  0.46172080122E+02  0.81471191343E+02  0.19756827708E+03  0.21867810249E+03  0.41800000000E+01 0.  1.
        -11    1    3    3    0    0  0.10538883296E+03 -0.29307071447E+02 -0.85152327774E+01  0.10971882126E+03  0.00000000000E+00 0. -1.
         11    1    3    3    0    0 -0.94224007544E+01 -0.34956760147E+02 -0.15438501580E+02  0.39358659111E+02  0.00000000000E+00 0.  1.
</event>
<event>
 7    1  0.4096326E-006  0.8303724E+02  0.7561462E-02  0.1320647E+00
          2   -1    0    0  501    0  0.00000000000E+00  0.00000000000E+00  0.85089745249E+02  0.85089745249E+02  0.00000000000E+00 0.  1.
         -2   -1    0    0    0  501 -0.00000000000E+00 -0.00000000000E+00 -0.26628577719E+03  0.26628577719E+03  0.00000000000E+00 0. -1.
         23    2    1    2    0    0  0.28356948698E+02 -0.73889389305E+02 -0.45792540224E+01  0.12093033158E+03  0.91320409204E+02 0.  0.
          5    1    1    2  502    0 -0.23585325826E+02  0.17944281087E+02  0.13011376297E+02  0.32634845353E+02  0.41800000000E+01 0. -1.
         -5    1    1    2    0  502 -0.47716228713E+01  0.55945108218E+02 -0.18962815422E+03  0.19781034551E+03  0.41800000000E+01 0. -1.
        -11    1    3    3    0    0  0.86353001028E+01 -0.11317176459E+02 -0.42729134429E+02  0.45038048580E+02  0.00000000000E+00 0. -1.
         11    1    3    3    0    0  0.19721648595E+02 -0.62572212846E+02  0.38149880407E+02  0.75892282999E+02  0.00000000000E+00 0.  1.
</event>
<event>
 7    1  0.4096326E-006  0.1036671E+03  0.7561462E-02  0.1272768E+00
         -1   -1    0    0    0  501 -0.00000000000E+00  0.00000000000E+00  0.10244410911E+03  0.10244410911E+03  0.00000000000E+00 0.  1.
          1   -1    0    0  501    0  0.00000000000E+00 -0.00000000000E+00 -0.18975509740E+03  0.18975509740E+03  0.00000000000E+00 0. -1.
         23    2    1    2    0    0  0.14121454081E+02  0.25293591775E+02 -0.12637117630E+03  0.15799046733E+03  0.90289159470E+02 0.  0.
          5    1    1    2  502    0  0.23546634727E+02  0.43327181853E+02  0.21023383744E+02  0.53769357057E+02  0.41800000000E+01 0.  1.
         -5    1    1    2    0  502 -0.37668088808E+02 -0.68620773628E+02  0.18036804268E+02  0.80439382121E+02  0.41800000000E+01 0.  1.
        -11    1    3    3    0    0 -0.18848004712E+02 -0.17305009365E+02 -0.62430551282E+01  0.26337926419E+02  0.00000000000E+00 0.  1.
         11    1    3    3    0    0  0.32969458794E+02  0.42598601140E+02 -0.12012812117E+03  0.13165254091E+03  0.00000000000E+00 0. -1.
</event>
<event>
 7    1  0.4096326E-006  0.9549106E+02  0.7561462E-02  0.1290074E+00
          1   -1    0    0  501    0  0.00000000000E+00  0.00000000000E+00  0.82710478756E+03  0.82710478756E+03  0.00000000000E+00 0. -1.
         -1   -1    0    0    0  501 -0.00000000000E+00 -0.00000000000E+00 -0.22092341480E+02  0.22092341480E+02  0.00000000000E+00 0.  1.
         23    2    1    2    0    0 -0.13290591047E+02 -0.69885795796E+02  0.48187086149E+03  0.49546149453E+03  0.90674699608E+02 0.  0.
          5    1    1    2  502    0 -0.22054956608E+00  0.67432267134E+02  0.60466947240E+02  0.90669087353E+02  0.41800000000E+01 0.  1.
         -5    1    1    2    0  502  0.13511140613E+02  0.24535286621E+01  0.26267463736E+03  0.26306654716E+03  0.41800000000E+01 0.  1.
        -11    1    3    3    0    0  0.11054645901E+02 -0.81391431313E+02  0.42043864005E+03  0.42838699832E+03  0.00000000000E+00 0. -1.
         11    1    3    3    0    0 -0.24345236948E+02  0.11505635517E+02  0.61432221440E+02  0.67074496209E+02  0.00000000000E+00 0.  1.
</event>
<event>
 7    1  0.4096326E-006  0.1204494E+03  0.7561462E-02  0.1242357E+00
         -1   -1    0    0    0  501 -0.00000000000E+00  0.00000000000E+00  0.75377718726E+03  0.75377718726E+03  0.00000000000E+00 0.  1.
          1   -1    0    0  501    0  0.00000000000E+00 -0.00000000000E+00 -0.35209649273E+02  0.35209649273E+02  0.00000000000E+00 0. -1.
         23    2    1    2    0    0  0.19085246072E+02 -0.10742029937E+03  0.20890900906E+03  0.25297988449E+03  0.91937373007E+02 0.  0.
          5    1    1    2  502    0 -0.21720866035E+02  0.31973472130E+01  0.81966294612E+01  0.23804961354E+02  0.41800000000E+01 0.  1.
         -5    1    1    2    0  502  0.26356199629E+01  0.10422295216E+03  0.50146189946E+03  0.51220199068E+03  0.41800000000E+01 0.  1.
        -11    1    3    3    0    0 -0.96228748126E+01 -0.35224965555E+02  0.15290638327E+03  0.15720610663E+03  0.00000000000E+00 0.  1.
         11    1    3    3    0    0  0.28708120885E+02 -0.72195333820E+02  0.56002625794E+02  0.95773777862E+02  0.00000000000E+00 0. -1.
</event>
<event>
 7    1  0.4096326E-006  0.1103870E+03  0.7561462E-02  0.1259855E+00
         -1   -1    0    0    0  501 -0.00000000000E+00  0.00000000000E+00  0.19020341984E+03  0.19020341984E+03  0.00000000000E+00 0.  1.
          1   -1    0    0  501    0  0.00000000000E+00 -0.00000000000E+00 -0.11026221246E+03  0.11026221246E+03  0.00000000000E+00 0. -1.
         23    2    1    2    0    0 -0.30873146040E+02 -0.89515107503E+02  0.26312832178E+02  0.13466419486E+03  0.92065056466E+02 0.  0.
          5    1    1    2  502    0  0.56427699867E+02  0.38359442715E+02 -0.21164128655E+02  0.71560637919E+02  0.41800000000E+01 0.  1.
         -5    1    1    2    0  502 -0.25554553827E+02  0.51155664788E+02  0.74792503853E+02  0.94240799518E+02  0.41800000000E+01 0.  1.
        -11    1    3    3    0    0 -0.18186820628E+02 -0.39598283751E+02 -0.34060218821E+02  0.55307169758E+02  0.00000000000E+00 0. -1.
         11    1    3    3    0    0 -0.12686325412E+02 -0.49916823752E+02  0.60373050999E+02  0.79357025101E+02  0.00000000000E+00 0.  1.
</event>
<event>
 7    1  0.4096326E-006  0.9519654E+02  0.7561462E-02  0.1290734E+00
         -1   -1    0    0    0  501 -0.00000000000E+00  0.00000000000E+00  0.41618111685E+03  0.41618111685E+03  0.00000000000E+00 0.  1.
          1   -1    0    0  501    0  0.00000000000E+00 -0.00000000000E+00 -0.34586867448E+02  0.34586867448E+02  0.00000000000E+00 0. -1.
         23    2    1    2    0    0 -0.14387130882E+02 -0.11032263780E+02  0.77945680418E+02  0.12186259361E+03  0.91903548612E+02 0.  0.
          5    1    1    2  502    0 -0.52578346399E+02 -0.76964979262E+01  0.94957434826E+02  0.10889492834E+03  0.41800000000E+01 0. -1.
         -5    1    1    2    0  502  0.66965477281E+02  0.18728761706E+02  0.20869113416E+03  0.22001046234E+03  0.41800000000E+01 0. -1.
        -11    1    3    3    0    0 -0.40260734424E+02 -0.31585815250E+01  0.84832386078E+02  0.93954441626E+02  0.00000000000E+00 0.  1.
         11    1    3    3    0    0  0.25873603543E+02 -0.78736822553E+01 -0.68867056602E+01  0.27908151988E+02  0.00000000000E+00 0. -1.
</event>
<event>
 7    1  0.4096326E-006  0.1244964E+03  0.7561462E-02  0.1235858E+00
          2   -1    0    0  501    0  0.00000000000E+00  0.00000000000E+00  0.12466868512E+03  0.12466868512E+03  0.00000000000E+00 0. -1.
         -2   -1    0    0    0  501 -0.00000000000E+00 -0.00000000000E+00 -0.28691804397E+03  0.28691804397E+03  0.00000000000E+00 0.  1.
         23    2    1    2    0    0  0.55063463029E+02  0.12251258588E+02  0.73406272459E+02  0.13889030856E+03  0.10353723329E+03 0.  0.
          5    1    1    2  502    0 -0.17578087943E+02 -0.67614081386E+02 -0.12853689812E+03  0.14635525189E+03  0.41800000000E+01 0.  1.
         -5    1    1    2    0  502 -0.37485375086E+02  0.55362822799E+02 -0.10711873319E+03  0.12634116864E+03  0.41800000000E+01 0.  1.
        -11    1    3    3    0    0  0.17274169768E+01  0.47856496555E+02  0.53369452880E+02  0.71704440118E+02  0.00000000000E+00 0.  1.
         11    1    3    3    0    0  0.53336046052E+02 -0.35605237968E+02  0.20036819579E+02  0.67185868440E+02  0.00000000000E+00 0. -1.
</event>
<event>
 7    1  0.4096326E-006  0.2007045E+03  0.7561462E-02  0.1149146E+00
          4   -1    0    0  501    0  0.00000000000E+00  0.00000000000E+00  0.12606853410E+03  0.12606853410E+03  0.00000000000E+00 0. -1.
         -4   -1    0    0    0  501 -0.00000000000E+00 -0.00000000000E+00 -0.12927487249E+04  0.12927487249E+04  0.00000000000E+00 0.  1.
         23    2    1    2    0    0  0.10167207787E+03  0.10899180863E+02  0.69584393855E+02  0.14187507212E+03  0.69502119808E+02 0.  0.
          5    1    1    2  502    0 -0.13015340549E+03  0.10067675861E+03 -0.39648993057E+03  0.42929879586E+03  0.41800000000E+01 0. -1.
         -5    1    1    2    0  502  0.28481327614E+02 -0.11157593947E+03 -0.83977465404E+03  0.84764339097E+03  0.41800000000E+01 0.  1.
        -11    1    3    3    0    0  0.26032685751E+02 -0.26544502518E+02  0.33641645433E+02  0.50140519033E+02  0.00000000000E+00 0. -1.
         11    1    3    3    0    0  0.75639392121E+02  0.37443683382E+02  0.35942748421E+02  0.91734553085E+02  0.00000000000E+00 0.  1.
</event>
<event>
 7    1  0.4096326E-006  0.9637063E+02  0.7561462E-02  0.1288119E+00
         -1   -1    0    0    0  501 -0.00000000000E+00  0.00000000000E+00  0.66509648023E+02  0.66509648023E+02  0.00000000000E+00 0.  1.
          1   -1    0    0  501    0  0.00000000000E+00 -0.00000000000E+00 -0.20889079769E+03  0.20889079769E+03  0.00000000000E+00 0. -1.
         23    2    1    2    0    0 -0.18346705975E+02  0.19833779158E+01 -0.11172395669E+03  0.14529695276E+03  0.91040796212E+02 0.  0.
          5    1    1    2  502    0 -0.13253430298E+02  0.52028467659E+02 -0.39474284903E+02  0.66770550620E+02  0.41800000000E+01 0. -1.
         -5    1    1    2    0  502  0.31600136274E+02 -0.54011845574E+02  0.88170919224E+01  0.63332942335E+02  0.41800000000E+01 0. -1.
        -11    1    3    3    0    0 -0.21648267793E+02 -0.33853800202E+02 -0.16392699696E+02  0.43398708390E+02  0.00000000000E+00 0.  1.
         11    1    3    3    0    0  0.33015618180E+01  0.35837178117E+02 -0.95331256995E+02  0.10189824437E+03  0.00000000000E+00 0. -1.
</event>
<event>
 7    1  0.4096326E-006  0.1913029E+03  0.7561462E-02  0.1157291E+00
          2   -1    0    0  501    0  0.00000000000E+00  0.00000000000E+00  0.56461640320E+03  0.56461640320E+03  0.00000000000E+00 0. -1.
         -2   -1    0    0    0  501 -0.00000000000E+00 -0.00000000000E+00 -0.70048703104E+02  0.70048703104E+02  0.00000000000E+00 0.  1.
         23    2    1    2    0    0  0.91773663109E+02  0.13827036826E+03  0.21994334628E+03  0.29026028857E+03  0.91295452061E+02 0.  0.
          5    1    1    2  502    0 -0.11406092850E+02 -0.12579203721E+03  0.16456993950E+03  0.20749571795E+03  0.41800000000E+01 0.  1.
         -5    1    1    2    0  502 -0.80367570259E+02 -0.12478331046E+02  0.11005441432E+03  0.13690909979E+03  0.41800000000E+01 0.  1.
        -11    1    3    3    0    0  0.79741681025E+02  0.72000793753E+02  0.76805909293E+02  0.13206815550E+03  0.00000000000E+00 0.  1.
         11    1    3    3    0    0  0.12031982084E+02  0.66269574505E+02  0.14313743699E+03  0.15819213307E+03  0.00000000000E+00 0. -1.
</event>
<event>
 7    1  0.4096326E-006  0.2402476E+03  0.7561462E-02  0.1119628E+00
         -1   -1    0    0    0  501 -0.00000000000E+00  0.00000000000E+00  0.84542058015E+02  0.84542058015E+02  0.00000000000E+00 0.  1.
          1   -1    0    0  501    0  0.00000000000E+00 -0.00000000000E+00 -0.77618034012E+03  0.77618034012E+03  0.00000000000E+00 0. -1.
         23    2    1    2    0    0  0.63185717363E+02 -0.22203205631E+03 -0.37638677297E+03  0.45045259992E+03  0.89162060307E+02 0.  0.
          5    1    1    2  502    0 -0.12115431165E+02  0.17711105134E+03 -0.28481708455E+03  0.33563872278E+03  0.41800000000E+01 0.  1.
         -5    1    1    2    0  502 -0.51070286198E+02  0.44921004974E+02 -0.30434424574E+02  0.74631075427E+02  0.41800000000E+01 0.  1.
        -11    1    3    3    0    0  0.50981991091E+02 -0.10105978611E+03 -0.11097776365E+03  0.15851910866E+03  0.00000000000E+00 0.  1.
         11    1    3    3    0    0  0.12203726272E+02 -0.12097227020E+03 -0.26540900932E+03  0.29193349126E+03  0.00000000000E+00 0. -1.
</event>
<event>
 7    1  0.4096326E-006  0.1377578E+03  0.7561462E-02  0.1216378E+00
          2   -1    0    0  501    0  0.00000000000E+00  0.00000000000E+00  0.89175736271E+03  0.89175736271E+03  0.00000000000E+00 0. -1.
         -2   -1    0    0    0  501 -0.00000000000E+00 -0.00000000000E+00 -0.79117111118E+02  0.79117111118E+02  0.00000000000E+00 0.  1.
         23    2    1    2    0    0  0.74405389315E+02  0.74764088101E+02  0.69255729334E+03  0.70627532176E+03  0.89796407094E+02 0.  0.
          5    1    1    2  502    0  0.19279304849E+02 -0.23069029622E+02  0.15030037703E+03  0.15333475620E+03  0.41800000000E+01 0. -1.
         -5    1    1    2    0  502 -0.93684694164E+02 -0.51695058479E+02 -0.30217418781E+02  0.11126439588E+03  0.41800000000E+01 0.  1.
        -11    1    3    3    0    0 -0.29593963351E+01  0.59063466999E+02  0.32494790695E+03  0.33028532119E+03  0.00000000000E+00 0. -1.
         11    1    3    3    0    0  0.77364785650E+02  0.15700621102E+02  0.36760938639E+03  0.37599000057E+03  0.00000000000E+00 0.  1.
</event>
<event>
 7    1  0.4096326E-006  0.1032807E+03  0.7561462E-02  0.1273544E+00
         -1   -1    0    0    0  501 -0.00000000000E+00  0.00000000000E+00  0.23565715982E+03  0.23565715982E+03  0.00000000000E+00 0.  1.
          1   -1    0    0  501    0  0.00000000000E+00 -0.00000000000E+00 -0.59450160995E+02  0.59450160995E+02  0.00000000000E+00 0. -1.
         23    2    1    2    0    0 -0.28615473975E+01  0.32527475481E+02  0.36595855388E+02  0.10451512101E+03  0.92292625785E+02 0.  0.
          5    1    1    2  502    0  0.52166198891E+02 -0.27415716811E+02  0.22261887103E+02  0.63134759462E+02  0.41800000000E+01 0. -1.
         -5    1    1    2    0  502 -0.49304651493E+02 -0.51117586707E+01  0.11734925633E+03  0.12745744033E+03  0.41800000000E+01 0.  1.
        -11    1    3    3    0    0  0.41791377405E+02 -0.11510972353E+01  0.18634292199E+02  0.45772055842E+02  0.00000000000E+00 0.  1.
         11    1    3    3    0    0 -0.44652924802E+02  0.33678572717E+02  0.17961563189E+02  0.58743065172E+02  0.00000000000E+00 0. -1.
</event>
<event>
 7    1  0.4096326E-006  0.9840899E+02  0.7561462E-02  0.1283678E+00
          3   -1    0    0  501    0  0.00000000000E+00  0.00000000000E+00  0.33814487188E+02  0.33814487188E+02  0.00000000000E+00 0.  1.
         -3   -1    0    0    0  501 -0.00000000000E+00 -0.00000000000E+00 -0.43151571105E+03  0.43151571105E+03  0.00000000000E+00 0. -1.
         23    2    1    2    0    0  0.52920540992E+01 -0.59396957883E+01 -0.75214482291E+02  0.11934069641E+03  0.92313041607E+02 0.  0.
          5    1    1    2  502    0  0.48874885229E+02 -0.18146063642E+02 -0.74790777482E+02  0.91264269176E+02  0.41800000000E+01 0.  1.
         -5    1    1    2    0  502 -0.54166939329E+02  0.24085759430E+02 -0.24769596409E+03  0.25472523266E+03  0.41800000000E+01 0.  1.
        -11    1    3    3    0    0 -0.32139722366E+02 -0.27143332256E+02 -0.13635408889E+02  0.44222693442E+02  0.00000000000E+00 0.  1.
         11    1    3    3    0    0  0.37431776466E+02  0.21203636468E+02 -0.61579073403E+02  0.75118002968E+02  0.00000000000E+00 0. -1.
</event>
<event>
 7    1  0.4096326E-006  0.9574355E+02  0.7561462E-02  0.1289510E+00
         -1   -1    0    0    0  501 -0.00000000000E+00  0.00000000000E+00  0.31355793699E+02  0.31355793699E+02  0.00000000000E+00 0.  1.
          1   -1    0    0  501    0  0.00000000000E+00 -0.00000000000E+00 -0.43040255142E+03  0.43040255142E+03  0.00000000000E+00 0. -1.
         23    2    1    2    0    0  0.32751153063E+02 -0.79045340257E+01 -0.22081819555E+03  0.24142196468E+03  0.91590227955E+02 0.  0.
          5    1    1    2  502    0 -0.29856204462E+02 -0.56187499357E+02 -0.10541662005E+03  0.12320131578E+03  0.41800000000E+01 0.  1.
         -5    1    1    2    0  502 -0.28949486011E+01  0.64092033382E+02 -0.72811942126E+02  0.97135064661E+02  0.41800000000E+01 0.  1.
        -11    1    3    3    0    0  0.36878149168E+02  0.15252153678E+02 -0.21289300421E+03  0.21660114801E+03  0.00000000000E+00 0. -1.
         11    1    3    3    0    0 -0.41269961053E+01 -0.23156687704E+02 -0.79251913440E+01  0.24820816669E+02  0.00000000000E+00 0.  1.
</event>
<event>
 7    1  0.4096326E-006  0.1145669E+03  0.7561462E-02  0.1252339E+00
         -2   -1    0    0    0  501 -0.00000000000E+00  0.00000000000E+00  0.40352007533E+02  0.40352007533E+02  0.00000000000E+00 0.  1.
          2   -1    0    0  501    0  0.00000000000E+00 -0.00000000000E+00 -0.48293913057E+03  0.48293913057E+03  0.00000000000E+00 0. -1.
         23    2    1    2    0    0  0.44731609102E+02  0.37809957674E+02 -0.32061086237E+03  0.33901878091E+03  0.93337554014E+02 0.  0.
          5    1    1    2  502    0  0.31373754929E+02  0.15873173309E+02 -0.67350193395E+01  0.36043071661E+02  0.41800000000E+01 0. -1.
         -5    1    1    2    0  502 -0.76105364031E+02 -0.53683130983E+02 -0.11524124133E+03  0.14822928553E+03  0.41800000000E+01 0. -1.
        -11    1    3    3    0    0 -0.30669276551E+01  0.50858150970E+02 -0.92649703053E+02  0.10573516464E+03  0.00000000000E+00 0. -1.
         11    1    3    3    0    0  0.47798536757E+02 -0.13048193296E+02 -0.22796115932E+03  0.23328361628E+03  0.00000000000E+00 0.  1.
</event>
<event>
 7    1  0.4096326E-006  0.1267884E+03  0.7561462E-02  0.1232300E+00
          1   -1    0    0  501    0  0.00000000000E+00  0.00000000000E+00  0.23115677890E+03  0.23115677890E+03  0.00000000000E+00 0. -1.
         -1   -1    0    0    0  501 -0.00000000000E+00 -0.00000000000E+00 -0.74034499779E+02  0.74034499779E+02  0.00000000000E+00 0.  1.
         23    2    1    2    0    0 -0.61655197493E+02  0.12443855765E+02  0.10321690931E+03  0.15515978989E+03  0.97286263712E+02 0.  0.
          5    1    1    2  502    0  0.94997959323E+02  0.15452261307E+02  0.37462503521E+02  0.10336486940E+03  0.41800000000E+01 0.  1.
         -5    1    1    2    0  502 -0.33342761830E+02 -0.27896117072E+02  0.16442866298E+02  0.46666619400E+02  0.41800000000E+01 0.  1.
        -11    1    3    3    0    0 -0.29794903697E+01  0.45917054416E+02  0.27145429434E+02  0.53424035679E+02  0.00000000000E+00 0.  1.
         11    1    3    3    0    0 -0.58675707124E+02 -0.33473198651E+02  0.76071479873E+02  0.10173575421E+03  0.00000000000E+00 0. -1.
</event>
<event>
 7    1  0.4096326E-006  0.8878075E+02  0.7561462E-02  0.1305831E+00
         -1   -1    0    0    0  501 -0.00000000000E+00  0.00000000000E+00  0.39015508621E+03  0.39015508621E+03  0.00000000000E+00 0.  1.
          1   -1    0    0  501    0  0.00000000000E+00 -0.00000000000E+00 -0.12699583495E+03  0.12699583495E+03  0.00000000000E+00 0. -1.
         23    2    1    2    0    0  0.33714516304E+02  0.49941048621E+02 -0.88038001734E+02  0.13950538865E+03  0.89890415317E+02 0.  0.
          5    1    1    2  502    0 -0.16074321631E+02 -0.42592698048E+00 -0.51685901331E+01  0.17399768781E+02  0.41800000000E+01 0. -1.
         -5    1    1    2    0  502 -0.17640194674E+02 -0.49515121641E+02  0.35636584313E+03  0.36024576373E+03  0.41800000000E+01 0. -1.
        -11    1    3    3    0    0  0.60933488480E+02  0.53089769891E+02 -0.65714574551E+02  0.10416246442E+03  0.00000000000E+00 0.  1.
         11    1    3    3    0    0 -0.27218972176E+02 -0.31487212700E+01 -0.22323427183E+02  0.35342924230E+02  0.00000000000E+00 0. -1.
</event>
<event>
 7    1  0.4096326E-006  0.1128379E+03  0.7561462E-02  0.1255403E+00
         -1   -1    0    0    0  501 -0.00000000000E+00  0.00000000000E+00  0.15885294979E+03  0.15885294979E+03  0.00000000000E+00 0.  1.
          1   -1    0    0  501    0  0.00000000000E+00 -0.00000000000E+00 -0.11362451421E+03  0.11362451421E+03  0.00000000000E+00 0. -1.
         23    2    1    2    0    0 -0.23747222937E+02  0.74536611502E+02  0.10079315398E+02  0.12080912881E+03  0.91507463917E+02 0.  0.
          5    1    1    2  502    0 -0.46652426720E+02 -0.53939976617E+02  0.31593246587E+02  0.78112583021E+02  0.41800000000E+01 0.  1.
         -5    1    1    2    0  502  0.70399649657E+02 -0.20596634885E+02  0.35558735891E+01  0.73555752171E+02  0.41800000000E+01 0.  1.
        -11    1    3    3    0    0 -0.10762877972E+02  0.92172017005E+01  0.43889833819E+02  0.46120644641E+02  0.00000000000E+00 0.  1.
         11    1    3    3    0    0 -0.12984344964E+02  0.65319409801E+02 -0.33810518421E+02  0.74688484165E+02  0.00000000000E+00 0. -1.
</event>
<event>
 7    1  0.4096326E-006  0.1154458E+03  0.7561462E-02  0.1250805E+00
         -2   -1    0    0    0  501 -0.00000000000E+00  0.00000000000E+00  0.66491703382E+02  0.66491703382E+02  0.00000000000E+00 0.  1.
          2   -1    0    0  501    0  0.00000000000E+00 -0.00000000000E+00 -0.23923310027E+03  0.23923310027E+03  0.00000000000E+00 0. -1.
         23    2    1    2    0    0  0.30251176118E+02  0.28579955699E+02 -0.13631650734E+03  0.16895452188E+03  0.90727574460E+02 0.  0.
          5    1    1    2  502    0  0.36265389392E+02  0.26441849075E+02 -0.79246217679E+01  0.45767039236E+02  0.41800000000E+01 0. -1.
         -5    1    1    2    0  502 -0.66516565510E+02 -0.55021804774E+02 -0.28500267780E+02  0.91003242532E+02  0.41800000000E+01 0. -1.
        -11    1    3    3    0    0 -0.25366575971E+02 -0.14338712796E+02 -0.33097427080E+02  0.44096502588E+02  0.00000000000E+00 0.  1.
         11    1    3    3    0    0  0.55617752090E+02  0.42918668495E+02 -0.10321908026E+03  0.12485801929E+03  0.00000000000E+00 0. -1.
</event>
<event>
 7    1  0.4096326E-006  0.1166683E+03  0.7561462E-02  0.1248697E+00
          3   -1    0    0  501    0  0.00000000000E+00  0.00000000000E+00  0.68188461314E+02  0.68188461314E+02  0.00000000000E+00 0. -1.
         -3   -1    0    0    0  501 -0.00000000000E+00 -0.00000000000E+00 -0.41440482923E+03  0.41440482923E+03  0.00000000000E+00 0.  1.
         23    2    1    2    0    0  0.23922684342E+02  0.69364198742E+02 -0.77619441403E+02  0.14273559454E+03  0.94683606663E+02 0.  0.
          5    1    1    2  502    0 -0.78153289717E+02 -0.25769166591E+02 -0.25611416193E+03  0.26904260440E+03  0.41800000000E+01 0. -1.
         -5    1    1    2    0  502  0.54230605375E+02 -0.43595032151E+02 -0.12482764580E+02  0.70815091606E+02  0.41800000000E+01 0.  1.
        -11    1    3    3    0    0  0.32170702703E+02  0.63262887912E+02 -0.97363171348E+02  0.12048541088E+03  0.00000000000E+00 0. -1.
         11    1    3    3    0    0 -0.82480183607E+01  0.61013108299E+01  0.19743729945E+02  0.22250183659E+02  0.00000000000E+00 0.  1.
</event>
<event>
 7    1  0.4096326E-006  0.1032896E+03  0.7561462E-02  0.1273527E+00
         -1   -1    0    0    0  501 -0.00000000000E+00  0.00000000000E+00  0.39559879392E+03  0.39559879392E+03  0.00000000000E+00 0.  1.
          1   -1    0    0  501    0  0.00000000000E+00 -0.00000000000E+00 -0.42129242758E+02  0.42129242758E+02  0.00000000000E+00 0. -1.
         23    2    1    2    0    0  0.20494289156E+02 -0.61122923482E+02  0.99206226049E+02  0.14712014963E+03  0.87443899035E+02 0.  0.
          5    1    1    2  502    0 -0.16133444691E+02 -0.37947350902E+02  0.77328840521E+02  0.87735462923E+02  0.41800000000E+01 0. -1.
         -5    1    1    2    0  502 -0.43608444649E+01  0.99070274385E+02  0.17693448460E+03  0.20287242412E+03  0.41800000000E+01 0. -1.
        -11    1    3    3    0    0  0.17820974050E+02 -0.31951101277E+02  0.10998179402E+03  0.11590709644E+03  0.00000000000E+00 0.  1.
         11    1    3    3    0    0  0.26733151064E+01 -0.29171822205E+02 -0.10775567975E+02  0.31213053193E+02  0.00000000000E+00 0. -1.
</event>
<event>
 7    1  0.4096326E-006  0.1280567E+03  0.7561462E-02  0.1230368E+00
          3   -1    0    0  501    0  0.00000000000E+00  0.00000000000E+00  0.45547906712E+03  0.45547906712E+03  0.00000000000E+00 0. -1.
         -3   -1    0    0    0  501 -0.00000000000E+00 -0.00000000000E+00 -0.41349774352E+02  0.41349774352E+02  0.00000000000E+00 0.  1.
         23    2    1    2    0    0 -0.71255560987E+02 -0.42548086386E+02  0.17929896728E+03  0.21811612017E+03  0.92405776794E+02 0.  0.
          5    1    1    2  502    0 -0.31102867011E+02  0.33513689798E+02  0.55952140104E+02  0.72378657921E+02  0.41800000000E+01 0. -1.
         -5    1    1    2    0  502  0.10235842800E+03  0.90343965880E+01  0.17887818539E+03  0.20633406338E+03  0.41800000000E+01 0. -1.
        -11    1    3    3    0    0 -0.15580556354E+02 -0.48900407231E+02  0.14150821400E+03  0.15052766587E+03  0.00000000000E+00 0. -1.
         11    1    3    3    0    0 -0.55675004633E+02  0.63523208455E+01  0.37790753275E+02  0.67588454295E+02  0.00000000000E+00 0.  1.
</event>
<event>
 7    1  0.4096326E-006  0.9268953E+02  0.7561462E-02  0.1296466E+00
          2   -1    0    0  501    0  0.00000000000E+00  0.00000000000E+00  0.52518421651E+02  0.52518421651E+02  0.00000000000E+00 0. -1.
         -2   -1    0    0    0  501 -0.00000000000E+00 -0.00000000000E+00 -0.23396759912E+03  0.23396759912E+03  0.00000000000E+00 0.  1.
         23    2    1    2    0    0 -0.18495907404E+02 -0.18420066111E+02 -0.68598981881E+02  0.11600488434E+03  0.89832708131E+02 0.  0.
          5    1    1    2  502    0  0.30445687174E+02 -0.41104941955E+02 -0.12023732933E+02  0.52712414802E+02  0.41800000000E+01 0. -1.
         -5    1    1    2    0  502 -0.11949779770E+02  0.59525008066E+02 -0.10082646265E+03  0.11776872163E+03  0.41800000000E+01 0. -1.
        -11    1    3    3    0    0 -0.41603695561E+02 -0.25785730659E+02 -0.76219569823E+02  0.90582527089E+02  0.00000000000E+00 0.  1.
         11    1    3    3    0    0  0.23107788157E+02  0.73656645486E+01  0.76205879415E+01  0.25422357254E+02  0.00000000000E+00 0. -1.
</event>
<event>
 7    1  0.4096326E-006  0.1634348E+03  0.7561462E-02  0.1184873E+00
         -1   -1    0    0    0  501 -0.00000000000E+00  0.00000000000E+00  0.17050647146E+03  0.17050647146E+03  0.00000000000E+00 0.  1.
          1   -1    0    0  501    0  0.00000000000E+00 -0.00000000000E+00 -0.18531810905E+03  0.18531810905E+03  0.00000000000E+00 0. -1.
         23    2    1    2    0    0  0.13712709115E+03  0.17860443361E+02 -0.36820752225E+02  0.16805236971E+03  0.88107869142E+02 0.  0.
          5    1    1    2  502    0 -0.91445896768E+02 -0.67372298260E+02 -0.79236974144E+01  0.11393698254E+03  0.41800000000E+01 0. -1.
         -5    1    1    2    0  502 -0.45681194385E+02  0.49511854898E+02  0.29932812049E+02  0.73835228266E+02  0.41800000000E+01 0. -1.
        -11    1    3    3    0    0  0.60015654215E+02 -0.15047022096E+02 -0.54402801408E+02  0.82389055255E+02  0.00000000000E+00 0. -1.
         11    1    3    3    0    0  0.77111436938E+02  0.32907465457E+02  0.17582049183E+02  0.85663314452E+02  0.00000000000E+00 0.  1.
</event>
<event>
 7    1  0.4096326E-006  0.2704677E+03  0.7561462E-02  0.1101012E+00
          2   -1    0    0  501    0  0.00000000000E+00  0.00000000000E+00  0.24576395100E+03  0.24576395100E+03  0.00000000000E+00 0. -1.
         -2   -1    0    0    0  501 -0.00000000000E+00 -0.00000000000E+00 -0.33156871625E+03  0.33156871625E+03  0.00000000000E+00 0.  1.
         23    2    1    2    0    0 -0.26370949874E+03  0.84502063006E+01 -0.45405528235E+02  0.28255475305E+03  0.90340582041E+02 0.  0.
          5    1    1    2  502    0  0.23313860545E+03 -0.17862055682E+02  0.10973590907E+02  0.23411654039E+03  0.41800000000E+01 0.  1.
         -5    1    1    2    0  502  0.30570893290E+02  0.94118493813E+01 -0.51372827914E+02  0.60661373816E+02  0.41800000000E+01 0.  1.
        -11    1    3    3    0    0 -0.68810897475E+02  0.36529986809E+02 -0.34892989686E+02  0.85363342699E+02  0.00000000000E+00 0.  1.
         11    1    3    3    0    0 -0.19489860127E+03 -0.28079780509E+02 -0.10512538549E+02  0.19719141035E+03  0.00000000000E+00 0. -1.
</event>
<event>
 7    1  0.4096326E-006  0.1374846E+03  0.7561462E-02  0.1216754E+00
         -2   -1    0    0    0  501 -0.00000000000E+00  0.00000000000E+00  0.10614153843E+03  0.10614153843E+03  0.00000000000E+00 0.  1.
          2   -1    0    0  501    0  0.00000000000E+00 -0.00000000000E+00 -0.21130642282E+03  0.21130642282E+03  0.00000000000E+00 0. -1.
         23    2    1    2    0    0  0.85212430493E+02 -0.53295728349E+02 -0.67504487274E+02  0.15262122094E+03  0.92923561649E+02 0.  0.
          5    1    1    2  502    0 -0.37268936665E+02 -0.38796254698E+02  0.97475337993E+00  0.53968004993E+02  0.41800000000E+01 0. -1.
         -5    1    1    2    0  502 -0.47943493827E+02  0.92091983047E+02 -0.38635150496E+02  0.11085873532E+03  0.41800000000E+01 0. -1.
        -11    1    3    3    0    0  0.63079806180E+02 -0.41667580428E+01 -0.75143053106E+02  0.98198280282E+02  0.00000000000E+00 0. -1.
         11    1    3    3    0    0  0.22132624313E+02 -0.49128970306E+02  0.76385658320E+01  0.54422940662E+02  0.00000000000E+00 0.  1.
</event>
<event>
 7    1  0.4096326E-006  0.1307788E+03  0.7561462E-02  0.1226305E+00
          1   -1    0    0  501    0  0.00000000000E+00  0.00000000000E+00  0.40504802401E+03  0.40504802401E+03  0.00000000000E+00 0. -1.
         -1   -1    0    0    0  501 -0.00000000000E+00 -0.00000000000E+00 -0.44415733607E+02  0.44415733607E+02  0.00000000000E+00 0.  1.
         23    2    1    2    0    0 -0.73030920255E+02 -0.27983005575E+02  0.18312474908E+03  0.21865114433E+03  0.90316583635E+02 0.  0.
          5    1    1    2  502    0 -0.10322744219E+02 -0.36489700059E+02  0.25823518703E+02  0.46069336622E+02  0.41800000000E+01 0. -1.
         -5    1    1    2    0  502  0.83353664474E+02  0.64472705634E+02  0.15168402262E+03  0.18474327666E+03  0.41800000000E+01 0. -1.
        -11    1    3    3    0    0 -0.20245233750E+02 -0.55028295319E+02  0.73626256401E+02  0.94121243123E+02  0.00000000000E+00 0.  1.
         11    1    3    3    0    0 -0.52785686505E+02  0.27045289744E+02  0.10949849268E+03  0.12452990121E+03  0.00000000000E+00 0. -1.
</event>
<event>
 7    1  0.4096326E-006  0.1195853E+03  0.7561462E-02  0.1243783E+00
          2   -1    0    0  501    0  0.00000000000E+00  0.00000000000E+00  0.19531493062E+02  0.19531493062E+02  0.00000000000E+00 0. -1.
         -2   -1    0    0    0  501 -0.00000000000E+00 -0.00000000000E+00 -0.10996466100E+04  0.10996466100E+04  0.00000000000E+00 0.  1.
         23    2    1    2    0    0  0.50574763537E+01 -0.95755234506E+02 -0.41307437956E+03  0.43376887266E+03  0.91270744703E+02 0.  0.
          5    1    1    2  502    0  0.18872888649E+02 -0.93099096611E+01 -0.19634766739E+02  0.29083617532E+02  0.41800000000E+01 0.  1.
         -5    1    1    2    0  502 -0.23930365002E+02  0.10506514417E+03 -0.64740597061E+03  0.65632561284E+03  0.41800000000E+01 0.  1.
        -11    1    3    3    0    0  0.27592853032E+02 -0.31979605432E+02 -0.54923481465E+02  0.69286719639E+02  0.00000000000E+00 0. -1.
         11    1    3    3    0    0 -0.22535376678E+02 -0.63775629073E+02 -0.35815089809E+03  0.36448215302E+03  0.00000000000E+00 0.  1.
</event>
<event>
 7    1  0.4096326E-006  0.9453790E+02  0.7561462E-02  0.1292220E+00
          2   -1    0    0  501    0  0.00000000000E+00  0.00000000000E+00  0.62345702596E+02  0.62345702596E+02  0.00000000000E+00 0. -1.
         -2   -1    0    0    0  501 -0.00000000000E+00 -0.00000000000E+00 -0.28642404660E+03  0.28642404660E+03  0.00000000000E+00 0.  1.
         23    2    1    2    0    0 -0.12155425713E+02  0.72044253771E+02 -0.37523383433E+02  0.11996203325E+03  0.87434296705E+02 0.  0.
          5    1    1    2  502    0  0.17331316766E+02 -0.31311899562E+02  0.17097050167E+01  0.36072220423E+02  0.41800000000E+01 0. -1.
         -5    1    1    2    0  502 -0.51758910520E+01 -0.40732354209E+02 -0.18826466559E+03  0.19273549553E+03  0.41800000000E+01 0.  1.
        -11    1    3    3    0    0  0.35525988264E+02  0.18428591261E+02 -0.24827354419E+02  0.47096776380E+02  0.00000000000E+00 0.  1.
         11    1    3    3    0    0 -0.47681413977E+02  0.53615662510E+02 -0.12696029015E+02  0.72865256865E+02  0.00000000000E+00 0. -1.
</event>
<event>
 7    1  0.4096326E-006  0.9286683E+02  0.7561462E-02  0.1296054E+00
          2   -1    0    0  501    0  0.00000000000E+00  0.00000000000E+00  0.22724008050E+03  0.22724008050E+03  0.00000000000E+00 0. -1.
         -2   -1    0    0    0  501 -0.00000000000E+00 -0.00000000000E+00 -0.98560098727E+02  0.98560098727E+02  0.00000000000E+00 0.  1.
         23    2    1    2    0    0 -0.46265334178E+02  0.67146010683E+02  0.12738472137E+03  0.17647381710E+03  0.90923445742E+02 0.  0.
          5    1    1    2  502    0  0.92955215319E+01 -0.32661437632E+02  0.61635387453E+02  0.70495174411E+02  0.41800000000E+01 0.  1.
         -5    1    1    2    0  502  0.36969812646E+02 -0.34484573051E+02 -0.60340127046E+02  0.78831187721E+02  0.41800000000E+01 0.  1.
        -11    1    3    3    0    0  0.81642384136E+01  0.38356020760E+02  0.50791718188E+01  0.39542851487E+02  0.00000000000E+00 0.  1.
         11    1    3    3    0    0 -0.54429572592E+02  0.28789989923E+02  0.12230554955E+03  0.13693096561E+03  0.00000000000E+00 0. -1.
</event>
<event>
 7    1  0.4096326E-006  0.1339914E+03  0.7561462E-02  0.1221651E+00
         -2   -1    0    0    0  501 -0.00000000000E+00  0.00000000000E+00  0.70057916572E+03  0.70057916572E+03  0.00000000000E+00 0.  1.
          2   -1    0    0  501    0  0.00000000000E+00 -0.00000000000E+00 -0.36386024032E+02  0.36386024032E+02  0.00000000000E+00 0. -1.
         23    2    1    2    0    0  0.10765569471E+03 -0.47973606666E+02  0.35619384512E+03  0.38425835736E+03  0.83001291299E+02 0.  0.
          5    1    1    2  502    0 -0.26016754607E+02  0.41105354128E+02  0.19171421850E+02  0.52455099599E+02  0.41800000000E+01 0. -1.
         -5    1    1    2    0  502 -0.81638940100E+02  0.68682525380E+01  0.28882787471E+03  0.30025173279E+03  0.41800000000E+01 0. -1.
        -11    1    3    3    0    0  0.55181237244E+02 -0.61806806322E+02  0.15359863482E+03  0.17452103274E+03  0.00000000000E+00 0. -1.
         11    1    3    3    0    0  0.52474457462E+02  0.13833199656E+02  0.20259521031E+03  0.20973732462E+03  0.00000000000E+00 0.  1.
</event>
<event>
 7    1  0.4096326E-006  0.5707866E+02  0.7561462E-02  0.1410517E+00
          2   -1    0    0  501    0  0.00000000000E+00  0.00000000000E+00  0.15116903859E+03  0.15116903859E+03  0.00000000000E+00 0. -1.
         -2   -1    0    0    0  501 -0.00000000000E+00 -0.00000000000E+00 -0.10372775057E+03  0.10372775057E+03  0.00000000000E+00 0.  1.
         23    2    1    2    0    0  0.26187514039E+02  0.44016701943E+02  0.51297542558E+02  0.11967390400E+03  0.95221580980E+02 0.  0.
          5    1    1    2  502    0 -0.13877376011E+02 -0.13390209751E+01  0.57526829864E+02  0.59339557601E+02  0.41800000000E+01 0.  1.
         -5    1    1    2    0  502 -0.12310138028E+02 -0.42677680968E+02 -0.61383084400E+02  0.75883327559E+02  0.41800000000E+01 0.  1.
        -11    1    3    3    0    0  0.10190703816E+02  0.35360830910E+02 -0.22857422479E+02  0.43320902221E+02  0.00000000000E+00 0.  1.
         11    1    3    3    0    0  0.15996810223E+02  0.86558710332E+01  0.74154965037E+02  0.76353001777E+02  0.00000000000E+00 0. -1.
</event>
<event>
 7    1  0.4096326E-006  0.1116664E+03  0.7561462E-02  0.1257515E+00
          2   -1    0    0  501    0  0.00000000000E+00  0.00000000000E+00  0.61730717776E+03  0.61730717776E+03  0.00000000000E+00 0. -1.
         -2   -1    0    0    0  501 -0.00000000000E+00 -0.00000000000E+00 -0.22810646832E+02  0.22810646832E+02  0.00000000000E+00 0.  1.
         23    2    1    2    0    0  0.26360921382E+02  0.24648601943E+02  0.33355430606E+03  0.34850109922E+03  0.94297875441E+02 0.  0.
          5    1    1    2  502    0 -0.49069549220E+02 -0.64144068062E+02  0.19736159108E+03  0.21328701827E+03  0.41800000000E+01 0. -1.
         -5    1    1    2    0  502  0.22708627838E+02  0.39495466119E+02  0.63580633793E+02  0.78329707109E+02  0.41800000000E+01 0. -1.
        -11    1    3    3    0    0  0.41056307884E+02  0.51645744854E+02  0.17563310720E+03  0.18761634184E+03  0.00000000000E+00 0. -1.
         11    1    3    3    0    0 -0.14695386502E+02 -0.26997142911E+02  0.15792119885E+03  0.16088475738E+03  0.00000000000E+00 0.  1.
</event>
<event>
 7    1  0.4096326E-006  0.1293584E+03  0.7561462E-02  0.1228411E+00
         -1   -1    0    0    0  501 -0.00000000000E+00  0.00000000000E+00  0.42970700469E+03  0.42970700469E+03  0.00000000000E+00 0.  1.
          1   -1    0    0  501    0  0.00000000000E+00 -0.00000000000E+00 -0.42554470803E+02  0.42554470803E+02  0.00000000000E+00 0. -1.
         23    2    1    2    0    0  0.67012423903E+02  0.24521475124E+02  0.10840719664E+03  0.15851278669E+03  0.91006678663E+02 0.  0.
          5    1    1    2  502    0 -0.88344846050E+02  0.22545214437E+02  0.16049575084E+03  0.18463330402E+03  0.41800000000E+01 0.  1.
         -5    1    1    2    0  502  0.21332422147E+02 -0.47066689561E+02  0.11824958641E+03  0.12911538478E+03  0.41800000000E+01 0.  1.
        -11    1    3    3    0    0  0.80835245592E+01  0.50540831467E+02  0.45781326504E+02  0.68670582283E+02  0.00000000000E+00 0.  1.
         11    1    3    3    0    0  0.58928899344E+02 -0.26019356343E+02  0.62625870137E+02  0.89842204407E+02  0.00000000000E+00 0. -1.
</event>
<event>
 7    1  0.4096326E-006  0.1766727E+03  0.7561462E-02  0.1171063E+00
          3   -1    0    0  501    0  0.00000000000E+00  0.00000000000E+00  0.16909865101E+02  0.16909865101E+02  0.00000000000E+00 0. -1.
         -3   -1    0    0    0  501 -0.00000000000E+00 -0.00000000000E+00 -0.20325126246E+04  0.20325126246E+04  0.00000000000E+00 0.  1.
         23    2    1    2    0    0 -0.13233560734E+03 -0.69970016107E+02 -0.87821768849E+03  0.89542577226E+03  0.90069357328E+02 0.  0.
          5    1    1    2  502    0  0.13136252809E+03  0.89473531457E+02 -0.11016157412E+04  0.11130302513E+04  0.41800000000E+01 0.  1.
         -5    1    1    2    0  502  0.97307924456E+00 -0.19503515351E+02 -0.35769329823E+02  0.40966466167E+02  0.41800000000E+01 0.  1.
        -11    1    3    3    0    0  0.12594704135E+02 -0.14480250451E+02 -0.11495012321E+03  0.11654113030E+03  0.00000000000E+00 0. -1.
         11    1    3    3    0    0 -0.14493031147E+03 -0.55489765655E+02 -0.76326756528E+03  0.77888464196E+03  0.00000000000E+00 0.  1.
</event>
<event>
 7    1  0.4096326E-006  0.1026927E+03  0.7561462E-02  0.1274733E+00
         -1   -1    0    0    0  501 -0.00000000000E+00  0.00000000000E+00  0.32250839169E+03  0.32250839169E+03  0.00000000000E+00 0.  1.
          1   -1    0    0  501    0  0.00000000000E+00 -0.00000000000E+00 -0.43091411309E+02  0.43091411309E+02  0.00000000000E+00 0. -1.
         23    2    1    2    0    0  0.15962339808E+01 -0.31398481351E+02  0.82428722464E+02  0.13043636106E+03  0.96076726661E+02 0.  0.
          5    1    1    2  502    0 -0.48620852374E+02  0.29946387110E+02  0.17291946456E+03  0.18215209857E+03  0.41800000000E+01 0. -1.
         -5    1    1    2    0  502  0.47024618393E+02  0.14520942412E+01  0.24068793354E+02  0.53011343373E+02  0.41800000000E+01 0. -1.
        -11    1    3    3    0    0  0.47098009331E+02 -0.28570925199E+01  0.42575846894E+02  0.63553821280E+02  0.00000000000E+00 0. -1.
         11    1    3    3    0    0 -0.45501775350E+02 -0.28541388831E+02  0.39852875570E+02  0.66882539781E+02  0.00000000000E+00 0.  1.
</event>
<event>
 7    1  0.4096326E-006  0.1271972E+03  0.7561462E-02  0.1231675E+00
          2   -1    0    0  501    0  0.00000000000E+00  0.00000000000E+00  0.48182631783E+03  0.48182631783E+03  0.00000000000E+00 0. -1.
         -2   -1    0    0    0  501 -0.00000000000E+00 -0.00000000000E+00 -0.45802089886E+02  0.45802089886E+02  0.00000000000E+00 0.  1.
         23    2    1    2    0    0 -0.76307022621E+02 -0.53358331524E+02  0.22036748968E+03  0.26149807574E+03  0.10559138159E+03 0.  0.
          5    1    1    2  502    0  0.93123560111E+02  0.75577055692E+02  0.20166603567E+03  0.23467115531E+03  0.41800000000E+01 0.  1.
         -5    1    1    2    0  502 -0.16816537490E+02 -0.22218724167E+02  0.13990702594E+02  0.31459176655E+02  0.41800000000E+01 0.  1.
        -11    1    3    3    0    0 -0.40597343818E+02  0.16479777989E+01  0.10990923288E+02  0.42091098234E+02  0.00000000000E+00 0.  1.
         11    1    3    3    0    0 -0.35709678804E+02 -0.55006309323E+02  0.20937656639E+03  0.21940697751E+03  0.00000000000E+00 0. -1.
</event>
<event>
 7    1  0.4096326E-006  0.1351155E+03  0.7561462E-02  0.1220057E+00
         -1   -1    0    0    0  501 -0.00000000000E+00  0.00000000000E+00  0.45226070404E+02  0.45226070404E+02  0.00000000000E+00 0.  1.
          1   -1    0    0  501    0  0.00000000000E+00 -0.00000000000E+00 -0.41263332178E+03  0.41263332178E+03  0.00000000000E+00 0. -1.
         23    2    1    2    0    0  0.22926709849E+02 -0.79508673536E+02 -0.19322348101E+03  0.22800061458E+03  0.88327251983E+02 0.  0.
          5    1    1    2  502    0 -0.24016566101E+02  0.11330112456E+03 -0.13294363025E+03  0.17636729146E+03  0.41800000000E+01 0.  1.
         -5    1    1    2    0  502  0.10898562513E+01 -0.33792451024E+02 -0.41240140119E+02  0.53491486144E+02  0.41800000000E+01 0.  1.
        -11    1    3    3    0    0  0.37449577506E+02 -0.93118033278E+02 -0.15088500080E+03  0.18121733484E+03  0.00000000000E+00 0.  1.
         11    1    3    3    0    0 -0.14522867656E+02  0.13609359742E+02 -0.42338480205E+02  0.46783279744E+02  0.00000000000E+00 0. -1.
</event>
<event>
 7    1  0.4096326E-006  0.9810706E+02  0.7561462E-02  0.1284328E+00
          1   -1    0    0  501    0  0.00000000000E+00  0.00000000000E+00  0.34933809812E+03  0.34933809812E+03  0.00000000000E+00 0. -1.
         -1   -1    0    0    0  501 -0.00000000000E+00 -0.00000000000E+00 -0.36269459137E+02  0.36269459137E+02  0.00000000000E+00 0.  1.
         23    2    1    2    0    0 -0.11159698916E+02 -0.19711668985E+02  0.17328409690E+03  0.19666262649E+03  0.90198235257E+02 0.  0.
          5    1    1    2  502    0  0.61028856641E+02  0.38716038196E+02  0.92964443346E+02  0.11782747168E+03  0.41800000000E+01 0.  1.
         -5    1    1    2    0  502 -0.49869157726E+02 -0.19004369212E+02  0.46820098731E+02  0.71117459084E+02  0.41800000000E+01 0.  1.
        -11    1    3    3    0    0  0.10000656034E+02  0.21639156052E+02  0.82648534284E+01  0.25230418109E+02  0.00000000000E+00 0.  1.
         11    1    3    3    0    0 -0.21160354950E+02 -0.41350825037E+02  0.16501924347E+03  0.17143220838E+03  0.00000000000E+00 0. -1.
</event>
<event>
 7    1  0.4096326E-006  0.8718054E+02  0.7561462E-02  0.1309827E+00
         -1   -1    0    0    0  501 -0.00000000000E+00  0.00000000000E+00  0.71628648139E+02  0.71628648139E+02  0.00000000000E+00 0.  1.
          1   -1    0    0  501    0  0.00000000000E+00 -0.00000000000E+00 -0.19572675804E+03  0.19572675804E+03  0.00000000000E+00 0. -1.
         23    2    1    2    0    0 -0.15971760729E+02  0.13679385260E+02 -0.10314199580E+03  0.13879089232E+03  0.90456717669E+02 0.  0.
          5    1    1    2  502    0  0.39064567246E+02  0.44271801236E+02  0.78795869297E+01  0.59712587358E+02  0.41800000000E+01 0.  1.
         -5    1    1    2    0  502 -0.23092806517E+02 -0.57951186496E+02 -0.28835701031E+02  0.68851926502E+02  0.41800000000E+01 0.  1.
        -11    1    3    3    0    0  0.17262655924E+02  0.76022303357E+01  0.95507643534E+01  0.21142617987E+02  0.00000000000E+00 0.  1.
         11    1    3    3    0    0 -0.33234416653E+02  0.60771549243E+01 -0.11269276016E+03  0.11764827434E+03  0.00000000000E+00 0. -1.
</event>
<event>
 7    1  0.4096326E-006  0.1285496E+03  0.7561462E-02  0.1229624E+00
         -2   -1    0    0    0  501 -0.00000000000E+00  0.00000000000E+00  0.57157331405E+02  0.57157331405E+02  0.00000000000E+00 0.  1.
          2   -1    0    0  501    0  0.00000000000E+00 -0.00000000000E+00 -0.35534249640E+03  0.35534249640E+03  0.00000000000E+00 0. -1.
         23    2    1    2    0    0 -0.85322513215E+02  0.75259971636E+01 -0.18515429093E+03  0.22339210126E+03  0.91023884560E+02 0.  0.
          5    1    1    2  502    0  0.11770515672E+03  0.17667228977E-01 -0.82759111426E+02  0.14394807103E+03  0.41800000000E+01 0.  1.
         -5    1    1    2    0  502 -0.32382643503E+02 -0.75436643926E+01 -0.30271762639E+02  0.45159655513E+02  0.41800000000E+01 0.  1.
        -11    1    3    3    0    0 -0.80447345847E+02 -0.15795031362E+02 -0.76416234036E+02  0.11207452562E+03  0.00000000000E+00 0.  1.
         11    1    3    3    0    0 -0.48751673679E+01  0.23321028525E+02 -0.10873805689E+03  0.11131757563E+03  0.00000000000E+00 0. -1.
</event>
<event>
 7    1  0.4096326E-006  0.2571158E+03  0.7561462E-02  0.1108889E+00
         -2   -1    0    0    0  501 -0.00000000000E+00  0.00000000000E+00  0.42065242515E+03  0.42065242515E+03  0.00000000000E+00 0. -1.
          2   -1    0    0  501    0  0.00000000000E+00 -0.00000000000E+00 -0.17389767853E+03  0.17389767853E+03  0.00000000000E+00 0.  1.
         23    2    1    2    0    0  0.16488506095E+03 -0.17716060246E+03  0.61500359872E+02  0.26509648079E+03  0.88999367821E+02 0.  0.
          5    1    1    2  502    0  0.11047788255E+02  0.53721106321E+02  0.20815692680E+02  0.58811362435E+02  0.41800000000E+01 0.  1.
         -5    1    1    2    0  502 -0.17593284921E+03  0.12343949614E+03  0.16443869407E+03  0.27064226045E+03  0.41800000000E+01 0.  1.
        -11    1    3    3    0    0  0.93120158738E+02 -0.75778957050E+02 -0.12183825307E+02  0.12067418901E+03  0.00000000000E+00 0.  1.
         11    1    3    3    0    0  0.71764902212E+02 -0.10138164541E+03  0.73684185179E+02  0.14442229177E+03  0.00000000000E+00 0. -1.
</event>
<event>
 7    1  0.4096326E-006  0.9574770E+02  0.7561462E-02  0.1289501E+00
          2   -1    0    0  501    0  0.00000000000E+00  0.00000000000E+00  0.51895053054E+03  0.51895053054E+03  0.00000000000E+00 0.  1.
         -2   -1    0    0    0  501 -0.00000000000E+00 -0.00000000000E+00 -0.25322023663E+02  0.25322023663E+02  0.00000000000E+00 0. -1.
         23    2    1    2    0    0  0.33528000787E+02 -0.17017857887E+02  0.22451567309E+03  0.24513397407E+03  0.90937579994E+02 0.  0.
          5    1    1    2  502    0 -0.18615943366E+00 -0.41303350633E+02  0.31322508532E+02  0.52005512877E+02  0.41800000000E+01 0. -1.
         -5    1    1    2    0  502 -0.33341841354E+02  0.58321208520E+02  0.23779032525E+03  0.24713306726E+03  0.41800000000E+01 0. -1.
        -11    1    3    3    0    0  0.56807492138E+02 -0.66765685410E+01  0.79733298288E+02  0.98127807406E+02  0.00000000000E+00 0. -1.
         11    1    3    3    0    0 -0.23279491351E+02 -0.10341289346E+02  0.14478237481E+03  0.14700616666E+03  0.00000000000E+00 0.  1.
</event>
<event>
 7    1  0.4096326E-006  0.1374944E+03  0.7561462E-02  0.1216741E+00
          2   -1    0    0  501    0  0.00000000000E+00  0.00000000000E+00  0.17922768134E+03  0.17922768134E+03  0.00000000000E+00 0. -1.
         -2   -1    0    0    0  501 -0.00000000000E+00 -0.00000000000E+00 -0.17044285066E+03  0.17044285066E+03  0.00000000000E+00 0.  1.
         23    2    1    2    0    0 -0.63061482111E+02 -0.10367950666E+03  0.67237698721E+02  0.16585004384E+03  0.90879801306E+02 0.  0.
          5    1    1    2  502    0  0.39744854070E+02  0.29163382673E+02 -0.87410232356E+02  0.10043991953E+03  0.41800000000E+01 0.  1.
         -5    1    1    2    0  502  0.23316628042E+02  0.74516123990E+02  0.28957364317E+02  0.83380568635E+02  0.41800000000E+01 0.  1.
        -11    1    3    3    0    0 -0.49834442672E+02 -0.76855940513E+01  0.49713428366E+01  0.50668079517E+02  0.00000000000E+00 0.  1.
         11    1    3    3    0    0 -0.13227039439E+02 -0.95993912611E+02  0.62266355884E+02  0.11518196433E+03  0.00000000000E+00 0. -1.
</event>
<event>
 7    1  0.4096326E-006  0.8911373E+02  0.7561462E-02  0.1305012E+00
         -1   -1    0    0    0  501 -0.00000000000E+00  0.00000000000E+00  0.90074646957E+02  0.90074646957E+02  0.00000000000E+00 0.  1.
          1   -1    0    0  501    0  0.00000000000E+00 -0.00000000000E+00 -0.19595036071E+03  0.19595036071E+03  0.00000000000E+00 0. -1.
         23    2    1    2    0    0 -0.75856791918E+02 -0.68449565196E+01 -0.60762063008E+02  0.13277853029E+03  0.90205340726E+02 0.  0.
          5    1    1    2  502    0  0.24058571949E+01 -0.77342119793E+01  0.39290832679E+02  0.40334205290E+02  0.41800000000E+01 0.  1.
         -5    1    1    2    0  502  0.73450934723E+02  0.14579168499E+02 -0.84404483426E+02  0.11291227209E+03  0.41800000000E+01 0.  1.
        -11    1    3    3    0    0 -0.31184952563E+02 -0.30451485105E+02  0.11057031241E+02  0.44967234197E+02  0.00000000000E+00 0.  1.
         11    1    3    3    0    0 -0.44671839355E+02  0.23606528585E+02 -0.71819094248E+02  0.87811296095E+02  0.00000000000E+00 0. -1.
</event>
<event>
 7    1  0.4096326E-006  0.1266223E+03  0.7561462E-02  0.1232556E+00
         -1   -1    0    0    0  501 -0.00000000000E+00  0.00000000000E+00  0.77694401062E+02  0.77694401062E+02  0.00000000000E+00 0.  1.
          1   -1    0    0  501    0  0.00000000000E+00 -0.00000000000E+00 -0.30351579127E+03  0.30351579127E+03  0.00000000000E+00 0. -1.
         23    2    1    2    0    0  0.69882811714E+02  0.82153699739E+02 -0.12260036733E+03  0.18644176477E+03  0.89982464006E+02 0.  0.
          5    1    1    2  502    0 -0.81718203890E+02 -0.56463692408E+02 -0.13166496799E+02  0.10028380949E+03  0.41800000000E+01 0.  1.
         -5    1    1    2    0  502  0.11835392176E+02 -0.25690007332E+02 -0.90054526073E+02  0.94484618065E+02  0.41800000000E+01 0.  1.
        -11    1    3    3    0    0  0.61248871083E+02  0.93009926246E+02 -0.68848332615E+02  0.13092884897E+03  0.00000000000E+00 0.  1.
         11    1    3    3    0    0  0.86339406315E+01 -0.10856226507E+02 -0.53752034716E+02  0.55512915803E+02  0.00000000000E+00 0. -1.
</event>
<event>
 7    1  0.4096326E-006  0.1977031E+03  0.7561462E-02  0.1151692E+00
         -2   -1    0    0    0  501 -0.00000000000E+00  0.00000000000E+00  0.29460245855E+02  0.29460245855E+02  0.00000000000E+00 0.  1.
          2   -1    0    0  501    0  0.00000000000E+00 -0.00000000000E+00 -0.15029129818E+04  0.15029129818E+04  0.00000000000E+00 0. -1.
         23    2    1    2    0    0 -0.92980951276E+02  0.13053744824E+03 -0.79003011494E+03  0.81227586115E+03  0.99794836533E+02 0.  0.
          5    1    1    2  502    0  0.12866097879E+03 -0.11516239917E+03 -0.63392390199E+03  0.65703349348E+03  0.41800000000E+01 0. -1.
         -5    1    1    2    0  502 -0.35680027515E+02 -0.15375049066E+02 -0.49498719043E+02  0.63063873050E+02  0.41800000000E+01 0.  1.
        -11    1    3    3    0    0 -0.65650359829E+01  0.86256374084E+02 -0.46789128740E+03  0.47582088920E+03  0.00000000000E+00 0.  1.
         11    1    3    3    0    0 -0.86415915293E+02  0.44281074154E+02 -0.32213882754E+03  0.33645497195E+03  0.00000000000E+00 0. -1.
</event>
<event>
 7    1  0.4096326E-006  0.1694513E+03  0.7561462E-02  0.1178421E+00
         -2   -1    0    0    0  501 -0.00000000000E+00  0.00000000000E+00  0.11144672033E+03  0.11144672033E+03  0.00000000000E+00 0.  1.
          2   -1    0    0  501    0  0.00000000000E+00 -0.00000000000E+00 -0.33495468849E+03  0.33495468849E+03  0.00000000000E+00 0. -1.
         23    2    1    2    0    0  0.80808864089E+02  0.13540513252E+03 -0.13047467656E+03  0.22466410988E+03  0.92659044975E+02 0.  0.
          5    1    1    2  502    0 -0.53775994479E+02 -0.73314227450E+02  0.16878805227E+02  0.92569973505E+02  0.41800000000E+01 0.  1.
         -5    1    1    2    0  502 -0.27032869611E+02 -0.62090905070E+02 -0.10991209683E+03  0.12916732544E+03  0.41800000000E+01 0.  1.
        -11    1    3    3    0    0  0.48936887941E+02  0.91063636849E+01 -0.54745186124E+02  0.73991758086E+02  0.00000000000E+00 0. -1.
         11    1    3    3    0    0  0.31871976148E+02  0.12629876884E+03 -0.75729490438E+02  0.15067235179E+03  0.00000000000E+00 0.  1.
</event>
<event>
 7    1  0.4096326E-006  0.7679699E+02  0.7561462E-02  0.1338395E+00
         -1   -1    0    0    0  501 -0.00000000000E+00  0.00000000000E+00  0.72319935173E+03  0.72319935173E+03  0.00000000000E+00 0.  1.
          1   -1    0    0  501    0  0.00000000000E+00 -0.00000000000E+00 -0.27257407773E+02  0.27257407773E+02  0.00000000000E+00 0. -1.
         23    2    1    2    0    0  0.27637887288E+01 -0.32346084538E+02  0.83484258968E+02  0.12451313733E+03  0.86486947907E+02 0.  0.
          5    1    1    2  502    0  0.26109555004E+02 -0.21014585101E+02  0.50803191010E+02  0.61006214981E+02  0.41800000000E+01 0.  1.
         -5    1    1    2    0  502 -0.28873343733E+02  0.53360669639E+02  0.56165449398E+03  0.56493740720E+03  0.41800000000E+01 0.  1.
        -11    1    3    3    0    0  0.21563801949E+02  0.30651948429E-01  0.84351198699E+02  0.87063903060E+02  0.00000000000E+00 0.  1.
         11    1    3    3    0    0 -0.18800013220E+02 -0.32376736487E+02 -0.86693973135E+00  0.37449234266E+02  0.00000000000E+00 0. -1.
</event>
<event>
 7    1  0.4096326E-006  0.1932669E+03  0.7561462E-02  0.1155547E+00
          1   -1    0    0  501    0  0.00000000000E+00  0.00000000000E+00  0.98499669941E+03  0.98499669941E+03  0.00000000000E+00 0. -1.
         -1   -1    0    0    0  501 -0.00000000000E+00 -0.00000000000E+00 -0.40041598022E+02  0.40041598022E+02  0.00000000000E+00 0.  1.
         23    2    1    2    0    0  0.16183741947E+03 -0.12422678865E+02  0.53321514834E+03  0.56512220697E+03  0.93268650112E+02 0.  0.
          5    1    1    2  502    0 -0.18904373137E+02  0.51011243739E+02  0.14316221328E+03  0.15320709521E+03  0.41800000000E+01 0.  1.
         -5    1    1    2    0  502 -0.14293304633E+03 -0.38588564875E+02  0.26857773976E+03  0.30670899525E+03  0.41800000000E+01 0.  1.
        -11    1    3    3    0    0  0.70457223941E+02  0.37414966739E+02  0.17991477682E+03  0.19680809704E+03  0.00000000000E+00 0.  1.
         11    1    3    3    0    0  0.91380195529E+02 -0.49837645604E+02  0.35330037153E+03  0.36831410993E+03  0.00000000000E+00 0. -1.
</event>
<event>
 7    1  0.4096326E-006  0.9129223E+02  0.7561462E-02  0.1299752E+00
         -2   -1    0    0    0  501 -0.00000000000E+00  0.00000000000E+00  0.11546261393E+03  0.11546261393E+03  0.00000000000E+00 0.  1.
          2   -1    0    0  501    0  0.00000000000E+00 -0.00000000000E+00 -0.10892003659E+03  0.10892003659E+03  0.00000000000E+00 0. -1.
         23    2    1    2    0    0  0.26693293291E+01  0.47073984318E+02  0.11085359022E+01  0.10115117166E+03  0.89483212717E+02 0.  0.
          5    1    1    2  502    0  0.36290864123E+02  0.76092850789E+01 -0.29371862723E+02  0.47487964349E+02  0.41800000000E+01 0. -1.
         -5    1    1    2    0  502 -0.38960193452E+02 -0.54683269397E+02  0.34805904167E+02  0.75743514512E+02  0.41800000000E+01 0.  1.
        -11    1    3    3    0    0  0.23021648843E+02 -0.36802639460E+01  0.31033881245E+02  0.38815492310E+02  0.00000000000E+00 0.  1.
         11    1    3    3    0    0 -0.20352319514E+02  0.50754248264E+02 -0.29925345342E+02  0.62335679352E+02  0.00000000000E+00 0. -1.
</event>
<event>
 7    1  0.4096326E-006  0.1394349E+03  0.7561462E-02  0.1214091E+00
          1   -1    0    0  501    0  0.00000000000E+00  0.00000000000E+00  0.51964301158E+03  0.51964301158E+03  0.00000000000E+00 0. -1.
         -1   -1    0    0    0  501 -0.00000000000E+00 -0.00000000000E+00 -0.53224897663E+02  0.53224897663E+02  0.00000000000E+00 0.  1.
         23    2    1    2    0    0  0.92128028068E+02 -0.50875880157E+02  0.30123169427E+03  0.32661886075E+03  0.69738209225E+02 0.  0.
          5    1    1    2  502    0 -0.29268205839E+02  0.81611576354E+02  0.15183050933E+03  0.17489154706E+03  0.41800000000E+01 0. -1.
         -5    1    1    2    0  502 -0.62859822229E+02 -0.30735696197E+02  0.13355910317E+02  0.71357501440E+02  0.41800000000E+01 0.  1.
        -11    1    3    3    0    0  0.33063309000E+02 -0.53451183714E+02  0.19705598489E+03  0.20683634261E+03  0.00000000000E+00 0. -1.
         11    1    3    3    0    0  0.59064719068E+02  0.25753035576E+01  0.10417570938E+03  0.11978251814E+03  0.00000000000E+00 0.  1.
</event>
<event>
 7    1  0.4096326E-006  0.1314538E+03  0.7561462E-02  0.1225314E+00
          1   -1    0    0  501    0  0.00000000000E+00  0.00000000000E+00  0.57445340937E+02  0.57445340937E+02  0.00000000000E+00 0. -1.
         -1   -1    0    0    0  501 -0.00000000000E+00 -0.00000000000E+00 -0.34893717129E+03  0.34893717129E+03  0.00000000000E+00 0.  1.
         23    2    1    2    0    0 -0.54104199783E+02 -0.54531237401E+02 -0.83987022300E+02  0.15220440843E+03  0.10105167859E+03 0.  0.
          5    1    1    2  502    0 -0.30152309430E+02 -0.17254429711E+02 -0.63462214914E+02  0.72469319235E+02  0.41800000000E+01 0. -1.
         -5    1    1    2    0  502  0.84256509213E+02  0.71785667112E+02 -0.14404259314E+03  0.18170878456E+03  0.41800000000E+01 0. -1.
        -11    1    3    3    0    0 -0.46543347059E+02  0.13685210268E+02 -0.64782268549E+02  0.80933988249E+02  0.00000000000E+00 0.  1.
         11    1    3    3    0    0 -0.75608527237E+01 -0.68216447669E+02 -0.19204753751E+02  0.71270420183E+02  0.00000000000E+00 0. -1.
</event>
<event>
 7    1  0.4096326E-006  0.1080050E+03  0.7561462E-02  0.1264310E+00
          1   -1    0    0  501    0  0.00000000000E+00  0.00000000000E+00  0.18771664637E+03  0.18771664637E+03  0.00000000000E+00 0. -1.
         -1   -1    0    0    0  501 -0.00000000000E+00 -0.00000000000E+00 -0.69755261194E+02  0.69755261194E+02  0.00000000000E+00 0.  1.
         23    2    1    2    0    0  0.25489221561E+02 -0.18633020120E+02  0.68168384176E+02  0.11918414604E+03  0.92525900216E+02 0.  0.
          5    1    1    2  502    0 -0.16360708404E+02 -0.49556479992E+02  0.45274076424E+02  0.69215113124E+02  0.41800000000E+01 0.  1.
         -5    1    1    2    0  502 -0.91285131563E+01  0.68189500111E+02  0.45189245735E+01  0.69072648401E+02  0.41800000000E+01 0.  1.
        -11    1    3    3    0    0  0.58888598178E+02 -0.16992624381E+02  0.29373055197E+02  0.67966113986E+02  0.00000000000E+00 0.  1.
         11    1    3    3    0    0 -0.33399376617E+02 -0.16403957390E+01  0.38795328979E+02  0.51218032051E+02  0.00000000000E+00 0. -1.
</event>
<event>
 7    1  0.4096326E-006  0.2435058E+03  0.7561462E-02  0.1117479E+00
          1   -1    0    0  501    0  0.00000000000E+00  0.00000000000E+00  0.22760223571E+03  0.22760223571E+03  0.00000000000E+00 0. -1.
         -1   -1    0    0    0  501 -0.00000000000E+00 -0.00000000000E+00 -0.34944532466E+03  0.34944532466E+03  0.00000000000E+00 0.  1.
         23    2    1    2    0    0  0.18324035100E+03  0.15795596909E+03  0.38398086379E+02  0.26105447234E+03  0.90265774728E+02 0.  0.
          5    1    1    2  502    0 -0.10571417321E+03 -0.99147402127E+02 -0.21650455927E+02  0.14660118829E+03  0.41800000000E+01 0. -1.
         -5    1    1    2    0  502 -0.77526177788E+02 -0.58808566960E+02 -0.13859071940E+03  0.16939189973E+03  0.41800000000E+01 0. -1.
        -11    1    3    3    0    0  0.94554309326E+02  0.57704130982E+02  0.59200115150E+02  0.12559831917E+03  0.00000000000E+00 0. -1.
         11    1    3    3    0    0  0.88686041677E+02  0.10025183811E+03 -0.20802028771E+02  0.13545615317E+03  0.00000000000E+00 0.  1.
</event>
<event>
 7    1  0.4096326E-006  0.1257558E+03  0.7561462E-02  0.1233893E+00
          1   -1    0    0  501    0  0.00000000000E+00  0.00000000000E+00  0.58329336716E+03  0.58329336716E+03  0.00000000000E+00 0. -1.
         -1   -1    0    0    0  501 -0.00000000000E+00 -0.00000000000E+00 -0.34220557298E+02  0.34220557298E+02  0.00000000000E+00 0.  1.
         23    2    1    2    0    0  0.24099742439E+02  0.65761225332E+02  0.37130215956E+03  0.38913762605E+03  0.93045483345E+02 0.  0.
          5    1    1    2  502    0 -0.10628384368E+02  0.33656170421E+02  0.18429573454E+02  0.40035258702E+02  0.41800000000E+01 0.  1.
         -5    1    1    2    0  502 -0.13471358071E+02 -0.99417395753E+02  0.15934107685E+03  0.18834103970E+03  0.41800000000E+01 0.  1.
        -11    1    3    3    0    0  0.16120374934E+02 -0.22088961267E+02  0.68770041145E+02  0.74007481088E+02  0.00000000000E+00 0. -1.
         11    1    3    3    0    0  0.79793675049E+01  0.87850186598E+02  0.30253211842E+03  0.31513014497E+03  0.00000000000E+00 0.  1.
</event>
<event>
 7    1  0.4096326E-006  0.1299923E+03  0.7561462E-02  0.1227467E+00
          2   -1    0    0  501    0  0.00000000000E+00  0.00000000000E+00  0.21312191308E+03  0.21312191308E+03  0.00000000000E+00 0. -1.
         -2   -1    0    0    0  501 -0.00000000000E+00 -0.00000000000E+00 -0.11034717465E+03  0.11034717465E+03  0.00000000000E+00 0.  1.
         23    2    1    2    0    0 -0.10671191765E+03 -0.11433810530E+02  0.36363465485E+02  0.14577269498E+03  0.91701753459E+02 0.  0.
          5    1    1    2  502    0 -0.11225662035E+02  0.83360282241E+00 -0.25206308500E+02  0.27920257341E+02  0.41800000000E+01 0.  1.
         -5    1    1    2    0  502  0.11793757969E+03  0.10600207708E+02  0.91617581454E+02  0.14977613541E+03  0.41800000000E+01 0.  1.
        -11    1    3    3    0    0 -0.81505594270E+02  0.24940264472E+02  0.50796602798E+02  0.99224359636E+02  0.00000000000E+00 0.  1.
         11    1    3    3    0    0 -0.25206323383E+02 -0.36374075002E+02 -0.14433137313E+02  0.46548335346E+02  0.00000000000E+00 0. -1.
</event>
<event>
 7    1  0.4096326E-006  0.1296200E+03  0.7561462E-02  0.1228021E+00
          2   -1    0    0  501    0  0.00000000000E+00  0.00000000000E+00  0.12933170062E+03  0.12933170062E+03  0.00000000000E+00 0. -1.
         -2   -1    0    0    0  501 -0.00000000000E+00 -0.00000000000E+00 -0.15212621623E+03  0.15212621623E+03  0.00000000000E+00 0.  1.
         23    2    1    2    0    0  0.43298891972E+02 -0.66976055044E+02  0.37674058452E+02  0.12124052526E+03  0.83182596070E+02 0.  0.
          5    1    1    2  502    0 -0.84314955876E+02  0.33211013393E+02 -0.56294228147E+02  0.10676373784E+03  0.41800000000E+01 0.  1.
         -5    1    1    2    0  502  0.41016063904E+02  0.33765041651E+02 -0.41743459140E+01  0.53453653754E+02  0.41800000000E+01 0.  1.
        -11    1    3    3    0    0  0.59606623336E+02 -0.16006573037E+02  0.20764466236E+02  0.65117762430E+02  0.00000000000E+00 0.  1.
         11    1    3    3    0    0 -0.16307731364E+02 -0.50969482007E+02  0.16909592216E+02  0.56122762826E+02  0.00000000000E+00 0. -1.
</event>
<event>
 7    1  0.4096326E-006  0.9476244E+02  0.7561462E-02  0.1291712E+00
         -2   -1    0    0    0  501 -0.00000000000E+00  0.00000000000E+00  0.12633514636E+02  0.12633514636E+02  0.00000000000E+00 0.  1.
          2   -1    0    0  501    0  0.00000000000E+00 -0.00000000000E+00 -0.10114496240E+04  0.10114496240E+04  0.00000000000E+00 0. -1.
         23    2    1    2    0    0 -0.30319618137E+02  0.56758892265E+01 -0.42189669927E+03  0.43295213162E+03  0.92191260171E+02 0.  0.
          5    1    1    2  502    0 -0.27270802251E+02  0.20906643164E+02 -0.52575002043E+02  0.62947498947E+02  0.41800000000E+01 0.  1.
         -5    1    1    2    0  502  0.57590420387E+02 -0.26582532390E+02 -0.52434440808E+03  0.52818350810E+03  0.41800000000E+01 0.  1.
        -11    1    3    3    0    0  0.15368644237E+02 -0.29778825224E+02 -0.89618912536E+02  0.95679272267E+02  0.00000000000E+00 0.  1.
         11    1    3    3    0    0 -0.45688262374E+02  0.35454714450E+02 -0.33227778674E+03  0.33727285935E+03  0.00000000000E+00 0. -1.
</event>
<event>
 7    1  0.4096326E-006  0.8984552E+02  0.7561462E-02  0.1303226E+00
         -1   -1    0    0    0  501 -0.00000000000E+00  0.00000000000E+00  0.10054762853E+03  0.10054762853E+03  0.00000000000E+00 0.  1.
          1   -1    0    0  501    0  0.00000000000E+00 -0.00000000000E+00 -0.15302548824E+03  0.15302548824E+03  0.00000000000E+00 0. -1.
         23    2    1    2    0    0  0.46142704928E+02 -0.34255010950E+02 -0.35772663182E+02  0.11490703002E+03  0.92851424990E+02 0.  0.
          5    1    1    2  502    0  0.35278284389E+02  0.72380100437E+01 -0.35504820436E+02  0.50744564369E+02  0.41800000000E+01 0. -1.
         -5    1    1    2    0  502 -0.81420989317E+02  0.27017000906E+02  0.18799623902E+02  0.87921522383E+02  0.41800000000E+01 0. -1.
        -11    1    3    3    0    0  0.94756729917E+01 -0.55497439559E+01  0.31347377514E+02  0.33215148857E+02  0.00000000000E+00 0.  1.
         11    1    3    3    0    0  0.36667031937E+02 -0.28705266994E+02 -0.67120040696E+02  0.81691881159E+02  0.00000000000E+00 0. -1.
</event>
<event>
 7    1  0.4096326E-006  0.1772533E+03  0.7561462E-02  0.1170488E+00
         -2   -1    0    0    0  501 -0.00000000000E+00  0.00000000000E+00  0.50677570680E+02  0.50677570680E+02  0.00000000000E+00 0. -1.
          2   -1    0    0  501    0  0.00000000000E+00 -0.00000000000E+00 -0.72726138394E+03  0.72726138394E+03  0.00000000000E+00 0.  1.
         23    2    1    2    0    0  0.14147227061E+03 -0.67349713947E+02 -0.36036270585E+03  0.40351456567E+03  0.91718796469E+02 0.  0.
          5    1    1    2  502    0 -0.14422419363E+03  0.15340293564E+02 -0.25946259029E+03  0.29727806982E+03  0.41800000000E+01 0. -1.
         -5    1    1    2    0  502  0.27519230182E+01  0.52009420383E+02 -0.56758517123E+02  0.77146319127E+02  0.41800000000E+01 0. -1.
        -11    1    3    3    0    0  0.25409530306E+02 -0.17447011875E+02 -0.18403990966E+03  0.18660313717E+03  0.00000000000E+00 0.  1.
         11    1    3    3    0    0  0.11606274031E+03 -0.49902702072E+02 -0.17632279619E+03  0.21691142851E+03  0.00000000000E+00 0. -1.
</event>
<event>
 7    1  0.4096326E-006  0.1079452E+03  0.7561462E-02  0.1264423E+00
          1   -1    0    0  501    0  0.00000000000E+00  0.00000000000E+00  0.41371157082E+03  0.41371157082E+03  0.00000000000E+00 0. -1.
         -1   -1    0    0    0  501 -0.00000000000E+00 -0.00000000000E+00 -0.63257073673E+02  0.63257073673E+02  0.00000000000E+00 0.  1.
         23    2    1    2    0    0  0.98022177027E+02 -0.20465227285E+02  0.27219471340E+03  0.29864348076E+03  0.71209506959E+02 0.  0.
          5    1    1    2  502    0 -0.24226773899E+02 -0.15378595759E+02 -0.30462971244E+02  0.42058326144E+02  0.41800000000E+01 0.  1.
         -5    1    1    2    0  502 -0.73795403128E+02  0.35843823044E+02  0.10872275499E+03  0.13626683759E+03  0.41800000000E+01 0.  1.
        -11    1    3    3    0    0  0.90181235754E+02 -0.86903832953E+01  0.26939631946E+03  0.28422272073E+03  0.00000000000E+00 0. -1.
         11    1    3    3    0    0  0.78409412722E+01 -0.11774843990E+02  0.27983939385E+01  0.14420760024E+02  0.00000000000E+00 0.  1.
</event>
<event>
 7    1  0.4096326E-006  0.1262228E+03  0.7561462E-02  0.1233170E+00
          1   -1    0    0  501    0  0.00000000000E+00  0.00000000000E+00  0.73813389750E+02  0.73813389750E+02  0.00000000000E+00 0. -1.
         -1   -1    0    0    0  501 -0.00000000000E+00 -0.00000000000E+00 -0.39530816799E+03  0.39530816799E+03  0.00000000000E+00 0.  1.
         23    2    1    2    0    0  0.35237787632E+02 -0.99374733551E+02 -0.47014867810E+02  0.14957725577E+03  0.95110032611E+02 0.  0.
          5    1    1    2  502    0 -0.34036015646E+02 -0.11364535020E+02 -0.14346250475E+03  0.14794108857E+03  0.41800000000E+01 0. -1.
         -5    1    1    2    0  502 -0.12017719861E+01  0.11073926857E+03 -0.13101740568E+03  0.17160321341E+03  0.41800000000E+01 0. -1.
        -11    1    3    3    0    0  0.23297136131E+02 -0.60617119321E+02 -0.75823034391E+02  0.99831479259E+02  0.00000000000E+00 0.  1.
         11    1    3    3    0    0  0.11940651500E+02 -0.38757614229E+02  0.28808166581E+02  0.49745776512E+02  0.00000000000E+00 0. -1.
</event>
<event>
 7    1  0.4096326E-006  0.1089980E+03  0.7561462E-02  0.1262437E+00
         -1   -1    0    0    0  501 -0.00000000000E+00  0.00000000000E+00  0.52541848456E+02  0.52541848456E+02  0.00000000000E+00 0.  1.
          1   -1    0    0  501    0  0.00000000000E+00 -0.00000000000E+00 -0.30020841086E+03  0.30020841086E+03  0.00000000000E+00 0. -1.
         23    2    1    2    0    0  0.10880342414E+00  0.15335775154E+02 -0.14835988134E+03  0.17487998351E+03  0.91308030339E+02 0.  0.
          5    1    1    2  502    0  0.62672893490E+02 -0.42280810518E+02 -0.71008511164E+02  0.10380385144E+03  0.41800000000E+01 0. -1.
         -5    1    1    2    0  502 -0.62781696915E+02  0.26945035365E+02 -0.28298169905E+02  0.74066424365E+02  0.41800000000E+01 0.  1.
        -11    1    3    3    0    0 -0.19160470228E+02 -0.23594056119E+02 -0.13610603404E+02  0.33302426766E+02  0.00000000000E+00 0.  1.
         11    1    3    3    0    0  0.19269273652E+02  0.38929831273E+02 -0.13474927794E+03  0.14157755675E+03  0.00000000000E+00 0. -1.
</event>
<event>
 7    1  0.4096326E-006  0.3534586E+03  0.7561462E-02  0.1061204E+00
         -2   -1    0    0    0  501 -0.00000000000E+00  0.00000000000E+00  0.43356256935E+02  0.43356256935E+02  0.00000000000E+00 0. -1.
          2   -1    0    0  501    0  0.00000000000E+00 -0.00000000000E+00 -0.31182746974E+04  0.31182746974E+04  0.00000000000E+00 0.  1.
         23    2    1    2    0    0 -0.34077856602E+03  0.64102062181E+01 -0.18674703227E+04  0.19007763003E+04  0.96612708792E+02 0.  0.
          5    1    1    2  502    0  0.15626984305E+03  0.42750568427E+02 -0.41035211255E+03  0.44119633229E+03  0.41800000000E+01 0. -1.
         -5    1    1    2    0  502  0.18450872298E+03 -0.49160774645E+02 -0.79709600515E+03  0.81965832176E+03  0.41800000000E+01 0. -1.
        -11    1    3    3    0    0 -0.26683188365E+03 -0.34984265760E+02 -0.13802242105E+04  0.14062154971E+04  0.00000000000E+00 0.  1.
         11    1    3    3    0    0 -0.73946682371E+02  0.41394471978E+02 -0.48724611222E+03  0.49456080316E+03  0.00000000000E+00 0. -1.
</event>
<event>
 7    1  0.4096326E-006  0.9484303E+02  0.7561462E-02  0.1291530E+00
         -2   -1    0    0    0  501 -0.00000000000E+00  0.00000000000E+00  0.11835959042E+03  0.11835959042E+03  0.00000000000E+00 0.  1.
          2   -1    0    0  501    0  0.00000000000E+00 -0.00000000000E+00 -0.10461370561E+03  0.10461370561E+03  0.00000000000E+00 0. -1.
         23    2    1    2    0    0  0.22896186310E+02  0.25782797459E+01  0.10966186290E+02  0.95751890834E+02  0.92289135235E+02 0.  0.
          5    1    1    2  502    0  0.45426599042E+02 -0.16060110078E+02  0.24417484839E+02  0.54177384600E+02  0.41800000000E+01 0. -1.
         -5    1    1    2    0  502 -0.68322785352E+02  0.13481830332E+02 -0.21637786320E+02  0.73044020592E+02  0.41800000000E+01 0. -1.
        -11    1    3    3    0    0  0.89450723807E+01 -0.32551898211E+02  0.36822594721E+02  0.49955418916E+02  0.00000000000E+00 0.  1.
         11    1    3    3    0    0  0.13951113930E+02  0.35130177957E+02 -0.25856408431E+02  0.45796471918E+02  0.00000000000E+00 0. -1.
</event>
<event>
 7    1  0.4096326E-006  0.1440461E+03  0.7561462E-02  0.1207986E+00
         -4   -1    0    0    0  501 -0.00000000000E+00  0.00000000000E+00  0.43779926875E+03  0.43779926875E+03  0.00000000000E+00 0.  1.
          4   -1    0    0  501    0  0.00000000000E+00 -0.00000000000E+00 -0.53181734874E+02  0.53181734874E+02  0.00000000000E+00 0. -1.
         23    2    1    2    0    0 -0.93225898141E+02 -0.49530693981E+02  0.19479555670E+03  0.24033041286E+03  0.93107683391E+02 0.  0.
          5    1    1    2  502    0  0.12042503525E+03  0.38976136901E+02  0.17896264347E+03  0.21924057225E+03  0.41800000000E+01 0.  1.
         -5    1    1    2    0  502 -0.27199137109E+02  0.10554557080E+02  0.10859333714E+02  0.31410018518E+02  0.41800000000E+01 0.  1.
        -11    1    3    3    0    0 -0.37399608370E+02 -0.64159004807E+02  0.66638826918E+02  0.99778965002E+02  0.00000000000E+00 0. -1.
         11    1    3    3    0    0 -0.55826289771E+02  0.14628310826E+02  0.12815672978E+03  0.14055144786E+03  0.00000000000E+00 0.  1.
</event>
<event>
 7    1  0.4096326E-006  0.1949220E+03  0.7561462E-02  0.1154095E+00
          1   -1    0    0  501    0  0.00000000000E+00  0.00000000000E+00  0.52086017809E+03  0.52086017809E+03  0.00000000000E+00 0. -1.
         -1   -1    0    0    0  501 -0.00000000000E+00 -0.00000000000E+00 -0.11638813039E+03  0.11638813039E+03  0.00000000000E+00 0.  1.
         23    2    1    2    0    0  0.10019538384E+02  0.67464218804E+02  0.32691382850E+03  0.34618086545E+03  0.91196098470E+02 0.  0.
          5    1    1    2  502    0  0.29711646253E+02  0.99803238734E+02  0.54348896232E+02  0.11753613617E+03  0.41800000000E+01 0. -1.
         -5    1    1    2    0  502 -0.39731184638E+02 -0.16726745754E+03  0.23209322977E+02  0.17353130685E+03  0.41800000000E+01 0.  1.
        -11    1    3    3    0    0 -0.40426861500E+02  0.36488495934E+02  0.16749702570E+03  0.17612778056E+03  0.00000000000E+00 0.  1.
         11    1    3    3    0    0  0.50446399884E+02  0.30975722871E+02  0.15941680280E+03  0.17005308490E+03  0.00000000000E+00 0. -1.
</event>
<event>
 7    1  0.4096326E-006  0.1078148E+03  0.7561462E-02  0.1264671E+00
          1   -1    0    0  501    0  0.00000000000E+00  0.00000000000E+00  0.27294958620E+03  0.27294958620E+03  0.00000000000E+00 0. -1.
         -1   -1    0    0    0  501 -0.00000000000E+00 -0.00000000000E+00 -0.67402981170E+02  0.67402981170E+02  0.00000000000E+00 0.  1.
         23    2    1    2    0    0 -0.75122086829E+02  0.16302367615E+02  0.12517322921E+03  0.17296989910E+03  0.91329916044E+02 0.  0.
          5    1    1    2  502    0 -0.99933437452E+01  0.58590661826E+01  0.78344785034E+02  0.79306830208E+02  0.41800000000E+01 0.  1.
         -5    1    1    2    0  502  0.85115430574E+02 -0.22161433797E+02  0.20285907859E+01  0.88075838062E+02  0.41800000000E+01 0.  1.
        -11    1    3    3    0    0 -0.50838921138E+02 -0.32787084109E+02  0.87965517819E+02  0.10675917343E+03  0.00000000000E+00 0. -1.
         11    1    3    3    0    0 -0.24283165691E+02  0.49089451724E+02  0.37207711393E+02  0.66210725669E+02  0.00000000000E+00 0.  1.
</event>
<event>
 7    1  0.4096326E-006  0.1951364E+03  0.7561462E-02  0.1153909E+00
         -2   -1    0    0    0  501 -0.00000000000E+00  0.00000000000E+00  0.59736614454E+02  0.59736614454E+02  0.00000000000E+00 0.  1.
          2   -1    0    0  501    0  0.00000000000E+00 -0.00000000000E+00 -0.90470353782E+03  0.90470353782E+03  0.00000000000E+00 0. -1.
         23    2    1    2    0    0 -0.30059529942E+02  0.16519808363E+03 -0.61603743630E+03  0.64489345721E+03  0.90506718268E+02 0.  0.
          5    1    1    2  502    0 -0.40881773131E+02 -0.57937613680E+02 -0.15657013452E+03  0.17192953753E+03  0.41800000000E+01 0. -1.
         -5    1    1    2    0  502  0.70941303073E+02 -0.10726046995E+03 -0.72359352541E+02  0.14761715753E+03  0.41800000000E+01 0.  1.
        -11    1    3    3    0    0 -0.62301661956E+02  0.99587376490E+02 -0.36615868220E+03  0.38454040515E+03  0.00000000000E+00 0.  1.
         11    1    3    3    0    0  0.32242132013E+02  0.65610707141E+02 -0.24987875410E+03  0.26035305206E+03  0.00000000000E+00 0. -1.
</event>
<event>
 7    1  0.4096326E-006  0.1232403E+03  0.7561462E-02  0.1237845E+00
         -1   -1    0    0    0  501 -0.00000000000E+00  0.00000000000E+00  0.39524049727E+03  0.39524049727E+03  0.00000000000E+00 0.  1.
          1   -1    0    0  501    0  0.00000000000E+00 -0.00000000000E+00 -0.74646697891E+02  0.74646697891E+02  0.00000000000E+00 0. -1.
         23    2    1    2    0    0 -0.11585083276E+02  0.10598313973E+03  0.44191913619E+02  0.14831187037E+03  0.93149587236E+02 0.  0.
          5    1    1    2  502    0  0.12098491162E+02  0.12502934262E+02 -0.29225660117E+01  0.18130379082E+02  0.41800000000E+01 0. -1.
         -5    1    1    2    0  502 -0.51340788567E+00 -0.11848607399E+03  0.27932445178E+03  0.30344494571E+03  0.41800000000E+01 0. -1.
        -11    1    3    3    0    0 -0.15346652821E+02  0.27814772229E+02 -0.27621719055E+02  0.42096801191E+02  0.00000000000E+00 0. -1.
         11    1    3    3    0    0  0.37615695444E+01  0.78168367501E+02  0.71813632674E+02  0.10621506918E+03  0.00000000000E+00 0.  1.
</event>
<event>
 7    1  0.4096326E-006  0.1026714E+03  0.7561462E-02  0.1274777E+00
          2   -1    0    0  501    0  0.00000000000E+00  0.00000000000E+00  0.30032874014E+02  0.30032874014E+02  0.00000000000E+00 0. -1.
         -2   -1    0    0    0  501 -0.00000000000E+00 -0.00000000000E+00 -0.50486474521E+03  0.50486474521E+03  0.00000000000E+00 0.  1.
         23    2    1    2    0    0  0.11919391478E+02 -0.31359846862E+02 -0.96522572197E+02  0.13621901464E+03  0.90074974980E+02 0.  0.
          5    1    1    2  502    0  0.43494484301E+02  0.32490026338E+02 -0.91034389338E+02  0.10607593704E+03  0.41800000000E+01 0. -1.
         -5    1    1    2    0  502 -0.55413875779E+02 -0.11301794761E+01 -0.28727490966E+03  0.29260266755E+03  0.41800000000E+01 0.  1.
        -11    1    3    3    0    0  0.48713698117E+02 -0.29124169913E+01 -0.40580139668E+02  0.63468529938E+02  0.00000000000E+00 0. -1.
         11    1    3    3    0    0 -0.36794306639E+02 -0.28447429871E+02 -0.55942432529E+02  0.72750484703E+02  0.00000000000E+00 0.  1.
</event>
<event>
 7    1  0.4096326E-006  0.1086217E+03  0.7561462E-02  0.1263144E+00
          1   -1    0    0  501    0  0.00000000000E+00  0.00000000000E+00  0.28506250828E+03  0.28506250828E+03  0.00000000000E+00 0. -1.
         -1   -1    0    0    0  501 -0.00000000000E+00 -0.00000000000E+00 -0.46143612539E+02  0.46143612539E+02  0.00000000000E+00 0.  1.
         23    2    1    2    0    0  0.16812347424E+02 -0.40382781987E+02  0.13923816233E+03  0.16538418433E+03  0.77789706715E+02 0.  0.
          5    1    1    2  502    0 -0.80525090605E+01  0.83542907242E+02  0.84183807120E+02  0.11894808125E+03  0.41800000000E+01 0. -1.
         -5    1    1    2    0  502 -0.87598383637E+01 -0.43160125255E+02  0.15496926292E+02  0.46873855236E+02  0.41800000000E+01 0. -1.
        -11    1    3    3    0    0 -0.30151224544E+02 -0.26114413600E+02  0.56031781914E+02  0.68779499297E+02  0.00000000000E+00 0.  1.
         11    1    3    3    0    0  0.46963571968E+02 -0.14268368387E+02  0.83206380418E+02  0.96604685035E+02  0.00000000000E+00 0. -1.
</event>
<event>
 7    1  0.4096326E-006  0.9678601E+02  0.7561462E-02  0.1287203E+00
          2   -1    0    0  501    0  0.00000000000E+00  0.00000000000E+00  0.12416525616E+03  0.12416525616E+03  0.00000000000E+00 0.  1.
         -2   -1    0    0    0  501 -0.00000000000E+00 -0.00000000000E+00 -0.11727263783E+03  0.11727263783E+03  0.00000000000E+00 0. -1.
         23    2    1    2    0    0  0.12740417002E+02 -0.79285379037E+01  0.54842186830E+02  0.10663451354E+03  0.90211274701E+02 0.  0.
          5    1    1    2  502    0 -0.60235496332E+02  0.36322005272E+02 -0.25332813734E+02  0.74878748233E+02  0.41800000000E+01 0. -1.
         -5    1    1    2    0  502  0.47495079330E+02 -0.28393467368E+02 -0.22616754768E+02  0.59924632214E+02  0.41800000000E+01 0. -1.
        -11    1    3    3    0    0 -0.23020704309E+02  0.12740842179E+02  0.59509810733E+02  0.65066884510E+02  0.00000000000E+00 0.  1.
         11    1    3    3    0    0  0.35761121311E+02 -0.20669380083E+02 -0.46676239026E+01  0.41567629032E+02  0.00000000000E+00 0. -1.
</event>
<event>
 7    1  0.4096326E-006  0.1116079E+03  0.7561462E-02  0.1257621E+00
         -1   -1    0    0    0  501 -0.00000000000E+00  0.00000000000E+00  0.39817985453E+02  0.39817985453E+02  0.00000000000E+00 0.  1.
          1   -1    0    0  501    0  0.00000000000E+00 -0.00000000000E+00 -0.46658310431E+03  0.46658310431E+03  0.00000000000E+00 0. -1.
         23    2    1    2    0    0 -0.25130440634E+02 -0.76025379688E+02 -0.23496859349E+03  0.26382275012E+03  0.89335357774E+02 0.  0.
          5    1    1    2  502    0  0.12387058076E+02 -0.23263464468E+02 -0.56600609335E+00  0.26691211096E+02  0.41800000000E+01 0.  1.
         -5    1    1    2    0  502  0.12743382558E+02  0.99288844156E+02 -0.19123051928E+03  0.21588712855E+03  0.41800000000E+01 0.  1.
        -11    1    3    3    0    0 -0.80627962704E+00 -0.71614742990E+02 -0.22671845911E+03  0.23776160582E+03  0.00000000000E+00 0. -1.
         11    1    3    3    0    0 -0.24324161007E+02 -0.44106366982E+01 -0.82501343806E+01  0.26061144297E+02  0.00000000000E+00 0.  1.
</event>
<event>
 7    1  0.4096326E-006  0.1280295E+03  0.7561462E-02  0.1230409E+00
         -1   -1    0    0    0  501 -0.00000000000E+00  0.00000000000E+00  0.22936799583E+03  0.22936799583E+03  0.00000000000E+00 0.  1.
          1   -1    0    0  501    0  0.00000000000E+00 -0.00000000000E+00 -0.11860787781E+03  0.11860787781E+03  0.00000000000E+00 0. -1.
         23    2    1    2    0    0  0.86876482357E+02  0.71015495342E+02 -0.10561637761E+02  0.14069307964E+03  0.84215620298E+02 0.  0.
          5    1    1    2  502    0 -0.84680947423E+02 -0.21864975951E+02  0.13040960927E+03  0.15707666478E+03  0.41800000000E+01 0.  1.
         -5    1    1    2    0  502 -0.21955349340E+01 -0.49150519390E+02 -0.90878534878E+01  0.50206129218E+02  0.41800000000E+01 0.  1.
        -11    1    3    3    0    0  0.59302025139E+02  0.22708461095E+02  0.31569011550E+02  0.70915491122E+02  0.00000000000E+00 0.  1.
         11    1    3    3    0    0  0.27574457218E+02  0.48307034247E+02 -0.42130649311E+02  0.69777588522E+02  0.00000000000E+00 0. -1.
</event>
<event>
 7    1  0.4096326E-006  0.1420448E+03  0.7561462E-02  0.1210604E+00
         -1   -1    0    0    0  501 -0.00000000000E+00  0.00000000000E+00  0.35525175923E+02  0.35525175923E+02  0.00000000000E+00 0.  1.
          1   -1    0    0  501    0  0.00000000000E+00 -0.00000000000E+00 -0.66188827240E+03  0.66188827240E+03  0.00000000000E+00 0. -1.
         23    2    1    2    0    0  0.10629993612E+03  0.29610841573E+00 -0.32960999547E+03  0.35828020288E+03  0.91772493472E+02 0.  0.
          5    1    1    2  502    0  0.85860450107E+01  0.38102749955E+02 -0.10690462039E+03  0.11389297600E+03  0.41800000000E+01 0.  1.
         -5    1    1    2    0  502 -0.11488598113E+03 -0.38398858371E+02 -0.18984848061E+03  0.22524026944E+03  0.41800000000E+01 0.  1.
        -11    1    3    3    0    0  0.24862454209E+02 -0.27948449209E+02 -0.19415273087E+03  0.19772339352E+03  0.00000000000E+00 0. -1.
         11    1    3    3    0    0  0.81437481915E+02  0.28244557625E+02 -0.13545726461E+03  0.16055680936E+03  0.00000000000E+00 0.  1.
</event>
<event>
 7    1  0.4096326E-006  0.9730659E+02  0.7561462E-02  0.1286064E+00
          1   -1    0    0  501    0  0.00000000000E+00  0.00000000000E+00  0.66906313093E+02  0.66906313093E+02  0.00000000000E+00 0. -1.
         -1   -1    0    0    0  501 -0.00000000000E+00 -0.00000000000E+00 -0.20870978632E+03  0.20870978632E+03  0.00000000000E+00 0.  1.
         23    2    1    2    0    0 -0.19654301550E+02  0.37648787945E+02 -0.17898893427E+02  0.94498802824E+02  0.82498063893E+02 0.  0.
          5    1    1    2  502    0  0.52667649851E+02  0.11456855705E+02 -0.13398559198E+02  0.55696810250E+02  0.41800000000E+01 0.  1.
         -5    1    1    2    0  502 -0.33013348301E+02 -0.49105643649E+02 -0.11050602060E+03  0.12542048634E+03  0.41800000000E+01 0.  1.
        -11    1    3    3    0    0 -0.11230589974E+02 -0.20018679831E+02 -0.27081413614E+02  0.35500375444E+02  0.00000000000E+00 0.  1.
         11    1    3    3    0    0 -0.84237115759E+01  0.57667467775E+02  0.91825201872E+01  0.58998427380E+02  0.00000000000E+00 0. -1.
</event>
<event>
 7    1  0.4096326E-006  0.1110812E+03  0.7561462E-02  0.1258581E+00
          1   -1    0    0  501    0  0.00000000000E+00  0.00000000000E+00  0.10290901188E+03  0.10290901188E+03  0.00000000000E+00 0. -1.
         -1   -1    0    0    0  501 -0.00000000000E+00 -0.00000000000E+00 -0.12762293128E+03  0.12762293128E+03  0.00000000000E+00 0.  1.
         23    2    1    2    0    0  0.22249184319E+02  0.31766999281E+02  0.78497218047E+01  0.95574678502E+02  0.86998463160E+02 0.  0.
          5    1    1    2  502    0 -0.57528531882E+02 -0.59734170860E+02 -0.33981812372E+02  0.89721452958E+02  0.41800000000E+01 0. -1.
         -5    1    1    2    0  502  0.35279347563E+02  0.27967171579E+02  0.14181711719E+01  0.45235811699E+02  0.41800000000E+01 0. -1.
        -11    1    3    3    0    0 -0.32715216849E+02  0.62239556330E+01  0.10467991284E+02  0.34908478608E+02  0.00000000000E+00 0. -1.
         11    1    3    3    0    0  0.54964401168E+02  0.25543043648E+02 -0.26182694796E+01  0.60666199894E+02  0.00000000000E+00 0.  1.
</event>
<event>
 7    1  0.4096326E-006  0.1177415E+03  0.7561462E-02  0.1246870E+00
          2   -1    0    0  501    0  0.00000000000E+00  0.00000000000E+00  0.89811063734E+03  0.89811063734E+03  0.00000000000E+00 0. -1.
         -2   -1    0    0    0  501 -0.00000000000E+00 -0.00000000000E+00 -0.16435080313E+02  0.16435080313E+02  0.00000000000E+00 0.  1.
         23    2    1    2    0    0 -0.50459054260E+02 -0.98849709622E+01  0.45619579185E+03  0.46808488155E+03  0.91351119459E+02 0.  0.
          5    1    1    2  502    0 -0.19554120574E+02 -0.40823949349E+02  0.10332440213E+03  0.11288207541E+03  0.41800000000E+01 0. -1.
         -5    1    1    2    0  502  0.70013174835E+02  0.50708920312E+02  0.32215536305E+03  0.33357876070E+03  0.41800000000E+01 0. -1.
        -11    1    3    3    0    0 -0.21855741282E+02  0.40223957623E+02  0.23971504269E+03  0.24404700753E+03  0.00000000000E+00 0. -1.
         11    1    3    3    0    0 -0.28603312978E+02 -0.50108928585E+02  0.21648074916E+03  0.22403787402E+03  0.00000000000E+00 0.  1.
</event>
<event>
 7    1  0.4096326E-006  0.9935286E+02  0.7561462E-02  0.1281663E+00
         -1   -1    0    0    0  501 -0.00000000000E+00  0.00000000000E+00  0.87396926100E+02  0.87396926100E+02  0.00000000000E+00 0.  1.
          1   -1    0    0  501    0  0.00000000000E+00 -0.00000000000E+00 -0.23278242133E+03  0.23278242133E+03  0.00000000000E+00 0. -1.
         23    2    1    2    0    0  0.38209791327E+02 -0.63383462264E+02 -0.12911667713E+03  0.17345218328E+03  0.89090359353E+02 0.  0.
          5    1    1    2  502    0  0.20698391350E+02  0.20592649036E+02 -0.56281896467E+02  0.63542150331E+02  0.41800000000E+01 0. -1.
         -5    1    1    2    0  502 -0.58908182677E+02  0.42790813227E+02  0.40013078370E+02  0.83185013816E+02  0.41800000000E+01 0. -1.
        -11    1    3    3    0    0  0.42643141817E+02 -0.11442686095E+02 -0.12770834263E+02  0.45961579791E+02  0.00000000000E+00 0.  1.
         11    1    3    3    0    0 -0.44333504907E+01 -0.51940776169E+02 -0.11634584287E+03  0.12749060349E+03  0.00000000000E+00 0. -1.
</event>
<event>
 7    1  0.4096326E-006  0.8881579E+02  0.7561462E-02  0.1305745E+00
         -2   -1    0    0    0  501 -0.00000000000E+00  0.00000000000E+00  0.25638309075E+02  0.25638309075E+02  0.00000000000E+00 0.  1.
          2   -1    0    0  501    0  0.00000000000E+00 -0.00000000000E+00 -0.55572212554E+03  0.55572212554E+03  0.00000000000E+00 0. -1.
         23    2    1    2    0    0 -0.24261693798E+02  0.72854209003E+01 -0.33710271460E+03  0.34999275361E+03  0.90636528211E+02 0.  0.
          5    1    1    2  502    0 -0.95290355778E+01 -0.47559794321E+02 -0.23865361804E+02  0.54219594696E+02  0.41800000000E+01 0.  1.
         -5    1    1    2    0  502  0.33790729375E+02  0.40274373421E+02 -0.16911574006E+03  0.17714808631E+03  0.41800000000E+01 0.  1.
        -11    1    3    3    0    0  0.24688609671E+02 -0.61597379685E+01 -0.32942059169E+02  0.41625101581E+02  0.00000000000E+00 0.  1.
         11    1    3    3    0    0 -0.48950303469E+02  0.13445158869E+02 -0.30416065543E+03  0.30836765203E+03  0.00000000000E+00 0. -1.
</event>
<event>
 7    1  0.4096326E-006  0.5932822E+02  0.7561462E-02  0.1400673E+00
         -2   -1    0    0    0  501 -0.00000000000E+00  0.00000000000E+00  0.10054215333E+03  0.10054215333E+03  0.00000000000E+00 0.  1.
          2   -1    0    0  501    0  0.00000000000E+00 -0.00000000000E+00 -0.14012609163E+03  0.14012609163E+03  0.00000000000E+00 0. -1.
         23    2    1    2    0    0  0.21094270846E+02 -0.30754109043E+02 -0.53087440778E+02  0.10943277949E+03  0.88127597114E+02 0.  0.
          5    1    1    2  502    0 -0.83214610384E+01  0.23747630232E+02 -0.55237836656E+02  0.60843139744E+02  0.41800000000E+01 0.  1.
         -5    1    1    2    0  502 -0.12772809808E+02  0.70064788101E+01  0.68741339134E+02  0.70392325730E+02  0.41800000000E+01 0.  1.
        -11    1    3    3    0    0 -0.27941691543E+01 -0.48282135997E+02 -0.61869929493E+02  0.78529358925E+02  0.00000000000E+00 0.  1.
         11    1    3    3    0    0  0.23888440001E+02  0.17528026955E+02  0.87824887154E+01  0.30903420565E+02  0.00000000000E+00 0. -1.
</event>
<event>
 7    1  0.4096326E-006  0.1489104E+03  0.7561462E-02  0.1201818E+00
          1   -1    0    0  501    0  0.00000000000E+00  0.00000000000E+00  0.19781839729E+03  0.19781839729E+03  0.00000000000E+00 0. -1.
         -1   -1    0    0    0  501 -0.00000000000E+00 -0.00000000000E+00 -0.15962252971E+03  0.15962252971E+03  0.00000000000E+00 0.  1.
         23    2    1    2    0    0 -0.21430595952E+02  0.12966900433E+03  0.69746064401E+02  0.17327720469E+03  0.88809656230E+02 0.  0.
          5    1    1    2  502    0 -0.40275381395E+02 -0.39804454001E+02  0.24118660284E+02  0.61690218663E+02  0.41800000000E+01 0.  1.
         -5    1    1    2    0  502  0.61705977347E+02 -0.89864550325E+02 -0.55668857098E+02  0.12247350365E+03  0.41800000000E+01 0.  1.
        -11    1    3    3    0    0 -0.15350216286E+02  0.11571875844E+03  0.16492203148E+02  0.11789170013E+03  0.00000000000E+00 0.  1.
         11    1    3    3    0    0 -0.60803796654E+01  0.13950245889E+02  0.53253861253E+02  0.55385504562E+02  0.00000000000E+00 0. -1.
</event>
<event>
 7    1  0.4096326E-006  0.1228870E+03  0.7561462E-02  0.1238409E+00
         -2   -1    0    0    0  501 -0.00000000000E+00  0.00000000000E+00  0.14459601538E+03  0.14459601538E+03  0.00000000000E+00 0.  1.
          2   -1    0    0  501    0  0.00000000000E+00 -0.00000000000E+00 -0.19345613395E+03  0.19345613395E+03  0.00000000000E+00 0. -1.
         23    2    1    2    0    0 -0.86734612921E+02  0.67781176028E+02 -0.86852315319E+02  0.16714922086E+03  0.90985473878E+02 0.  0.
          5    1    1    2  502    0  0.44858289580E+02 -0.37583467695E+02  0.83434007547E+02  0.10199749606E+03  0.41800000000E+01 0. -1.
         -5    1    1    2    0  502  0.41876323341E+02 -0.30197708332E+02 -0.45441810806E+02  0.68905432402E+02  0.41800000000E+01 0. -1.
        -11    1    3    3    0    0 -0.25527767186E+02  0.69535812518E+02 -0.73757661296E+02  0.10453271603E+03  0.00000000000E+00 0. -1.
         11    1    3    3    0    0 -0.61206845735E+02 -0.17546364903E+01 -0.13094654023E+02  0.62616504837E+02  0.00000000000E+00 0.  1.
</event>
<event>
 7    1  0.4096326E-006  0.1552959E+03  0.7561462E-02  0.1194112E+00
          2   -1    0    0  501    0  0.00000000000E+00  0.00000000000E+00  0.53165352144E+03  0.53165352144E+03  0.00000000000E+00 0. -1.
         -2   -1    0    0    0  501 -0.00000000000E+00 -0.00000000000E+00 -0.74019262376E+02  0.74019262376E+02  0.00000000000E+00 0.  1.
         23    2    1    2    0    0 -0.10107391648E+03  0.68317867885E+02  0.38940241396E+03  0.41809407881E+03  0.91022805273E+02 0.  0.
          5    1    1    2  502    0  0.12376317192E+02  0.29960486186E+02  0.40867713282E+02  0.52330166717E+02  0.41800000000E+01 0.  1.
         -5    1    1    2    0  502  0.88697599286E+02 -0.98278354071E+02  0.27364131827E+02  0.13524853829E+03  0.41800000000E+01 0.  1.
        -11    1    3    3    0    0 -0.35344909574E+02  0.71384240888E+02  0.27297043462E+03  0.28435511364E+03  0.00000000000E+00 0. -1.
         11    1    3    3    0    0 -0.65729006905E+02 -0.30663730036E+01  0.11643197934E+03  0.13373896517E+03  0.00000000000E+00 0.  1.
</event>
<event>
 7    1  0.4096326E-006  0.1371412E+03  0.7561462E-02  0.1217228E+00
         -1   -1    0    0    0  501 -0.00000000000E+00  0.00000000000E+00  0.28252981529E+02  0.28252981529E+02  0.00000000000E+00 0.  1.
          1   -1    0    0  501    0  0.00000000000E+00 -0.00000000000E+00 -0.95636019819E+03  0.95636019819E+03  0.00000000000E+00 0. -1.
         23    2    1    2    0    0  0.10549579768E+03  0.59375949566E+02 -0.49505118097E+03  0.51787928710E+03  0.92024005137E+02 0.  0.
          5    1    1    2  502    0 -0.61502069175E+01 -0.11698433780E+02 -0.26723208183E+03  0.26759136076E+03  0.41800000000E+01 0. -1.
         -5    1    1    2    0  502 -0.99345590760E+02 -0.47677515786E+02 -0.16582395386E+03  0.19914253185E+03  0.41800000000E+01 0. -1.
        -11    1    3    3    0    0  0.76785631046E+02 -0.77143865146E+01 -0.29523125267E+03  0.30515084376E+03  0.00000000000E+00 0.  1.
         11    1    3    3    0    0  0.28710166632E+02  0.67090336080E+02 -0.19981992829E+03  0.21272844334E+03  0.00000000000E+00 0. -1.
</event>
<event>
 7    1  0.4294148E-006  0.2839701E+03  0.7561462E-02  0.1093540E+00
          2   -1    0    0  501    0  0.00000000000E+00  0.00000000000E+00  0.25411869241E+04  0.25411869241E+04  0.00000000000E+00 0.  1.
         -2   -1    0    0    0  501 -0.00000000000E+00 -0.00000000000E+00 -0.36751299384E+02  0.36751299384E+02  0.00000000000E+00 0. -1.
         23    2    1    2    0    0  0.11900528386E+03 -0.25562672839E+03  0.14110026146E+04  0.14418262096E+04  0.91799555157E+02 0.  0.
          5    1    1    2  502    0 -0.11315281097E+03  0.20874383361E+03  0.10293313791E+04  0.10563702510E+04  0.41800000000E+01 0. -1.
         -5    1    1    2    0  502 -0.58524728934E+01  0.46882894774E+02  0.64101630995E+02  0.79741762945E+02  0.41800000000E+01 0. -1.
        -11    1    3    3    0    0  0.98269518034E+02 -0.22966954098E+03  0.13442304141E+04  0.13672455531E+04  0.00000000000E+00 0.  1.
         11    1    3    3    0    0  0.20735765830E+02 -0.25957187409E+02  0.66772200560E+02  0.74580656543E+02  0.00000000000E+00 0. -1.
</event>
<event>
 7    1  0.4096326E-006  0.8922692E+02  0.7561462E-02  0.1304735E+00
          2   -1    0    0  501    0  0.00000000000E+00  0.00000000000E+00  0.39398938498E+03  0.39398938498E+03  0.00000000000E+00 0. -1.
         -2   -1    0    0    0  501 -0.00000000000E+00 -0.00000000000E+00 -0.30838769710E+02  0.30838769710E+02  0.00000000000E+00 0.  1.
         23    2    1    2    0    0 -0.14444500800E+02  0.15068042649E+02  0.15657860438E+03  0.18243213027E+03  0.91262989721E+02 0.  0.
          5    1    1    2  502    0 -0.30539467790E+02  0.29802784982E+02  0.24213542723E+02  0.49240563937E+02  0.41800000000E+01 0. -1.
         -5    1    1    2    0  502  0.44983968590E+02 -0.44870827631E+02  0.18235846816E+03  0.19315546048E+03  0.41800000000E+01 0. -1.
        -11    1    3    3    0    0  0.15524901039E+01  0.41218817457E+02  0.14313227568E+03  0.14895720687E+03  0.00000000000E+00 0. -1.
         11    1    3    3    0    0 -0.15996990904E+02 -0.26150774808E+02  0.13446328702E+02  0.33474923400E+02  0.00000000000E+00 0.  1.
</event>
<event>
 7    1  0.4096326E-006  0.1487866E+03  0.7561462E-02  0.1201972E+00
         -1   -1    0    0    0  501 -0.00000000000E+00  0.00000000000E+00  0.87545374333E+02  0.87545374333E+02  0.00000000000E+00 0.  1.
          1   -1    0    0  501    0  0.00000000000E+00 -0.00000000000E+00 -0.31265923719E+03  0.31265923719E+03  0.00000000000E+00 0. -1.
         23    2    1    2    0    0 -0.29445004166E+02  0.11695119876E+03 -0.14160868429E+03  0.20742284665E+03  0.91796659432E+02 0.  0.
          5    1    1    2  502    0 -0.61860959432E+01 -0.13211820414E+03 -0.50189133476E+02  0.14152706160E+03  0.41800000000E+01 0. -1.
         -5    1    1    2    0  502  0.35631100109E+02  0.15167005376E+02 -0.33316045090E+02  0.51254703272E+02  0.41800000000E+01 0. -1.
        -11    1    3    3    0    0 -0.38249578166E+02  0.86149521375E+02 -0.42744890456E+02  0.10349828947E+03  0.00000000000E+00 0.  1.
         11    1    3    3    0    0  0.88045740005E+01  0.30801677384E+02 -0.98863793834E+02  0.10392455718E+03  0.00000000000E+00 0. -1.
</event>
<event>
 7    1  0.4096326E-006  0.8884288E+02  0.7561462E-02  0.1305678E+00
          1   -1    0    0  501    0  0.00000000000E+00  0.00000000000E+00  0.67523969763E+02  0.67523969763E+02  0.00000000000E+00 0. -1.
         -1   -1    0    0    0  501 -0.00000000000E+00 -0.00000000000E+00 -0.24589137547E+03  0.24589137547E+03  0.00000000000E+00 0.  1.
         23    2    1    2    0    0 -0.20465008858E+02  0.10664332223E+02  0.12148715389E+02  0.84336656598E+02  0.80203090908E+02 0.  0.
          5    1    1    2  502    0  0.38134109782E+02 -0.53093720715E+02 -0.53741469605E+02  0.84727631051E+02  0.41800000000E+01 0. -1.
         -5    1    1    2    0  502 -0.17669100924E+02  0.42429388492E+02 -0.13677465149E+03  0.14435105759E+03  0.41800000000E+01 0. -1.
        -11    1    3    3    0    0 -0.42702199781E+02  0.96068046302E+01  0.32229856131E+02  0.54355608612E+02  0.00000000000E+00 0. -1.
         11    1    3    3    0    0  0.22237190923E+02  0.10575275928E+01 -0.20081140743E+02  0.29981047985E+02  0.00000000000E+00 0.  1.
</event>
<event>
 7    1  0.4096326E-006  0.7298735E+02  0.7561462E-02  0.1350219E+00
         -1   -1    0    0    0  501 -0.00000000000E+00  0.00000000000E+00  0.54729833543E+02  0.54729833543E+02  0.00000000000E+00 0.  1.
          1   -1    0    0  501    0  0.00000000000E+00 -0.00000000000E+00 -0.25364248975E+03  0.25364248975E+03  0.00000000000E+00 0. -1.
         23    2    1    2    0    0  0.24483409696E+02  0.38651511055E+02 -0.93670263221E+02  0.13861719377E+03  0.91363184819E+02 0.  0.
          5    1    1    2  502    0  0.68275219908E+00 -0.72290348574E+00  0.28290753469E+02  0.28615168563E+02  0.41800000000E+01 0. -1.
         -5    1    1    2    0  502 -0.25166161895E+02 -0.37928607569E+02 -0.13353314645E+03  0.14113996096E+03  0.41800000000E+01 0. -1.
        -11    1    3    3    0    0 -0.30335211858E+02  0.27937474542E+01 -0.93971186927E+01  0.31880024201E+02  0.00000000000E+00 0.  1.
         11    1    3    3    0    0  0.54818621554E+02  0.35857763601E+02 -0.84273144528E+02  0.10673716957E+03  0.00000000000E+00 0. -1.
</event>
<event>
 7    1  0.4096326E-006  0.1938587E+03  0.7561462E-02  0.1155026E+00
         -1   -1    0    0    0  501 -0.00000000000E+00  0.00000000000E+00  0.32231321998E+02  0.32231321998E+02  0.00000000000E+00 0.  1.
          1   -1    0    0  501    0  0.00000000000E+00 -0.00000000000E+00 -0.14332910880E+04  0.14332910880E+04  0.00000000000E+00 0. -1.
         23    2    1    2    0    0 -0.17874889729E+03 -0.49704874775E+01 -0.83486094285E+03  0.85872526809E+03  0.91871748224E+02 0.  0.
          5    1    1    2  502    0  0.52762571669E+02 -0.36183263931E+02 -0.78303356773E+02  0.10120279462E+03  0.41800000000E+01 0.  1.
         -5    1    1    2    0  502  0.12598632562E+03  0.41153751408E+02 -0.48789546635E+03  0.50559434727E+03  0.41800000000E+01 0.  1.
        -11    1    3    3    0    0 -0.10044063830E+03 -0.36100317177E+02 -0.32860341713E+03  0.34550218591E+03  0.00000000000E+00 0. -1.
         11    1    3    3    0    0 -0.78308258989E+02  0.31129829699E+02 -0.50625752573E+03  0.51322308218E+03  0.00000000000E+00 0.  1.
</event>
<event>
 7    1  0.4096326E-006  0.6161152E+02  0.7561462E-02  0.1391191E+00
         -4   -1    0    0    0  501 -0.00000000000E+00  0.00000000000E+00  0.14942074188E+03  0.14942074188E+03  0.00000000000E+00 0. -1.
          4   -1    0    0  501    0  0.00000000000E+00 -0.00000000000E+00 -0.11189598012E+03  0.11189598012E+03  0.00000000000E+00 0.  1.
         23    2    1    2    0    0 -0.36879481981E-01 -0.26071283768E+02 -0.49914586420E+02  0.10648569770E+03  0.90377124758E+02 0.  0.
          5    1    1    2  502    0  0.45447134378E+01  0.17983549614E+02  0.11960103108E+03  0.12110302024E+03  0.41800000000E+01 0. -1.
         -5    1    1    2    0  502 -0.45078339559E+01  0.80877341539E+01 -0.32161682901E+02  0.33728004058E+02  0.41800000000E+01 0. -1.
        -11    1    3    3    0    0  0.27983104330E+02 -0.49937593661E+02 -0.29535268123E+02  0.64413891760E+02  0.00000000000E+00 0.  1.
         11    1    3    3    0    0 -0.28019983812E+02  0.23866309893E+02 -0.20379318298E+02  0.42071805939E+02  0.00000000000E+00 0. -1.
</event>
<event>
 7    1  0.4096326E-006  0.1165943E+03  0.7561462E-02  0.1248823E+00
          4   -1    0    0  501    0  0.00000000000E+00  0.00000000000E+00  0.85941338710E+02  0.85941338710E+02  0.00000000000E+00 0. -1.
         -4   -1    0    0    0  501 -0.00000000000E+00 -0.00000000000E+00 -0.23438838033E+03  0.23438838033E+03  0.00000000000E+00 0.  1.
         23    2    1    2    0    0  0.63416362193E+02 -0.51060314661E+02 -0.16707949659E+02  0.12125484299E+03  0.88288111546E+02 0.  0.
          5    1    1    2  502    0 -0.34040393465E+02  0.78384944668E+02 -0.31757514251E+02  0.91263136311E+02  0.41800000000E+01 0.  1.
         -5    1    1    2    0  502 -0.29375968728E+02 -0.27324630007E+02 -0.99981577710E+02  0.10781173974E+03  0.41800000000E+01 0.  1.
        -11    1    3    3    0    0  0.58609097101E+01 -0.49365296341E+02  0.19317417717E+02  0.53333342036E+02  0.00000000000E+00 0. -1.
         11    1    3    3    0    0  0.57555452483E+02 -0.16950183196E+01 -0.36025367376E+02  0.67921500957E+02  0.00000000000E+00 0.  1.
</event>
<event>
 7    1  0.4096326E-006  0.1427017E+03  0.7561462E-02  0.1209739E+00
          2   -1    0    0  501    0  0.00000000000E+00  0.00000000000E+00  0.29389008993E+03  0.29389008993E+03  0.00000000000E+00 0. -1.
         -2   -1    0    0    0  501 -0.00000000000E+00 -0.00000000000E+00 -0.14334347005E+03  0.14334347005E+03  0.00000000000E+00 0.  1.
         23    2    1    2    0    0 -0.23594721920E+02  0.12800321977E+03  0.19524060532E+03  0.25125972040E+03  0.89838844347E+02 0.  0.
          5    1    1    2  502    0  0.14238662228E+02 -0.44652997751E+02 -0.81638947323E+02  0.94228551035E+02  0.41800000000E+01 0. -1.
         -5    1    1    2    0  502  0.93560596922E+01 -0.83350222015E+02  0.36944961879E+02  0.91745288550E+02  0.41800000000E+01 0. -1.
        -11    1    3    3    0    0 -0.52855703070E+02  0.57850771967E+02  0.71728756709E+02  0.10623300666E+03  0.00000000000E+00 0.  1.
         11    1    3    3    0    0  0.29260981150E+02  0.70152447799E+02  0.12351184862E+03  0.14502671374E+03  0.00000000000E+00 0. -1.
</event>
<event>
 7    1  0.4096326E-006  0.2689843E+03  0.7561462E-02  0.1101862E+00
         -1   -1    0    0    0  501 -0.00000000000E+00  0.00000000000E+00  0.13288914553E+03  0.13288914553E+03  0.00000000000E+00 0.  1.
          1   -1    0    0  501    0  0.00000000000E+00 -0.00000000000E+00 -0.57422878197E+03  0.57422878197E+03  0.00000000000E+00 0. -1.
         23    2    1    2    0    0 -0.21308617862E+03 -0.13873442185E+03 -0.21341834998E+03  0.34347971524E+03  0.88192762443E+02 0.  0.
          5    1    1    2  502    0  0.13552946630E+03  0.18816791285E+02 -0.82785475614E+02  0.15997879623E+03  0.41800000000E+01 0.  1.
         -5    1    1    2    0  502  0.77556712318E+02  0.11991763057E+03 -0.14513581085E+03  0.20365941603E+03  0.41800000000E+01 0.  1.
        -11    1    3    3    0    0 -0.14460140850E+02 -0.26165094599E+02 -0.63962544487E+02  0.70603930103E+02  0.00000000000E+00 0. -1.
         11    1    3    3    0    0 -0.19862603777E+03 -0.11256932726E+03 -0.14945580549E+03  0.27287578514E+03  0.00000000000E+00 0.  1.
</event>
<event>
 7    1  0.4096326E-006  0.1439720E+03  0.7561462E-02  0.1208082E+00
         -4   -1    0    0    0  501 -0.00000000000E+00  0.00000000000E+00  0.65650118444E+02  0.65650118444E+02  0.00000000000E+00 0.  1.
          4   -1    0    0  501    0  0.00000000000E+00 -0.00000000000E+00 -0.40284658091E+03  0.40284658091E+03  0.00000000000E+00 0. -1.
         23    2    1    2    0    0  0.70208763664E+02 -0.92174567161E+02 -0.21116706830E+03  0.25646668462E+03  0.88080691759E+02 0.  0.
          5    1    1    2  502    0 -0.90304785875E+02  0.76201819534E+02 -0.44296912897E+02  0.12625910084E+03  0.41800000000E+01 0.  1.
         -5    1    1    2    0  502  0.20096022211E+02  0.15972747627E+02 -0.81732481270E+02  0.85770913893E+02  0.41800000000E+01 0.  1.
        -11    1    3    3    0    0  0.82101039519E+02 -0.42160619715E+02 -0.15439580760E+03  0.17987819198E+03  0.00000000000E+00 0.  1.
         11    1    3    3    0    0 -0.11892275855E+02 -0.50013947446E+02 -0.56771260694E+02  0.76588492641E+02  0.00000000000E+00 0. -1.
</event>
<event>
 7    1  0.4096326E-006  0.1007601E+03  0.7561462E-02  0.1278706E+00
         -1   -1    0    0    0  501 -0.00000000000E+00  0.00000000000E+00  0.16319847388E+02  0.16319847388E+02  0.00000000000E+00 0.  1.
          1   -1    0    0  501    0  0.00000000000E+00 -0.00000000000E+00 -0.70012779205E+03  0.70012779205E+03  0.00000000000E+00 0. -1.
         23    2    1    2    0    0  0.57558129401E+01  0.31599102007E+01 -0.36002067442E+03  0.37140588475E+03  0.91018299271E+02 0.  0.
          5    1    1    2  502    0 -0.47773049386E+02  0.30856951028E+02 -0.22748823518E+03  0.23452672602E+03  0.41800000000E+01 0. -1.
         -5    1    1    2    0  502  0.42017236446E+02 -0.34016861229E+02 -0.96299035055E+02  0.11051502866E+03  0.41800000000E+01 0.  1.
        -11    1    3    3    0    0  0.43268438743E+02  0.21726236843E+02 -0.16571013692E+03  0.17263845643E+03  0.00000000000E+00 0.  1.
         11    1    3    3    0    0 -0.37512625803E+02 -0.18566326642E+02 -0.19431053750E+03  0.19876742833E+03  0.00000000000E+00 0. -1.
</event>
<event>
 7    1  0.4096326E-006  0.1008108E+03  0.7561462E-02  0.1278600E+00
         -3   -1    0    0    0  501 -0.00000000000E+00  0.00000000000E+00  0.94660058640E+02  0.94660058640E+02  0.00000000000E+00 0.  1.
          3   -1    0    0  501    0  0.00000000000E+00 -0.00000000000E+00 -0.13095357024E+03  0.13095357024E+03  0.00000000000E+00 0. -1.
         23    2    1    2    0    0 -0.23840266420E+01 -0.23508213127E+02 -0.28029835650E+02  0.98046736440E+02  0.90934983216E+02 0.  0.
          5    1    1    2  502    0 -0.47986311095E+02 -0.69506775718E+01 -0.37756437651E+02  0.61595608247E+02  0.41800000000E+01 0. -1.
         -5    1    1    2    0  502  0.50370337737E+02  0.30458890699E+02  0.29492761696E+02  0.65971284198E+02  0.41800000000E+01 0. -1.
        -11    1    3    3    0    0  0.48164380881E+00  0.35180783104E+02 -0.11248640921E+02  0.36938481332E+02  0.00000000000E+00 0.  1.
         11    1    3    3    0    0 -0.28656704508E+01 -0.58688996231E+02 -0.16781194728E+02  0.61108255107E+02  0.00000000000E+00 0. -1.
</event>
<event>
 6    1  0.4096326E-006  0.8129545E+02  0.7561462E-02  0.1325415E+00
          2   -1    0    0  501    0  0.00000000000E+00  0.00000000000E+00  0.14212073856E+03  0.14212073856E+03  0.00000000000E+00 0. -1.
         -2   -1    0    0    0  501 -0.00000000000E+00 -0.00000000000E+00 -0.97019411756E+02  0.97019411756E+02  0.00000000000E+00 0.  1.
          5    1    1    2  502    0  0.15920663651E+02  0.69899925917E+02 -0.28331342729E+02  0.77198475082E+02  0.41800000000E+01 0. -1.
         -5    1    1    2    0  502 -0.23036042725E+02 -0.54477360612E+02 -0.20536203747E+02  0.62750698387E+02  0.41800000000E+01 0.  1.
        -11    1    1    2    0    0 -0.57078387631E+01 -0.17577395833E+02  0.48589908821E+02  0.51985801012E+02  0.00000000000E+00 0.  1.
         11    1    1    2    0    0  0.12823217837E+02  0.21548305290E+01  0.45378964463E+02  0.47205175839E+02  0.00000000000E+00 0. -1.
</event>
<event>
 7    1  0.4096326E-006  0.1078878E+03  0.7561462E-02  0.1264532E+00
         -1   -1    0    0    0  501 -0.00000000000E+00  0.00000000000E+00  0.75778208108E+02  0.75778208108E+02  0.00000000000E+00 0.  1.
          1   -1    0    0  501    0  0.00000000000E+00 -0.00000000000E+00 -0.21705196334E+03  0.21705196334E+03  0.00000000000E+00 0. -1.
         23    2    1    2    0    0 -0.45996014932E+01  0.63783454720E+02 -0.35296910706E+02  0.11685534269E+03  0.91213013221E+02 0.  0.
          5    1    1    2  502    0 -0.54883127722E+02 -0.58163403772E+02 -0.68005634446E+02  0.10505892615E+03  0.41800000000E+01 0.  1.
         -5    1    1    2    0  502  0.59482729215E+02 -0.56200509476E+01 -0.37971210079E+02  0.70915902606E+02  0.41800000000E+01 0.  1.
        -11    1    3    3    0    0  0.16092412078E+02  0.45243953644E+02  0.22271220369E+02  0.52933810788E+02  0.00000000000E+00 0.  1.
         11    1    3    3    0    0 -0.20692013571E+02  0.18539501076E+02 -0.57568131075E+02  0.63921531906E+02  0.00000000000E+00 0. -1.
</event>
<event>
 7    1  0.4096326E-006  0.1537589E+03  0.7561462E-02  0.1195929E+00
         -1   -1    0    0    0  501 -0.00000000000E+00  0.00000000000E+00  0.16160089122E+03  0.16160089122E+03  0.00000000000E+00 0.  1.
          1   -1    0    0  501    0  0.00000000000E+00 -0.00000000000E+00 -0.16467153371E+03  0.16467153371E+03  0.00000000000E+00 0. -1.
         23    2    1    2    0    0  0.60730602568E+02 -0.98485818763E+02  0.37753378762E+02  0.15104287977E+03  0.89448148866E+02 0.  0.
          5    1    1    2  502    0 -0.92324861140E+02  0.55460564739E+02 -0.53315573274E+02  0.12024881280E+03  0.41800000000E+01 0.  1.
         -5    1    1    2    0  502  0.31594258572E+02  0.43025254024E+02  0.12491552028E+02  0.54980732358E+02  0.41800000000E+01 0.  1.
        -11    1    3    3    0    0  0.73794365451E+02 -0.35543834066E+02  0.23240309987E+02  0.85141555781E+02  0.00000000000E+00 0. -1.
         11    1    3    3    0    0 -0.13063762883E+02 -0.62941984698E+02  0.14513068775E+02  0.65901323990E+02  0.00000000000E+00 0.  1.
</event>
<event>
 7    1  0.4096326E-006  0.1276480E+03  0.7561462E-02  0.1230988E+00
         -1   -1    0    0    0  501 -0.00000000000E+00  0.00000000000E+00  0.22193871775E+03  0.22193871775E+03  0.00000000000E+00 0.  1.
          1   -1    0    0  501    0  0.00000000000E+00 -0.00000000000E+00 -0.15596980246E+03  0.15596980246E+03  0.00000000000E+00 0. -1.
         23    2    1    2    0    0 -0.37941367885E+02  0.72256501167E+02 -0.97568739897E+02  0.15643004226E+03  0.91050259522E+02 0.  0.
          5    1    1    2  502    0 -0.30723569906E+02  0.42139220039E+01  0.89308976641E+02  0.94632238667E+02  0.41800000000E+01 0.  1.
         -5    1    1    2    0  502  0.68664937791E+02 -0.76470423171E+02  0.74228678550E+02  0.12684623929E+03  0.41800000000E+01 0.  1.
        -11    1    3    3    0    0 -0.66075795085E+02  0.35979454722E+02 -0.70669146406E+02  0.10322141305E+03  0.00000000000E+00 0.  1.
         11    1    3    3    0    0  0.28134427200E+02  0.36277046445E+02 -0.26899593491E+02  0.53208629212E+02  0.00000000000E+00 0. -1.
</event>
<event>
 7    1  0.4096326E-006  0.1020305E+03  0.7561462E-02  0.1276083E+00
          1   -1    0    0  501    0  0.00000000000E+00  0.00000000000E+00  0.94001512583E+02  0.94001512583E+02  0.00000000000E+00 0. -1.
         -1   -1    0    0    0  501 -0.00000000000E+00 -0.00000000000E+00 -0.15054484173E+03  0.15054484173E+03  0.00000000000E+00 0.  1.
         23    2    1    2    0    0  0.86812210503E+01  0.17142000979E+02  0.21394450246E+02  0.95915230066E+02  0.91502989354E+02 0.  0.
          5    1    1    2  502    0  0.12399439759E+02  0.46267150888E+02 -0.30503062909E+01  0.48178544250E+02  0.41800000000E+01 0.  1.
         -5    1    1    2    0  502 -0.21080660809E+02 -0.63409151867E+02 -0.74887473101E+02  0.10045258000E+03  0.41800000000E+01 0.  1.
        -11    1    3    3    0    0 -0.29031783689E+02 -0.20657847998E+02 -0.56248834951E+01  0.36072572162E+02  0.00000000000E+00 0. -1.
         11    1    3    3    0    0  0.37713004739E+02  0.37799848977E+02  0.27019333741E+02  0.59842657904E+02  0.00000000000E+00 0.  1.
</event>
<event>
 7    1  0.4096326E-006  0.9844600E+02  0.7561462E-02  0.1283598E+00
         -1   -1    0    0    0  501 -0.00000000000E+00  0.00000000000E+00  0.75103852679E+02  0.75103852679E+02  0.00000000000E+00 0.  1.
          1   -1    0    0  501    0  0.00000000000E+00 -0.00000000000E+00 -0.29611475309E+03  0.29611475309E+03  0.00000000000E+00 0. -1.
         23    2    1    2    0    0  0.56881206045E+01 -0.24524424055E+02 -0.21117878017E+03  0.22827025797E+03  0.82927868571E+02 0.  0.
          5    1    1    2  502    0  0.50639870182E+02  0.56666630537E+01 -0.49687338854E+02  0.71293839598E+02  0.41800000000E+01 0. -1.
         -5    1    1    2    0  502 -0.56327990787E+02  0.18857761001E+02  0.39855218611E+02  0.71654508209E+02  0.41800000000E+01 0.  1.
        -11    1    3    3    0    0 -0.30499776332E+02 -0.36989848420E+02 -0.12882360584E+03  0.13745547157E+03  0.00000000000E+00 0.  1.
         11    1    3    3    0    0  0.36187896936E+02  0.12465424365E+02 -0.82355174332E+02  0.90814786398E+02  0.00000000000E+00 0. -1.
</event>
<event>
 7    1  0.4096326E-006  0.1360875E+03  0.7561462E-02  0.1218693E+00
          2   -1    0    0  501    0  0.00000000000E+00  0.00000000000E+00  0.59041503393E+03  0.59041503393E+03  0.00000000000E+00 0. -1.
         -2   -1    0    0    0  501 -0.00000000000E+00 -0.00000000000E+00 -0.46660053140E+02  0.46660053140E+02  0.00000000000E+00 0.  1.
         23    2    1    2    0    0 -0.12477208731E+03  0.13985173348E+02  0.27239630565E+03  0.31296701425E+03  0.89358524119E+02 0.  0.
          5    1    1    2  502    0  0.22757911829E+02  0.21197491303E+02 -0.71224062226E+00  0.31388467231E+02  0.41800000000E+01 0. -1.
         -5    1    1    2    0  502  0.10201417548E+03 -0.35182664652E+02  0.27207091576E+03  0.29271960558E+03  0.41800000000E+01 0. -1.
        -11    1    3    3    0    0 -0.34067347711E+02 -0.15498052162E+02  0.16562129171E+03  0.16979748546E+03  0.00000000000E+00 0. -1.
         11    1    3    3    0    0 -0.90704739601E+02  0.29483225510E+02  0.10677501394E+03  0.14316952879E+03  0.00000000000E+00 0.  1.
</event>
<event>
 7    1  0.4096326E-006  0.1110309E+03  0.7561462E-02  0.1258673E+00
          1   -1    0    0  501    0  0.00000000000E+00  0.00000000000E+00  0.36720544612E+03  0.36720544612E+03  0.00000000000E+00 0. -1.
         -1   -1    0    0    0  501 -0.00000000000E+00 -0.00000000000E+00 -0.46134420403E+02  0.46134420403E+02  0.00000000000E+00 0.  1.
         23    2    1    2    0    0  0.57861841714E+02 -0.25139770658E+02  0.18258150816E+03  0.21634391386E+03  0.97409861644E+02 0.  0.
          5    1    1    2  502    0 -0.59656796956E+01  0.56985299275E+02  0.15197621018E+02  0.59425194591E+02  0.41800000000E+01 0. -1.
         -5    1    1    2    0  502 -0.51896162019E+02 -0.31845528617E+02  0.12329189654E+03  0.13757075807E+03  0.41800000000E+01 0. -1.
        -11    1    3    3    0    0 -0.20030175652E+02  0.39844351488E+01  0.88288552863E+02  0.90619822483E+02  0.00000000000E+00 0. -1.
         11    1    3    3    0    0  0.77892017366E+02 -0.29124205807E+02  0.94292955300E+02  0.12572409138E+03  0.00000000000E+00 0.  1.
</event>
<event>
 7    1  0.4096326E-006  0.1116533E+03  0.7561462E-02  0.1257538E+00
         -1   -1    0    0    0  501 -0.00000000000E+00  0.00000000000E+00  0.27158818529E+02  0.27158818529E+02  0.00000000000E+00 0.  1.
          1   -1    0    0  501    0  0.00000000000E+00 -0.00000000000E+00 -0.55798944598E+03  0.55798944598E+03  0.00000000000E+00 0. -1.
         23    2    1    2    0    0 -0.30028396462E+02 -0.23958793296E+02 -0.33655259296E+03  0.35091113789E+03  0.91625599575E+02 0.  0.
          5    1    1    2  502    0 -0.47241354218E+02  0.61753136559E+01 -0.10093244841E+03  0.11169024841E+03  0.41800000000E+01 0.  1.
         -5    1    1    2    0  502  0.77269750680E+02  0.17783479640E+02 -0.93345586077E+02  0.12254687821E+03  0.41800000000E+01 0.  1.
        -11    1    3    3    0    0 -0.58264543740E+02  0.11781314584E+01 -0.15810780478E+03  0.16850585445E+03  0.00000000000E+00 0.  1.
         11    1    3    3    0    0  0.28236147278E+02 -0.25136924754E+02 -0.17844478818E+03  0.18240528344E+03  0.00000000000E+00 0. -1.
</event>
<event>
 7    1  0.4096326E-006  0.2403577E+03  0.7561462E-02  0.1119555E+00
         -1   -1    0    0    0  501 -0.00000000000E+00  0.00000000000E+00  0.28791399256E+03  0.28791399256E+03  0.00000000000E+00 0.  1.
          1   -1    0    0  501    0  0.00000000000E+00 -0.00000000000E+00 -0.21844048133E+03  0.21844048133E+03  0.00000000000E+00 0. -1.
         23    2    1    2    0    0  0.20044267625E+03  0.96514567120E+02  0.38303420489E+00  0.24194391541E+03  0.95101962976E+02 0.  0.
          5    1    1    2  502    0 -0.45075083708E+02 -0.83712478747E+02  0.35119039405E+01  0.95233125217E+02  0.41800000000E+01 0. -1.
         -5    1    1    2    0  502 -0.15536759254E+03 -0.12802088373E+02  0.65578573082E+02  0.16917743326E+03  0.41800000000E+01 0. -1.
        -11    1    3    3    0    0  0.16547204863E+03  0.52960001384E+02  0.33596069192E+02  0.17695891187E+03  0.00000000000E+00 0.  1.
         11    1    3    3    0    0  0.34970627616E+02  0.43554565736E+02 -0.33213034987E+02  0.64985003542E+02  0.00000000000E+00 0. -1.
</event>
<event>
 7    1  0.4096326E-006  0.7809664E+02  0.7561462E-02  0.1334541E+00
         -2   -1    0    0    0  501 -0.00000000000E+00  0.00000000000E+00  0.43697272695E+02  0.43697272695E+02  0.00000000000E+00 0. -1.
          2   -1    0    0  501    0  0.00000000000E+00 -0.00000000000E+00 -0.30000853609E+03  0.30000853609E+03  0.00000000000E+00 0.  1.
         23    2    1    2    0    0  0.26264027861E+02 -0.94578654228E+01 -0.14987828384E+03  0.17710402283E+03  0.90128156304E+02 0.  0.
          5    1    1    2  502    0  0.95836185141E+01 -0.35010153867E+02 -0.10293147804E+03  0.10922416486E+03  0.41800000000E+01 0. -1.
         -5    1    1    2    0  502 -0.35847646375E+02  0.44468019289E+02 -0.35015015209E+01  0.57377621100E+02  0.41800000000E+01 0. -1.
        -11    1    3    3    0    0  0.88265907511E+01  0.23497283017E+02 -0.26635921187E+01  0.25241349735E+02  0.00000000000E+00 0. -1.
         11    1    3    3    0    0  0.17437437110E+02 -0.32955148440E+02 -0.14721469172E+03  0.15186267310E+03  0.00000000000E+00 0.  1.
</event>
<event>
 7    1  0.4096326E-006  0.9808272E+02  0.7561462E-02  0.1284380E+00
         -2   -1    0    0    0  501 -0.00000000000E+00  0.00000000000E+00  0.74934059656E+02  0.74934059656E+02  0.00000000000E+00 0. -1.
          2   -1    0    0  501    0  0.00000000000E+00 -0.00000000000E+00 -0.23238993314E+03  0.23238993314E+03  0.00000000000E+00 0.  1.
         23    2    1    2    0    0  0.87031675690E+01  0.41160209952E+02 -0.14275765225E+03  0.17452396469E+03  0.91153491256E+02 0.  0.
          5    1    1    2  502    0  0.42569663343E+02  0.14707118422E+02  0.19814047915E+02  0.49381620713E+02  0.41800000000E+01 0. -1.
         -5    1    1    2    0  502 -0.51272830912E+02 -0.55867328374E+02 -0.34512269148E+02  0.83418407388E+02  0.41800000000E+01 0. -1.
        -11    1    3    3    0    0  0.20301369175E+02 -0.99293377199E+01 -0.15250902440E+00  0.22600013206E+02  0.00000000000E+00 0. -1.
         11    1    3    3    0    0 -0.11598201606E+02  0.51089547672E+02 -0.14260514322E+03  0.15192395149E+03  0.00000000000E+00 0.  1.
</event>
<event>
 7    1  0.4096326E-006  0.1570070E+03  0.7561462E-02  0.1192118E+00
          1   -1    0    0  501    0  0.00000000000E+00  0.00000000000E+00  0.29460778714E+03  0.29460778714E+03  0.00000000000E+00 0. -1.
         -1   -1    0    0    0  501 -0.00000000000E+00 -0.00000000000E+00 -0.11462798723E+03  0.11462798723E+03  0.00000000000E+00 0.  1.
         23    2    1    2    0    0  0.12941472603E+03  0.70588040186E+02  0.10020717084E+03  0.20009041288E+03  0.90905739692E+02 0.  0.
          5    1    1    2  502    0 -0.72496780986E+02 -0.38825617154E+02  0.10981006711E+03  0.13725500005E+03  0.41800000000E+01 0. -1.
         -5    1    1    2    0  502 -0.56917945041E+02 -0.31762423033E+02 -0.30037438028E+02  0.71890361440E+02  0.41800000000E+01 0. -1.
        -11    1    3    3    0    0  0.42714142088E+02 -0.14272598292E+02  0.53889733877E+02  0.70230395226E+02  0.00000000000E+00 0. -1.
         11    1    3    3    0    0  0.86700583939E+02  0.84860638478E+02  0.46317436962E+02  0.12986001765E+03  0.00000000000E+00 0.  1.
</event>
<event>
 7    1  0.4096326E-006  0.1643034E+03  0.7561462E-02  0.1183922E+00
          4   -1    0    0  501    0  0.00000000000E+00  0.00000000000E+00  0.44369564080E+02  0.44369564080E+02  0.00000000000E+00 0.  1.
         -4   -1    0    0    0  501 -0.00000000000E+00 -0.00000000000E+00 -0.68724584064E+03  0.68724584064E+03  0.00000000000E+00 0. -1.
         23    2    1    2    0    0 -0.13676580336E+03  0.24399070114E+01 -0.28888159710E+03  0.33203065924E+03  0.89894067742E+02 0.  0.
          5    1    1    2  502    0  0.10343309302E+03  0.44386839890E+02 -0.14983911556E+03  0.18745087154E+03  0.41800000000E+01 0. -1.
         -5    1    1    2    0  502  0.33332710340E+02 -0.46826746901E+02 -0.20415556390E+03  0.21213387394E+03  0.41800000000E+01 0. -1.
        -11    1    3    3    0    0  0.70750522599E+01  0.12273901841E+02 -0.79066988274E+01  0.16224084481E+02  0.00000000000E+00 0.  1.
         11    1    3    3    0    0 -0.14384085562E+03 -0.98339948299E+01 -0.28097489827E+03  0.31580657476E+03  0.00000000000E+00 0. -1.
</event>
<event>
 7    1  0.4096326E-006  0.1336832E+03  0.7561462E-02  0.1222091E+00
         -2   -1    0    0    0  501 -0.00000000000E+00  0.00000000000E+00  0.68320724320E+02  0.68320724320E+02  0.00000000000E+00 0.  1.
          2   -1    0    0  501    0  0.00000000000E+00 -0.00000000000E+00 -0.49767081491E+03  0.49767081491E+03  0.00000000000E+00 0. -1.
         23    2    1    2    0    0 -0.97972155838E+02 -0.73668899024E+02 -0.33182635149E+03  0.36553182252E+03  0.92082222651E+02 0.  0.
          5    1    1    2  502    0  0.56636177153E+02  0.36244431259E+02  0.20029467195E+02  0.70284901052E+02  0.41800000000E+01 0. -1.
         -5    1    1    2    0  502  0.41335978685E+02  0.37424467766E+02 -0.11755320630E+03  0.13017481566E+03  0.41800000000E+01 0. -1.
        -11    1    3    3    0    0 -0.83322023605E+02 -0.16341924189E+02 -0.13050748666E+03  0.15569785541E+03  0.00000000000E+00 0.  1.
         11    1    3    3    0    0 -0.14650132233E+02 -0.57326974835E+02 -0.20131886483E+03  0.20983396711E+03  0.00000000000E+00 0. -1.
</event>
<event>
 7    1  0.4096326E-006  0.1337666E+03  0.7561462E-02  0.1221971E+00
          1   -1    0    0  501    0  0.00000000000E+00  0.00000000000E+00  0.40502131489E+03  0.40502131489E+03  0.00000000000E+00 0. -1.
         -1   -1    0    0    0  501 -0.00000000000E+00 -0.00000000000E+00 -0.56411074495E+02  0.56411074495E+02  0.00000000000E+00 0.  1.
         23    2    1    2    0    0 -0.78552889898E+02  0.13033898750E+02  0.26430617218E+03  0.29086079961E+03  0.91661404482E+02 0.  0.
          5    1    1    2  502    0 -0.12295114523E+02 -0.47748134730E+02  0.39959887521E+02  0.63602824010E+02  0.41800000000E+01 0.  1.
         -5    1    1    2    0  502  0.90848004422E+02  0.34714235979E+02  0.44344180693E+02  0.10696876576E+03  0.41800000000E+01 0.  1.
        -11    1    3    3    0    0 -0.74430064960E+02  0.45990598297E+02  0.17682348422E+03  0.19728536254E+03  0.00000000000E+00 0. -1.
         11    1    3    3    0    0 -0.41228249382E+01 -0.32956699547E+02  0.87482687956E+02  0.93575437068E+02  0.00000000000E+00 0.  1.
</event>
<event>
 7    1  0.4096326E-006  0.1021372E+03  0.7561462E-02  0.1275865E+00
          2   -1    0    0  501    0  0.00000000000E+00  0.00000000000E+00  0.47893710995E+03  0.47893710995E+03  0.00000000000E+00 0. -1.
         -2   -1    0    0    0  501 -0.00000000000E+00 -0.00000000000E+00 -0.32593607676E+02  0.32593607676E+02  0.00000000000E+00 0.  1.
         23    2    1    2    0    0  0.13787928984E+01  0.41627317124E+02  0.30004154415E+03  0.31458785061E+03  0.84887295492E+02 0.  0.
          5    1    1    2  502    0 -0.28119965446E+02 -0.68224875092E+02  0.39935377749E+02  0.84009956755E+02  0.41800000000E+01 0. -1.
         -5    1    1    2    0  502  0.26741172547E+02  0.26597557968E+02  0.10636658037E+03  0.11293291026E+03  0.41800000000E+01 0. -1.
        -11    1    3    3    0    0 -0.26935321290E+02 -0.13733819069E+02  0.13178804415E+03  0.13521175208E+03  0.00000000000E+00 0. -1.
         11    1    3    3    0    0  0.28314114189E+02  0.55361136193E+02  0.16825350000E+03  0.17937609853E+03  0.00000000000E+00 0.  1.
</event>
<event>
 7    1  0.4096326E-006  0.1015917E+03  0.7561462E-02  0.1276984E+00
          2   -1    0    0  501    0  0.00000000000E+00  0.00000000000E+00  0.50826075886E+03  0.50826075886E+03  0.00000000000E+00 0.  1.
         -2   -1    0    0    0  501 -0.00000000000E+00 -0.00000000000E+00 -0.26908029936E+02  0.26908029936E+02  0.00000000000E+00 0. -1.
         23    2    1    2    0    0  0.29468836856E+02 -0.36079199407E+02  0.22778745119E+03  0.24861823642E+03  0.88055571010E+02 0.  0.
          5    1    1    2  502    0  0.24815917226E+02  0.51983353245E+02  0.53948833840E+02  0.79031941866E+02  0.41800000000E+01 0.  1.
         -5    1    1    2    0  502 -0.54284754082E+02 -0.15904153838E+02  0.19961644389E+03  0.20751861051E+03  0.41800000000E+01 0.  1.
        -11    1    3    3    0    0 -0.20230693398E+02  0.85010462180E+01  0.17747804628E+02  0.28222921736E+02  0.00000000000E+00 0. -1.
         11    1    3    3    0    0  0.49699530254E+02 -0.44580245625E+02  0.21003964656E+03  0.22039531468E+03  0.00000000000E+00 0.  1.
</event>
<event>
 7    1  0.4096326E-006  0.1361412E+03  0.7561462E-02  0.1218618E+00
         -1   -1    0    0    0  501 -0.00000000000E+00  0.00000000000E+00  0.89075397002E+03  0.89075397002E+03  0.00000000000E+00 0.  1.
          1   -1    0    0  501    0  0.00000000000E+00 -0.00000000000E+00 -0.28898726445E+02  0.28898726445E+02  0.00000000000E+00 0. -1.
         23    2    1    2    0    0  0.11701709566E+03  0.24609596085E+01  0.37815112953E+03  0.40650686346E+03  0.92468893549E+02 0.  0.
          5    1    1    2  502    0 -0.22242952466E+02  0.36196958402E+02  0.29816207116E+03  0.30120269224E+03  0.41800000000E+01 0.  1.
         -5    1    1    2    0  502 -0.94774143191E+02 -0.38657918011E+02  0.18554204288E+03  0.21194314077E+03  0.41800000000E+01 0.  1.
        -11    1    3    3    0    0  0.86799970286E+02  0.23984672468E+02  0.34563885498E+03  0.35717743130E+03  0.00000000000E+00 0.  1.
         11    1    3    3    0    0  0.30217125371E+02 -0.21523712860E+02  0.32512274553E+02  0.49329432163E+02  0.00000000000E+00 0. -1.
</event>
<event>
 6    1  0.5150525E-006  0.1849760E+03  0.7561462E-02  0.1163072E+00
          2   -1    0    0  501    0  0.00000000000E+00  0.00000000000E+00  0.26616478619E+03  0.26616478619E+03  0.00000000000E+00 0. -1.
         -2   -1    0    0    0  501 -0.00000000000E+00 -0.00000000000E+00 -0.14388208126E+03  0.14388208126E+03  0.00000000000E+00 0.  1.
          5    1    1    2  502    0 -0.64196180856E+02 -0.51615816980E+02 -0.51575532764E+01  0.82640274412E+02  0.41800000000E+01 0.  1.
         -5    1    1    2    0  502 -0.73016208813E+02  0.73844898239E+02  0.10145644822E+02  0.10442625271E+03  0.41800000000E+01 0.  1.
        -11    1    1    2    0    0  0.99817613470E+01  0.40482012253E+02  0.48575987201E+01  0.41976483190E+02  0.00000000000E+00 0. -1.
         11    1    1    2    0    0  0.12723062832E+03 -0.62711093512E+02  0.11243701467E+03  0.18100385714E+03  0.00000000000E+00 0.  1.
</event>
<event>
 7    1  0.4096326E-006  0.1222708E+03  0.7561462E-02  0.1239397E+00
          2   -1    0    0  501    0  0.00000000000E+00  0.00000000000E+00  0.47774836486E+02  0.47774836486E+02  0.00000000000E+00 0. -1.
         -2   -1    0    0    0  501 -0.00000000000E+00 -0.00000000000E+00 -0.33294105624E+03  0.33294105624E+03  0.00000000000E+00 0.  1.
         23    2    1    2    0    0  0.49761788518E+02 -0.31804113894E+02 -0.87804524967E+02  0.13970385857E+03  0.91212917055E+02 0.  0.
          5    1    1    2  502    0  0.89110410668E+00  0.72627990942E+02 -0.11304341734E+03  0.13443178842E+03  0.41800000000E+01 0. -1.
         -5    1    1    2    0  502 -0.50652892625E+02 -0.40823877048E+02 -0.84318277445E+02  0.10658024573E+03  0.41800000000E+01 0. -1.
        -11    1    3    3    0    0  0.19391879018E+02  0.31154634988E+02 -0.43646088232E+02  0.57023129263E+02  0.00000000000E+00 0.  1.
         11    1    3    3    0    0  0.30369909500E+02 -0.62958748882E+02 -0.44158436736E+02  0.82680729308E+02  0.00000000000E+00 0. -1.
</event>
<event>
 7    1  0.4096326E-006  0.1410762E+03  0.7561462E-02  0.1211888E+00
         -2   -1    0    0    0  501 -0.00000000000E+00  0.00000000000E+00  0.56343294615E+02  0.56343294615E+02  0.00000000000E+00 0.  1.
          2   -1    0    0  501    0  0.00000000000E+00 -0.00000000000E+00 -0.40399844245E+03  0.40399844245E+03  0.00000000000E+00 0. -1.
         23    2    1    2    0    0 -0.10357258642E+03 -0.15729438442E+02 -0.17014270948E+03  0.21923661711E+03  0.90230021623E+02 0.  0.
          5    1    1    2  502    0 -0.65314829698E+01 -0.31758253871E+02 -0.80249407018E+02  0.86652678467E+02  0.41800000000E+01 0.  1.
         -5    1    1    2    0  502  0.11010406939E+03  0.47487692312E+02 -0.97263031338E+02  0.15445244149E+03  0.41800000000E+01 0.  1.
        -11    1    3    3    0    0 -0.72815106506E+02  0.26281866716E+02 -0.61884722386E+02  0.99108501746E+02  0.00000000000E+00 0. -1.
         11    1    3    3    0    0 -0.30757479911E+02 -0.42011305158E+02 -0.10825798709E+03  0.12012811536E+03  0.00000000000E+00 0.  1.
</event>
<event>
 7    1  0.4096326E-006  0.1300209E+03  0.7561462E-02  0.1227425E+00
          1   -1    0    0  501    0  0.00000000000E+00  0.00000000000E+00  0.65968143017E+03  0.65968143017E+03  0.00000000000E+00 0. -1.
         -1   -1    0    0    0  501 -0.00000000000E+00 -0.00000000000E+00 -0.32181477736E+02  0.32181477736E+02  0.00000000000E+00 0.  1.
         23    2    1    2    0    0  0.84843809585E+02 -0.19788518749E+02  0.39008157593E+03  0.40972659022E+03  0.90123167705E+02 0.  0.
          5    1    1    2  502    0 -0.60060328364E+02 -0.49273076128E+02  0.13920702258E+03  0.15947146017E+03  0.41800000000E+01 0. -1.
         -5    1    1    2    0  502 -0.24783481221E+02  0.69061594877E+02  0.98211353933E+02  0.12266485752E+03  0.41800000000E+01 0. -1.
        -11    1    3    3    0    0  0.92388230514E+02 -0.54502405290E+01  0.37890409658E+03  0.39004308053E+03  0.00000000000E+00 0. -1.
         11    1    3    3    0    0 -0.75444209283E+01 -0.14338278220E+02  0.11177479347E+02  0.19683509698E+02  0.00000000000E+00 0.  1.
</event>
<event>
 7    1  0.4096326E-006  0.8204668E+02  0.7561462E-02  0.1323342E+00
          1   -1    0    0  501    0  0.00000000000E+00  0.00000000000E+00  0.10357623384E+03  0.10357623384E+03  0.00000000000E+00 0. -1.
         -1   -1    0    0    0  501 -0.00000000000E+00 -0.00000000000E+00 -0.10892551964E+03  0.10892551964E+03  0.00000000000E+00 0.  1.
         23    2    1    2    0    0  0.20954786978E+01  0.96700083719E+01  0.23604784814E+02  0.92625331111E+02  0.89018908129E+02 0.  0.
          5    1    1    2  502    0  0.51398493065E+02  0.19578874732E+02 -0.11876575125E+02  0.56423956453E+02  0.41800000000E+01 0. -1.
         -5    1    1    2    0  502 -0.53493971762E+02 -0.29248883104E+02 -0.17077495487E+02  0.63452465909E+02  0.41800000000E+01 0.  1.
        -11    1    3    3    0    0  0.22116826592E+02 -0.53960622575E+01 -0.27504755851E+02  0.35704104818E+02  0.00000000000E+00 0.  1.
         11    1    3    3    0    0 -0.20021347894E+02  0.15066070629E+02  0.51109540665E+02  0.56921226293E+02  0.00000000000E+00 0. -1.
</event>
<event>
 7    1  0.4096326E-006  0.7387151E+02  0.7561462E-02  0.1347402E+00
          1   -1    0    0  501    0  0.00000000000E+00  0.00000000000E+00  0.34747751824E+03  0.34747751824E+03  0.00000000000E+00 0. -1.
         -1   -1    0    0    0  501 -0.00000000000E+00 -0.00000000000E+00 -0.38258550715E+02  0.38258550715E+02  0.00000000000E+00 0.  1.
         23    2    1    2    0    0 -0.18479357235E+02 -0.19810995863E+02  0.18206015245E+03  0.20531584133E+03  0.90965561553E+02 0.  0.
          5    1    1    2  502    0  0.40497699186E+02  0.51573322903E+01  0.14336358368E+03  0.14912159884E+03  0.41800000000E+01 0.  1.
         -5    1    1    2    0  502 -0.22018341951E+02  0.14653663572E+02 -0.16204768605E+02  0.31298628786E+02  0.41800000000E+01 0.  1.
        -11    1    3    3    0    0  0.24017808051E+02 -0.27744728758E+02  0.30518857744E+02  0.47728668066E+02  0.00000000000E+00 0.  1.
         11    1    3    3    0    0 -0.42497165286E+02  0.79337328948E+01  0.15154129471E+03  0.15758717326E+03  0.00000000000E+00 0. -1.
</event>
<event>
 7    1  0.4096326E-006  0.1210977E+03  0.7561462E-02  0.1241297E+00
         -1   -1    0    0    0  501 -0.00000000000E+00  0.00000000000E+00  0.17926521579E+03  0.17926521579E+03  0.00000000000E+00 0.  1.
          1   -1    0    0  501    0  0.00000000000E+00 -0.00000000000E+00 -0.23516024287E+03  0.23516024287E+03  0.00000000000E+00 0. -1.
         23    2    1    2    0    0 -0.57410085977E+02 -0.56082137995E+02 -0.18172459562E+03  0.21968671056E+03  0.93793912226E+02 0.  0.
          5    1    1    2  502    0 -0.23813940058E+02  0.62130566423E+02  0.49508880903E+02  0.83041632410E+02  0.41800000000E+01 0. -1.
         -5    1    1    2    0  502  0.81224026035E+02 -0.60484284276E+01  0.76320687634E+02  0.11169711569E+03  0.41800000000E+01 0. -1.
        -11    1    3    3    0    0  0.56644749017E+00 -0.30659186833E+02 -0.14126820954E+03  0.14455799399E+03  0.00000000000E+00 0. -1.
         11    1    3    3    0    0 -0.57976533467E+02 -0.25422951162E+02 -0.40456386072E+02  0.75128716565E+02  0.00000000000E+00 0.  1.
</event>
<event>
 7    1  0.4096326E-006  0.4924973E+02  0.7561462E-02  0.1449431E+00
          2   -1    0    0  501    0  0.00000000000E+00  0.00000000000E+00  0.34462293770E+03  0.34462293770E+03  0.00000000000E+00 0. -1.
         -2   -1    0    0    0  501 -0.00000000000E+00 -0.00000000000E+00 -0.46769118502E+02  0.46769118502E+02  0.00000000000E+00 0.  1.
         23    2    1    2    0    0  0.34841370306E+02  0.38458441755E+01  0.21923757331E+03  0.23954761981E+03  0.89940185699E+02 0.  0.
          5    1    1    2  502    0 -0.25696002367E+02  0.85206039438E+01 -0.30831377404E+02  0.41242350344E+02  0.41800000000E+01 0.  1.
         -5    1    1    2    0  502 -0.91453679385E+01 -0.12366448119E+02  0.10944762329E+03  0.11060208605E+03  0.41800000000E+01 0.  1.
        -11    1    3    3    0    0 -0.75334972239E+01  0.98172507888E+01 -0.34011227798E+01  0.12833535352E+02  0.00000000000E+00 0.  1.
         11    1    3    3    0    0  0.42374867530E+02 -0.59714066133E+01  0.22263869609E+03  0.22671408446E+03  0.00000000000E+00 0. -1.
</event>
<event>
 7    1  0.4096326E-006  0.1016655E+03  0.7561462E-02  0.1276832E+00
          1   -1    0    0  501    0  0.00000000000E+00  0.00000000000E+00  0.36403228022E+03  0.36403228022E+03  0.00000000000E+00 0. -1.
         -1   -1    0    0    0  501 -0.00000000000E+00 -0.00000000000E+00 -0.45553444129E+02  0.45553444129E+02  0.00000000000E+00 0.  1.
         23    2    1    2    0    0  0.34838178967E+02  0.52854254611E+02  0.10100518051E+03  0.15083935154E+03  0.92429392182E+02 0.  0.
          5    1    1    2  502    0 -0.68858864022E+02 -0.42630523136E+02  0.20566995856E+03  0.22108032230E+03  0.41800000000E+01 0.  1.
         -5    1    1    2    0  502  0.34020685055E+02 -0.10223731475E+02  0.11803697015E+02  0.37666050498E+02  0.41800000000E+01 0.  1.
        -11    1    3    3    0    0  0.99029579623E+01  0.59774813054E+02  0.16986333954E+02  0.62925609995E+02  0.00000000000E+00 0.  1.
         11    1    3    3    0    0  0.24935221005E+02 -0.69205584428E+01  0.84018846561E+02  0.87913741549E+02  0.00000000000E+00 0. -1.
</event>
<event>
 7    1  0.4096326E-006  0.2031045E+03  0.7561462E-02  0.1147146E+00
         -1   -1    0    0    0  501 -0.00000000000E+00  0.00000000000E+00  0.17702739532E+02  0.17702739532E+02  0.00000000000E+00 0.  1.
          1   -1    0    0  501    0  0.00000000000E+00 -0.00000000000E+00 -0.27955994162E+04  0.27955994162E+04  0.00000000000E+00 0. -1.
         23    2    1    2    0    0 -0.70796895981E+02 -0.17572841341E+03 -0.10753670579E+04  0.10957024149E+04  0.90866919415E+02 0.  0.
          5    1    1    2  502    0  0.36962203025E+02  0.34014403817E+02 -0.14998665244E+03  0.15822974572E+03  0.41800000000E+01 0. -1.
         -5    1    1    2    0  502  0.33834692956E+02  0.14171400959E+03 -0.15525429663E+04  0.15593699951E+04  0.41800000000E+01 0. -1.
        -11    1    3    3    0    0  0.58660605360E+01 -0.10677643977E+03 -0.53326353895E+03  0.54388015291E+03  0.00000000000E+00 0. -1.
         11    1    3    3    0    0 -0.76662956517E+02 -0.68951973635E+02 -0.54210351891E+03  0.55182226195E+03  0.00000000000E+00 0.  1.
</event>
<event>
 7    1  0.4096326E-006  0.1258375E+03  0.7561462E-02  0.1233766E+00
         -1   -1    0    0    0  501 -0.00000000000E+00  0.00000000000E+00  0.21941189055E+02  0.21941189055E+02  0.00000000000E+00 0.  1.
          1   -1    0    0  501    0  0.00000000000E+00 -0.00000000000E+00 -0.92421486627E+03  0.92421486627E+03  0.00000000000E+00 0. -1.
         23    2    1    2    0    0  0.87189578207E+02  0.22166574757E+02 -0.46127498861E+03  0.47901507716E+03  0.92668492188E+02 0.  0.
          5    1    1    2  502    0 -0.75105664160E+02  0.24789853870E+02 -0.12902730622E+03  0.15139655146E+03  0.41800000000E+01 0. -1.
         -5    1    1    2    0  502 -0.12083914047E+02 -0.46956428627E+02 -0.31197138239E+03  0.31574442671E+03  0.41800000000E+01 0. -1.
        -11    1    3    3    0    0  0.67258202658E+02 -0.25665479910E+02 -0.33252936473E+03  0.34023251034E+03  0.00000000000E+00 0. -1.
         11    1    3    3    0    0  0.19931375549E+02  0.47832054667E+02 -0.12874562387E+03  0.13878256681E+03  0.00000000000E+00 0.  1.
</event>
<event>
 7    1  0.4096326E-006  0.1197085E+03  0.7561462E-02  0.1243579E+00
         -1   -1    0    0    0  501 -0.00000000000E+00  0.00000000000E+00  0.15884115343E+03  0.15884115343E+03  0.00000000000E+00 0.  1.
          1   -1    0    0  501    0  0.00000000000E+00 -0.00000000000E+00 -0.13249769235E+03  0.13249769235E+03  0.00000000000E+00 0. -1.
         23    2    1    2    0    0 -0.16091695844E+02  0.92632616514E+02 -0.56340611613E+01  0.13163685989E+03  0.91960730309E+02 0.  0.
          5    1    1    2  502    0 -0.47771304379E+01  0.20804024060E+02 -0.23176767341E+02  0.31784639949E+02  0.41800000000E+01 0.  1.
         -5    1    1    2    0  502  0.20868826282E+02 -0.11343664057E+03  0.55154289582E+02  0.12791734595E+03  0.41800000000E+01 0.  1.
        -11    1    3    3    0    0 -0.27778878972E+02  0.81520000390E+02  0.31062026243E+02  0.91553405480E+02  0.00000000000E+00 0.  1.
         11    1    3    3    0    0  0.11687183128E+02  0.11112616123E+02 -0.36696087405E+02  0.40083454409E+02  0.00000000000E+00 0. -1.
</event>
<event>
 7    1  0.4096326E-006  0.1153542E+03  0.7561462E-02  0.1250964E+00
         -1   -1    0    0    0  501 -0.00000000000E+00  0.00000000000E+00  0.64094984776E+02  0.64094984776E+02  0.00000000000E+00 0.  1.
          1   -1    0    0  501    0  0.00000000000E+00 -0.00000000000E+00 -0.22718805380E+03  0.22718805380E+03  0.00000000000E+00 0. -1.
         23    2    1    2    0    0  0.31379773519E+02 -0.29745958342E+02 -0.10399833449E+03  0.14633817176E+03  0.93432835302E+02 0.  0.
          5    1    1    2  502    0 -0.78529179457E+02  0.31981212061E+02 -0.35665833745E+02  0.92082322124E+02  0.41800000000E+01 0. -1.
         -5    1    1    2    0  502  0.47149405938E+02 -0.22352537184E+01 -0.23428900790E+02  0.52862544696E+02  0.41800000000E+01 0. -1.
        -11    1    3    3    0    0  0.20671679931E+02  0.30715834347E+02 -0.61072687846E+02  0.71418863275E+02  0.00000000000E+00 0. -1.
         11    1    3    3    0    0  0.10708093588E+02 -0.60461792690E+02 -0.42925646646E+02  0.74919308482E+02  0.00000000000E+00 0.  1.
</event>
<event>
 7    1  0.4096326E-006  0.9251530E+02  0.7561462E-02  0.1296872E+00
         -2   -1    0    0    0  501 -0.00000000000E+00  0.00000000000E+00  0.33210181193E+02  0.33210181193E+02  0.00000000000E+00 0.  1.
          2   -1    0    0  501    0  0.00000000000E+00 -0.00000000000E+00 -0.43146811333E+03  0.43146811333E+03  0.00000000000E+00 0. -1.
         23    2    1    2    0    0 -0.35334238805E+02  0.14617736425E+02 -0.23711259045E+03  0.25712828177E+03  0.91817133933E+02 0.  0.
          5    1    1    2  502    0  0.36433211021E+02  0.38007383458E+02 -0.14179840700E+03  0.15131490571E+03  0.41800000000E+01 0. -1.
         -5    1    1    2    0  502 -0.10989722159E+01 -0.52625119883E+02 -0.19346934686E+02  0.56235107045E+02  0.41800000000E+01 0. -1.
        -11    1    3    3    0    0 -0.17656494213E+02 -0.28097520711E+02 -0.18287958344E+03  0.18586598532E+03  0.00000000000E+00 0. -1.
         11    1    3    3    0    0 -0.17677744592E+02  0.42715257136E+02 -0.54233007013E+02  0.71262296453E+02  0.00000000000E+00 0.  1.
</event>
<event>
 7    1  0.4096326E-006  0.1056252E+03  0.7561462E-02  0.1268893E+00
          1   -1    0    0  501    0  0.00000000000E+00  0.00000000000E+00  0.44003656588E+03  0.44003656588E+03  0.00000000000E+00 0. -1.
         -1   -1    0    0    0  501 -0.00000000000E+00 -0.00000000000E+00 -0.39543058787E+02  0.39543058787E+02  0.00000000000E+00 0.  1.
         23    2    1    2    0    0  0.39575252214E+02  0.59624910283E+02  0.21757409100E+03  0.24671224004E+03  0.91690314653E+02 0.  0.
          5    1    1    2  502    0  0.31778019074E+02  0.82972751741E+00  0.58740922091E+01  0.32596139392E+02  0.41800000000E+01 0. -1.
         -5    1    1    2    0  502 -0.71353271288E+02 -0.60454637800E+02  0.17704532389E+03  0.20027124523E+03  0.41800000000E+01 0. -1.
        -11    1    3    3    0    0  0.31738385213E+02  0.67422273728E+02  0.22247200481E+03  0.23462071736E+03  0.00000000000E+00 0. -1.
         11    1    3    3    0    0  0.78368670010E+01 -0.77973634447E+01 -0.48979138146E+01  0.12091522684E+02  0.00000000000E+00 0.  1.
</event>
<event>
 7    1  0.4096326E-006  0.1125414E+03  0.7561462E-02  0.1255935E+00
         -1   -1    0    0    0  501 -0.00000000000E+00  0.00000000000E+00  0.77929557497E+02  0.77929557497E+02  0.00000000000E+00 0.  1.
          1   -1    0    0  501    0  0.00000000000E+00 -0.00000000000E+00 -0.22662494394E+03  0.22662494394E+03  0.00000000000E+00 0. -1.
         23    2    1    2    0    0  0.42427936813E+02  0.60265309638E+02 -0.90251308161E+02  0.14804002739E+03  0.91315462641E+02 0.  0.
          5    1    1    2  502    0  0.42254673583E+02 -0.13804248188E+02 -0.22865776434E+01  0.44706996600E+02  0.41800000000E+01 0. -1.
         -5    1    1    2    0  502 -0.84682610395E+02 -0.46461061449E+02 -0.56157500633E+02  0.11180747744E+03  0.41800000000E+01 0. -1.
        -11    1    3    3    0    0  0.15768777672E+02  0.54153223066E+02 -0.10333128515E+03  0.11772247198E+03  0.00000000000E+00 0. -1.
         11    1    3    3    0    0  0.26659159140E+02  0.61120865719E+01  0.13079976988E+02  0.30317555415E+02  0.00000000000E+00 0.  1.
</event>
<event>
 7    1  0.4096326E-006  0.8709549E+02  0.7561462E-02  0.1310042E+00
         -1   -1    0    0    0  501 -0.00000000000E+00  0.00000000000E+00  0.43696619801E+02  0.43696619801E+02  0.00000000000E+00 0.  1.
          1   -1    0    0  501    0  0.00000000000E+00 -0.00000000000E+00 -0.27055994718E+03  0.27055994718E+03  0.00000000000E+00 0. -1.
         23    2    1    2    0    0 -0.24626542791E+01  0.35057226759E+01 -0.10621484019E+03  0.14041526256E+03  0.91741478768E+02 0.  0.
          5    1    1    2  502    0  0.22069366995E+02  0.40272673613E+02 -0.11675790203E+03  0.12553415984E+03  0.41800000000E+01 0.  1.
         -5    1    1    2    0  502 -0.19606712716E+02 -0.43778396289E+02 -0.38905851639E+01  0.48307144586E+02  0.41800000000E+01 0.  1.
        -11    1    3    3    0    0  0.38620431126E+02  0.41234775050E+01 -0.17405158551E+02  0.42561488593E+02  0.00000000000E+00 0.  1.
         11    1    3    3    0    0 -0.41083085405E+02 -0.61775482915E+00 -0.88809681638E+02  0.97853773970E+02  0.00000000000E+00 0. -1.
</event>
<event>
 7    1  0.4096326E-006  0.1132891E+03  0.7561462E-02  0.1254597E+00
         -2   -1    0    0    0  501 -0.00000000000E+00  0.00000000000E+00  0.16485072373E+03  0.16485072373E+03  0.00000000000E+00 0.  1.
          2   -1    0    0  501    0  0.00000000000E+00 -0.00000000000E+00 -0.13522906486E+03  0.13522906486E+03  0.00000000000E+00 0. -1.
         23    2    1    2    0    0  0.81400951167E+02 -0.59383569044E+02 -0.10820092626E+02  0.13443429203E+03  0.88334485592E+02 0.  0.
          5    1    1    2  502    0 -0.47158184016E+02  0.66833686342E+02 -0.29702943871E+02  0.87122748030E+02  0.41800000000E+01 0.  1.
         -5    1    1    2    0  502 -0.34242767151E+02 -0.74501172972E+01  0.70144695368E+02  0.78522748539E+02  0.41800000000E+01 0.  1.
        -11    1    3    3    0    0  0.66573998200E+02 -0.65454175915E+02 -0.39665464804E+02  0.10143813622E+03  0.00000000000E+00 0. -1.
         11    1    3    3    0    0  0.14826952967E+02  0.60706068709E+01  0.28845372178E+02  0.32996155809E+02  0.00000000000E+00 0.  1.
</event>
<event>
 7    1  0.4096326E-006  0.6709436E+02  0.7561462E-02  0.1370262E+00
          3   -1    0    0  501    0  0.00000000000E+00  0.00000000000E+00  0.56551602888E+02  0.56551602888E+02  0.00000000000E+00 0. -1.
         -3   -1    0    0    0  501 -0.00000000000E+00 -0.00000000000E+00 -0.26195501187E+03  0.26195501187E+03  0.00000000000E+00 0.  1.
         23    2    1    2    0    0 -0.16438920765E+02 -0.49612171026E+02 -0.67795782085E+02  0.12533707308E+03  0.91550577219E+02 0.  0.
          5    1    1    2  502    0  0.27953823352E+02  0.13738612352E+02 -0.15002410424E+03  0.15328036391E+03  0.41800000000E+01 0.  1.
         -5    1    1    2    0  502 -0.11514902586E+02  0.35873558675E+02  0.12416477339E+02  0.39889177769E+02  0.41800000000E+01 0.  1.
        -11    1    3    3    0    0 -0.28977123460E+02 -0.31221561739E+02 -0.86398735720E+02  0.96328610161E+02  0.00000000000E+00 0.  1.
         11    1    3    3    0    0  0.12538202695E+02 -0.18390609287E+02  0.18602953635E+02  0.29008462916E+02  0.00000000000E+00 0. -1.
</event>
<event>
 7    1  0.4096326E-006  0.1741859E+03  0.7561462E-02  0.1173552E+00
          2   -1    0    0  501    0  0.00000000000E+00  0.00000000000E+00  0.11647264848E+04  0.11647264848E+04  0.00000000000E+00 0. -1.
         -2   -1    0    0    0  501 -0.00000000000E+00 -0.00000000000E+00 -0.31240253252E+02  0.31240253252E+02  0.00000000000E+00 0.  1.
         23    2    1    2    0    0 -0.15099549192E+03 -0.83226156528E+01  0.66605351577E+03  0.68900473646E+03  0.90726713143E+02 0.  0.
          5    1    1    2  502    0 -0.11771395349E+01  0.38942712582E+02  0.69151415761E+02  0.79481514974E+02  0.41800000000E+01 0. -1.
         -5    1    1    2    0  502  0.15217263146E+03 -0.30620096929E+02  0.39828130002E+03  0.42748048663E+03  0.41800000000E+01 0. -1.
        -11    1    3    3    0    0 -0.52097539014E+02 -0.16565481749E+02  0.96841916217E+02  0.11120667918E+03  0.00000000000E+00 0. -1.
         11    1    3    3    0    0 -0.98897952908E+02  0.82428660963E+01  0.56921159955E+03  0.57779805728E+03  0.00000000000E+00 0.  1.
</event>
<event>
 7    1  0.4096326E-006  0.8945155E+02  0.7561462E-02  0.1304185E+00
          1   -1    0    0  501    0  0.00000000000E+00  0.00000000000E+00  0.35827124995E+02  0.35827124995E+02  0.00000000000E+00 0. -1.
         -1   -1    0    0    0  501 -0.00000000000E+00 -0.00000000000E+00 -0.48892810075E+03  0.48892810075E+03  0.00000000000E+00 0.  1.
         23    2    1    2    0    0 -0.20510895467E+02 -0.17607016150E+02 -0.65895165574E+02  0.11694861463E+03  0.92758297563E+02 0.  0.
          5    1    1    2  502    0  0.21937388885E+02  0.62070199262E+02 -0.32246950176E+03  0.32914739955E+03  0.41800000000E+01 0.  1.
         -5    1    1    2    0  502 -0.14264934178E+01 -0.44463183112E+02 -0.64736308428E+02  0.78659211570E+02  0.41800000000E+01 0.  1.
        -11    1    3    3    0    0  0.10077983483E+02  0.18418622905E+02  0.13206840808E+02  0.24803871975E+02  0.00000000000E+00 0. -1.
         11    1    3    3    0    0 -0.30588878950E+02 -0.36025639056E+02 -0.79102006383E+02  0.92144742653E+02  0.00000000000E+00 0.  1.
</event>
<event>
 7    1  0.4096326E-006  0.1272862E+03  0.7561462E-02  0.1231539E+00
          1   -1    0    0  501    0  0.00000000000E+00  0.00000000000E+00  0.48260232241E+03  0.48260232241E+03  0.00000000000E+00 0. -1.
         -1   -1    0    0    0  501 -0.00000000000E+00 -0.00000000000E+00 -0.45344135147E+02  0.45344135147E+02  0.00000000000E+00 0.  1.
         23    2    1    2    0    0 -0.54212482584E+02  0.60970525708E+02  0.30228477625E+03  0.32664801730E+03  0.93093732205E+02 0.  0.
          5    1    1    2  502    0  0.44677984979E+02  0.28431175691E+02  0.79356331731E+02  0.95495308150E+02  0.41800000000E+01 0. -1.
         -5    1    1    2    0  502  0.95344976056E+01 -0.89401701398E+02  0.55617079284E+02  0.10580313212E+03  0.41800000000E+01 0. -1.
        -11    1    3    3    0    0 -0.45455321477E+02 -0.42364633253E+01  0.58861886298E+02  0.74490640558E+02  0.00000000000E+00 0.  1.
         11    1    3    3    0    0 -0.87571611071E+01  0.65206989033E+02  0.24342288995E+03  0.25215737674E+03  0.00000000000E+00 0. -1.
</event>
<event>
 7    1  0.4096326E-006  0.1780151E+03  0.7561462E-02  0.1169738E+00
          1   -1    0    0  501    0  0.00000000000E+00  0.00000000000E+00  0.11441352013E+04  0.11441352013E+04  0.00000000000E+00 0. -1.
         -1   -1    0    0    0  501 -0.00000000000E+00 -0.00000000000E+00 -0.55261493314E+02  0.55261493314E+02  0.00000000000E+00 0.  1.
         23    2    1    2    0    0  0.14399181935E+03 -0.80958565982E+02  0.89769231068E+03  0.91746531425E+03  0.92753354442E+02 0.  0.
          5    1    1    2  502    0 -0.46831084578E+02  0.14116506968E+02 -0.86604964955E+01  0.49848799898E+02  0.41800000000E+01 0.  1.
         -5    1    1    2    0  502 -0.97160734773E+02  0.66842059015E+02  0.19984189379E+03  0.23208258045E+03  0.41800000000E+01 0.  1.
        -11    1    3    3    0    0  0.66224631083E+02  0.12454570009E+02  0.35331659672E+03  0.35968518957E+03  0.00000000000E+00 0. -1.
         11    1    3    3    0    0  0.77767188267E+02 -0.93413135991E+02  0.54437571396E+03  0.55778012469E+03  0.00000000000E+00 0.  1.
</event>
<event>
 7    1  0.4096326E-006  0.2539081E+03  0.7561462E-02  0.1110860E+00
          1   -1    0    0  501    0  0.00000000000E+00  0.00000000000E+00  0.86971167334E+02  0.86971167334E+02  0.00000000000E+00 0. -1.
         -1   -1    0    0    0  501 -0.00000000000E+00 -0.00000000000E+00 -0.11234116704E+04  0.11234116704E+04  0.00000000000E+00 0.  1.
         23    2    1    2    0    0  0.23669691108E+03 -0.15810656687E+02 -0.17517222419E+03  0.30834939340E+03  0.90103472227E+02 0.  0.
          5    1    1    2  502    0 -0.18316015669E+03 -0.32554196791E+02 -0.71596084258E+03  0.73974645605E+03  0.41800000000E+01 0. -1.
         -5    1    1    2    0  502 -0.53536754392E+02  0.48364853478E+02 -0.14530743635E+03  0.16228698833E+03  0.41800000000E+01 0. -1.
        -11    1    3    3    0    0  0.14078823341E+03  0.28783255012E+02 -0.12837036244E+03  0.19268822587E+03  0.00000000000E+00 0. -1.
         11    1    3    3    0    0  0.95908677668E+02 -0.44593911699E+02 -0.46801861748E+02  0.11566116754E+03  0.00000000000E+00 0.  1.
</event>
<event>
 7    1  0.4096326E-006  0.1486801E+03  0.7561462E-02  0.1202104E+00
          1   -1    0    0  501    0  0.00000000000E+00  0.00000000000E+00  0.23194023388E+03  0.23194023388E+03  0.00000000000E+00 0. -1.
         -1   -1    0    0    0  501 -0.00000000000E+00 -0.00000000000E+00 -0.11886227617E+03  0.11886227617E+03  0.00000000000E+00 0.  1.
         23    2    1    2    0    0  0.76408093522E+02 -0.80632725199E+02  0.11455652900E+03  0.18350518105E+03  0.90615230552E+02 0.  0.
          5    1    1    2  502    0 -0.11024867523E+03  0.73167879259E+02 -0.13366089672E+01  0.13239172130E+03  0.41800000000E+01 0. -1.
         -5    1    1    2    0  502  0.33840581709E+02  0.74648459401E+01 -0.14196232290E+00  0.34905607696E+02  0.41800000000E+01 0. -1.
        -11    1    3    3    0    0  0.47402047363E+02 -0.33466140728E+01  0.81985989018E+02  0.94762103792E+02  0.00000000000E+00 0. -1.
         11    1    3    3    0    0  0.29006046159E+02 -0.77286111127E+02  0.32570539981E+02  0.88743077260E+02  0.00000000000E+00 0.  1.
</event>
<event>
 7    1  0.4096326E-006  0.1099260E+03  0.7561462E-02  0.1260707E+00
         -2   -1    0    0    0  501 -0.00000000000E+00  0.00000000000E+00  0.22999936738E+02  0.22999936738E+02  0.00000000000E+00 0.  1.
          2   -1    0    0  501    0  0.00000000000E+00 -0.00000000000E+00 -0.53761337230E+03  0.53761337230E+03  0.00000000000E+00 0. -1.
         23    2    1    2    0    0 -0.17443028731E+02  0.18297027629E+02 -0.24411992267E+03  0.26152680321E+03  0.90347615797E+02 0.  0.
          5    1    1    2  502    0  0.57138136357E+02 -0.49952303194E+02 -0.17660657602E+03  0.19226896347E+03  0.41800000000E+01 0. -1.
         -5    1    1    2    0  502 -0.39695107626E+02  0.31655275565E+02 -0.93886936878E+02  0.10681754237E+03  0.41800000000E+01 0. -1.
        -11    1    3    3    0    0 -0.70257644859E+01  0.54641298938E+02 -0.16226828326E+03  0.17136519095E+03  0.00000000000E+00 0.  1.
         11    1    3    3    0    0 -0.10417264246E+02 -0.36344271309E+02 -0.81851639412E+02  0.90161612262E+02  0.00000000000E+00 0. -1.
</event>
<event>
 7    1  0.4096326E-006  0.9009934E+02  0.7561462E-02  0.1302611E+00
         -2   -1    0    0    0  501 -0.00000000000E+00  0.00000000000E+00  0.19788924737E+02  0.19788924737E+02  0.00000000000E+00 0. -1.
          2   -1    0    0  501    0  0.00000000000E+00 -0.00000000000E+00 -0.63889037223E+03  0.63889037223E+03  0.00000000000E+00 0.  1.
         23    2    1    2    0    0  0.19076800296E+02 -0.23770933600E+02 -0.28654649038E+03  0.30209354943E+03  0.90678772956E+02 0.  0.
          5    1    1    2  502    0  0.27139166537E+02 -0.17796903773E+02 -0.25507519617E+03  0.25716549583E+03  0.41800000000E+01 0. -1.
         -5    1    1    2    0  502 -0.46215966832E+02  0.41567837373E+02 -0.77479760956E+02  0.99420251719E+02  0.41800000000E+01 0. -1.
        -11    1    3    3    0    0  0.21334166345E+02  0.26968696785E+02 -0.18914326583E+03  0.19224367940E+03  0.00000000000E+00 0.  1.
         11    1    3    3    0    0 -0.22573660495E+01 -0.50739630386E+02 -0.97403224542E+02  0.10984987002E+03  0.00000000000E+00 0. -1.
</event>
<event>
 7    1  0.4096326E-006  0.9737679E+02  0.7561462E-02  0.1285911E+00
          2   -1    0    0  501    0  0.00000000000E+00  0.00000000000E+00  0.19513600422E+03  0.19513600422E+03  0.00000000000E+00 0.  1.
         -2   -1    0    0    0  501 -0.00000000000E+00 -0.00000000000E+00 -0.63615903891E+02  0.63615903891E+02  0.00000000000E+00 0. -1.
         23    2    1    2    0    0 -0.31645954451E+01  0.25619135958E+02  0.73221953783E+02  0.11835191825E+03  0.89327304032E+02 0.  0.
          5    1    1    2  502    0 -0.33648096555E+02  0.34558954999E+02  0.49407504377E+02  0.69174342506E+02  0.41800000000E+01 0.  1.
         -5    1    1    2    0  502  0.36812692000E+02 -0.60178090957E+02  0.88906421705E+01  0.71225647359E+02  0.41800000000E+01 0.  1.
        -11    1    3    3    0    0 -0.29679086377E+02  0.36470899227E+02  0.87870460366E+01  0.47834995941E+02  0.00000000000E+00 0. -1.
         11    1    3    3    0    0  0.26514490932E+02 -0.10851763269E+02  0.64434907746E+02  0.70516922307E+02  0.00000000000E+00 0.  1.
</event>
<event>
 7    1  0.4096326E-006  0.1351781E+03  0.7561462E-02  0.1219969E+00
          2   -1    0    0  501    0  0.00000000000E+00  0.00000000000E+00  0.23818424473E+03  0.23818424473E+03  0.00000000000E+00 0.  1.
         -2   -1    0    0    0  501 -0.00000000000E+00 -0.00000000000E+00 -0.10515726475E+03  0.10515726475E+03  0.00000000000E+00 0. -1.
         23    2    1    2    0    0  0.28783038212E+02 -0.11147011674E+03  0.69973911655E+02  0.16201985551E+03  0.90000194727E+02 0.  0.
          5    1    1    2  502    0 -0.60963258281E+02  0.10389642881E+03  0.13058214100E+02  0.12123933411E+03  0.41800000000E+01 0. -1.
         -5    1    1    2    0  502  0.32180220069E+02  0.75736879315E+01  0.49994854225E+02  0.60082319875E+02  0.41800000000E+01 0. -1.
        -11    1    3    3    0    0  0.23187635683E+02 -0.54135746112E+02  0.84134303100E+02  0.10269822985E+03  0.00000000000E+00 0.  1.
         11    1    3    3    0    0  0.55954025284E+01 -0.57334370629E+02 -0.14160391445E+02  0.59321625658E+02  0.00000000000E+00 0. -1.
</event>
<event>
 7    1  0.4096326E-006  0.1043286E+03  0.7561462E-02  0.1271448E+00
         -2   -1    0    0    0  501 -0.00000000000E+00  0.00000000000E+00  0.22785063580E+02  0.22785063580E+02  0.00000000000E+00 0.  1.
          2   -1    0    0  501    0  0.00000000000E+00 -0.00000000000E+00 -0.59775046178E+03  0.59775046178E+03  0.00000000000E+00 0. -1.
         23    2    1    2    0    0 -0.45807901439E+02 -0.32750247879E+01 -0.30995411624E+03  0.32390638012E+03  0.82065213619E+02 0.  0.
          5    1    1    2  502    0 -0.42717302299E+01 -0.44754697814E+02 -0.18595021614E+03  0.19135356265E+03  0.41800000000E+01 0.  1.
         -5    1    1    2    0  502  0.50079631669E+02  0.48029722602E+02 -0.79061065818E+02  0.10527558259E+03  0.41800000000E+01 0.  1.
        -11    1    3    3    0    0 -0.69849661123E+02 -0.12100328478E+01 -0.23495745786E+03  0.24512332884E+03  0.00000000000E+00 0.  1.
         11    1    3    3    0    0  0.24041759684E+02 -0.20649919401E+01 -0.74996658380E+02  0.78783051277E+02  0.00000000000E+00 0. -1.
</event>
<event>
 7    1  0.4096326E-006  0.1046742E+03  0.7561462E-02  0.1270763E+00
         -3   -1    0    0    0  501 -0.00000000000E+00  0.00000000000E+00  0.14459209749E+03  0.14459209749E+03  0.00000000000E+00 0.  1.
          3   -1    0    0  501    0  0.00000000000E+00 -0.00000000000E+00 -0.88022508067E+02  0.88022508067E+02  0.00000000000E+00 0. -1.
         23    2    1    2    0    0  0.21086571404E+02  0.17439644802E+00  0.16300080750E+02  0.99519186778E+02  0.95883794234E+02 0.  0.
          5    1    1    2  502    0 -0.63551448571E+02 -0.30211671611E+02  0.61723062726E+01  0.70760875360E+02  0.41800000000E+01 0.  1.
         -5    1    1    2    0  502  0.42464877167E+02  0.30037275163E+02  0.34097202405E+02  0.62334543424E+02  0.41800000000E+01 0.  1.
        -11    1    3    3    0    0 -0.18253148780E+02  0.31486827347E+02 -0.16001542737E+02  0.39757352863E+02  0.00000000000E+00 0.  1.
         11    1    3    3    0    0  0.39339720183E+02 -0.31312430899E+02  0.32301623488E+02  0.59761833915E+02  0.00000000000E+00 0. -1.
</event>
<event>
 7    1  0.4096326E-006  0.9279733E+02  0.7561462E-02  0.1296216E+00
          1   -1    0    0  501    0  0.00000000000E+00  0.00000000000E+00  0.90990967209E+02  0.90990967209E+02  0.00000000000E+00 0. -1.
         -1   -1    0    0    0  501 -0.00000000000E+00 -0.00000000000E+00 -0.18358863260E+03  0.18358863260E+03  0.00000000000E+00 0.  1.
         23    2    1    2    0    0  0.41095261870E+02  0.35138165910E+01  0.19962979266E+02  0.10247217812E+03  0.91656201606E+02 0.  0.
          5    1    1    2  502    0 -0.51061647422E+02  0.39957114935E+02 -0.17914514913E+02  0.67396328654E+02  0.41800000000E+01 0. -1.
         -5    1    1    2    0  502  0.99663855525E+01 -0.43470931526E+02 -0.94646129743E+02  0.10471109303E+03  0.41800000000E+01 0.  1.
        -11    1    3    3    0    0 -0.98657234606E+01  0.19972047455E+02 -0.24321523743E+02  0.32981080882E+02  0.00000000000E+00 0.  1.
         11    1    3    3    0    0  0.50960985330E+02 -0.16458230864E+02  0.44284503009E+02  0.69491097241E+02  0.00000000000E+00 0. -1.
</event>
<event>
 7    1  0.4096326E-006  0.6968557E+02  0.7561462E-02  0.1361166E+00
          2   -1    0    0  501    0  0.00000000000E+00  0.00000000000E+00  0.11077507318E+03  0.11077507318E+03  0.00000000000E+00 0. -1.
         -2   -1    0    0    0  501 -0.00000000000E+00 -0.00000000000E+00 -0.11601513120E+03  0.11601513120E+03  0.00000000000E+00 0.  1.
         23    2    1    2    0    0  0.27153442645E+02 -0.32614181396E+01  0.25921679402E+02  0.95007875069E+02  0.87215919226E+02 0.  0.
          5    1    1    2  502    0 -0.25901957754E+02  0.31613048973E+02 -0.71394341604E+02  0.82370630045E+02  0.41800000000E+01 0.  1.
         -5    1    1    2    0  502 -0.12514848915E+01 -0.28351630833E+02  0.40232604186E+02  0.49411699271E+02  0.41800000000E+01 0.  1.
        -11    1    3    3    0    0  0.47822186464E+02 -0.77678103276E+01  0.45293802998E+02  0.66323668366E+02  0.00000000000E+00 0.  1.
         11    1    3    3    0    0 -0.20668743818E+02  0.45063921880E+01 -0.19372123596E+02  0.28684206704E+02  0.00000000000E+00 0. -1.
</event>
<event>
 7    1  0.4096326E-006  0.8491214E+02  0.7561462E-02  0.1315662E+00
          1   -1    0    0  501    0  0.00000000000E+00  0.00000000000E+00  0.71450150007E+02  0.71450150007E+02  0.00000000000E+00 0. -1.
         -1   -1    0    0    0  501 -0.00000000000E+00 -0.00000000000E+00 -0.23471028524E+03  0.23471028524E+03  0.00000000000E+00 0.  1.
         23    2    1    2    0    0 -0.49217879137E+02  0.99526363807E+01 -0.10884614970E+02  0.10271829071E+03  0.88944464724E+02 0.  0.
          5    1    1    2  502    0 -0.11780850178E+02  0.28322686205E+02 -0.12079297443E+03  0.12469714534E+03  0.41800000000E+01 0. -1.
         -5    1    1    2    0  502  0.60998729316E+02 -0.38275322586E+02 -0.31582545832E+02  0.78744999196E+02  0.41800000000E+01 0. -1.
        -11    1    3    3    0    0  0.16849449943E+01  0.15442027075E+02 -0.40635889961E+02  0.43503687117E+02  0.00000000000E+00 0.  1.
         11    1    3    3    0    0 -0.50902824132E+02 -0.54893906939E+01  0.29751274991E+02  0.59214603591E+02  0.00000000000E+00 0. -1.
</event>
<event>
 7    1  0.4096326E-006  0.2298722E+03  0.7561462E-02  0.1126730E+00
         -2   -1    0    0    0  501 -0.00000000000E+00  0.00000000000E+00  0.49962983950E+02  0.49962983950E+02  0.00000000000E+00 0.  1.
          2   -1    0    0  501    0  0.00000000000E+00 -0.00000000000E+00 -0.10859684781E+04  0.10859684781E+04  0.00000000000E+00 0. -1.
         23    2    1    2    0    0 -0.57517336866E+01  0.20779186369E+03 -0.52546221204E+03  0.57179396184E+03  0.87334171164E+02 0.  0.
          5    1    1    2  502    0 -0.51483570365E+02 -0.65121961490E+02 -0.22422873483E+03  0.23913892575E+03  0.41800000000E+01 0. -1.
         -5    1    1    2    0  502  0.57235304051E+02 -0.14266990220E+03 -0.28631454730E+03  0.32499857449E+03  0.41800000000E+01 0.  1.
        -11    1    3    3    0    0  0.30461826473E+02  0.35450609859E+02 -0.78105242723E+02  0.91022511239E+02  0.00000000000E+00 0.  1.
         11    1    3    3    0    0 -0.36213560160E+02  0.17234125383E+03 -0.44735696932E+03  0.48077145060E+03  0.00000000000E+00 0. -1.
</event>
<event>
 7    1  0.4096326E-006  0.9150075E+02  0.7561462E-02  0.1299258E+00
          1   -1    0    0  501    0  0.00000000000E+00  0.00000000000E+00  0.40075587852E+03  0.40075587852E+03  0.00000000000E+00 0. -1.
         -1   -1    0    0    0  501 -0.00000000000E+00 -0.00000000000E+00 -0.40991890859E+02  0.40991890859E+02  0.00000000000E+00 0.  1.
         23    2    1    2    0    0 -0.34942271257E+02 -0.20301848607E+02  0.26108673237E+03  0.27736016807E+03  0.84434907696E+02 0.  0.
          5    1    1    2  502    0 -0.15658548369E+02 -0.35188648698E+02 -0.19110070259E+01  0.38788599899E+02  0.41800000000E+01 0. -1.
         -5    1    1    2    0  502  0.50600819626E+02  0.55490497305E+02  0.10058826232E+03  0.12559900141E+03  0.41800000000E+01 0. -1.
        -11    1    3    3    0    0 -0.44466646436E+02  0.22932933673E+01  0.24259857485E+03  0.24665078625E+03  0.00000000000E+00 0. -1.
         11    1    3    3    0    0  0.95243751791E+01 -0.22595141974E+02  0.18488157517E+02  0.30709381820E+02  0.00000000000E+00 0.  1.
</event>
<event>
 7    1  0.4096326E-006  0.1067771E+03  0.7561462E-02  0.1266657E+00
          2   -1    0    0  501    0  0.00000000000E+00  0.00000000000E+00  0.14899851563E+02  0.14899851563E+02  0.00000000000E+00 0.  1.
         -2   -1    0    0    0  501 -0.00000000000E+00 -0.00000000000E+00 -0.90089466560E+03  0.90089466560E+03  0.00000000000E+00 0. -1.
         23    2    1    2    0    0  0.10577174031E+02  0.92708738210E+00 -0.21587519899E+03  0.23401725180E+03  0.89717537293E+02 0.  0.
          5    1    1    2  502    0  0.33301703002E+02 -0.48957489645E+02 -0.36231808593E+03  0.36714807232E+03  0.41800000000E+01 0.  1.
         -5    1    1    2    0  502 -0.43878877034E+02  0.48030402262E+02 -0.30780152911E+03  0.31462919304E+03  0.41800000000E+01 0.  1.
        -11    1    3    3    0    0  0.43019268488E+02  0.23939381688E+02 -0.99123311273E+02  0.11067602403E+03  0.00000000000E+00 0.  1.
         11    1    3    3    0    0 -0.32442094457E+02 -0.23012294306E+02 -0.11675188772E+03  0.12334122777E+03  0.00000000000E+00 0. -1.
</event>
<event>
 7    1  0.4096326E-006  0.1161305E+03  0.7561462E-02  0.1249621E+00
         -1   -1    0    0    0  501 -0.00000000000E+00  0.00000000000E+00  0.48108490800E+02  0.48108490800E+02  0.00000000000E+00 0.  1.
          1   -1    0    0  501    0  0.00000000000E+00 -0.00000000000E+00 -0.44401698195E+03  0.44401698195E+03  0.00000000000E+00 0. -1.
         23    2    1    2    0    0 -0.27033966546E+02  0.44244662831E+02 -0.32066457418E+03  0.33721107972E+03  0.90537934663E+02 0.  0.
          5    1    1    2  502    0 -0.49128782733E+02 -0.18181919093E+02 -0.16186908816E+02  0.54988252306E+02  0.41800000000E+01 0. -1.
         -5    1    1    2    0  502  0.76162749278E+02 -0.26062743738E+02 -0.59057008155E+02  0.99926140729E+02  0.41800000000E+01 0. -1.
        -11    1    3    3    0    0 -0.42547112992E+02 -0.91325866844E+01 -0.90347651682E+02  0.10028139971E+03  0.00000000000E+00 0.  1.
         11    1    3    3    0    0  0.15513146446E+02  0.53377249515E+02 -0.23031692250E+03  0.23692968001E+03  0.00000000000E+00 0. -1.
</event>
<event>
 7    1  0.4096326E-006  0.1050259E+03  0.7561462E-02  0.1270069E+00
          1   -1    0    0  501    0  0.00000000000E+00  0.00000000000E+00  0.64234733650E+03  0.64234733650E+03  0.00000000000E+00 0. -1.
         -1   -1    0    0    0  501 -0.00000000000E+00 -0.00000000000E+00 -0.19663251522E+02  0.19663251522E+02  0.00000000000E+00 0.  1.
         23    2    1    2    0    0 -0.64524852220E+01 -0.40533538466E+01  0.35448920136E+03  0.36598469142E+03  0.90687023494E+02 0.  0.
          5    1    1    2  502    0 -0.44050381321E+02 -0.34800022812E+02  0.16830368187E+03  0.17746853076E+03  0.41800000000E+01 0.  1.
         -5    1    1    2    0  502  0.50502866543E+02  0.38853376659E+02  0.99891201756E+02  0.11855736584E+03  0.41800000000E+01 0.  1.
        -11    1    3    3    0    0  0.24045167199E+01  0.42472733671E+02  0.19634919492E+03  0.20090475642E+03  0.00000000000E+00 0. -1.
         11    1    3    3    0    0 -0.88570019418E+01 -0.46526087518E+02  0.15814000644E+03  0.16507993500E+03  0.00000000000E+00 0.  1.
</event>
<event>
 7    1  0.4096326E-006  0.2138387E+03  0.7561462E-02  0.1138562E+00
          2   -1    0    0  501    0  0.00000000000E+00  0.00000000000E+00  0.20155777434E+03  0.20155777434E+03  0.00000000000E+00 0. -1.
         -2   -1    0    0    0  501 -0.00000000000E+00 -0.00000000000E+00 -0.29224205297E+03  0.29224205297E+03  0.00000000000E+00 0.  1.
         23    2    1    2    0    0 -0.15821355740E+03 -0.11666705550E+03  0.47974328172E+02  0.22265889237E+03  0.92912402858E+02 0.  0.
          5    1    1    2  502    0  0.14886172749E+03  0.12747146248E+03 -0.15435776703E+03  0.24950466990E+03  0.41800000000E+01 0.  1.
         -5    1    1    2    0  502  0.93518299121E+01 -0.10804406987E+02  0.15699160232E+02  0.21636265044E+02  0.41800000000E+01 0.  1.
        -11    1    3    3    0    0 -0.78826524480E+02 -0.11236795845E+03  0.21943344241E+02  0.13900247985E+03  0.00000000000E+00 0.  1.
         11    1    3    3    0    0 -0.79387032924E+02 -0.42990970449E+01  0.26030983930E+02  0.83656412523E+02  0.00000000000E+00 0. -1.
</event>
<event>
 7    1  0.4096326E-006  0.8026344E+02  0.7561462E-02  0.1328305E+00
         -1   -1    0    0    0  501 -0.00000000000E+00  0.00000000000E+00  0.66413223173E+02  0.66413223173E+02  0.00000000000E+00 0.  1.
          1   -1    0    0  501    0  0.00000000000E+00 -0.00000000000E+00 -0.23746849853E+03  0.23746849853E+03  0.00000000000E+00 0. -1.
         23    2    1    2    0    0  0.46608961027E+02 -0.39980636547E+02 -0.82099884397E+02  0.13855820658E+03  0.93204823086E+02 0.  0.
          5    1    1    2  502    0 -0.19515528973E+02 -0.14236987270E+02  0.25730205480E+02  0.35539605396E+02  0.41800000000E+01 0. -1.
         -5    1    1    2    0  502 -0.27093432054E+02  0.54217623817E+02 -0.11468559644E+03  0.12978390973E+03  0.41800000000E+01 0. -1.
        -11    1    3    3    0    0  0.54336292432E+02 -0.28334339061E+02 -0.64394422024E+01  0.61617642450E+02  0.00000000000E+00 0.  1.
         11    1    3    3    0    0 -0.77273314049E+01 -0.11646297486E+02 -0.75660442195E+02  0.76940564132E+02  0.00000000000E+00 0. -1.
</event>
<event>
 7    1  0.4096326E-006  0.1165755E+03  0.7561462E-02  0.1248856E+00
          2   -1    0    0  501    0  0.00000000000E+00  0.00000000000E+00  0.81684163698E+03  0.81684163698E+03  0.00000000000E+00 0.  1.
         -2   -1    0    0    0  501 -0.00000000000E+00 -0.00000000000E+00 -0.17825563663E+02  0.17825563663E+02  0.00000000000E+00 0. -1.
         23    2    1    2    0    0 -0.13625066482E+02  0.37159374464E+02  0.45690394608E+03  0.46825911220E+03  0.94545854843E+02 0.  0.
          5    1    1    2  502    0  0.11284401642E+02 -0.83351384571E+02  0.23611162784E+03  0.25068100094E+03  0.41800000000E+01 0.  1.
         -5    1    1    2    0  502  0.23406648399E+01  0.46192010107E+02  0.10600049939E+03  0.11572708750E+03  0.41800000000E+01 0.  1.
        -11    1    3    3    0    0 -0.27787887562E+02  0.65313989125E+02  0.31604872053E+03  0.32392109783E+03  0.00000000000E+00 0.  1.
         11    1    3    3    0    0  0.14162821080E+02 -0.28154614662E+02  0.14085522555E+03  0.14433801437E+03  0.00000000000E+00 0. -1.
</event>
<event>
 7    1  0.4096326E-006  0.1409165E+03  0.7561462E-02  0.1212101E+00
          1   -1    0    0  501    0  0.00000000000E+00  0.00000000000E+00  0.40731487400E+03  0.40731487400E+03  0.00000000000E+00 0. -1.
         -1   -1    0    0    0  501 -0.00000000000E+00 -0.00000000000E+00 -0.78529520965E+02  0.78529520965E+02  0.00000000000E+00 0.  1.
         23    2    1    2    0    0  0.21133292896E+02  0.10561686531E+02  0.22215984262E+03  0.24103603113E+03  0.90472135690E+02 0.  0.
          5    1    1    2  502    0  0.88297561348E+02 -0.47818645406E+02  0.73416337363E+02  0.12446089016E+03  0.41800000000E+01 0. -1.
         -5    1    1    2    0  502 -0.10943085424E+03  0.37256958875E+02  0.33209173049E+02  0.12034747367E+03  0.41800000000E+01 0.  1.
        -11    1    3    3    0    0  0.42624211614E+02  0.11489933844E+02  0.21321879110E+03  0.21774088930E+03  0.00000000000E+00 0.  1.
         11    1    3    3    0    0 -0.21490918718E+02 -0.92824731236E+00  0.89410515247E+01  0.23295141828E+02  0.00000000000E+00 0. -1.
</event>
<event>
 7    1  0.4096326E-006  0.1555274E+03  0.7561462E-02  0.1193841E+00
          2   -1    0    0  501    0  0.00000000000E+00  0.00000000000E+00  0.17306082629E+03  0.17306082629E+03  0.00000000000E+00 0. -1.
         -2   -1    0    0    0  501 -0.00000000000E+00 -0.00000000000E+00 -0.20562141056E+03  0.20562141056E+03  0.00000000000E+00 0.  1.
         23    2    1    2    0    0 -0.15418067602E+03 -0.77256698233E+01 -0.14340746895E+02  0.17915627632E+03  0.89777210309E+02 0.  0.
          5    1    1    2  502    0  0.37434995577E+02  0.51585091763E+01 -0.63663220911E+02  0.74151650066E+02  0.41800000000E+01 0.  1.
         -5    1    1    2    0  502  0.11674568045E+03  0.25671606470E+01  0.45443383540E+02  0.12537431046E+03  0.41800000000E+01 0.  1.
        -11    1    3    3    0    0 -0.68517305089E+02 -0.15249332544E+02  0.36646030053E+02  0.79183929925E+02  0.00000000000E+00 0. -1.
         11    1    3    3    0    0 -0.85663370935E+02  0.75236627212E+01 -0.50986776949E+02  0.99972346398E+02  0.00000000000E+00 0.  1.
</event>
<event>
 7    1  0.4096326E-006  0.2954055E+03  0.7561462E-02  0.1087560E+00
         -2   -1    0    0    0  501 -0.00000000000E+00  0.00000000000E+00  0.86306487492E+02  0.86306487492E+02  0.00000000000E+00 0.  1.
          2   -1    0    0  501    0  0.00000000000E+00 -0.00000000000E+00 -0.12806768287E+04  0.12806768287E+04  0.00000000000E+00 0. -1.
         23    2    1    2    0    0  0.22249940293E+03  0.18580697634E+03 -0.83532773640E+03  0.88897823048E+03  0.92085016724E+02 0.  0.
          5    1    1    2  502    0 -0.22648040590E+03 -0.16847352682E+03 -0.36245357722E+03  0.45942003824E+03  0.41800000000E+01 0.  1.
         -5    1    1    2    0  502  0.39810029715E+01 -0.17333449516E+02  0.34109724137E+01  0.18585047473E+02  0.41800000000E+01 0.  1.
        -11    1    3    3    0    0  0.12028193647E+02  0.61019774692E+01 -0.61297857210E+01  0.14815054655E+02  0.00000000000E+00 0. -1.
         11    1    3    3    0    0  0.21047120928E+03  0.17970499887E+03 -0.82919795068E+03  0.87416317583E+03  0.00000000000E+00 0.  1.
</event>
<event>
 7    1  0.4096326E-006  0.1254846E+03  0.7561462E-02  0.1234314E+00
         -1   -1    0    0    0  501 -0.00000000000E+00  0.00000000000E+00  0.55485694244E+02  0.55485694244E+02  0.00000000000E+00 0.  1.
          1   -1    0    0  501    0  0.00000000000E+00 -0.00000000000E+00 -0.37989534430E+03  0.37989534430E+03  0.00000000000E+00 0. -1.
         23    2    1    2    0    0 -0.84915711154E+02  0.14894821740E+02 -0.21045985803E+03  0.24547359002E+03  0.92365566299E+02 0.  0.
          5    1    1    2  502    0  0.10344373010E+03 -0.19703224845E+02 -0.38890772772E+02  0.11233337426E+03  0.41800000000E+01 0. -1.
         -5    1    1    2    0  502 -0.18528018948E+02  0.48084031050E+01 -0.75059019252E+02  0.77574074262E+02  0.41800000000E+01 0. -1.
        -11    1    3    3    0    0 -0.24349995506E+02  0.50265000555E+02 -0.84184600106E+02  0.10102741933E+03  0.00000000000E+00 0. -1.
         11    1    3    3    0    0 -0.60565715647E+02 -0.35370178815E+02 -0.12627525793E+03  0.14444617068E+03  0.00000000000E+00 0.  1.
</event>
<event>
 7    1  0.4096326E-006  0.2326847E+03  0.7561462E-02  0.1124764E+00
          1   -1    0    0  501    0  0.00000000000E+00  0.00000000000E+00  0.57486874296E+02  0.57486874296E+02  0.00000000000E+00 0. -1.
         -1   -1    0    0    0  501 -0.00000000000E+00 -0.00000000000E+00 -0.10088343307E+04  0.10088343307E+04  0.00000000000E+00 0.  1.
         23    2    1    2    0    0  0.10617833301E+03  0.18758705029E+03 -0.44322954746E+03  0.50037856642E+03  0.86391771335E+02 0.  0.
          5    1    1    2  502    0 -0.78628024948E+02 -0.24008232766E+02 -0.19252053786E+03  0.20938097203E+03  0.41800000000E+01 0. -1.
         -5    1    1    2    0  502 -0.27550308065E+02 -0.16357881753E+03 -0.31559737110E+03  0.35656166656E+03  0.41800000000E+01 0. -1.
        -11    1    3    3    0    0  0.46568854122E+02  0.57277975634E+02 -0.24431589191E+03  0.25522476311E+03  0.00000000000E+00 0.  1.
         11    1    3    3    0    0  0.59609478891E+02  0.13030907466E+03 -0.19891365555E+03  0.24515380331E+03  0.00000000000E+00 0. -1.
</event>
<event>
 7    1  0.4096326E-006  0.1135669E+03  0.7561462E-02  0.1254104E+00
         -2   -1    0    0    0  501 -0.00000000000E+00  0.00000000000E+00  0.42666723214E+02  0.42666723214E+02  0.00000000000E+00 0.  1.
          2   -1    0    0  501    0  0.00000000000E+00 -0.00000000000E+00 -0.49336583823E+03  0.49336583823E+03  0.00000000000E+00 0. -1.
         23    2    1    2    0    0 -0.78315383628E+02  0.35237939006E+02 -0.28456392317E+03  0.31103650577E+03  0.91608241410E+02 0.  0.
          5    1    1    2  502    0  0.81867601139E+01  0.37762122741E+02 -0.90721753202E+02  0.98696047839E+02  0.41800000000E+01 0.  1.
         -5    1    1    2    0  502  0.70128623514E+02 -0.73000061746E+02 -0.75413438648E+02  0.12630000784E+03  0.41800000000E+01 0.  1.
        -11    1    3    3    0    0 -0.32741605013E+02  0.22181936958E+02 -0.24141437244E+02  0.46334220812E+02  0.00000000000E+00 0.  1.
         11    1    3    3    0    0 -0.45573778615E+02  0.13056002047E+02 -0.26042248592E+03  0.26470228496E+03  0.00000000000E+00 0. -1.
</event>
<event>
 7    1  0.4096326E-006  0.1260900E+03  0.7561462E-02  0.1233376E+00
          1   -1    0    0  501    0  0.00000000000E+00  0.00000000000E+00  0.12881951084E+03  0.12881951084E+03  0.00000000000E+00 0. -1.
         -1   -1    0    0    0  501 -0.00000000000E+00 -0.00000000000E+00 -0.19177000171E+03  0.19177000171E+03  0.00000000000E+00 0.  1.
         23    2    1    2    0    0 -0.55031225087E+02 -0.53297652804E+02  0.56558630822E+02  0.13138388674E+03  0.90519453408E+02 0.  0.
          5    1    1    2  502    0  0.32699140793E+02  0.92102349124E+02 -0.10091337712E+03  0.14054557483E+03  0.41800000000E+01 0. -1.
         -5    1    1    2    0  502  0.22332084295E+02 -0.38804696320E+02 -0.18595744568E+02  0.48660050981E+02  0.41800000000E+01 0. -1.
        -11    1    3    3    0    0 -0.25886754798E+02  0.18555711179E+02 -0.51790330135E+01  0.32268574098E+02  0.00000000000E+00 0.  1.
         11    1    3    3    0    0 -0.29144470290E+02 -0.71853363983E+02  0.61737663836E+02  0.99115312642E+02  0.00000000000E+00 0. -1.
</event>
<event>
 7    1  0.4096326E-006  0.1089503E+03  0.7561462E-02  0.1262526E+00
         -2   -1    0    0    0  501 -0.00000000000E+00  0.00000000000E+00  0.11222691739E+03  0.11222691739E+03  0.00000000000E+00 0.  1.
          2   -1    0    0  501    0  0.00000000000E+00 -0.00000000000E+00 -0.25746518394E+03  0.25746518394E+03  0.00000000000E+00 0. -1.
         23    2    1    2    0    0 -0.33853559849E+02 -0.41278840850E+02 -0.20047842651E+03  0.22673422892E+03  0.91470240255E+02 0.  0.
          5    1    1    2  502    0 -0.33714864125E+02 -0.46489719839E+01 -0.12752633957E+02  0.36584246286E+02  0.41800000000E+01 0. -1.
         -5    1    1    2    0  502  0.67568423975E+02  0.45927812834E+02  0.67992793913E+02  0.10637362612E+03  0.41800000000E+01 0.  1.
        -11    1    3    3    0    0  0.23039379489E+02  0.10090168631E+02 -0.80698023095E+02  0.84526891825E+02  0.00000000000E+00 0. -1.
         11    1    3    3    0    0 -0.56892939338E+02 -0.51369009481E+02 -0.11978040342E+03  0.14220733710E+03  0.00000000000E+00 0.  1.
</event>
<event>
 7    1  0.4096326E-006  0.1749560E+03  0.7561462E-02  0.1172776E+00
         -1   -1    0    0    0  501 -0.00000000000E+00  0.00000000000E+00  0.47474320637E+02  0.47474320637E+02  0.00000000000E+00 0.  1.
          1   -1    0    0  501    0  0.00000000000E+00 -0.00000000000E+00 -0.75952423153E+03  0.75952423153E+03  0.00000000000E+00 0. -1.
         23    2    1    2    0    0 -0.21160804301E+02  0.15195266347E+03 -0.40461407264E+03  0.44134626529E+03  0.86813515865E+02 0.  0.
          5    1    1    2  502    0 -0.59342665519E+01  0.13337560217E+02 -0.89375758883E+02  0.90656520493E+02  0.41800000000E+01 0. -1.
         -5    1    1    2    0  502  0.27095070853E+02 -0.16529022369E+03 -0.21806007937E+03  0.27499576638E+03  0.41800000000E+01 0. -1.
        -11    1    3    3    0    0 -0.43035581327E+02  0.68418095272E+02 -0.26624362973E+03  0.27824228182E+03  0.00000000000E+00 0.  1.
         11    1    3    3    0    0  0.21874777026E+02  0.83534568200E+02 -0.13837044291E+03  0.16310398347E+03  0.00000000000E+00 0. -1.
</event>
<event>
 7    1  0.4096326E-006  0.1104107E+03  0.7561462E-02  0.1259811E+00
         -2   -1    0    0    0  501 -0.00000000000E+00  0.00000000000E+00  0.22893821253E+02  0.22893821253E+02  0.00000000000E+00 0.  1.
          2   -1    0    0  501    0  0.00000000000E+00 -0.00000000000E+00 -0.84412523469E+03  0.84412523469E+03  0.00000000000E+00 0. -1.
         23    2    1    2    0    0  0.83667288046E+02 -0.21206575686E+02 -0.40623832185E+03  0.42507170293E+03  0.90589428479E+02 0.  0.
          5    1    1    2  502    0 -0.19058380755E+02  0.32389622601E+02 -0.34060725889E+03  0.34269970344E+03  0.41800000000E+01 0. -1.
         -5    1    1    2    0  502 -0.64608907291E+02 -0.11183046915E+02 -0.74385832697E+02  0.99247649572E+02  0.41800000000E+01 0. -1.
        -11    1    3    3    0    0 -0.13282410926E+02 -0.15178160872E+02 -0.27675694992E+02  0.34245336920E+02  0.00000000000E+00 0.  1.
         11    1    3    3    0    0  0.96949698972E+02 -0.60284148137E+01 -0.37856262685E+03  0.39082636601E+03  0.00000000000E+00 0. -1.
</event>
<event>
 7    1  0.4096326E-006  0.9210396E+02  0.7561462E-02  0.1297835E+00
         -1   -1    0    0    0  501 -0.00000000000E+00  0.00000000000E+00  0.22535331971E+03  0.22535331971E+03  0.00000000000E+00 0.  1.
          1   -1    0    0  501    0  0.00000000000E+00 -0.00000000000E+00 -0.70135285832E+02  0.70135285832E+02  0.00000000000E+00 0. -1.
         23    2    1    2    0    0  0.16806251588E+02 -0.15492043455E+02  0.98730948859E+00  0.95596844515E+02  0.92818793346E+02 0.  0.
          5    1    1    2  502    0  0.36807806446E+02 -0.17675822237E+02  0.97319066674E+01  0.42183310853E+02  0.41800000000E+01 0.  1.
         -5    1    1    2    0  502 -0.53614058034E+02  0.33167865692E+02  0.14449881772E+03  0.15770845017E+03  0.41800000000E+01 0.  1.
        -11    1    3    3    0    0 -0.30829396200E+02 -0.60168868646E+01  0.26173026462E+02  0.40886206865E+02  0.00000000000E+00 0.  1.
         11    1    3    3    0    0  0.47635647788E+02 -0.94751565907E+01 -0.25185716974E+02  0.54710637650E+02  0.00000000000E+00 0. -1.
</event>
<event>
 7    1  0.4096326E-006  0.2040376E+03  0.7561462E-02  0.1146377E+00
          1   -1    0    0  501    0  0.00000000000E+00  0.00000000000E+00  0.67347562993E+03  0.67347562993E+03  0.00000000000E+00 0. -1.
         -1   -1    0    0    0  501 -0.00000000000E+00 -0.00000000000E+00 -0.14535139434E+03  0.14535139434E+03  0.00000000000E+00 0.  1.
         23    2    1    2    0    0  0.72289237247E+02  0.15744873017E+03  0.56861889722E+03  0.60133235024E+03  0.90869734825E+02 0.  0.
          5    1    1    2  502    0 -0.92364863101E+02 -0.52286725186E+02 -0.14126197483E+02  0.10715498785E+03  0.41800000000E+01 0. -1.
         -5    1    1    2    0  502  0.20075625854E+02 -0.10516200498E+03 -0.26368464147E+02  0.11033968618E+03  0.41800000000E+01 0. -1.
        -11    1    3    3    0    0  0.85165965613E+02  0.82179500064E+02  0.37352526741E+03  0.39182628462E+03  0.00000000000E+00 0.  1.
         11    1    3    3    0    0 -0.12876728366E+02  0.75269230102E+02  0.19509362982E+03  0.20950606561E+03  0.00000000000E+00 0. -1.
</event>
<event>
 7    1  0.4096326E-006  0.1288205E+03  0.7561462E-02  0.1229216E+00
         -2   -1    0    0    0  501 -0.00000000000E+00  0.00000000000E+00  0.62813106400E+02  0.62813106400E+02  0.00000000000E+00 0.  1.
          2   -1    0    0  501    0  0.00000000000E+00 -0.00000000000E+00 -0.30142137448E+03  0.30142137448E+03  0.00000000000E+00 0. -1.
         23    2    1    2    0    0  0.80097635357E+02 -0.22012361545E+02 -0.12986929391E+03  0.17883746542E+03  0.90645630253E+02 0.  0.
          5    1    1    2  502    0 -0.59991381671E+02 -0.39089366501E+02 -0.95760137456E+02  0.11964288852E+03  0.41800000000E+01 0.  1.
         -5    1    1    2    0  502 -0.20106253686E+02  0.61101728047E+02 -0.12978836709E+02  0.65754126942E+02  0.41800000000E+01 0.  1.
        -11    1    3    3    0    0 -0.78822434208E+01 -0.31958005523E+02 -0.23518720171E+02  0.40454592779E+02  0.00000000000E+00 0.  1.
         11    1    3    3    0    0  0.87979878778E+02  0.99456439780E+01 -0.10635057374E+03  0.13838287264E+03  0.00000000000E+00 0. -1.
</event>
<event>
 7    1  0.4096326E-006  0.8949253E+02  0.7561462E-02  0.1304085E+00
          2   -1    0    0  501    0  0.00000000000E+00  0.00000000000E+00  0.62344625349E+02  0.62344625349E+02  0.00000000000E+00 0. -1.
         -2   -1    0    0    0  501 -0.00000000000E+00 -0.00000000000E+00 -0.25989436191E+03  0.25989436191E+03  0.00000000000E+00 0.  1.
         23    2    1    2    0    0  0.14533342812E+02 -0.17648411161E+02 -0.35335781156E+02  0.11612604225E+03  0.10823102970E+03 0.  0.
          5    1    1    2  502    0 -0.17897071734E+02  0.64109727470E+02 -0.46494307009E+02  0.81299171688E+02  0.41800000000E+01 0. -1.
         -5    1    1    2    0  502  0.33637289218E+01 -0.46461316309E+02 -0.11571964840E+03  0.12481377332E+03  0.41800000000E+01 0. -1.
        -11    1    3    3    0    0  0.27548281972E+02  0.14290306422E+02 -0.64099476573E+02  0.71217017589E+02  0.00000000000E+00 0.  1.
         11    1    3    3    0    0 -0.13014939161E+02 -0.31938717583E+02  0.28763695417E+02  0.44909024663E+02  0.00000000000E+00 0. -1.
</event>
<event>
 7    1  0.4096326E-006  0.1098102E+03  0.7561462E-02  0.1260922E+00
         -2   -1    0    0    0  501 -0.00000000000E+00  0.00000000000E+00  0.22666470214E+02  0.22666470214E+02  0.00000000000E+00 0.  1.
          2   -1    0    0  501    0  0.00000000000E+00 -0.00000000000E+00 -0.57145745778E+03  0.57145745778E+03  0.00000000000E+00 0. -1.
         23    2    1    2    0    0  0.12056387974E+02  0.25070178615E+02 -0.29060030431E+03  0.30589539665E+03  0.91376071685E+02 0.  0.
          5    1    1    2  502    0 -0.18348279798E+02  0.49092043311E+02 -0.89484830450E+02  0.10378677839E+03  0.41800000000E+01 0.  1.
         -5    1    1    2    0  502  0.62918918240E+01 -0.74162221925E+02 -0.16870585281E+03  0.18444175296E+03  0.41800000000E+01 0.  1.
        -11    1    3    3    0    0 -0.16663754433E+02  0.51093825231E+02 -0.12970777178E+03  0.14040073272E+03  0.00000000000E+00 0.  1.
         11    1    3    3    0    0  0.28720142407E+02 -0.26023646617E+02 -0.16089253253E+03  0.16549466393E+03  0.00000000000E+00 0. -1.
</event>
<event>
 7    1  0.4096326E-006  0.1211735E+03  0.7561462E-02  0.1241174E+00
          1   -1    0    0  501    0  0.00000000000E+00  0.00000000000E+00  0.12142869877E+03  0.12142869877E+03  0.00000000000E+00 0. -1.
         -1   -1    0    0    0  501 -0.00000000000E+00 -0.00000000000E+00 -0.17059039143E+03  0.17059039143E+03  0.00000000000E+00 0.  1.
         23    2    1    2    0    0  0.74093820848E+02  0.21082104229E+02  0.33358873278E+02  0.12352318797E+03  0.90613542764E+02 0.  0.
          5    1    1    2  502    0 -0.66128902985E+02 -0.57221701593E+02 -0.95027836866E+02  0.12920958603E+03  0.41800000000E+01 0. -1.
         -5    1    1    2    0  502 -0.79649178629E+01  0.36139597364E+02  0.12507270930E+02  0.39286316197E+02  0.41800000000E+01 0. -1.
        -11    1    3    3    0    0  0.94038654721E+02  0.24830657106E+02  0.34494531385E+02  0.10319739730E+03  0.00000000000E+00 0. -1.
         11    1    3    3    0    0 -0.19944833872E+02 -0.37485528766E+01 -0.11356581069E+01  0.20325790666E+02  0.00000000000E+00 0.  1.
</event>
<event>
 7    1  0.4096326E-006  0.1158078E+03  0.7561462E-02  0.1250178E+00
          1   -1    0    0  501    0  0.00000000000E+00  0.00000000000E+00  0.14515760247E+03  0.14515760247E+03  0.00000000000E+00 0. -1.
         -1   -1    0    0    0  501 -0.00000000000E+00 -0.00000000000E+00 -0.11492596539E+03  0.11492596539E+03  0.00000000000E+00 0.  1.
         23    2    1    2    0    0  0.41084648065E+02 -0.31163459209E+02  0.57784783955E+02  0.12200441991E+03  0.94270290780E+02 0.  0.
          5    1    1    2  502    0 -0.15782243510E+02 -0.42838777360E+02 -0.37370693462E+02  0.59146269415E+02  0.41800000000E+01 0. -1.
         -5    1    1    2    0  502 -0.25302404554E+02  0.74002236568E+02  0.98175465815E+01  0.78932878538E+02  0.41800000000E+01 0. -1.
        -11    1    3    3    0    0  0.46725328472E+02 -0.61139013476E+02  0.41628188643E+02  0.87487949909E+02  0.00000000000E+00 0. -1.
         11    1    3    3    0    0 -0.56406804072E+01  0.29975554267E+02  0.16156595312E+02  0.34516469998E+02  0.00000000000E+00 0.  1.
</event>
<event>
 7    1  0.4096326E-006  0.9038518E+02  0.7561462E-02  0.1301922E+00
          2   -1    0    0  501    0  0.00000000000E+00  0.00000000000E+00  0.30491871976E+03  0.30491871976E+03  0.00000000000E+00 0. -1.
         -2   -1    0    0    0  501 -0.00000000000E+00 -0.00000000000E+00 -0.41769117593E+02  0.41769117593E+02  0.00000000000E+00 0.  1.
         23    2    1    2    0    0  0.32655064376E+02  0.27479296488E+01  0.12133776623E+03  0.15477074291E+03  0.90317357146E+02 0.  0.
          5    1    1    2  502    0 -0.35941623450E+02 -0.36314316632E+02  0.56457215211E+01  0.51573990151E+02  0.41800000000E+01 0. -1.
         -5    1    1    2    0  502  0.32865590740E+01  0.33566386983E+02  0.13616611442E+03  0.14034310429E+03  0.41800000000E+01 0. -1.
        -11    1    3    3    0    0 -0.10805184249E+02  0.38034673350E+02  0.42146081534E+02  0.57789969477E+02  0.00000000000E+00 0.  1.
         11    1    3    3    0    0  0.43460248625E+02 -0.35286743701E+02  0.79191684693E+02  0.96980773435E+02  0.00000000000E+00 0. -1.
</event>
<event>
 7    1  0.4096326E-006  0.1453675E+03  0.7561462E-02  0.1206284E+00
          1   -1    0    0  501    0  0.00000000000E+00  0.00000000000E+00  0.72592996693E+03  0.72592996693E+03  0.00000000000E+00 0.  1.
         -1   -1    0    0    0  501 -0.00000000000E+00 -0.00000000000E+00 -0.38243929461E+02  0.38243929461E+02  0.00000000000E+00 0. -1.
         23    2    1    2    0    0 -0.69542708570E+02 -0.99381040244E+02  0.39968434213E+03  0.42756478213E+03  0.91385393234E+02 0.  0.
          5    1    1    2  502    0 -0.24270235843E+02  0.63807969714E+02  0.15933833198E+03  0.17339745611E+03  0.41800000000E+01 0.  1.
         -5    1    1    2    0  502  0.93812944413E+02  0.35573070530E+02  0.12866336335E+03  0.16321165815E+03  0.41800000000E+01 0.  1.
        -11    1    3    3    0    0 -0.30950411646E+02 -0.54975021830E+02  0.33175381019E+03  0.33769923243E+03  0.00000000000E+00 0.  1.
         11    1    3    3    0    0 -0.38592296923E+02 -0.44406018414E+02  0.67930531939E+02  0.89865549699E+02  0.00000000000E+00 0. -1.
</event>
<event>
 7    1  0.4096326E-006  0.1501659E+03  0.7561462E-02  0.1200269E+00
          3   -1    0    0  501    0  0.00000000000E+00  0.00000000000E+00  0.28563991346E+03  0.28563991346E+03  0.00000000000E+00 0. -1.
         -3   -1    0    0    0  501 -0.00000000000E+00 -0.00000000000E+00 -0.83908376309E+02  0.83908376309E+02  0.00000000000E+00 0.  1.
         23    2    1    2    0    0 -0.10927584607E+03  0.61615921683E+01  0.10537468928E+03  0.17742184874E+03  0.91627023929E+02 0.  0.
          5    1    1    2  502    0 -0.14612711772E+02  0.31025962958E+02  0.33989912786E+02  0.48465743511E+02  0.41800000000E+01 0.  1.
         -5    1    1    2    0  502  0.12388855785E+03 -0.37187555127E+02  0.62366935083E+02  0.14366069752E+03  0.41800000000E+01 0.  1.
        -11    1    3    3    0    0 -0.78349812348E+02 -0.34224880795E+02  0.39469685123E+02  0.94169483401E+02  0.00000000000E+00 0.  1.
         11    1    3    3    0    0 -0.30926033727E+02  0.40386472963E+02  0.65905004160E+02  0.83252365335E+02  0.00000000000E+00 0. -1.
</event>
<event>
 7    1  0.4096326E-006  0.1285809E+03  0.7561462E-02  0.1229577E+00
          2   -1    0    0  501    0  0.00000000000E+00  0.00000000000E+00  0.13706399927E+03  0.13706399927E+03  0.00000000000E+00 0.  1.
         -2   -1    0    0    0  501 -0.00000000000E+00 -0.00000000000E+00 -0.14919024510E+03  0.14919024510E+03  0.00000000000E+00 0. -1.
         23    2    1    2    0    0  0.16171237433E+02  0.89805072216E+02  0.16347356155E+02  0.12882199538E+03  0.89450603831E+02 0.  0.
          5    1    1    2  502    0 -0.50736242748E+02  0.74054730077E+01 -0.63852792109E+01  0.51838707056E+02  0.41800000000E+01 0. -1.
         -5    1    1    2    0  502  0.34565005315E+02 -0.97210545223E+02 -0.22088322775E+02  0.10559354193E+03  0.41800000000E+01 0. -1.
        -11    1    3    3    0    0  0.31391609975E+02  0.42976657193E+02 -0.30090990038E+02  0.61138317950E+02  0.00000000000E+00 0. -1.
         11    1    3    3    0    0 -0.15220372542E+02  0.46828415022E+02  0.46438346193E+02  0.67683677434E+02  0.00000000000E+00 0.  1.
</event>
<event>
 7    1  0.4096326E-006  0.1549058E+03  0.7561462E-02  0.1194571E+00
          1   -1    0    0  501    0  0.00000000000E+00  0.00000000000E+00  0.58161280113E+03  0.58161280113E+03  0.00000000000E+00 0. -1.
         -1   -1    0    0    0  501 -0.00000000000E+00 -0.00000000000E+00 -0.44739951974E+02  0.44739951974E+02  0.00000000000E+00 0.  1.
         23    2    1    2    0    0 -0.47613840151E+02  0.10740897116E+03  0.28070202518E+03  0.31801356745E+03  0.92386347935E+02 0.  0.
          5    1    1    2  502    0 -0.35864950321E+02 -0.19434086970E+02  0.27221645632E+02  0.49218581743E+02  0.41800000000E+01 0. -1.
         -5    1    1    2    0  502  0.83478790473E+02 -0.87974884186E+02  0.22894917835E+03  0.25912060391E+03  0.41800000000E+01 0. -1.
        -11    1    3    3    0    0  0.10945053746E+02 -0.10900882614E+02  0.16112577644E+02  0.22321258961E+02  0.00000000000E+00 0. -1.
         11    1    3    3    0    0 -0.58558893897E+02  0.11830985377E+03  0.26458944753E+03  0.29569230849E+03  0.00000000000E+00 0.  1.
</event>
<event>
 7    1  0.6430771E-006  0.3335478E+03  0.7561462E-02  0.1069578E+00
         -2   -1    0    0    0  501 -0.00000000000E+00  0.00000000000E+00  0.20101419272E+03  0.20101419272E+03  0.00000000000E+00 0.  1.
          2   -1    0    0  501    0  0.00000000000E+00 -0.00000000000E+00 -0.62026657385E+03  0.62026657385E+03  0.00000000000E+00 0. -1.
         23    2    1    2    0    0 -0.11734732697E+03  0.29592305109E+03 -0.33016538249E+03  0.46783305244E+03  0.92291591411E+02 0.  0.
          5    1    1    2  502    0  0.11050013572E+03 -0.30797630951E+03 -0.88380023610E+02  0.33895160154E+03  0.41800000000E+01 0.  1.
         -5    1    1    2    0  502  0.68471912499E+01  0.12053258421E+02 -0.70697503041E+00  0.14496112591E+02  0.41800000000E+01 0.  1.
        -11    1    3    3    0    0 -0.98948308444E+02  0.15926808830E+03 -0.14532180707E+03  0.23722461783E+03  0.00000000000E+00 0.  1.
         11    1    3    3    0    0 -0.18399018527E+02  0.13665496279E+03 -0.18484357542E+03  0.23060843461E+03  0.00000000000E+00 0. -1.
</event>
<event>
 7    1  0.4096326E-006  0.1936434E+03  0.7561462E-02  0.1155216E+00
         -2   -1    0    0    0  501 -0.00000000000E+00  0.00000000000E+00  0.19819549058E+03  0.19819549058E+03  0.00000000000E+00 0.  1.
          2   -1    0    0  501    0  0.00000000000E+00 -0.00000000000E+00 -0.39492849500E+03  0.39492849500E+03  0.00000000000E+00 0. -1.
         23    2    1    2    0    0 -0.21322067005E+02 -0.40887704334E+01 -0.26070415923E+02  0.95285599531E+02  0.89041171974E+02 0.  0.
          5    1    1    2  502    0 -0.10267231126E+03 -0.10395537775E+03 -0.26901727528E+03  0.30616350347E+03  0.41800000000E+01 0. -1.
         -5    1    1    2    0  502  0.12399437826E+03  0.10804414818E+03  0.98354686781E+02  0.19167488257E+03  0.41800000000E+01 0.  1.
        -11    1    3    3    0    0 -0.47584402863E+02  0.69927521163E+01 -0.40917616409E+02  0.63146063302E+02  0.00000000000E+00 0.  1.
         11    1    3    3    0    0  0.26262335857E+02 -0.11081522550E+02  0.14847200486E+02  0.32139536229E+02  0.00000000000E+00 0. -1.
</event>
<event>
 7    1  0.4096326E-006  0.8365524E+02  0.7561462E-02  0.1318987E+00
         -1   -1    0    0    0  501 -0.00000000000E+00  0.00000000000E+00  0.41497110049E+03  0.41497110049E+03  0.00000000000E+00 0.  1.
          1   -1    0    0  501    0  0.00000000000E+00 -0.00000000000E+00 -0.36529705651E+02  0.36529705651E+02  0.00000000000E+00 0. -1.
         23    2    1    2    0    0 -0.23187252567E+02 -0.94088074249E+01  0.72846887802E+02  0.12034680937E+03  0.92468973849E+02 0.  0.
          5    1    1    2  502    0  0.55553409157E+02  0.25679473559E+02  0.71381242540E+02  0.94118918491E+02  0.41800000000E+01 0.  1.
         -5    1    1    2    0  502 -0.32366156590E+02 -0.16270666134E+02  0.23421326449E+03  0.23703507828E+03  0.41800000000E+01 0.  1.
        -11    1    3    3    0    0  0.12121061733E+02  0.20108519632E+02  0.70454164461E+02  0.74263463353E+02  0.00000000000E+00 0.  1.
         11    1    3    3    0    0 -0.35308314299E+02 -0.29517327057E+02  0.23927233408E+01  0.46083346018E+02  0.00000000000E+00 0. -1.
</event>
<event>
 7    1  0.4096326E-006  0.6585154E+02  0.7561462E-02  0.1374797E+00
         -2   -1    0    0    0  501 -0.00000000000E+00  0.00000000000E+00  0.13892265490E+03  0.13892265490E+03  0.00000000000E+00 0.  1.
          2   -1    0    0  501    0  0.00000000000E+00 -0.00000000000E+00 -0.86229860167E+02  0.86229860167E+02  0.00000000000E+00 0. -1.
         23    2    1    2    0    0  0.99178001937E+01 -0.39800992839E+01  0.26286165186E+02  0.96860371096E+02  0.92610825812E+02 0.  0.
          5    1    1    2  502    0 -0.39605347367E+02  0.35443799112E+02  0.54739901946E+02  0.76411881933E+02  0.41800000000E+01 0. -1.
         -5    1    1    2    0  502  0.29687547173E+02 -0.31463699828E+02 -0.28333272401E+02  0.51880262036E+02  0.41800000000E+01 0. -1.
        -11    1    3    3    0    0  0.19537282424E+02 -0.11543511238E+02  0.58314367325E+02  0.62574143963E+02  0.00000000000E+00 0.  1.
         11    1    3    3    0    0 -0.96194822303E+01  0.75634119537E+01 -0.32028202139E+02  0.34286227133E+02  0.00000000000E+00 0. -1.
</event>
<event>
 7    1  0.4096326E-006  0.1460605E+03  0.7561462E-02  0.1205399E+00
         -2   -1    0    0    0  501 -0.00000000000E+00  0.00000000000E+00  0.96025251405E+02  0.96025251405E+02  0.00000000000E+00 0.  1.
          2   -1    0    0  501    0  0.00000000000E+00 -0.00000000000E+00 -0.36055734473E+03  0.36055734473E+03  0.00000000000E+00 0. -1.
         23    2    1    2    0    0  0.40133240193E+01  0.12759377960E+03 -0.23544890323E+03  0.28450030877E+03  0.95958117413E+02 0.  0.
          5    1    1    2  502    0 -0.48614021659E+02 -0.58095471114E+02 -0.44525584712E+02  0.87968215622E+02  0.41800000000E+01 0. -1.
         -5    1    1    2    0  502  0.44600697639E+02 -0.69498308489E+02  0.15442394618E+02  0.84114071738E+02  0.41800000000E+01 0.  1.
        -11    1    3    3    0    0  0.18328247313E+02  0.31736108961E+02 -0.83547515346E+01  0.37588656996E+02  0.00000000000E+00 0.  1.
         11    1    3    3    0    0 -0.14314923294E+02  0.95857670642E+02 -0.22709415169E+03  0.24691165178E+03  0.00000000000E+00 0. -1.
</event>
<event>
 7    1  0.4096326E-006  0.1130181E+03  0.7561462E-02  0.1255081E+00
          2   -1    0    0  501    0  0.00000000000E+00  0.00000000000E+00  0.27172412783E+03  0.27172412783E+03  0.00000000000E+00 0.  1.
         -2   -1    0    0    0  501 -0.00000000000E+00 -0.00000000000E+00 -0.76751811829E+02  0.76751811829E+02  0.00000000000E+00 0. -1.
         23    2    1    2    0    0 -0.62747501227E+02 -0.70868825479E+02  0.76317402287E+02  0.15178744759E+03  0.90859474015E+02 0.  0.
          5    1    1    2  502    0 -0.61350021677E+01 -0.46277150197E+01 -0.21481464079E+02  0.23194389341E+02  0.41800000000E+01 0. -1.
         -5    1    1    2    0  502  0.68882503395E+02  0.75496540499E+02  0.14013637779E+03  0.17349410273E+03  0.41800000000E+01 0. -1.
        -11    1    3    3    0    0  0.12503184682E+02 -0.13837670361E+01 -0.11368532194E+02  0.16955469992E+02  0.00000000000E+00 0. -1.
         11    1    3    3    0    0 -0.75250685909E+02 -0.69485058443E+02  0.87685934481E+02  0.13483197760E+03  0.00000000000E+00 0.  1.
</event>
<event>
 7    1  0.4096326E-006  0.1548479E+03  0.7561462E-02  0.1194639E+00
         -1   -1    0    0    0  501 -0.00000000000E+00  0.00000000000E+00  0.90770189948E+03  0.90770189948E+03  0.00000000000E+00 0.  1.
          1   -1    0    0  501    0  0.00000000000E+00 -0.00000000000E+00 -0.37152505258E+02  0.37152505258E+02  0.00000000000E+00 0. -1.
         23    2    1    2    0    0 -0.40336325843E+02  0.13872272865E+03  0.33117434908E+03  0.37262823842E+03  0.91128151253E+02 0.  0.
          5    1    1    2  502    0  0.16836147814E+02  0.46681713417E+01  0.53115903642E+01  0.18733208190E+02  0.41800000000E+01 0.  1.
         -5    1    1    2    0  502  0.23500178029E+02 -0.14339090000E+03  0.53406345478E+03  0.55349295813E+03  0.41800000000E+01 0.  1.
        -11    1    3    3    0    0 -0.31276933038E+02  0.65476948412E+02  0.26059203274E+03  0.27050634899E+03  0.00000000000E+00 0.  1.
         11    1    3    3    0    0 -0.90593928052E+01  0.73245780242E+02  0.70582316333E+02  0.10212188943E+03  0.00000000000E+00 0. -1.
</event>
<event>
 7    1  0.4096326E-006  0.1748228E+03  0.7561462E-02  0.1172910E+00
          3   -1    0    0  501    0  0.00000000000E+00  0.00000000000E+00  0.62213085193E+02  0.62213085193E+02  0.00000000000E+00 0. -1.
         -3   -1    0    0    0  501 -0.00000000000E+00 -0.00000000000E+00 -0.58195099756E+03  0.58195099756E+03  0.00000000000E+00 0.  1.
         23    2    1    2    0    0  0.15073522589E+03  0.23971932712E+02 -0.28479084673E+03  0.33733614559E+03  0.96923097645E+02 0.  0.
          5    1    1    2  502    0 -0.10238620997E+03  0.45624606075E+02 -0.12499219085E+03  0.16794362401E+03  0.41800000000E+01 0. -1.
         -5    1    1    2    0  502 -0.48349015913E+02 -0.69596538786E+02 -0.10995487478E+03  0.13888431315E+03  0.41800000000E+01 0. -1.
        -11    1    3    3    0    0  0.79532798269E+02  0.12908818280E+02 -0.23837394317E+03  0.25162321112E+03  0.00000000000E+00 0.  1.
         11    1    3    3    0    0  0.71202427618E+02  0.11063114432E+02 -0.46416903563E+02  0.85712934474E+02  0.00000000000E+00 0. -1.
</event>
<event>
 7    1  0.4096326E-006  0.1640840E+03  0.7561462E-02  0.1184162E+00
         -2   -1    0    0    0  501 -0.00000000000E+00  0.00000000000E+00  0.78422280471E+02  0.78422280471E+02  0.00000000000E+00 0.  1.
          2   -1    0    0  501    0  0.00000000000E+00 -0.00000000000E+00 -0.48191206409E+03  0.48191206409E+03  0.00000000000E+00 0. -1.
         23    2    1    2    0    0 -0.85202746003E+02 -0.95259039883E+02 -0.33300377378E+03  0.36811543646E+03  0.91014661438E+02 0.  0.
          5    1    1    2  502    0  0.10172206867E+03  0.11151678086E+03 -0.45100543784E+02  0.15759093603E+03  0.41800000000E+01 0. -1.
         -5    1    1    2    0  502 -0.16519322671E+02 -0.16257740982E+02 -0.25385466048E+02  0.34627972072E+02  0.41800000000E+01 0. -1.
        -11    1    3    3    0    0 -0.84506670373E+01 -0.73299734903E+02 -0.19764468879E+03  0.21096845242E+03  0.00000000000E+00 0. -1.
         11    1    3    3    0    0 -0.76752078965E+02 -0.21959304981E+02 -0.13535908500E+03  0.15714698404E+03  0.00000000000E+00 0.  1.
</event>
<event>
 7    1  0.4096326E-006  0.3991057E+03  0.7561462E-02  0.1044090E+00
         -3   -1    0    0    0  501 -0.00000000000E+00  0.00000000000E+00  0.11229967959E+04  0.11229967959E+04  0.00000000000E+00 0.  1.
          3   -1    0    0  501    0  0.00000000000E+00 -0.00000000000E+00 -0.15544459501E+03  0.15544459501E+03  0.00000000000E+00 0. -1.
         23    2    1    2    0    0  0.26369351600E+03 -0.29900283685E+03  0.38649337444E+03  0.56275002604E+03  0.91506811204E+02 0.  0.
          5    1    1    2  502    0 -0.21884516576E+03  0.23981995790E+03  0.37185357610E+03  0.49365916708E+03  0.41800000000E+01 0.  1.
         -5    1    1    2    0  502 -0.44848350238E+02  0.59182878949E+02  0.20920525030E+03  0.22203219774E+03  0.41800000000E+01 0.  1.
        -11    1    3    3    0    0  0.18256839262E+03 -0.22030750353E+03  0.32876970574E+03  0.43583957313E+03  0.00000000000E+00 0.  1.
         11    1    3    3    0    0  0.81125123375E+02 -0.78695333323E+02  0.57723668709E+02  0.12691045291E+03  0.00000000000E+00 0. -1.
</event>
<event>
 7    1  0.4096326E-006  0.2338361E+03  0.7561462E-02  0.1123968E+00
         -1   -1    0    0    0  501 -0.00000000000E+00  0.00000000000E+00  0.11940615422E+03  0.11940615422E+03  0.00000000000E+00 0.  1.
          1   -1    0    0  501    0  0.00000000000E+00 -0.00000000000E+00 -0.65135071262E+03  0.65135071262E+03  0.00000000000E+00 0. -1.
         23    2    1    2    0    0 -0.64529978093E+02  0.20999327301E+03 -0.44255165591E+03  0.50262137465E+03  0.92276678122E+02 0.  0.
          5    1    1    2  502    0 -0.28009964247E+01 -0.10298168585E+03  0.14913401926E+02  0.10417751753E+03  0.41800000000E+01 0. -1.
         -5    1    1    2    0  502  0.67330974517E+02 -0.10701158716E+03 -0.10430630441E+03  0.16395797466E+03  0.41800000000E+01 0. -1.
        -11    1    3    3    0    0  0.20646333077E+02  0.15745414295E+02 -0.41977683762E+02  0.49359042483E+02  0.00000000000E+00 0.  1.
         11    1    3    3    0    0 -0.85176311169E+02  0.19424785871E+03 -0.40057397215E+03  0.45326233217E+03  0.00000000000E+00 0. -1.
</event>
<event>
 7    1  0.4096326E-006  0.1068377E+03  0.7561462E-02  0.1266541E+00
         -1   -1    0    0    0  501 -0.00000000000E+00  0.00000000000E+00  0.50591584618E+02  0.50591584618E+02  0.00000000000E+00 0.  1.
          1   -1    0    0  501    0  0.00000000000E+00 -0.00000000000E+00 -0.30976830403E+03  0.30976830403E+03  0.00000000000E+00 0. -1.
         23    2    1    2    0    0  0.16751620733E+02  0.46348370074E+02 -0.16827459541E+03  0.19807724995E+03  0.92138316027E+02 0.  0.
          5    1    1    2  502    0  0.42085559011E+02 -0.25631424754E+02 -0.86463944366E+02  0.99607481083E+02  0.41800000000E+01 0.  1.
         -5    1    1    2    0  502 -0.58837179745E+02 -0.20716945319E+02 -0.44381796327E+01  0.62675157615E+02  0.41800000000E+01 0.  1.
        -11    1    3    3    0    0  0.86676976436E+01 -0.26771047220E+02 -0.68994503169E+02  0.74512142763E+02  0.00000000000E+00 0. -1.
         11    1    3    3    0    0  0.80839230898E+01  0.73119417293E+02 -0.99280092243E+02  0.12356510719E+03  0.00000000000E+00 0.  1.
</event>
<event>
 7    1  0.4096326E-006  0.1383870E+03  0.7561462E-02  0.1215516E+00
          2   -1    0    0  501    0  0.00000000000E+00  0.00000000000E+00  0.76266463834E+02  0.76266463834E+02  0.00000000000E+00 0.  1.
         -2   -1    0    0    0  501 -0.00000000000E+00 -0.00000000000E+00 -0.32838842610E+03  0.32838842610E+03  0.00000000000E+00 0. -1.
         23    2    1    2    0    0 -0.10880186762E+03 -0.60281219890E+01 -0.84388877733E+02  0.16873359851E+03  0.97341460479E+02 0.  0.
          5    1    1    2  502    0 -0.19385719260E+02  0.11197222929E+02 -0.72774743523E+02  0.76254964477E+02  0.41800000000E+01 0. -1.
         -5    1    1    2    0  502  0.12818758688E+03 -0.51691009399E+01 -0.94958341010E+02  0.15966632695E+03  0.41800000000E+01 0. -1.
        -11    1    3    3    0    0 -0.25551229625E+02  0.25988336718E+02  0.11069182345E+02  0.38089181909E+02  0.00000000000E+00 0.  1.
         11    1    3    3    0    0 -0.83250637993E+02 -0.32016458707E+02 -0.95458060078E+02  0.13064441660E+03  0.00000000000E+00 0. -1.
</event>
<event>
 7    1  0.4096326E-006  0.3430596E+03  0.7561462E-02  0.1065500E+00
          2   -1    0    0  501    0  0.00000000000E+00  0.00000000000E+00  0.99670630166E+03  0.99670630166E+03  0.00000000000E+00 0. -1.
         -2   -1    0    0    0  501 -0.00000000000E+00 -0.00000000000E+00 -0.12958663814E+03  0.12958663814E+03  0.00000000000E+00 0.  1.
         23    2    1    2    0    0 -0.29746632560E+03 -0.16091860949E+03  0.50989461064E+03  0.61871183863E+03  0.91819450850E+02 0.  0.
          5    1    1    2  502    0  0.87122042750E+02  0.84349240692E+02  0.20026688173E+03  0.23415665922E+03  0.41800000000E+01 0. -1.
         -5    1    1    2    0  502  0.21034428285E+03  0.76569368799E+02  0.15695817115E+03  0.27342444195E+03  0.41800000000E+01 0. -1.
        -11    1    3    3    0    0 -0.10982271210E+03 -0.83268203346E+02  0.13830040690E+03  0.19524759750E+03  0.00000000000E+00 0.  1.
         11    1    3    3    0    0 -0.18764361351E+03 -0.77650406146E+02  0.37159420374E+03  0.42346424113E+03  0.00000000000E+00 0. -1.
</event>
<event>
 7    1  0.4096326E-006  0.5731547E+02  0.7561462E-02  0.1409456E+00
         -1   -1    0    0    0  501 -0.00000000000E+00  0.00000000000E+00  0.37741063045E+03  0.37741063045E+03  0.00000000000E+00 0.  1.
          1   -1    0    0  501    0  0.00000000000E+00 -0.00000000000E+00 -0.50007742246E+02  0.50007742246E+02  0.00000000000E+00 0. -1.
         23    2    1    2    0    0  0.29953211394E+02 -0.18530446751E+02  0.28489727798E+02  0.10143185754E+03  0.90753428614E+02 0.  0.
          5    1    1    2  502    0 -0.45534211864E+02 -0.56654361742E+00  0.27368248788E+02  0.53293328508E+02  0.41800000000E+01 0.  1.
         -5    1    1    2    0  502  0.15581000471E+02  0.19096990368E+02  0.27154491162E+03  0.27269318665E+03  0.41800000000E+01 0.  1.
        -11    1    3    3    0    0  0.12132411454E+02  0.60380842508E+01  0.57722637163E+02  0.59292130255E+02  0.00000000000E+00 0.  1.
         11    1    3    3    0    0  0.17820799940E+02 -0.24568531002E+02 -0.29232909364E+02  0.42139727289E+02  0.00000000000E+00 0. -1.
</event>
<event>
 7    1  0.4096326E-006  0.1212844E+03  0.7561462E-02  0.1240993E+00
         -1   -1    0    0    0  501 -0.00000000000E+00  0.00000000000E+00  0.40011440305E+03  0.40011440305E+03  0.00000000000E+00 0.  1.
          1   -1    0    0  501    0  0.00000000000E+00 -0.00000000000E+00 -0.63770494467E+02  0.63770494467E+02  0.00000000000E+00 0. -1.
         23    2    1    2    0    0 -0.60912776233E+02 -0.22632889487E+02  0.13213428536E+02  0.11134669833E+03  0.89447630156E+02 0.  0.
          5    1    1    2  502    0  0.81781320288E+02 -0.24407953781E+02  0.23913498251E+03  0.25394279832E+03  0.41800000000E+01 0. -1.
         -5    1    1    2    0  502 -0.20868544055E+02  0.47040843268E+02  0.83995497528E+02  0.98595400863E+02  0.41800000000E+01 0. -1.
        -11    1    3    3    0    0 -0.57425186605E+02  0.21426091352E+02  0.24048448454E+02  0.65841152179E+02  0.00000000000E+00 0. -1.
         11    1    3    3    0    0 -0.34875896284E+01 -0.44058980839E+02 -0.10835019918E+02  0.45505546152E+02  0.00000000000E+00 0.  1.
</event>
<event>
 7    1  0.6287716E-006  0.1867514E+03  0.7561462E-02  0.1161424E+00
         -4   -1    0    0    0  501 -0.00000000000E+00  0.00000000000E+00  0.16318199172E+03  0.16318199172E+03  0.00000000000E+00 0.  1.
          4   -1    0    0  501    0  0.00000000000E+00 -0.00000000000E+00 -0.26772477438E+03  0.26772477438E+03  0.00000000000E+00 0. -1.
         23    2    1    2    0    0 -0.14050528540E+03  0.10567864628E+03 -0.82379344169E+02  0.21400038164E+03  0.90000530500E+02 0.  0.
          5    1    1    2  502    0  0.13821264074E+03 -0.11029539944E+03 -0.53566466623E+02  0.18480976150E+03  0.41800000000E+01 0. -1.
         -5    1    1    2    0  502  0.22926446540E+01  0.46167531577E+01  0.31403028134E+02  0.32096622957E+02  0.41800000000E+01 0. -1.
        -11    1    3    3    0    0 -0.37819656857E+02  0.73025183389E+02 -0.70736753177E+01  0.82541145717E+02  0.00000000000E+00 0.  1.
         11    1    3    3    0    0 -0.10268562854E+03  0.32653462896E+02 -0.75305668852E+02  0.13145923592E+03  0.00000000000E+00 0. -1.
</event>
<event>
 7    1  0.4096326E-006  0.2350564E+03  0.7561462E-02  0.1123131E+00
          2   -1    0    0  501    0  0.00000000000E+00  0.00000000000E+00  0.13548428753E+04  0.13548428753E+04  0.00000000000E+00 0. -1.
         -2   -1    0    0    0  501 -0.00000000000E+00 -0.00000000000E+00 -0.90532148108E+02  0.90532148108E+02  0.00000000000E+00 0.  1.
         23    2    1    2    0    0  0.18967114320E+03  0.10476268575E+03  0.11036641779E+04  0.11284255311E+04  0.91209641818E+02 0.  0.
          5    1    1    2  502    0 -0.15370837084E+03 -0.33668220178E+02  0.17555110308E+03  0.23578692608E+03  0.41800000000E+01 0. -1.
         -5    1    1    2    0  502 -0.35962772362E+02 -0.71094465576E+02 -0.14904553799E+02  0.81162566221E+02  0.41800000000E+01 0.  1.
        -11    1    3    3    0    0  0.86233833624E+02  0.75649359623E+00  0.48520628470E+03  0.49281029317E+03  0.00000000000E+00 0.  1.
         11    1    3    3    0    0  0.10343730958E+03  0.10400619216E+03  0.61845789317E+03  0.63561523790E+03  0.00000000000E+00 0. -1.
</event>
<event>
 7    1  0.4096326E-006  0.7483391E+02  0.7561462E-02  0.1344386E+00
         -1   -1    0    0    0  501 -0.00000000000E+00  0.00000000000E+00  0.31355628624E+02  0.31355628624E+02  0.00000000000E+00 0. -1.
          1   -1    0    0  501    0  0.00000000000E+00 -0.00000000000E+00 -0.40665280067E+03  0.40665280067E+03  0.00000000000E+00 0.  1.
         23    2    1    2    0    0 -0.23919344873E+01  0.14344855021E+01 -0.22199107562E+03  0.24012529421E+03  0.91500492708E+02 0.  0.
          5    1    1    2  502    0  0.22513808257E+02 -0.27273849815E+02  0.51871310123E+01  0.35987680866E+02  0.41800000000E+01 0.  1.
         -5    1    1    2    0  502 -0.20121873770E+02  0.25839364313E+02 -0.15849322744E+03  0.16189545422E+03  0.41800000000E+01 0.  1.
        -11    1    3    3    0    0 -0.35085221033E+02  0.22929768364E+02 -0.58174371089E+02  0.71700798208E+02  0.00000000000E+00 0. -1.
         11    1    3    3    0    0  0.32693286545E+02 -0.21495282861E+02 -0.16381670453E+03  0.16842449601E+03  0.00000000000E+00 0.  1.
</event>
<event>
 7    1  0.4096326E-006  0.7092064E+02  0.7561462E-02  0.1356990E+00
         -4   -1    0    0    0  501 -0.00000000000E+00  0.00000000000E+00  0.45635563282E+03  0.45635563282E+03  0.00000000000E+00 0.  1.
          4   -1    0    0  501    0  0.00000000000E+00 -0.00000000000E+00 -0.32698480437E+02  0.32698480437E+02  0.00000000000E+00 0. -1.
         23    2    1    2    0    0 -0.44235931292E+02 -0.32527714601E+02  0.77154521464E+02  0.11659437302E+03  0.68018804769E+02 0.  0.
          5    1    1    2  502    0  0.45130319611E+01 -0.14851131739E+02 -0.39643464893E+01  0.16556328534E+02  0.41800000000E+01 0. -1.
         -5    1    1    2    0  502  0.39722899331E+02  0.47378846340E+02  0.35046697740E+03  0.35590341170E+03  0.41800000000E+01 0. -1.
        -11    1    3    3    0    0 -0.42209516866E+02 -0.13001314780E+02  0.84731535357E+02  0.95551612148E+02  0.00000000000E+00 0.  1.
         11    1    3    3    0    0 -0.20264144262E+01 -0.19526399821E+02 -0.75770138935E+01  0.21042760868E+02  0.00000000000E+00 0. -1.
</event>
<event>
 7    1  0.4096326E-006  0.1196386E+03  0.7561462E-02  0.1243695E+00
          4   -1    0    0  501    0  0.00000000000E+00  0.00000000000E+00  0.19116905361E+02  0.19116905361E+02  0.00000000000E+00 0.  1.
         -4   -1    0    0    0  501 -0.00000000000E+00 -0.00000000000E+00 -0.97819335935E+03  0.97819335935E+03  0.00000000000E+00 0. -1.
         23    2    1    2    0    0  0.33721278045E+02  0.47268450174E+02 -0.21659102551E+03  0.24212641304E+03  0.91335078623E+02 0.  0.
          5    1    1    2  502    0  0.38853097580E+02  0.14937964891E+02 -0.20047294119E+03  0.20479154899E+03  0.41800000000E+01 0.  1.
         -5    1    1    2    0  502 -0.72574375624E+02 -0.62206415066E+02 -0.54201248729E+03  0.55039230268E+03  0.41800000000E+01 0.  1.
        -11    1    3    3    0    0  0.54151078709E+02  0.44640408820E+01 -0.15592111512E+03  0.16511711336E+03  0.00000000000E+00 0. -1.
         11    1    3    3    0    0 -0.20429800664E+02  0.42804409292E+02 -0.60669910391E+02  0.77009299678E+02  0.00000000000E+00 0.  1.
</event>
<event>
 7    1  0.4096326E-006  0.1185348E+03  0.7561462E-02  0.1245534E+00
         -2   -1    0    0    0  501 -0.00000000000E+00  0.00000000000E+00  0.37427605687E+02  0.37427605687E+02  0.00000000000E+00 0.  1.
          2   -1    0    0  501    0  0.00000000000E+00 -0.00000000000E+00 -0.49223856370E+03  0.49223856370E+03  0.00000000000E+00 0. -1.
         23    2    1    2    0    0  0.68044448276E+02  0.53560526148E+02 -0.18336610115E+03  0.21849313467E+03  0.81347070886E+02 0.  0.
          5    1    1    2  502    0 -0.20280299119E+02  0.40159544083E+02 -0.10391238169E+03  0.11331078935E+03  0.41800000000E+01 0.  1.
         -5    1    1    2    0  502 -0.47764149157E+02 -0.93720070231E+02 -0.16753247517E+03  0.19786224538E+03  0.41800000000E+01 0.  1.
        -11    1    3    3    0    0  0.52258709687E+02  0.40176856891E+02 -0.18627467388E+03  0.19759404519E+03  0.00000000000E+00 0. -1.
         11    1    3    3    0    0  0.15785738589E+02  0.13383669257E+02  0.29085727227E+01  0.20899089474E+02  0.00000000000E+00 0.  1.
</event>
<event>
 7    1  0.4096326E-006  0.1257886E+03  0.7561462E-02  0.1233842E+00
         -4   -1    0    0    0  501 -0.00000000000E+00  0.00000000000E+00  0.37319047433E+03  0.37319047433E+03  0.00000000000E+00 0.  1.
          4   -1    0    0  501    0  0.00000000000E+00 -0.00000000000E+00 -0.60184734446E+02  0.60184734446E+02  0.00000000000E+00 0. -1.
         23    2    1    2    0    0  0.96399471279E+02 -0.30549700233E+02  0.15201510692E+03  0.20580267527E+03  0.94973713060E+02 0.  0.
          5    1    1    2  502    0 -0.11577634963E+03  0.46673669683E+02  0.15864674532E+03  0.20191299308E+03  0.41800000000E+01 0. -1.
         -5    1    1    2    0  502  0.19376878351E+02 -0.16123969450E+02  0.23438876547E+01  0.25659540424E+02  0.41800000000E+01 0. -1.
        -11    1    3    3    0    0  0.50676981740E+02 -0.15944292586E+02  0.14845234182E+03  0.15767204805E+03  0.00000000000E+00 0.  1.
         11    1    3    3    0    0  0.45722489539E+02 -0.14605407647E+02  0.35627650988E+01  0.48130627228E+02  0.00000000000E+00 0. -1.
</event>
<event>
 7    1  0.4096326E-006  0.1448488E+03  0.7561462E-02  0.1206950E+00
          1   -1    0    0  501    0  0.00000000000E+00  0.00000000000E+00  0.32259643288E+03  0.32259643288E+03  0.00000000000E+00 0. -1.
         -1   -1    0    0    0  501 -0.00000000000E+00 -0.00000000000E+00 -0.10151088986E+03  0.10151088986E+03  0.00000000000E+00 0.  1.
         23    2    1    2    0    0 -0.10006919572E+03  0.73706703974E+01  0.22583146286E+03  0.26367499087E+03  0.91959123958E+02 0.  0.
          5    1    1    2  502    0  0.17619183467E+02  0.53235784642E+02  0.95137328708E+01  0.57030412112E+02  0.41800000000E+01 0.  1.
         -5    1    1    2    0  502  0.82450012255E+02 -0.60606455040E+02 -0.14259652719E+02  0.10340191975E+03  0.41800000000E+01 0.  1.
        -11    1    3    3    0    0 -0.21543322022E+02  0.40461210019E+02  0.47395302676E+02  0.65935870023E+02  0.00000000000E+00 0.  1.
         11    1    3    3    0    0 -0.78525873701E+02 -0.33090539622E+02  0.17843616019E+03  0.19773912085E+03  0.00000000000E+00 0. -1.
</event>
<event>
 7    1  0.4096326E-006  0.1365158E+03  0.7561462E-02  0.1218096E+00
         -4   -1    0    0    0  501 -0.00000000000E+00  0.00000000000E+00  0.67712577559E+02  0.67712577559E+02  0.00000000000E+00 0.  1.
          4   -1    0    0  501    0  0.00000000000E+00 -0.00000000000E+00 -0.34648937749E+03  0.34648937749E+03  0.00000000000E+00 0. -1.
         23    2    1    2    0    0  0.63691026812E+02 -0.78570243065E+02 -0.17943156764E+03  0.22513362454E+03  0.90882514502E+02 0.  0.
          5    1    1    2  502    0  0.21688144399E+02  0.17930366688E+01 -0.65711841603E+02  0.69347740517E+02  0.41800000000E+01 0.  1.
         -5    1    1    2    0  502 -0.85379171211E+02  0.76777206396E+02 -0.33633390690E+02  0.11972058999E+03  0.41800000000E+01 0.  1.
        -11    1    3    3    0    0  0.79645221891E+02 -0.30435257737E+02 -0.11172779272E+03  0.14054453369E+03  0.00000000000E+00 0.  1.
         11    1    3    3    0    0 -0.15954195079E+02 -0.48134985328E+02 -0.67703774925E+02  0.84589090858E+02  0.00000000000E+00 0. -1.
</event>
<event>
 7    1  0.4096326E-006  0.6172200E+02  0.7561462E-02  0.1390744E+00
          2   -1    0    0  501    0  0.00000000000E+00  0.00000000000E+00  0.34022840079E+02  0.34022840079E+02  0.00000000000E+00 0.  1.
         -2   -1    0    0    0  501 -0.00000000000E+00 -0.00000000000E+00 -0.38707766493E+03  0.38707766493E+03  0.00000000000E+00 0. -1.
         23    2    1    2    0    0 -0.11478830723E+02 -0.35703521089E+01 -0.91246048316E+02  0.13069521348E+03  0.92794862590E+02 0.  0.
          5    1    1    2  502    0  0.11604570168E+01  0.41004320012E+02 -0.24403974856E+03  0.24749863070E+03  0.41800000000E+01 0.  1.
         -5    1    1    2    0  502  0.10318373706E+02 -0.37433967903E+02 -0.17769027977E+02  0.42906660837E+02  0.41800000000E+01 0.  1.
        -11    1    3    3    0    0 -0.13513001368E+02 -0.21346622852E+02 -0.10508261308E+03  0.10807698684E+03  0.00000000000E+00 0. -1.
         11    1    3    3    0    0  0.20341706449E+01  0.17776270743E+02  0.13836564761E+02  0.22618226636E+02  0.00000000000E+00 0.  1.
</event>
<event>
 7    1  0.4096326E-006  0.1286978E+03  0.7561462E-02  0.1229401E+00
          2   -1    0    0  501    0  0.00000000000E+00  0.00000000000E+00  0.62777037647E+02  0.62777037647E+02  0.00000000000E+00 0. -1.
         -2   -1    0    0    0  501 -0.00000000000E+00 -0.00000000000E+00 -0.37364643673E+03  0.37364643673E+03  0.00000000000E+00 0.  1.
         23    2    1    2    0    0  0.31305432680E+02  0.10014682868E+03 -0.11010598388E+03  0.17765647117E+03  0.91810003013E+02 0.  0.
          5    1    1    2  502    0  0.35979332062E+02 -0.59535431574E+02 -0.41474690428E+02  0.81096253270E+02  0.41800000000E+01 0.  1.
         -5    1    1    2    0  502 -0.67284764742E+02 -0.40611397109E+02 -0.15928872478E+03  0.17767074994E+03  0.41800000000E+01 0.  1.
        -11    1    3    3    0    0  0.34094805834E+02  0.61996498375E+02 -0.11229798189E+02  0.71638885831E+02  0.00000000000E+00 0. -1.
         11    1    3    3    0    0 -0.27893731547E+01  0.38150330308E+02 -0.98876185690E+02  0.10601758534E+03  0.00000000000E+00 0.  1.
</event>
<event>
 7    1  0.4096326E-006  0.1092220E+03  0.7561462E-02  0.1262017E+00
          1   -1    0    0  501    0  0.00000000000E+00  0.00000000000E+00  0.72711148100E+03  0.72711148100E+03  0.00000000000E+00 0. -1.
         -1   -1    0    0    0  501 -0.00000000000E+00 -0.00000000000E+00 -0.18139581140E+02  0.18139581140E+02  0.00000000000E+00 0.  1.
         23    2    1    2    0    0 -0.41632817826E+02  0.56087613645E+01  0.28692181316E+03  0.30305365116E+03  0.88049070921E+02 0.  0.
          5    1    1    2  502    0 -0.42999366885E+02 -0.13631734474E+02  0.11599253169E+03  0.12452513620E+03  0.41800000000E+01 0.  1.
         -5    1    1    2    0  502  0.84632184712E+02  0.80229731093E+01  0.30605755501E+03  0.31767227478E+03  0.41800000000E+01 0.  1.
        -11    1    3    3    0    0 -0.64689884703E+02  0.22635826545E+01  0.25757009541E+03  0.26557910128E+03  0.00000000000E+00 0. -1.
         11    1    3    3    0    0  0.23057066877E+02  0.33451787100E+01  0.29351717755E+02  0.37474549880E+02  0.00000000000E+00 0.  1.
</event>
<event>
 7    1  0.4096326E-006  0.2227126E+03  0.7561462E-02  0.1131877E+00
         -2   -1    0    0    0  501 -0.00000000000E+00  0.00000000000E+00  0.55737322885E+02  0.55737322885E+02  0.00000000000E+00 0.  1.
          2   -1    0    0  501    0  0.00000000000E+00 -0.00000000000E+00 -0.10264101381E+04  0.10264101381E+04  0.00000000000E+00 0. -1.
         23    2    1    2    0    0 -0.11209516778E+03  0.18047827322E+03 -0.44354998992E+03  0.50021747667E+03  0.91341100614E+02 0.  0.
          5    1    1    2  502    0  0.11666443625E+02 -0.41050452383E+02 -0.21656271622E+02  0.48038651608E+02  0.41800000000E+01 0.  1.
         -5    1    1    2    0  502  0.10042872416E+03 -0.13942782084E+03 -0.50546655368E+03  0.53389133272E+03  0.41800000000E+01 0.  1.
        -11    1    3    3    0    0 -0.29824993081E+02  0.13166588514E+03 -0.27709996880E+03  0.30823664324E+03  0.00000000000E+00 0.  1.
         11    1    3    3    0    0 -0.82270174703E+02  0.48812388078E+02 -0.16645002111E+03  0.19198083343E+03  0.00000000000E+00 0. -1.
</event>
<event>
 7    1  0.4096326E-006  0.1451380E+03  0.7561462E-02  0.1206578E+00
         -1   -1    0    0    0  501 -0.00000000000E+00  0.00000000000E+00  0.54774078024E+02  0.54774078024E+02  0.00000000000E+00 0.  1.
          1   -1    0    0  501    0  0.00000000000E+00 -0.00000000000E+00 -0.53083429887E+03  0.53083429887E+03  0.00000000000E+00 0. -1.
         23    2    1    2    0    0  0.49766491752E+01  0.12615456784E+03 -0.28323048454E+03  0.32336691461E+03  0.91689214566E+02 0.  0.
          5    1    1    2  502    0  0.22398455994E+02 -0.31410714907E+02 -0.14947867892E+03  0.15443338918E+03  0.41800000000E+01 0.  1.
         -5    1    1    2    0  502 -0.27375105169E+02 -0.94743852930E+02 -0.43351057392E+02  0.10780807311E+03  0.41800000000E+01 0.  1.
        -11    1    3    3    0    0  0.38447142740E+02  0.10810099760E+03 -0.23844993131E+03  0.26461741856E+03  0.00000000000E+00 0.  1.
         11    1    3    3    0    0 -0.33470493565E+02  0.18053570241E+02 -0.44780553234E+02  0.58749496047E+02  0.00000000000E+00 0. -1.
</event>
<event>
 7    1  0.4096326E-006  0.9859502E+02  0.7561462E-02  0.1283278E+00
         -2   -1    0    0    0  501 -0.00000000000E+00  0.00000000000E+00  0.86419747639E+02  0.86419747639E+02  0.00000000000E+00 0.  1.
          2   -1    0    0  501    0  0.00000000000E+00 -0.00000000000E+00 -0.23890768445E+03  0.23890768445E+03  0.00000000000E+00 0. -1.
         23    2    1    2    0    0  0.16976524651E+02  0.29359856962E+02 -0.17376129965E+03  0.20004781317E+03  0.93144697692E+02 0.  0.
          5    1    1    2  502    0 -0.45471236815E+02  0.14669344636E+02 -0.25994737796E+02  0.54552926984E+02  0.41800000000E+01 0. -1.
         -5    1    1    2    0  502  0.28494712163E+02 -0.44029201598E+02  0.47268100634E+02  0.70726691936E+02  0.41800000000E+01 0.  1.
        -11    1    3    3    0    0 -0.33629973285E+02  0.31343444656E+02 -0.10522910190E+03  0.11483270664E+03  0.00000000000E+00 0. -1.
         11    1    3    3    0    0  0.50606497937E+02 -0.19835876930E+01 -0.68532197743E+02  0.85215106531E+02  0.00000000000E+00 0.  1.
</event>
<event>
 7    1  0.4096326E-006  0.2101729E+03  0.7561462E-02  0.1141429E+00
         -1   -1    0    0    0  501 -0.00000000000E+00  0.00000000000E+00  0.65969071260E+03  0.65969071260E+03  0.00000000000E+00 0.  1.
          1   -1    0    0  501    0  0.00000000000E+00 -0.00000000000E+00 -0.68346713334E+02  0.68346713334E+02  0.00000000000E+00 0. -1.
         23    2    1    2    0    0 -0.16996689802E+03  0.58014481436E+02  0.33502482500E+03  0.39099159691E+03  0.91533431072E+02 0.  0.
          5    1    1    2  502    0 -0.14125178971E+02  0.14687026079E+02  0.21647214135E+02  0.30021720401E+02  0.41800000000E+01 0. -1.
         -5    1    1    2    0  502  0.18409207700E+03 -0.72701507515E+02  0.23467196013E+03  0.30702410863E+03  0.41800000000E+01 0. -1.
        -11    1    3    3    0    0 -0.11219493079E+03  0.82054052785E+02  0.22997645614E+03  0.26871870135E+03  0.00000000000E+00 0.  1.
         11    1    3    3    0    0 -0.57771967231E+02 -0.24039571349E+02  0.10504836886E+03  0.12227289556E+03  0.00000000000E+00 0. -1.
</event>
<event>
 7    1  0.4096326E-006  0.8913096E+02  0.7561462E-02  0.1304970E+00
         -2   -1    0    0    0  501 -0.00000000000E+00  0.00000000000E+00  0.13283264225E+03  0.13283264225E+03  0.00000000000E+00 0.  1.
          2   -1    0    0  501    0  0.00000000000E+00 -0.00000000000E+00 -0.10671185194E+03  0.10671185194E+03  0.00000000000E+00 0. -1.
         23    2    1    2    0    0  0.27565151556E+02 -0.35358818994E+02 -0.13648942652E+02  0.10085980186E+03  0.89310258838E+02 0.  0.
          5    1    1    2  502    0  0.11179571518E+02  0.53894314860E+02 -0.25207377401E+02  0.60683311289E+02  0.41800000000E+01 0. -1.
         -5    1    1    2    0  502 -0.38744723075E+02 -0.18535495866E+02  0.64977110363E+02  0.78001381041E+02  0.41800000000E+01 0. -1.
        -11    1    3    3    0    0  0.21536142942E+02  0.16855156096E+02  0.23855424228E+02  0.36290260469E+02  0.00000000000E+00 0.  1.
         11    1    3    3    0    0  0.60290086148E+01 -0.52213975090E+02 -0.37504366881E+02  0.64569541386E+02  0.00000000000E+00 0. -1.
</event>
<event>
 7    1  0.4096326E-006  0.9324315E+02  0.7561462E-02  0.1295183E+00
         -1   -1    0    0    0  501 -0.00000000000E+00  0.00000000000E+00  0.28640476226E+03  0.28640476226E+03  0.00000000000E+00 0.  1.
          1   -1    0    0  501    0  0.00000000000E+00 -0.00000000000E+00 -0.67084364228E+02  0.67084364228E+02  0.00000000000E+00 0. -1.
         23    2    1    2    0    0 -0.51478283127E+02  0.57341265499E+02  0.48663804007E+02  0.12830007461E+03  0.90303427193E+02 0.  0.
          5    1    1    2  502    0  0.44245860369E+02 -0.71835626885E+02  0.39996852387E+02  0.93462688013E+02  0.41800000000E+01 0.  1.
         -5    1    1    2    0  502  0.72324227581E+01  0.14494361387E+02  0.13065974163E+03  0.13172636386E+03  0.41800000000E+01 0.  1.
        -11    1    3    3    0    0 -0.24716536079E+02  0.52584717982E+02  0.71968513341E+02  0.92496089829E+02  0.00000000000E+00 0.  1.
         11    1    3    3    0    0 -0.26761747047E+02  0.47565475161E+01 -0.23304709335E+02  0.35803984785E+02  0.00000000000E+00 0. -1.
</event>
<event>
 7    1  0.4096326E-006  0.9347556E+02  0.7561462E-02  0.1294647E+00
          1   -1    0    0  501    0  0.00000000000E+00  0.00000000000E+00  0.61815353553E+02  0.61815353553E+02  0.00000000000E+00 0. -1.
         -1   -1    0    0    0  501 -0.00000000000E+00 -0.00000000000E+00 -0.28347688647E+03  0.28347688647E+03  0.00000000000E+00 0.  1.
         23    2    1    2    0    0 -0.58844902742E+01 -0.32972481584E+02 -0.65254693574E+01  0.94188762880E+02  0.87790258770E+02 0.  0.
          5    1    1    2  502    0 -0.27360637904E+01  0.79697635745E+02 -0.11287573068E+03  0.13826641734E+03  0.41800000000E+01 0. -1.
         -5    1    1    2    0  502  0.86205540646E+01 -0.46725154161E+02 -0.10226033288E+03  0.11283705980E+03  0.41800000000E+01 0. -1.
        -11    1    3    3    0    0 -0.13850826341E+02  0.91045956489E+01 -0.37724027167E+02  0.41204869590E+02  0.00000000000E+00 0.  1.
         11    1    3    3    0    0  0.79663360665E+01 -0.42077077233E+02  0.31198557809E+02  0.52983893290E+02  0.00000000000E+00 0. -1.
</event>
<event>
 7    1  0.4096326E-006  0.2135695E+03  0.7561462E-02  0.1138770E+00
          4   -1    0    0  501    0  0.00000000000E+00  0.00000000000E+00  0.17677138722E+03  0.17677138722E+03  0.00000000000E+00 0. -1.
         -4   -1    0    0    0  501 -0.00000000000E+00 -0.00000000000E+00 -0.27303246492E+03  0.27303246492E+03  0.00000000000E+00 0.  1.
         23    2    1    2    0    0 -0.15943185988E+03  0.10610731414E+03 -0.41182326053E+02  0.21451265508E+03  0.87420907994E+02 0.  0.
          5    1    1    2  502    0  0.11927846545E+03 -0.18444402961E+02  0.62700480373E+01  0.12093111354E+03  0.41800000000E+01 0.  1.
         -5    1    1    2    0  502  0.40153394429E+02 -0.87662911178E+02 -0.61348799683E+02  0.11436008352E+03  0.41800000000E+01 0.  1.
        -11    1    3    3    0    0 -0.86289374221E+02  0.10604453049E+03 -0.34903025913E+02  0.14110109768E+03  0.00000000000E+00 0.  1.
         11    1    3    3    0    0 -0.73142485656E+02  0.62783652087E-01 -0.62793001392E+01  0.73411557400E+02  0.00000000000E+00 0. -1.
</event>
<event>
 7    1  0.4096326E-006  0.1310817E+03  0.7561462E-02  0.1225859E+00
         -1   -1    0    0    0  501 -0.00000000000E+00  0.00000000000E+00  0.18242812504E+03  0.18242812504E+03  0.00000000000E+00 0.  1.
          1   -1    0    0  501    0  0.00000000000E+00 -0.00000000000E+00 -0.13760008038E+03  0.13760008038E+03  0.00000000000E+00 0. -1.
         23    2    1    2    0    0 -0.91505675010E+02  0.67190597486E+01 -0.46458680112E+02  0.14003890037E+03  0.95047621408E+02 0.  0.
          5    1    1    2  502    0 -0.74032429324E+01  0.27034947219E+02 -0.13975003416E+02  0.31598567966E+02  0.41800000000E+01 0. -1.
         -5    1    1    2    0  502  0.98908917942E+02 -0.33754006968E+02  0.10526172819E+03  0.14839073709E+03  0.41800000000E+01 0. -1.
        -11    1    3    3    0    0 -0.96372555513E+02 -0.23029299340E+02 -0.22688145132E+02  0.10165023371E+03  0.00000000000E+00 0.  1.
         11    1    3    3    0    0  0.48668805033E+01  0.29748359089E+02 -0.23770534980E+02  0.38388666655E+02  0.00000000000E+00 0. -1.
</event>
<event>
 7    1  0.4096326E-006  0.2122434E+03  0.7561462E-02  0.1139802E+00
         -2   -1    0    0    0  501 -0.00000000000E+00  0.00000000000E+00  0.92724314868E+02  0.92724314868E+02  0.00000000000E+00 0.  1.
          2   -1    0    0  501    0  0.00000000000E+00 -0.00000000000E+00 -0.62518574878E+03  0.62518574878E+03  0.00000000000E+00 0. -1.
         23    2    1    2    0    0  0.65832290047E+02 -0.19748906315E+03 -0.33489978236E+03  0.40483826691E+03  0.91653355932E+02 0.  0.
          5    1    1    2  502    0 -0.12281748508E+02  0.87815168513E+02 -0.16390292369E+03  0.18639738722E+03  0.41800000000E+01 0.  1.
         -5    1    1    2    0  502 -0.53550541538E+02  0.10967389464E+03 -0.33658727858E+02  0.12667440951E+03  0.41800000000E+01 0.  1.
        -11    1    3    3    0    0  0.22541604902E+02 -0.13907902423E+03 -0.14821702249E+03  0.20449788431E+03  0.00000000000E+00 0.  1.
         11    1    3    3    0    0  0.43290685144E+02 -0.58410038923E+02 -0.18668275987E+03  0.20034038260E+03  0.00000000000E+00 0. -1.
</event>
<event>
 7    1  0.4096326E-006  0.1520885E+03  0.7561462E-02  0.1197930E+00
         -1   -1    0    0    0  501 -0.00000000000E+00  0.00000000000E+00  0.54076888384E+02  0.54076888384E+02  0.00000000000E+00 0.  1.
          1   -1    0    0  501    0  0.00000000000E+00 -0.00000000000E+00 -0.53989186678E+03  0.53989186678E+03  0.00000000000E+00 0. -1.
         23    2    1    2    0    0 -0.81666131068E+02 -0.85424565519E+02 -0.33069165795E+03  0.36228583006E+03  0.89035592125E+02 0.  0.
          5    1    1    2  502    0 -0.25806254045E+02  0.40655583002E+02 -0.17581501571E+02  0.51433654105E+02  0.41800000000E+01 0.  1.
         -5    1    1    2    0  502  0.10747238511E+03  0.44768982517E+02 -0.13754181888E+03  0.18024927101E+03  0.41800000000E+01 0.  1.
        -11    1    3    3    0    0 -0.66750114760E+02 -0.16414359133E+02 -0.10245053066E+03  0.12337390420E+03  0.00000000000E+00 0.  1.
         11    1    3    3    0    0 -0.14916016308E+02 -0.69010206386E+02 -0.22824112729E+03  0.23891192585E+03  0.00000000000E+00 0. -1.
</event>
