<event>
 6    1  0.5818426E-006  0.1535872E+03  0.7546771E-02  0.1204895E+00
          1   -1    0    0  501    0  0.00000000000E+00  0.00000000000E+00  0.10539136999E+03  0.10539136999E+03  0.00000000000E+00 0. -1.
         -1   -1    0    0    0  501 -0.00000000000E+00 -0.00000000000E+00 -0.28283713265E+03  0.28283713265E+03  0.00000000000E+00 0.  1.
          5    1    1    2  502    0 -0.71162066297E+02 -0.59323357556E+02 -0.19856930841E+03  0.21916925121E+03  0.47000000000E+01 0.  1.
         -5    1    1    2    0  502  0.31282049323E+02 -0.20517975760E+02 -0.85150341614E+01  0.38654233221E+02  0.47000000000E+01 0.  1.
        -11    1    1    2    0    0  0.40482208796E+02  0.10258924261E+02  0.42563592146E+02  0.59629809092E+02  0.00000000000E+00 0. -1.
         11    1    1    2    0    0 -0.60219182178E+00  0.69582409055E+02 -0.12925012235E+02  0.70775209121E+02  0.00000000000E+00 0.  1.
<mgrwt>
<rscale>  0 0.14645713E+03</rscale>
<asrwt>0</asrwt>
<pdfrwt beam="1">  1        1 0.16214057E-01 0.15358719E+03</pdfrwt>
<pdfrwt beam="2">  1       -1 0.43513404E-01 0.15358719E+03</pdfrwt>
<totfact> 0.17491264E+03</totfact>
</mgrwt>
</event>
<event>
 6    1  0.5818426E-006  0.1421132E+03  0.7546771E-02  0.1220852E+00
         -2   -1    0    0    0  501 -0.00000000000E+00  0.00000000000E+00  0.26587602503E+02  0.26587602503E+02  0.00000000000E+00 0.  1.
          2   -1    0    0  501    0  0.00000000000E+00 -0.00000000000E+00 -0.67933278650E+03  0.67933278650E+03  0.00000000000E+00 0. -1.
          5    1    1    2  502    0 -0.76566212570E+01 -0.27564394806E+02 -0.16943007402E+03  0.17189258184E+03  0.47000000000E+01 0.  1.
         -5    1    1    2    0  502  0.74451715190E+02  0.37983351131E+02 -0.83559817908E+02  0.11827986315E+03  0.47000000000E+01 0.  1.
        -11    1    1    2    0    0 -0.18747116544E+02  0.37393389593E+02 -0.99472035092E+02  0.10790924765E+03  0.00000000000E+00 0. -1.
         11    1    1    2    0    0 -0.48047977389E+02 -0.47812345919E+02 -0.30028325697E+03  0.30783869635E+03  0.00000000000E+00 0.  1.
<mgrwt>
<rscale>  0 0.13455322E+03</rscale>
<asrwt>0</asrwt>
<pdfrwt beam="2">  1        2 0.10451272E+00 0.14211320E+03</pdfrwt>
<pdfrwt beam="1">  1       -2 0.40904009E-02 0.14211320E+03</pdfrwt>
<totfact> 0.11077643E+04</totfact>
</mgrwt>
</event>
<event>
 6    1  0.5818426E-006  0.2549439E+03  0.7546771E-02  0.1110220E+00
         -2   -1    0    0    0  501 -0.00000000000E+00  0.00000000000E+00  0.21770506809E+02  0.21770506809E+02  0.00000000000E+00 0.  1.
          2   -1    0    0  501    0  0.00000000000E+00 -0.00000000000E+00 -0.74638117432E+03  0.74638117432E+03  0.00000000000E+00 0. -1.
          5    1    1    2  502    0 -0.27872322548E+02 -0.85822877140E+02 -0.16292691914E+03  0.18630540407E+03  0.47000000000E+01 0.  1.
         -5    1    1    2    0  502  0.22308023092E+02  0.35981682153E+02 -0.11246196270E+03  0.12025852319E+03  0.47000000000E+01 0.  1.
        -11    1    1    2    0    0  0.48576336682E+02  0.22557669323E+02 -0.18975162512E+03  0.19716538278E+03  0.00000000000E+00 0. -1.
         11    1    1    2    0    0 -0.43012037226E+02  0.27283525664E+02 -0.25947016054E+03  0.26442237109E+03  0.00000000000E+00 0.  1.
<mgrwt>
<rscale>  0 0.25494389E+03</rscale>
<asrwt>0</asrwt>
<pdfrwt beam="2">  1        2 0.11482787E+00 0.25494389E+03</pdfrwt>
<pdfrwt beam="1">  1       -2 0.33493090E-02 0.25494389E+03</pdfrwt>
<totfact> 0.13800535E+04</totfact>
</mgrwt>
</event>
<event>
 6    1  0.5818426E-006  0.2453480E+03  0.7546771E-02  0.1116281E+00
         -4   -1    0    0    0  501 -0.00000000000E+00  0.00000000000E+00  0.15768256153E+03  0.15768256153E+03  0.00000000000E+00 0.  1.
          4   -1    0    0  501    0  0.00000000000E+00 -0.00000000000E+00 -0.95438049080E+02  0.95438049080E+02  0.00000000000E+00 0. -1.
          5    1    1    2  502    0 -0.45765207878E+02  0.31818037988E+02 -0.39259590721E+02  0.68339207320E+02  0.47000000000E+01 0.  1.
         -5    1    1    2    0  502 -0.24076804912E+01 -0.52087305886E+01  0.71645424180E+02  0.72028359732E+02  0.47000000000E+01 0.  1.
        -11    1    1    2    0    0  0.72880382437E+02 -0.31227278677E+02  0.84528586449E+01  0.79737970234E+02  0.00000000000E+00 0. -1.
         11    1    1    2    0    0 -0.24707494068E+02  0.46179712776E+01  0.21405820342E+02  0.33015073320E+02  0.00000000000E+00 0.  1.
<mgrwt>
<rscale>  0 0.24534805E+03</rscale>
<asrwt>0</asrwt>
<pdfrwt beam="2">  1        4 0.14682777E-01 0.24534805E+03</pdfrwt>
<pdfrwt beam="1">  1       -4 0.24258856E-01 0.24534805E+03</pdfrwt>
<totfact> 0.11441170E+03</totfact>
</mgrwt>
</event>
<event>
 6    1  0.5818426E-006  0.1529641E+03  0.7546771E-02  0.1206445E+00
          2   -1    0    0  501    0  0.00000000000E+00  0.00000000000E+00  0.35333451174E+03  0.35333451174E+03  0.00000000000E+00 0. -1.
         -2   -1    0    0    0  501 -0.00000000000E+00 -0.00000000000E+00 -0.69678647088E+02  0.69678647088E+02  0.00000000000E+00 0.  1.
          5    1    1    2  502    0  0.38134946352E+02 -0.63917973241E+02 -0.26504870858E+02  0.79147833930E+02  0.47000000000E+01 0.  1.
         -5    1    1    2    0  502  0.17543265980E+02 -0.44854929706E+01  0.81158766377E+02  0.83286980905E+02  0.47000000000E+01 0.  1.
        -11    1    1    2    0    0 -0.20500611874E+02  0.19845934775E+02  0.53527828524E+01  0.29030819805E+02  0.00000000000E+00 0.  1.
         11    1    1    2    0    0 -0.35177600458E+02  0.48557531437E+02  0.22364918628E+03  0.23154752419E+03  0.00000000000E+00 0. -1.
<mgrwt>
<rscale>  0 0.14524141E+03</rscale>
<asrwt>0</asrwt>
<pdfrwt beam="1">  1        2 0.54359154E-01 0.15296412E+03</pdfrwt>
<pdfrwt beam="2">  1       -2 0.10719792E-01 0.15296412E+03</pdfrwt>
<totfact> 0.52435079E+03</totfact>
</mgrwt>
</event>
<event>
 6    1  0.5818426E-006  0.2122228E+03  0.7546771E-02  0.1146784E+00
          1   -1    0    0  501    0  0.00000000000E+00  0.00000000000E+00  0.95835912575E+03  0.95835912575E+03  0.00000000000E+00 0. -1.
         -1   -1    0    0    0  501 -0.00000000000E+00 -0.00000000000E+00 -0.51007749814E+02  0.51007749814E+02  0.00000000000E+00 0.  1.
          5    1    1    2  502    0  0.45198716191E+01 -0.18200548754E+02  0.61908542225E+02  0.64857126169E+02  0.47000000000E+01 0. -1.
         -5    1    1    2    0  502  0.14361375490E+03  0.11481535984E+03  0.18810239316E+03  0.26308188415E+03  0.47000000000E+01 0.  1.
        -11    1    1    2    0    0 -0.13167717682E+03 -0.73158817515E+02  0.56570730764E+03  0.58541937907E+03  0.00000000000E+00 0. -1.
         11    1    1    2    0    0 -0.16456449703E+02 -0.23455993574E+02  0.91633132907E+02  0.96008486176E+02  0.00000000000E+00 0.  1.
<mgrwt>
<rscale>  0 0.20354294E+03</rscale>
<asrwt>0</asrwt>
<pdfrwt beam="1">  1        1 0.14743985E+00 0.21222282E+03</pdfrwt>
<pdfrwt beam="2">  1       -1 0.78473469E-02 0.21222282E+03</pdfrwt>
<totfact> 0.15246882E+03</totfact>
</mgrwt>
</event>
<event>
 6    1  0.5818426E-006  0.1264731E+03  0.7546771E-02  0.1247740E+00
          1   -1    0    0  501    0  0.00000000000E+00  0.00000000000E+00  0.54002613601E+02  0.54002613601E+02  0.00000000000E+00 0. -1.
         -1   -1    0    0    0  501 -0.00000000000E+00 -0.00000000000E+00 -0.33611636955E+03  0.33611636955E+03  0.00000000000E+00 0.  1.
          5    1    1    2  502    0 -0.22283290102E+01  0.31149954390E+02 -0.70492605308E+01  0.32358417494E+02  0.47000000000E+01 0. -1.
         -5    1    1    2    0  502  0.21008664123E+02 -0.34166468215E+02 -0.26009550603E+03  0.26321184202E+03  0.47000000000E+01 0. -1.
        -11    1    1    2    0    0  0.26093152912E+02  0.30762971210E+02 -0.99770763075E+01  0.41554242601E+02  0.00000000000E+00 0.  1.
         11    1    1    2    0    0 -0.44873488025E+02 -0.27746457385E+02 -0.49919130809E+01  0.52994481044E+02  0.00000000000E+00 0. -1.
<mgrwt>
<rscale>  0 0.11722886E+03</rscale>
<asrwt>0</asrwt>
<pdfrwt beam="1">  1        1 0.83080944E-02 0.12647313E+03</pdfrwt>
<pdfrwt beam="2">  1       -1 0.51710211E-01 0.12647313E+03</pdfrwt>
<totfact> 0.30576327E+03</totfact>
</mgrwt>
</event>
<event>
 6    1  0.5818426E-006  0.1254438E+03  0.7546771E-02  0.1253406E+00
         -2   -1    0    0    0  501 -0.00000000000E+00  0.00000000000E+00  0.23037171016E+02  0.23037171016E+02  0.00000000000E+00 0.  1.
          2   -1    0    0  501    0  0.00000000000E+00 -0.00000000000E+00 -0.70060695582E+03  0.70060695582E+03  0.00000000000E+00 0. -1.
          5    1    1    2  502    0 -0.11350353881E+02 -0.56550228793E+01  0.16769609568E+02  0.21543435706E+02  0.47000000000E+01 0. -1.
         -5    1    1    2    0  502  0.11146794947E+02 -0.48878716929E+01 -0.20051596610E+03  0.20094000345E+03  0.47000000000E+01 0. -1.
        -11    1    1    2    0    0  0.38501422866E+02  0.23282650773E+02 -0.27161892522E+03  0.27532032604E+03  0.00000000000E+00 0.  1.
         11    1    1    2    0    0 -0.38297863932E+02 -0.12739756201E+02 -0.22220450305E+03  0.22584036164E+03  0.00000000000E+00 0. -1.
<mgrwt>
<rscale>  0 0.11396087E+03</rscale>
<asrwt>0</asrwt>
<pdfrwt beam="2">  1        2 0.10778569E+00 0.12544384E+03</pdfrwt>
<pdfrwt beam="1">  1       -2 0.35441800E-02 0.12544384E+03</pdfrwt>
<totfact> 0.13097445E+04</totfact>
</mgrwt>
</event>
<event>
 6    1  0.5818426E-006  0.1548053E+03  0.7546771E-02  0.1203032E+00
         -1   -1    0    0    0  501 -0.00000000000E+00  0.00000000000E+00  0.38285507750E+03  0.38285507750E+03  0.00000000000E+00 0.  1.
          1   -1    0    0  501    0  0.00000000000E+00 -0.00000000000E+00 -0.10729869866E+03  0.10729869866E+03  0.00000000000E+00 0. -1.
          5    1    1    2  502    0  0.76083782066E+02 -0.22540356560E+02  0.22083567206E+03  0.23470682483E+03  0.47000000000E+01 0.  1.
         -5    1    1    2    0  502 -0.34939303341E+02 -0.58989941631E+02  0.97636861053E+02  0.11939687922E+03  0.47000000000E+01 0.  1.
        -11    1    1    2    0    0 -0.22510243088E+02 -0.35171116440E+01  0.18628039426E+02  0.29429321621E+02  0.00000000000E+00 0.  1.
         11    1    1    2    0    0 -0.18634235637E+02  0.85047409836E+02 -0.61544193700E+02  0.10662075049E+03  0.00000000000E+00 0. -1.
<mgrwt>
<rscale>  0 0.14793612E+03</rscale>
<asrwt>0</asrwt>
<pdfrwt beam="2">  1        1 0.16507492E-01 0.15480529E+03</pdfrwt>
<pdfrwt beam="1">  1       -1 0.58900780E-01 0.15480529E+03</pdfrwt>
<totfact> 0.98006501E+02</totfact>
</mgrwt>
</event>
<event>
 6    1  0.5818426E-006  0.1753290E+03  0.7546771E-02  0.1178718E+00
          1   -1    0    0  501    0  0.00000000000E+00  0.00000000000E+00  0.80650026258E+03  0.80650026258E+03  0.00000000000E+00 0. -1.
         -1   -1    0    0    0  501 -0.00000000000E+00 -0.00000000000E+00 -0.33238910968E+02  0.33238910968E+02  0.00000000000E+00 0.  1.
          5    1    1    2  502    0 -0.34681823656E+02 -0.13207603129E+02  0.10937416096E+03  0.11559440625E+03  0.47000000000E+01 0. -1.
         -5    1    1    2    0  502  0.10618618573E+03 -0.86812107562E+02  0.31849145806E+03  0.34680073085E+03  0.47000000000E+01 0. -1.
        -11    1    1    2    0    0 -0.58414767392E+02  0.11680743896E+03  0.30078662228E+03  0.32791592671E+03  0.00000000000E+00 0.  1.
         11    1    1    2    0    0 -0.13089594679E+02 -0.16787728268E+02  0.44609110318E+02  0.49428109742E+02  0.00000000000E+00 0. -1.
<mgrwt>
<rscale>  0 0.16916835E+03</rscale>
<asrwt>0</asrwt>
<pdfrwt beam="1">  1        1 0.12407695E+00 0.17532905E+03</pdfrwt>
<pdfrwt beam="2">  1       -1 0.51136792E-02 0.17532905E+03</pdfrwt>
<totfact> 0.38147806E+03</totfact>
</mgrwt>
</event>
<event>
 6    1  0.5818426E-006  0.1293693E+03  0.7546771E-02  0.1242597E+00
          1   -1    0    0  501    0  0.00000000000E+00  0.00000000000E+00  0.54101025771E+03  0.54101025771E+03  0.00000000000E+00 0. -1.
         -1   -1    0    0    0  501 -0.00000000000E+00 -0.00000000000E+00 -0.23972408231E+02  0.23972408231E+02  0.00000000000E+00 0.  1.
          5    1    1    2  502    0 -0.58817201647E+02 -0.24203387235E+02  0.24855556047E+03  0.25660713904E+03  0.47000000000E+01 0. -1.
         -5    1    1    2    0  502  0.25774947183E+02  0.19673820327E+02  0.13105186358E+02  0.35288001049E+02  0.47000000000E+01 0. -1.
        -11    1    1    2    0    0  0.46388542012E+02  0.38474957855E+02  0.15851469098E+03  0.16958515993E+03  0.00000000000E+00 0. -1.
         11    1    1    2    0    0 -0.13346287549E+02 -0.33945390948E+02  0.96862411674E+02  0.10350236593E+03  0.00000000000E+00 0.  1.
<mgrwt>
<rscale>  0 0.12030374E+03</rscale>
<asrwt>0</asrwt>
<pdfrwt beam="1">  1        1 0.83232338E-01 0.12936934E+03</pdfrwt>
<pdfrwt beam="2">  1       -1 0.36880632E-02 0.12936934E+03</pdfrwt>
<totfact> 0.10693159E+04</totfact>
</mgrwt>
</event>
<event>
 6    1  0.5818426E-006  0.1368813E+03  0.7546771E-02  0.1229005E+00
          2   -1    0    0  501    0  0.00000000000E+00  0.00000000000E+00  0.25732044267E+03  0.25732044267E+03  0.00000000000E+00 0. -1.
         -2   -1    0    0    0  501 -0.00000000000E+00 -0.00000000000E+00 -0.72907286670E+02  0.72907286670E+02  0.00000000000E+00 0.  1.
          5    1    1    2  502    0 -0.69946303080E+01  0.49771097431E+02  0.33503065324E+02  0.60585744023E+02  0.47000000000E+01 0.  1.
         -5    1    1    2    0  502  0.62721586981E+02 -0.47321196783E+02 -0.63365137089E+01  0.78965400932E+02  0.47000000000E+01 0.  1.
        -11    1    1    2    0    0 -0.73260255729E+02 -0.23215111408E+02  0.91232153292E+02  0.11928668099E+03  0.00000000000E+00 0. -1.
         11    1    1    2    0    0  0.17533299056E+02  0.20765210760E+02  0.66014451088E+02  0.71389903391E+02  0.00000000000E+00 0.  1.
<mgrwt>
<rscale>  0 0.12896166E+03</rscale>
<asrwt>0</asrwt>
<pdfrwt beam="1">  1        2 0.39587760E-01 0.13688134E+03</pdfrwt>
<pdfrwt beam="2">  1       -2 0.11216506E-01 0.13688134E+03</pdfrwt>
<totfact> 0.67900452E+03</totfact>
</mgrwt>
</event>
<event>
 6    1  0.5818426E-006  0.1649589E+03  0.7546771E-02  0.1191321E+00
         -1   -1    0    0    0  501 -0.00000000000E+00  0.00000000000E+00  0.14158825001E+03  0.14158825001E+03  0.00000000000E+00 0.  1.
          1   -1    0    0  501    0  0.00000000000E+00 -0.00000000000E+00 -0.18053213681E+03  0.18053213681E+03  0.00000000000E+00 0. -1.
          5    1    1    2  502    0  0.27066322820E+02 -0.64817843183E+02  0.79177081049E+02  0.10594828356E+03  0.47000000000E+01 0.  1.
         -5    1    1    2    0  502  0.21892222420E+02 -0.31052436842E+02 -0.48551615535E+02  0.61829383042E+02  0.47000000000E+01 0.  1.
        -11    1    1    2    0    0  0.16717570396E+02  0.38958559063E+02  0.98331960241E+00  0.42405346381E+02  0.00000000000E+00 0.  1.
         11    1    1    2    0    0 -0.65676115637E+02  0.56911720961E+02 -0.70552671916E+02  0.11193737384E+03  0.00000000000E+00 0. -1.
<mgrwt>
<rscale>  0 0.15769715E+03</rscale>
<asrwt>0</asrwt>
<pdfrwt beam="2">  1        1 0.27774175E-01 0.16495886E+03</pdfrwt>
<pdfrwt beam="1">  1       -1 0.21782808E-01 0.16495886E+03</pdfrwt>
<totfact> 0.28592755E+03</totfact>
</mgrwt>
</event>
<event>
 6    1  0.5818426E-006  0.1390343E+03  0.7546771E-02  0.1225812E+00
         -2   -1    0    0    0  501 -0.00000000000E+00  0.00000000000E+00  0.47116213606E+02  0.47116213606E+02  0.00000000000E+00 0.  1.
          2   -1    0    0  501    0  0.00000000000E+00 -0.00000000000E+00 -0.33368446690E+03  0.33368446690E+03  0.00000000000E+00 0. -1.
          5    1    1    2  502    0  0.48544321223E+02  0.35893105991E+02 -0.39259348375E+02  0.72168224417E+02  0.47000000000E+01 0.  1.
         -5    1    1    2    0  502 -0.71669623457E+02  0.20404592774E+02 -0.98021027210E+02  0.12321969854E+03  0.47000000000E+01 0.  1.
        -11    1    1    2    0    0  0.42587446122E+02  0.64854699567E+01 -0.46340704419E+02  0.63270947313E+02  0.00000000000E+00 0.  1.
         11    1    1    2    0    0 -0.19462143888E+02 -0.62783168722E+02 -0.10294717329E+03  0.12214181023E+03  0.00000000000E+00 0. -1.
<mgrwt>
<rscale>  0 0.13111409E+03</rscale>
<asrwt>0</asrwt>
<pdfrwt beam="2">  1        2 0.51336071E-01 0.13903431E+03</pdfrwt>
<pdfrwt beam="1">  1       -2 0.72486484E-02 0.13903431E+03</pdfrwt>
<totfact> 0.10193028E+04</totfact>
</mgrwt>
</event>
<event>
 6    1  0.5818426E-006  0.1264545E+03  0.7546771E-02  0.1251422E+00
         -2   -1    0    0    0  501 -0.00000000000E+00  0.00000000000E+00  0.38775273103E+02  0.38775273103E+02  0.00000000000E+00 0.  1.
          2   -1    0    0  501    0  0.00000000000E+00 -0.00000000000E+00 -0.29455233485E+03  0.29455233485E+03  0.00000000000E+00 0. -1.
          5    1    1    2  502    0 -0.62566125928E+02 -0.19937717001E+02 -0.11267638490E+03  0.13049938846E+03  0.47000000000E+01 0.  1.
         -5    1    1    2    0  502  0.50957075958E+02  0.47680709407E+01 -0.27511571363E+02  0.58295236937E+02  0.47000000000E+01 0.  1.
        -11    1    1    2    0    0  0.56305956709E+01 -0.32763735187E+02 -0.24052635120E+02  0.41032855216E+02  0.00000000000E+00 0. -1.
         11    1    1    2    0    0  0.59784542995E+01  0.47933381247E+02 -0.91536470356E+02  0.10350012734E+03  0.00000000000E+00 0.  1.
<mgrwt>
<rscale>  0 0.11509131E+03</rscale>
<asrwt>0</asrwt>
<pdfrwt beam="2">  1        2 0.45315744E-01 0.12645453E+03</pdfrwt>
<pdfrwt beam="1">  1       -2 0.59654266E-02 0.12645453E+03</pdfrwt>
<totfact> 0.15534013E+04</totfact>
</mgrwt>
</event>
<event>
 6    1  0.5818426E-006  0.3140493E+03  0.7546771E-02  0.1079810E+00
          1   -1    0    0  501    0  0.00000000000E+00  0.00000000000E+00  0.16600814962E+04  0.16600814962E+04  0.00000000000E+00 0. -1.
         -1   -1    0    0    0  501 -0.00000000000E+00 -0.00000000000E+00 -0.60353335884E+02  0.60353335884E+02  0.00000000000E+00 0.  1.
          5    1    1    2  502    0  0.19300294378E+02 -0.14404441395E+01  0.15480452869E+03  0.15608045472E+03  0.47000000000E+01 0.  1.
         -5    1    1    2    0  502  0.21146417476E+03 -0.17104504351E+03  0.46412503825E+03  0.53796621199E+03  0.47000000000E+01 0.  1.
        -11    1    1    2    0    0 -0.18100345419E+03  0.81763999731E+02  0.66991242525E+03  0.69873475625E+03  0.00000000000E+00 0.  1.
         11    1    1    2    0    0 -0.49761014947E+02  0.90721487914E+02  0.31088616810E+03  0.32765340910E+03  0.00000000000E+00 0. -1.
<mgrwt>
<rscale>  0 0.31112151E+03</rscale>
<asrwt>0</asrwt>
<pdfrwt beam="1">  1        1 0.25539712E+00 0.31404931E+03</pdfrwt>
<pdfrwt beam="2">  1       -1 0.92851299E-02 0.31404931E+03</pdfrwt>
<totfact> 0.38239539E+02</totfact>
</mgrwt>
</event>
<event>
 6    1  0.5818426E-006  0.1418567E+03  0.7546771E-02  0.1222305E+00
          3   -1    0    0  501    0  0.00000000000E+00  0.00000000000E+00  0.12471846259E+03  0.12471846259E+03  0.00000000000E+00 0. -1.
         -3   -1    0    0    0  501 -0.00000000000E+00 -0.00000000000E+00 -0.12901661250E+03  0.12901661250E+03  0.00000000000E+00 0.  1.
          5    1    1    2  502    0 -0.50309443835E+02  0.60781476005E+01  0.55922555496E+02  0.75613532059E+02  0.47000000000E+01 0.  1.
         -5    1    1    2    0  502  0.38628717062E+01  0.42300519397E+02 -0.50738247070E+02  0.66337888381E+02  0.47000000000E+01 0.  1.
        -11    1    1    2    0    0  0.22944151979E+02 -0.60403554970E+02 -0.36332545592E+02  0.74128789497E+02  0.00000000000E+00 0.  1.
         11    1    1    2    0    0  0.23502420150E+02  0.12024887973E+02  0.26850087263E+02  0.37654865153E+02  0.00000000000E+00 0. -1.
<mgrwt>
<rscale>  0 0.13353341E+03</rscale>
<asrwt>0</asrwt>
<pdfrwt beam="1">  1        3 0.19187456E-01 0.14185672E+03</pdfrwt>
<pdfrwt beam="2">  1       -3 0.19848710E-01 0.14185672E+03</pdfrwt>
<totfact> 0.12732334E+03</totfact>
</mgrwt>
</event>
<event>
 6    1  0.5818426E-006  0.2303780E+03  0.7546771E-02  0.1129543E+00
         -2   -1    0    0    0  501 -0.00000000000E+00  0.00000000000E+00  0.13644316494E+03  0.13644316494E+03  0.00000000000E+00 0. -1.
          2   -1    0    0  501    0  0.00000000000E+00 -0.00000000000E+00 -0.36313874380E+03  0.36313874380E+03  0.00000000000E+00 0.  1.
          5    1    1    2  502    0  0.21952783659E+02  0.14274214387E+03 -0.43401166969E+02  0.15087410527E+03  0.47000000000E+01 0.  1.
         -5    1    1    2    0  502  0.61000086740E+02  0.32094021715E+02 -0.96411268785E+02  0.11860969421E+03  0.47000000000E+01 0.  1.
        -11    1    1    2    0    0 -0.92327900578E+02 -0.12846744589E+03 -0.39324196071E+02  0.16301753978E+03  0.00000000000E+00 0. -1.
         11    1    1    2    0    0  0.93750301794E+01 -0.46368719701E+02 -0.47558947038E+02  0.67080569474E+02  0.00000000000E+00 0.  1.
<mgrwt>
<rscale>  0 0.22592195E+03</rscale>
<asrwt>0</asrwt>
<pdfrwt beam="2">  1        2 0.55867498E-01 0.23037795E+03</pdfrwt>
<pdfrwt beam="1">  1       -2 0.20991257E-01 0.23037795E+03</pdfrwt>
<totfact> 0.17077256E+03</totfact>
</mgrwt>
</event>
<event>
 6    1  0.5818426E-006  0.2148285E+03  0.7546771E-02  0.1141555E+00
         -2   -1    0    0    0  501 -0.00000000000E+00  0.00000000000E+00  0.35462446063E+02  0.35462446063E+02  0.00000000000E+00 0.  1.
          2   -1    0    0  501    0  0.00000000000E+00 -0.00000000000E+00 -0.12552665139E+04  0.12552665139E+04  0.00000000000E+00 0. -1.
          5    1    1    2  502    0 -0.29790660900E+02  0.17499109692E+03 -0.48911178689E+03  0.52034776597E+03  0.47000000000E+01 0. -1.
         -5    1    1    2    0  502  0.14105226383E+02 -0.97874742364E+00 -0.11829223936E+01  0.14946727508E+02  0.47000000000E+01 0. -1.
        -11    1    1    2    0    0  0.41156121400E+02 -0.10944252133E+03 -0.33386799991E+03  0.35375038257E+03  0.00000000000E+00 0.  1.
         11    1    1    2    0    0 -0.25470686882E+02 -0.64569828171E+02 -0.39564135864E+03  0.40168408391E+03  0.00000000000E+00 0. -1.
<mgrwt>
<rscale>  0 0.21001377E+03</rscale>
<asrwt>0</asrwt>
<pdfrwt beam="2">  1        2 0.19311791E+00 0.21482852E+03</pdfrwt>
<pdfrwt beam="1">  1       -2 0.54557615E-02 0.21482852E+03</pdfrwt>
<totfact> 0.31742426E+03</totfact>
</mgrwt>
</event>
<event>
 6    1  0.5818426E-006  0.2891369E+03  0.7546771E-02  0.1114666E+00
          1   -1    0    0  501    0  0.00000000000E+00  0.00000000000E+00  0.18811973809E+03  0.18811973809E+03  0.00000000000E+00 0. -1.
         -1   -1    0    0    0  501 -0.00000000000E+00 -0.00000000000E+00 -0.27787772251E+03  0.27787772251E+03  0.00000000000E+00 0.  1.
          5    1    1    2  502    0  0.15578700415E+03  0.56211530411E+02  0.17514945883E+02  0.16660789340E+03  0.47000000000E+01 0. -1.
         -5    1    1    2    0  502 -0.62446958164E+02  0.21237402267E+02 -0.12583722596E+03  0.14215395624E+03  0.47000000000E+01 0.  1.
        -11    1    1    2    0    0 -0.35375627995E+02  0.14918445055E+02 -0.17752909335E+02  0.42298473362E+02  0.00000000000E+00 0.  1.
         11    1    1    2    0    0 -0.57964417991E+02 -0.92367377733E+02  0.36317204991E+02  0.11493713760E+03  0.00000000000E+00 0. -1.
<mgrwt>
<rscale>  0 0.24785822E+03</rscale>
<asrwt>0</asrwt>
<pdfrwt beam="1">  1        1 0.28941498E-01 0.28913693E+03</pdfrwt>
<pdfrwt beam="2">  1       -1 0.42750419E-01 0.28913693E+03</pdfrwt>
<totfact> 0.87019336E+02</totfact>
</mgrwt>
</event>
<event>
 6    1  0.5818426E-006  0.4178254E+03  0.7546771E-02  0.1037776E+00
         -1   -1    0    0    0  501 -0.00000000000E+00  0.00000000000E+00  0.78485975401E+02  0.78485975401E+02  0.00000000000E+00 0.  1.
          1   -1    0    0  501    0  0.00000000000E+00 -0.00000000000E+00 -0.55608039417E+03  0.55608039417E+03  0.00000000000E+00 0. -1.
          5    1    1    2  502    0 -0.26535966068E+02 -0.13666957927E+02 -0.14012022553E+03  0.14334123913E+03  0.47000000000E+01 0. -1.
         -5    1    1    2    0  502 -0.99105432475E+02 -0.11253011738E+03 -0.97935049907E+02  0.17915992315E+03  0.47000000000E+01 0. -1.
        -11    1    1    2    0    0  0.50409072426E+02  0.68504118392E+02 -0.46338503608E+02  0.96856314900E+02  0.00000000000E+00 0.  1.
         11    1    1    2    0    0  0.75232326117E+02  0.57692956916E+02 -0.19320063973E+03  0.21520889239E+03  0.00000000000E+00 0. -1.
<mgrwt>
<rscale>  0 0.41782538E+03</rscale>
<asrwt>0</asrwt>
<pdfrwt beam="2">  1        1 0.85550829E-01 0.41782538E+03</pdfrwt>
<pdfrwt beam="1">  1       -1 0.12074766E-01 0.41782538E+03</pdfrwt>
<totfact> 0.17796528E+03</totfact>
</mgrwt>
</event>
<event>
 6    1  0.5818426E-006  0.2682333E+03  0.7546771E-02  0.1102295E+00
          1   -1    0    0  501    0  0.00000000000E+00  0.00000000000E+00  0.60834677524E+03  0.60834677524E+03  0.00000000000E+00 0. -1.
         -1   -1    0    0    0  501 -0.00000000000E+00 -0.00000000000E+00 -0.29567472460E+02  0.29567472460E+02  0.00000000000E+00 0.  1.
          5    1    1    2  502    0 -0.50708640939E+01  0.30837067749E+01  0.23238487070E+03  0.23250815263E+03  0.47000000000E+01 0. -1.
         -5    1    1    2    0  502  0.10716788677E+02  0.75801124498E+02  0.68733062463E+02  0.10299021269E+03  0.47000000000E+01 0. -1.
        -11    1    1    2    0    0  0.14922497375E+02 -0.92924466137E+02  0.20411787055E+03  0.22477042157E+03  0.00000000000E+00 0.  1.
         11    1    1    2    0    0 -0.20568421959E+02  0.14039634864E+02  0.73543499061E+02  0.77645460802E+02  0.00000000000E+00 0. -1.
<mgrwt>
<rscale>  0 0.26823331E+03</rscale>
<asrwt>0</asrwt>
<pdfrwt beam="1">  1        1 0.93591802E-01 0.26823331E+03</pdfrwt>
<pdfrwt beam="2">  1       -1 0.45488424E-02 0.26823331E+03</pdfrwt>
<totfact> 0.69652310E+03</totfact>
</mgrwt>
</event>
<event>
 6    1  0.5818426E-006  0.3138636E+03  0.7546771E-02  0.1099578E+00
          2   -1    0    0  501    0  0.00000000000E+00  0.00000000000E+00  0.23677280047E+03  0.23677280047E+03  0.00000000000E+00 0. -1.
         -2   -1    0    0    0  501 -0.00000000000E+00 -0.00000000000E+00 -0.25719013693E+03  0.25719013693E+03  0.00000000000E+00 0.  1.
          5    1    1    2  502    0  0.15622642626E+03  0.60177352536E+02  0.96972097216E+02  0.19352955242E+03  0.47000000000E+01 0. -1.
         -5    1    1    2    0  502 -0.74136554665E+01 -0.41571658762E+02 -0.11302168402E+03  0.12074417650E+03  0.47000000000E+01 0.  1.
        -11    1    1    2    0    0 -0.14276717210E+03  0.74302298938E+01 -0.25997660826E+02  0.14530503128E+03  0.00000000000E+00 0.  1.
         11    1    1    2    0    0 -0.60455986910E+01 -0.26035923668E+02  0.21629911170E+02  0.34384177204E+02  0.00000000000E+00 0. -1.
<mgrwt>
<rscale>  0 0.27299467E+03</rscale>
<asrwt>0</asrwt>
<pdfrwt beam="1">  1        2 0.36426585E-01 0.31386364E+03</pdfrwt>
<pdfrwt beam="2">  1       -2 0.39567713E-01 0.31386364E+03</pdfrwt>
<totfact> 0.86390209E+02</totfact>
</mgrwt>
</event>
<event>
 6    1  0.5818426E-006  0.1778106E+03  0.7546771E-02  0.1194771E+00
          2   -1    0    0  501    0  0.00000000000E+00  0.00000000000E+00  0.45554451650E+03  0.45554451650E+03  0.00000000000E+00 0. -1.
         -2   -1    0    0    0  501 -0.00000000000E+00 -0.00000000000E+00 -0.53490590308E+02  0.53490590308E+02  0.00000000000E+00 0.  1.
          5    1    1    2  502    0 -0.25826308218E+02  0.16045527438E+02  0.14637469085E+03  0.14957304994E+03  0.47000000000E+01 0. -1.
         -5    1    1    2    0  502  0.49796386562E+02 -0.53143501021E+02 -0.11135331486E+02  0.73824097846E+02  0.47000000000E+01 0.  1.
        -11    1    1    2    0    0  0.22734501960E+02  0.47765444945E+02  0.16139595116E+03  0.16984418848E+03  0.00000000000E+00 0.  1.
         11    1    1    2    0    0 -0.46704580304E+02 -0.10667471361E+02  0.10541861567E+03  0.11579377055E+03  0.00000000000E+00 0. -1.
<mgrwt>
<rscale>  0 0.15473633E+03</rscale>
<asrwt>0</asrwt>
<pdfrwt beam="1">  1        2 0.70083769E-01 0.17781058E+03</pdfrwt>
<pdfrwt beam="2">  1       -2 0.82293219E-02 0.17781058E+03</pdfrwt>
<totfact> 0.60885673E+03</totfact>
</mgrwt>
</event>
<event>
 6    1  0.5818426E-006  0.1268104E+03  0.7546771E-02  0.1247779E+00
         -1   -1    0    0    0  501 -0.00000000000E+00  0.00000000000E+00  0.84056509734E+02  0.84056509734E+02  0.00000000000E+00 0.  1.
          1   -1    0    0  501    0  0.00000000000E+00 -0.00000000000E+00 -0.14713613045E+03  0.14713613045E+03  0.00000000000E+00 0. -1.
          5    1    1    2  502    0 -0.55214147121E+02  0.17589460566E+02  0.21506404215E+02  0.61988761784E+02  0.47000000000E+01 0.  1.
         -5    1    1    2    0  502  0.41124557718E+02 -0.33598023340E+02 -0.38930532967E+02  0.66013126096E+02  0.47000000000E+01 0.  1.
        -11    1    1    2    0    0  0.24652866728E+01 -0.34427683066E+02 -0.37199833629E+02  0.50746138983E+02  0.00000000000E+00 0. -1.
         11    1    1    2    0    0  0.11624302730E+02  0.50436245840E+02 -0.84556583328E+01  0.52444613320E+02  0.00000000000E+00 0.  1.
<mgrwt>
<rscale>  0 0.11720610E+03</rscale>
<asrwt>0</asrwt>
<pdfrwt beam="2">  1        1 0.22636328E-01 0.12681042E+03</pdfrwt>
<pdfrwt beam="1">  1       -1 0.12931771E-01 0.12681042E+03</pdfrwt>
<totfact> 0.83181622E+03</totfact>
</mgrwt>
</event>
<event>
 6    1  0.5818426E-006  0.1293914E+03  0.7546771E-02  0.1243286E+00
         -1   -1    0    0    0  501 -0.00000000000E+00  0.00000000000E+00  0.28619314683E+02  0.28619314683E+02  0.00000000000E+00 0.  1.
          1   -1    0    0  501    0  0.00000000000E+00 -0.00000000000E+00 -0.46189304851E+03  0.46189304851E+03  0.00000000000E+00 0. -1.
          5    1    1    2  502    0 -0.59144324085E+02 -0.38533699021E+02 -0.75873066942E+02  0.10373865875E+03  0.47000000000E+01 0. -1.
         -5    1    1    2    0  502  0.51864420316E+02  0.59189949241E+01 -0.12080988511E+03  0.13168929697E+03  0.47000000000E+01 0. -1.
        -11    1    1    2    0    0  0.91610501612E+01 -0.29629687543E+02 -0.10532892353E+03  0.10979993331E+03  0.00000000000E+00 0. -1.
         11    1    1    2    0    0 -0.18811463919E+01  0.62244391640E+02 -0.13126185825E+03  0.14528447416E+03  0.00000000000E+00 0.  1.
<mgrwt>
<rscale>  0 0.11988550E+03</rscale>
<asrwt>0</asrwt>
<pdfrwt beam="2">  1        1 0.71060470E-01 0.12939142E+03</pdfrwt>
<pdfrwt beam="1">  1       -1 0.44029715E-02 0.12939142E+03</pdfrwt>
<totfact> 0.10131506E+04</totfact>
</mgrwt>
</event>
<event>
 6    1  0.5818426E-006  0.1390169E+03  0.7546771E-02  0.1225724E+00
         -3   -1    0    0    0  501 -0.00000000000E+00  0.00000000000E+00  0.95237105345E+02  0.95237105345E+02  0.00000000000E+00 0.  1.
          3   -1    0    0  501    0  0.00000000000E+00 -0.00000000000E+00 -0.16321126505E+03  0.16321126505E+03  0.00000000000E+00 0. -1.
          5    1    1    2  502    0 -0.85482176871E+02 -0.52139644762E+02 -0.27326993963E+02  0.10389706308E+03  0.47000000000E+01 0.  1.
         -5    1    1    2    0  502  0.29291678034E+02  0.24742030824E+02 -0.14721787041E+02  0.41339950472E+02  0.47000000000E+01 0.  1.
        -11    1    1    2    0    0  0.39068145028E+02  0.13159031407E+02  0.31329272879E+02  0.51778406721E+02  0.00000000000E+00 0.  1.
         11    1    1    2    0    0  0.17122353810E+02  0.14238582531E+02 -0.57254651577E+02  0.61432950113E+02  0.00000000000E+00 0. -1.
<mgrwt>
<rscale>  0 0.13117435E+03</rscale>
<asrwt>0</asrwt>
<pdfrwt beam="2">  1        3 0.25109425E-01 0.13901687E+03</pdfrwt>
<pdfrwt beam="1">  1       -3 0.14651863E-01 0.13901687E+03</pdfrwt>
<totfact> 0.13304498E+03</totfact>
</mgrwt>
</event>
<event>
 6    1  0.5818426E-006  0.2581262E+03  0.7546771E-02  0.1108274E+00
          2   -1    0    0  501    0  0.00000000000E+00  0.00000000000E+00  0.18591465930E+03  0.18591465930E+03  0.00000000000E+00 0. -1.
         -2   -1    0    0    0  501 -0.00000000000E+00 -0.00000000000E+00 -0.89596391779E+02  0.89596391779E+02  0.00000000000E+00 0.  1.
          5    1    1    2  502    0 -0.17656499440E+02 -0.76320436652E+02 -0.18753787808E+02  0.80686774507E+02  0.47000000000E+01 0. -1.
         -5    1    1    2    0  502  0.17600218490E+02  0.57960065743E+01  0.68647318220E+02  0.71259425215E+02  0.47000000000E+01 0. -1.
        -11    1    1    2    0    0  0.40021179789E+02  0.47869859125E+02  0.46177908379E+02  0.77624850832E+02  0.00000000000E+00 0. -1.
         11    1    1    2    0    0 -0.39964898840E+02  0.22654570952E+02  0.24682873482E+00  0.45940000531E+02  0.00000000000E+00 0.  1.
<mgrwt>
<rscale>  0 0.25812619E+03</rscale>
<asrwt>0</asrwt>
<pdfrwt beam="1">  1        2 0.28602255E-01 0.25812619E+03</pdfrwt>
<pdfrwt beam="2">  1       -2 0.13784060E-01 0.25812619E+03</pdfrwt>
<totfact> 0.71980967E+03</totfact>
</mgrwt>
</event>
<event>
 6    1  0.5818426E-006  0.1485041E+03  0.7546771E-02  0.1210986E+00
          2   -1    0    0  501    0  0.00000000000E+00  0.00000000000E+00  0.33238867876E+03  0.33238867876E+03  0.00000000000E+00 0. -1.
         -2   -1    0    0    0  501 -0.00000000000E+00 -0.00000000000E+00 -0.63972704029E+02  0.63972704029E+02  0.00000000000E+00 0.  1.
          5    1    1    2  502    0 -0.87129549812E+02  0.33100724699E+02  0.27877161565E+02  0.97398370433E+02  0.47000000000E+01 0. -1.
         -5    1    1    2    0  502  0.39643313974E+02  0.31489965085E+02  0.45559308633E+02  0.68271156772E+02  0.47000000000E+01 0. -1.
        -11    1    1    2    0    0  0.40827871982E+02 -0.39308196456E+02  0.19649333844E+03  0.20450349994E+03  0.00000000000E+00 0. -1.
         11    1    1    2    0    0  0.66583638567E+01 -0.25282493327E+02 -0.15138339035E+01  0.26188355641E+02  0.00000000000E+00 0.  1.
<mgrwt>
<rscale>  0 0.14175569E+03</rscale>
<asrwt>0</asrwt>
<pdfrwt beam="1">  1        2 0.51136719E-01 0.14850413E+03</pdfrwt>
<pdfrwt beam="2">  1       -2 0.98419547E-02 0.14850413E+03</pdfrwt>
<totfact> 0.63934418E+03</totfact>
</mgrwt>
</event>
<event>
 6    1  0.5818426E-006  0.1440708E+03  0.7546771E-02  0.1218015E+00
         -1   -1    0    0    0  501 -0.00000000000E+00  0.00000000000E+00  0.43305325970E+03  0.43305325970E+03  0.00000000000E+00 0. -1.
          1   -1    0    0  501    0  0.00000000000E+00 -0.00000000000E+00 -0.85822529182E+02  0.85822529182E+02  0.00000000000E+00 0.  1.
          5    1    1    2  502    0  0.10324738203E+03 -0.16945583382E+02  0.27225179946E+03  0.29170242885E+03  0.47000000000E+01 0. -1.
         -5    1    1    2    0  502 -0.37413650222E+02 -0.11191335097E+02  0.10062303152E+03  0.10803754753E+03  0.47000000000E+01 0. -1.
        -11    1    1    2    0    0  0.19132823506E+02  0.19603406668E+02  0.60447227274E+01  0.28051687314E+02  0.00000000000E+00 0. -1.
         11    1    1    2    0    0 -0.84966555310E+02  0.85335118098E+01 -0.31688823189E+02  0.91084125182E+02  0.00000000000E+00 0.  1.
<mgrwt>
<rscale>  0 0.13657376E+03</rscale>
<asrwt>0</asrwt>
<pdfrwt beam="2">  1        1 0.13203466E-01 0.14407085E+03</pdfrwt>
<pdfrwt beam="1">  1       -1 0.66623577E-01 0.14407085E+03</pdfrwt>
<totfact> 0.10318835E+03</totfact>
</mgrwt>
</event>
<event>
 6    1  0.5818426E-006  0.1504627E+03  0.7546771E-02  0.1209662E+00
          2   -1    0    0  501    0  0.00000000000E+00  0.00000000000E+00  0.25036892819E+03  0.25036892819E+03  0.00000000000E+00 0. -1.
         -2   -1    0    0    0  501 -0.00000000000E+00 -0.00000000000E+00 -0.76240348340E+02  0.76240348340E+02  0.00000000000E+00 0.  1.
          5    1    1    2  502    0  0.32639540621E+02 -0.58089855253E+01  0.16006371604E+02  0.37113041599E+02  0.47000000000E+01 0.  1.
         -5    1    1    2    0  502 -0.11430077268E+03  0.24399717030E+02  0.52661545734E+02  0.12827837396E+03  0.47000000000E+01 0.  1.
        -11    1    1    2    0    0  0.88574142837E+02  0.78767720855E+00  0.49224842478E+02  0.10133649062E+03  0.00000000000E+00 0.  1.
         11    1    1    2    0    0 -0.69129107728E+01 -0.19378408713E+02  0.56235820029E+02  0.59881370342E+02  0.00000000000E+00 0. -1.
<mgrwt>
<rscale>  0 0.14276043E+03</rscale>
<asrwt>0</asrwt>
<pdfrwt beam="1">  1        2 0.38518296E-01 0.15046274E+03</pdfrwt>
<pdfrwt beam="2">  1       -2 0.11729285E-01 0.15046274E+03</pdfrwt>
<totfact> 0.65508294E+03</totfact>
</mgrwt>
</event>
<event>
 6    1  0.5818426E-006  0.4721201E+03  0.7546771E-02  0.1021324E+00
         -2   -1    0    0    0  501 -0.00000000000E+00  0.00000000000E+00  0.24112939097E+03  0.24112939097E+03  0.00000000000E+00 0.  1.
          2   -1    0    0  501    0  0.00000000000E+00 -0.00000000000E+00 -0.23109724194E+03  0.23109724194E+03  0.00000000000E+00 0. -1.
          5    1    1    2  502    0 -0.11398596804E+03 -0.28899438381E+02 -0.59593351274E+01  0.11783709995E+03  0.47000000000E+01 0. -1.
         -5    1    1    2    0  502  0.21797470314E+01 -0.51510534275E+01  0.15364023377E+03  0.15381383579E+03  0.47000000000E+01 0.  1.
        -11    1    1    2    0    0  0.15835072894E+02  0.40188202284E+02 -0.72587159587E+02  0.84467371649E+02  0.00000000000E+00 0.  1.
         11    1    1    2    0    0  0.95971148114E+02 -0.61377104763E+01 -0.65061590016E+02  0.11610832552E+03  0.00000000000E+00 0. -1.
<mgrwt>
<rscale>  0 0.47212006E+03</rscale>
<asrwt>0</asrwt>
<pdfrwt beam="2">  1        2 0.35553422E-01 0.47212006E+03</pdfrwt>
<pdfrwt beam="1">  1       -2 0.37096830E-01 0.47212006E+03</pdfrwt>
<totfact> 0.10073792E+03</totfact>
</mgrwt>
</event>
<event>
 6    1  0.5818426E-006  0.1291760E+03  0.7546771E-02  0.1242687E+00
          1   -1    0    0  501    0  0.00000000000E+00  0.00000000000E+00  0.63868437473E+03  0.63868437473E+03  0.00000000000E+00 0. -1.
         -1   -1    0    0    0  501 -0.00000000000E+00 -0.00000000000E+00 -0.20470531864E+02  0.20470531864E+02  0.00000000000E+00 0.  1.
          5    1    1    2  502    0 -0.20142003198E+02  0.73177206928E+02  0.15596579987E+03  0.17351664080E+03  0.47000000000E+01 0.  1.
         -5    1    1    2    0  502 -0.40023971627E+01 -0.51297270865E+02  0.14795908770E+03  0.15672080530E+03  0.47000000000E+01 0.  1.
        -11    1    1    2    0    0 -0.27563442921E+02  0.13090628746E+02  0.63135350718E+02  0.70122610169E+02  0.00000000000E+00 0. -1.
         11    1    1    2    0    0  0.51707843282E+02 -0.34970564809E+02  0.25115360458E+03  0.25879485032E+03  0.00000000000E+00 0.  1.
<mgrwt>
<rscale>  0 0.12024862E+03</rscale>
<asrwt>0</asrwt>
<pdfrwt beam="1">  1        1 0.98259119E-01 0.12917598E+03</pdfrwt>
<pdfrwt beam="2">  1       -1 0.31493131E-02 0.12917598E+03</pdfrwt>
<totfact> 0.10757125E+04</totfact>
</mgrwt>
</event>
<event>
 6    1  0.5818426E-006  0.2125373E+03  0.7546771E-02  0.1149977E+00
         -2   -1    0    0    0  501 -0.00000000000E+00  0.00000000000E+00  0.13318742036E+03  0.13318742036E+03  0.00000000000E+00 0.  1.
          2   -1    0    0  501    0  0.00000000000E+00 -0.00000000000E+00 -0.33423236425E+03  0.33423236425E+03  0.00000000000E+00 0. -1.
          5    1    1    2  502    0  0.94405555003E+02 -0.10903007240E+03 -0.32831019451E+02  0.14798625389E+03  0.47000000000E+01 0. -1.
         -5    1    1    2    0  502 -0.54482339076E+02 -0.23566830455E+02  0.25266998018E+02  0.64685639502E+02  0.47000000000E+01 0.  1.
        -11    1    1    2    0    0 -0.48517352049E+02  0.38611177029E+02 -0.37579162723E+02  0.72504826821E+02  0.00000000000E+00 0.  1.
         11    1    1    2    0    0  0.85941361217E+01  0.93985725827E+02 -0.15590175973E+03  0.18224306440E+03  0.00000000000E+00 0. -1.
<mgrwt>
<rscale>  0 0.19971799E+03</rscale>
<asrwt>0</asrwt>
<pdfrwt beam="2">  1        2 0.51420364E-01 0.21253734E+03</pdfrwt>
<pdfrwt beam="1">  1       -2 0.20490372E-01 0.21253734E+03</pdfrwt>
<totfact> 0.19429626E+03</totfact>
</mgrwt>
</event>
<event>
 6    1  0.5818426E-006  0.1390403E+03  0.7546771E-02  0.1228455E+00
          2   -1    0    0  501    0  0.00000000000E+00  0.00000000000E+00  0.38382350121E+03  0.38382350121E+03  0.00000000000E+00 0. -1.
         -2   -1    0    0    0  501 -0.00000000000E+00 -0.00000000000E+00 -0.38541060446E+02  0.38541060446E+02  0.00000000000E+00 0.  1.
          5    1    1    2  502    0  0.34339759012E+02  0.34143319915E+02  0.18657602455E+02  0.52107403247E+02  0.47000000000E+01 0.  1.
         -5    1    1    2    0  502 -0.61598296106E+02  0.20298010555E+02  0.17186195293E+03  0.18375249708E+03  0.47000000000E+01 0.  1.
        -11    1    1    2    0    0  0.24954031589E+02 -0.94146684168E+01  0.14615015282E+01  0.26710965177E+02  0.00000000000E+00 0.  1.
         11    1    1    2    0    0  0.23045055036E+01 -0.45026662053E+02  0.15330138385E+03  0.15979369616E+03  0.00000000000E+00 0. -1.
<mgrwt>
<rscale>  0 0.12932908E+03</rscale>
<asrwt>0</asrwt>
<pdfrwt beam="1">  1        2 0.59049767E-01 0.13904025E+03</pdfrwt>
<pdfrwt beam="2">  1       -2 0.59293942E-02 0.13904025E+03</pdfrwt>
<totfact> 0.11931354E+04</totfact>
</mgrwt>
</event>
<event>
 6    1  0.5818426E-006  0.1468199E+03  0.7546771E-02  0.1214268E+00
          3   -1    0    0  501    0  0.00000000000E+00  0.00000000000E+00  0.13227290373E+03  0.13227290373E+03  0.00000000000E+00 0. -1.
         -3   -1    0    0    0  501 -0.00000000000E+00 -0.00000000000E+00 -0.13745053279E+03  0.13745053279E+03  0.00000000000E+00 0.  1.
          5    1    1    2  502    0 -0.22143581605E+02 -0.42380319626E+02 -0.23309915716E+02  0.53402920038E+02  0.47000000000E+01 0.  1.
         -5    1    1    2    0  502 -0.41278742485E+02  0.86086831578E+02 -0.21740619238E+01  0.95612204751E+02  0.47000000000E+01 0.  1.
        -11    1    1    2    0    0 -0.90759625509E+00 -0.16761331315E+02  0.43964418225E+02  0.47059919552E+02  0.00000000000E+00 0. -1.
         11    1    1    2    0    0  0.64329920345E+02 -0.26945180637E+02 -0.23658069646E+02  0.73648392179E+02  0.00000000000E+00 0.  1.
<mgrwt>
<rscale>  0 0.13930427E+03</rscale>
<asrwt>0</asrwt>
<pdfrwt beam="1">  1        3 0.20349677E-01 0.14681987E+03</pdfrwt>
<pdfrwt beam="2">  1       -3 0.21146236E-01 0.14681987E+03</pdfrwt>
<totfact> 0.10319309E+03</totfact>
</mgrwt>
</event>
<event>
 6    1  0.5818426E-006  0.1478619E+03  0.7546771E-02  0.1212536E+00
         -3   -1    0    0    0  501 -0.00000000000E+00  0.00000000000E+00  0.55976114734E+03  0.55976114734E+03  0.00000000000E+00 0.  1.
          3   -1    0    0  501    0  0.00000000000E+00 -0.00000000000E+00 -0.33926495103E+02  0.33926495103E+02  0.00000000000E+00 0. -1.
          5    1    1    2  502    0  0.47889438650E+01  0.14298753036E+02 -0.21018722527E+01  0.15934120267E+02  0.47000000000E+01 0. -1.
         -5    1    1    2    0  502  0.19103151829E+02 -0.89559922712E+02  0.35582180090E+03  0.36744680454E+03  0.47000000000E+01 0. -1.
        -11    1    1    2    0    0 -0.19634164844E+02  0.96527237906E+02  0.13197874350E+03  0.16468575173E+03  0.00000000000E+00 0. -1.
         11    1    1    2    0    0 -0.42579308497E+01 -0.21266068230E+02  0.40135980085E+02  0.45620965909E+02  0.00000000000E+00 0.  1.
<mgrwt>
<rscale>  0 0.14059069E+03</rscale>
<asrwt>0</asrwt>
<pdfrwt beam="2">  1        3 0.52194612E-02 0.14786191E+03</pdfrwt>
<pdfrwt beam="1">  1       -3 0.86117093E-01 0.14786191E+03</pdfrwt>
<totfact> 0.63262814E+02</totfact>
</mgrwt>
</event>
<event>
 6    1  0.5818426E-006  0.1330123E+03  0.7546771E-02  0.1237110E+00
          1   -1    0    0  501    0  0.00000000000E+00  0.00000000000E+00  0.17732106555E+02  0.17732106555E+02  0.00000000000E+00 0. -1.
         -1   -1    0    0    0  501 -0.00000000000E+00 -0.00000000000E+00 -0.93432547334E+03  0.93432547334E+03  0.00000000000E+00 0.  1.
          5    1    1    2  502    0 -0.29153866524E+02  0.19705219266E+01 -0.36013877931E+02  0.46614593139E+02  0.47000000000E+01 0. -1.
         -5    1    1    2    0  502  0.20652826996E+02  0.42686426738E+02 -0.67871934595E+03  0.68039011666E+03  0.47000000000E+01 0. -1.
        -11    1    1    2    0    0 -0.23779663652E+02  0.12242792599E+02 -0.10367949049E+03  0.10707378354E+03  0.00000000000E+00 0.  1.
         11    1    1    2    0    0  0.32280703179E+02 -0.56899741265E+02 -0.98180652418E+02  0.11797908655E+03  0.00000000000E+00 0. -1.
<mgrwt>
<rscale>  0 0.12370299E+03</rscale>
<asrwt>0</asrwt>
<pdfrwt beam="1">  1        1 0.27280169E-02 0.13301228E+03</pdfrwt>
<pdfrwt beam="2">  1       -1 0.14374235E+00 0.13301228E+03</pdfrwt>
<totfact> 0.16017649E+03</totfact>
</mgrwt>
</event>
<event>
 6    1  0.5818426E-006  0.3005128E+03  0.7546771E-02  0.1084985E+00
         -3   -1    0    0    0  501 -0.00000000000E+00  0.00000000000E+00  0.77489166652E+02  0.77489166652E+02  0.00000000000E+00 0.  1.
          3   -1    0    0  501    0  0.00000000000E+00 -0.00000000000E+00 -0.29135670943E+03  0.29135670943E+03  0.00000000000E+00 0. -1.
          5    1    1    2  502    0 -0.12702518983E+01  0.14449841289E+02 -0.11285791502E+03  0.11388331939E+03  0.47000000000E+01 0. -1.
         -5    1    1    2    0  502  0.17381624422E+02  0.88266878356E+02 -0.11476697055E+02  0.90812814391E+02  0.47000000000E+01 0. -1.
        -11    1    1    2    0    0 -0.21053914143E+02 -0.28120459688E+02 -0.81759638840E+02  0.88986887220E+02  0.00000000000E+00 0. -1.
         11    1    1    2    0    0  0.49425416194E+01 -0.74596259958E+02 -0.77732918628E+01  0.75162855080E+02  0.00000000000E+00 0.  1.
<mgrwt>
<rscale>  0 0.30051282E+03</rscale>
<asrwt>0</asrwt>
<pdfrwt beam="2">  1        3 0.44824108E-01 0.30051282E+03</pdfrwt>
<pdfrwt beam="1">  1       -3 0.11921410E-01 0.30051282E+03</pdfrwt>
<totfact> 0.69975532E+02</totfact>
</mgrwt>
</event>
<event>
 6    1  0.5818426E-006  0.1334755E+03  0.7546771E-02  0.1237174E+00
         -1   -1    0    0    0  501 -0.00000000000E+00  0.00000000000E+00  0.50253296196E+02  0.50253296196E+02  0.00000000000E+00 0.  1.
          1   -1    0    0  501    0  0.00000000000E+00 -0.00000000000E+00 -0.26737017385E+03  0.26737017385E+03  0.00000000000E+00 0. -1.
          5    1    1    2  502    0  0.37105587662E+02  0.66031055968E+02 -0.10222806424E+03  0.12731689639E+03  0.47000000000E+01 0.  1.
         -5    1    1    2    0  502  0.70144899117E+01 -0.50396713311E+02 -0.24237358519E+02  0.56555913301E+02  0.47000000000E+01 0.  1.
        -11    1    1    2    0    0 -0.25575890250E+02 -0.49319997590E+01 -0.10486495875E+03  0.10805142459E+03  0.00000000000E+00 0. -1.
         11    1    1    2    0    0 -0.18544187323E+02 -0.10702342899E+02  0.14213503852E+02  0.25699235762E+02  0.00000000000E+00 0.  1.
<mgrwt>
<rscale>  0 0.12366254E+03</rscale>
<asrwt>0</asrwt>
<pdfrwt beam="2">  1        1 0.41133873E-01 0.13347549E+03</pdfrwt>
<pdfrwt beam="1">  1       -1 0.77312764E-02 0.13347549E+03</pdfrwt>
<totfact> 0.87071390E+03</totfact>
</mgrwt>
</event>
<event>
 6    1  0.5818426E-006  0.1933892E+03  0.7546771E-02  0.1161303E+00
         -1   -1    0    0    0  501 -0.00000000000E+00  0.00000000000E+00  0.29802472753E+02  0.29802472753E+02  0.00000000000E+00 0.  1.
          1   -1    0    0  501    0  0.00000000000E+00 -0.00000000000E+00 -0.11281672378E+04  0.11281672378E+04  0.00000000000E+00 0. -1.
          5    1    1    2  502    0 -0.14244790464E+01 -0.51786136138E+02 -0.46264964622E+02  0.69615874541E+02  0.47000000000E+01 0.  1.
         -5    1    1    2    0  502  0.82820382142E+02 -0.71296080698E+02 -0.44739916011E+03  0.46057621007E+03  0.47000000000E+01 0.  1.
        -11    1    1    2    0    0 -0.91744797840E+02  0.91128707232E+02 -0.53500845945E+03  0.55041402679E+03  0.00000000000E+00 0. -1.
         11    1    1    2    0    0  0.10348894744E+02  0.31953509604E+02 -0.69692180901E+02  0.77363599174E+02  0.00000000000E+00 0.  1.
<mgrwt>
<rscale>  0 0.18688263E+03</rscale>
<asrwt>0</asrwt>
<pdfrwt beam="2">  1        1 0.17356420E+00 0.19338919E+03</pdfrwt>
<pdfrwt beam="1">  1       -1 0.45849956E-02 0.19338919E+03</pdfrwt>
<totfact> 0.25699742E+03</totfact>
</mgrwt>
</event>
<event>
 6    1  0.5818426E-006  0.1860144E+03  0.7546771E-02  0.1166890E+00
          1   -1    0    0  501    0  0.00000000000E+00  0.00000000000E+00  0.20165542281E+03  0.20165542281E+03  0.00000000000E+00 0. -1.
         -1   -1    0    0    0  501 -0.00000000000E+00 -0.00000000000E+00 -0.18083855959E+03  0.18083855959E+03  0.00000000000E+00 0.  1.
          5    1    1    2  502    0  0.40405622231E+02  0.41452687252E+02  0.13407854185E+02  0.59605370078E+02  0.47000000000E+01 0. -1.
         -5    1    1    2    0  502  0.96012957723E+02 -0.60517622413E+02 -0.75943291314E+02  0.13663946783E+03  0.47000000000E+01 0. -1.
        -11    1    1    2    0    0 -0.67276064253E+02 -0.11695530407E+02  0.86864844964E+02  0.11049142747E+03  0.00000000000E+00 0. -1.
         11    1    1    2    0    0 -0.69142515701E+02  0.30760465569E+02 -0.35125446047E+01  0.75757717027E+02  0.00000000000E+00 0.  1.
<mgrwt>
<rscale>  0 0.18094661E+03</rscale>
<asrwt>0</asrwt>
<pdfrwt beam="1">  1        1 0.31023911E-01 0.18601440E+03</pdfrwt>
<pdfrwt beam="2">  1       -1 0.27821317E-01 0.18601440E+03</pdfrwt>
<totfact> 0.16686689E+03</totfact>
</mgrwt>
</event>
<event>
 6    1  0.5818426E-006  0.1265686E+03  0.7546771E-02  0.1247692E+00
         -1   -1    0    0    0  501 -0.00000000000E+00  0.00000000000E+00  0.12894983027E+03  0.12894983027E+03  0.00000000000E+00 0.  1.
          1   -1    0    0  501    0  0.00000000000E+00 -0.00000000000E+00 -0.10128191412E+03  0.10128191412E+03  0.00000000000E+00 0. -1.
          5    1    1    2  502    0  0.47927858548E+02  0.67346724041E+01 -0.52989440516E+01  0.48914254011E+02  0.47000000000E+01 0. -1.
         -5    1    1    2    0  502 -0.67544722667E+02 -0.96651279269E+01  0.52300656442E+02  0.86099668537E+02  0.47000000000E+01 0. -1.
        -11    1    1    2    0    0  0.97625081433E+01  0.46712995667E+02 -0.44185270257E+01  0.47926338380E+02  0.00000000000E+00 0. -1.
         11    1    1    2    0    0  0.98543559757E+01 -0.43782540144E+02 -0.14915269215E+02  0.47291483472E+02  0.00000000000E+00 0.  1.
<mgrwt>
<rscale>  0 0.11725687E+03</rscale>
<asrwt>0</asrwt>
<pdfrwt beam="2">  1        1 0.15581833E-01 0.12656855E+03</pdfrwt>
<pdfrwt beam="1">  1       -1 0.19838435E-01 0.12656855E+03</pdfrwt>
<totfact> 0.68265983E+03</totfact>
</mgrwt>
</event>
<event>
 6    1  0.5818426E-006  0.1448671E+03  0.7546771E-02  0.1217167E+00
         -1   -1    0    0    0  501 -0.00000000000E+00  0.00000000000E+00  0.32347496426E+02  0.32347496426E+02  0.00000000000E+00 0. -1.
          1   -1    0    0  501    0  0.00000000000E+00 -0.00000000000E+00 -0.60668936970E+03  0.60668936970E+03  0.00000000000E+00 0.  1.
          5    1    1    2  502    0 -0.43499458009E+01  0.59970744144E+02 -0.21281788659E+03  0.22119890379E+03  0.47000000000E+01 0. -1.
         -5    1    1    2    0  502 -0.19385486154E+02  0.92984871568E+01  0.13035893796E+02  0.25578965262E+02  0.47000000000E+01 0. -1.
        -11    1    1    2    0    0 -0.30529242088E+02 -0.84841311704E+01 -0.67427380989E+02  0.74501455094E+02  0.00000000000E+00 0. -1.
         11    1    1    2    0    0  0.54264674043E+02 -0.60785100130E+02 -0.30713249948E+03  0.31775754198E+03  0.00000000000E+00 0.  1.
<mgrwt>
<rscale>  0 0.13718538E+03</rscale>
<asrwt>0</asrwt>
<pdfrwt beam="2">  1        1 0.93336813E-01 0.14486708E+03</pdfrwt>
<pdfrwt beam="1">  1       -1 0.49765386E-02 0.14486708E+03</pdfrwt>
<totfact> 0.59381337E+03</totfact>
</mgrwt>
</event>
<event>
 6    1  0.5818426E-006  0.1806471E+03  0.7546771E-02  0.1172053E+00
         -2   -1    0    0    0  501 -0.00000000000E+00  0.00000000000E+00  0.15287696376E+03  0.15287696376E+03  0.00000000000E+00 0.  1.
          2   -1    0    0  501    0  0.00000000000E+00 -0.00000000000E+00 -0.24038088552E+03  0.24038088552E+03  0.00000000000E+00 0. -1.
          5    1    1    2  502    0  0.82167161331E+02  0.49056387593E+01  0.84175369932E+02  0.11782652756E+03  0.47000000000E+01 0. -1.
         -5    1    1    2    0  502  0.42882318210E+02  0.32125426377E+02 -0.41329923397E+02  0.67832063237E+02  0.47000000000E+01 0. -1.
        -11    1    1    2    0    0 -0.22419325591E+02 -0.33289468050E+02  0.18728619952E+01  0.40178631822E+02  0.00000000000E+00 0.  1.
         11    1    1    2    0    0 -0.10263015395E+03 -0.37415970859E+01 -0.13222223030E+03  0.16742062667E+03  0.00000000000E+00 0. -1.
<mgrwt>
<rscale>  0 0.17567778E+03</rscale>
<asrwt>0</asrwt>
<pdfrwt beam="2">  1        2 0.36981675E-01 0.18064711E+03</pdfrwt>
<pdfrwt beam="1">  1       -2 0.23519533E-01 0.18064711E+03</pdfrwt>
<totfact> 0.21704767E+03</totfact>
</mgrwt>
</event>
<event>
 6    1  0.5818426E-006  0.1284738E+03  0.7546771E-02  0.1243305E+00
          1   -1    0    0  501    0  0.00000000000E+00  0.00000000000E+00  0.13237527041E+03  0.13237527041E+03  0.00000000000E+00 0. -1.
         -1   -1    0    0    0  501 -0.00000000000E+00 -0.00000000000E+00 -0.98082810349E+02  0.98082810349E+02  0.00000000000E+00 0.  1.
          5    1    1    2  502    0 -0.24558849385E+02 -0.31316362188E+02 -0.54015196301E+02  0.67257587343E+02  0.47000000000E+01 0. -1.
         -5    1    1    2    0  502 -0.21445219483E+01  0.18371446261E+02  0.58238483336E+02  0.61285560725E+02  0.47000000000E+01 0. -1.
        -11    1    1    2    0    0  0.41383462381E+02  0.36056228513E+01  0.56587738875E+02  0.70198031780E+02  0.00000000000E+00 0. -1.
         11    1    1    2    0    0 -0.14680091048E+02  0.93392930757E+01 -0.26518565852E+02  0.31716900908E+02  0.00000000000E+00 0.  1.
<mgrwt>
<rscale>  0 0.11987432E+03</rscale>
<asrwt>0</asrwt>
<pdfrwt beam="1">  1        1 0.20365426E-01 0.12847375E+03</pdfrwt>
<pdfrwt beam="2">  1       -1 0.15089663E-01 0.12847375E+03</pdfrwt>
<totfact> 0.74841984E+03</totfact>
</mgrwt>
</event>
<event>
 6    1  0.5818426E-006  0.1295408E+03  0.7546771E-02  0.1238963E+00
         -2   -1    0    0    0  501 -0.00000000000E+00  0.00000000000E+00  0.38167371383E+02  0.38167371383E+02  0.00000000000E+00 0. -1.
          2   -1    0    0  501    0  0.00000000000E+00 -0.00000000000E+00 -0.37721163159E+03  0.37721163159E+03  0.00000000000E+00 0.  1.
          5    1    1    2  502    0  0.17992635959E+02  0.69669038270E+02 -0.59310058189E+02  0.93366390337E+02  0.47000000000E+01 0.  1.
         -5    1    1    2    0  502 -0.36056394300E+02 -0.40869737633E+02 -0.79467433159E+02  0.96475706564E+02  0.47000000000E+01 0.  1.
        -11    1    1    2    0    0  0.25937010145E+02  0.13521893035E+02 -0.17099837125E+03  0.17348202516E+03  0.00000000000E+00 0.  1.
         11    1    1    2    0    0 -0.78732518048E+01 -0.42321193671E+02 -0.29268397617E+02  0.52054880912E+02  0.00000000000E+00 0. -1.
<mgrwt>
<rscale>  0 0.12254121E+03</rscale>
<asrwt>0</asrwt>
<pdfrwt beam="2">  1        2 0.58032559E-01 0.12954084E+03</pdfrwt>
<pdfrwt beam="1">  1       -2 0.58719033E-02 0.12954084E+03</pdfrwt>
<totfact> 0.12267745E+04</totfact>
</mgrwt>
</event>
<event>
 6    1  0.5818426E-006  0.1273638E+03  0.7546771E-02  0.1245170E+00
          3   -1    0    0  501    0  0.00000000000E+00  0.00000000000E+00  0.10699980581E+03  0.10699980581E+03  0.00000000000E+00 0. -1.
         -3   -1    0    0    0  501 -0.00000000000E+00 -0.00000000000E+00 -0.22497007301E+03  0.22497007301E+03  0.00000000000E+00 0.  1.
          5    1    1    2  502    0 -0.53954880858E+02 -0.45423376418E+02 -0.10557385928E+03  0.12705251692E+03  0.47000000000E+01 0. -1.
         -5    1    1    2    0  502  0.52137530033E+02  0.21069872405E+02 -0.72170045962E+02  0.91612592449E+02  0.47000000000E+01 0. -1.
        -11    1    1    2    0    0  0.39117435481E+02 -0.12576663878E+02  0.39618865775E+02  0.57078899413E+02  0.00000000000E+00 0. -1.
         11    1    1    2    0    0 -0.37300084655E+02  0.36930167891E+02  0.20154772273E+02  0.56225870034E+02  0.00000000000E+00 0.  1.
<mgrwt>
<rscale>  0 0.11875192E+03</rscale>
<asrwt>0</asrwt>
<pdfrwt beam="1">  1        3 0.16461509E-01 0.12736379E+03</pdfrwt>
<pdfrwt beam="2">  1       -3 0.34610780E-01 0.12736379E+03</pdfrwt>
<totfact> 0.59452769E+02</totfact>
</mgrwt>
</event>
<event>
 6    1  0.5818426E-006  0.1370946E+03  0.7546771E-02  0.1224930E+00
          1   -1    0    0  501    0  0.00000000000E+00  0.00000000000E+00  0.64073432250E+03  0.64073432250E+03  0.00000000000E+00 0. -1.
         -1   -1    0    0    0  501 -0.00000000000E+00 -0.00000000000E+00 -0.33018743316E+02  0.33018743316E+02  0.00000000000E+00 0.  1.
          5    1    1    2  502    0  0.55388184802E+02  0.14050383828E+02  0.15552177946E+03  0.16575396884E+03  0.47000000000E+01 0. -1.
         -5    1    1    2    0  502 -0.10010752868E+02  0.42176313762E+02  0.28237681570E+01  0.43693481003E+02  0.47000000000E+01 0.  1.
        -11    1    1    2    0    0  0.10358884054E+02  0.16459407692E+02  0.36084073193E+02  0.40991205381E+02  0.00000000000E+00 0.  1.
         11    1    1    2    0    0 -0.55736315988E+02 -0.72686105282E+02  0.41328595837E+03  0.42331441059E+03  0.00000000000E+00 0. -1.
<mgrwt>
<rscale>  0 0.13171705E+03</rscale>
<asrwt>0</asrwt>
<pdfrwt beam="1">  1        1 0.98574502E-01 0.13709457E+03</pdfrwt>
<pdfrwt beam="2">  1       -1 0.50798071E-02 0.13709457E+03</pdfrwt>
<totfact> 0.53278046E+03</totfact>
</mgrwt>
</event>
<event>
 6    1  0.5818426E-006  0.1298826E+03  0.7546771E-02  0.1227869E+00
          2   -1    0    0  501    0  0.00000000000E+00  0.00000000000E+00  0.35997285782E+03  0.35997285782E+03  0.00000000000E+00 0. -1.
         -2   -1    0    0    0  501 -0.00000000000E+00 -0.00000000000E+00 -0.51780724399E+02  0.51780724399E+02  0.00000000000E+00 0.  1.
          5    1    1    2  502    0  0.30897467271E+02 -0.17806293829E+02 -0.12182125904E+02  0.37976463438E+02  0.47000000000E+01 0.  1.
         -5    1    1    2    0  502 -0.62011164484E+02  0.73316887852E+01  0.10101338094E+03  0.11884835426E+03  0.47000000000E+01 0.  1.
        -11    1    1    2    0    0  0.63560487828E+02 -0.14027433533E+01  0.20959173799E+03  0.21902191656E+03  0.00000000000E+00 0. -1.
         11    1    1    2    0    0 -0.32446790615E+02  0.11877348397E+02  0.97691403953E+01  0.35906847957E+02  0.00000000000E+00 0.  1.
<mgrwt>
<rscale>  0 0.12972168E+03</rscale>
<asrwt>0</asrwt>
<pdfrwt beam="1">  1        2 0.55380438E-01 0.12988256E+03</pdfrwt>
<pdfrwt beam="2">  1       -2 0.79662655E-02 0.12988256E+03</pdfrwt>
<totfact> 0.80942110E+03</totfact>
</mgrwt>
</event>
<event>
 6    1  0.5818426E-006  0.1577398E+03  0.7546771E-02  0.1199062E+00
          1   -1    0    0  501    0  0.00000000000E+00  0.00000000000E+00  0.10000212087E+04  0.10000212087E+04  0.00000000000E+00 0. -1.
         -1   -1    0    0    0  501 -0.00000000000E+00 -0.00000000000E+00 -0.21152253150E+02  0.21152253150E+02  0.00000000000E+00 0.  1.
          5    1    1    2  502    0  0.34212878340E+02 -0.95066550017E+01  0.68415331781E+02  0.77224640863E+02  0.47000000000E+01 0.  1.
         -5    1    1    2    0  502 -0.50299975128E+02  0.10434058476E+03  0.44701551066E+03  0.46180299035E+03  0.47000000000E+01 0.  1.
        -11    1    1    2    0    0  0.10441631164E+02 -0.75347508646E+02  0.45297753505E+03  0.45932006486E+03  0.00000000000E+00 0. -1.
         11    1    1    2    0    0  0.56454656230E+01 -0.19486421116E+02  0.10460578058E+02  0.22825765777E+02  0.00000000000E+00 0.  1.
<mgrwt>
<rscale>  0 0.15115447E+03</rscale>
<asrwt>0</asrwt>
<pdfrwt beam="1">  1        1 0.15384938E+00 0.15773977E+03</pdfrwt>
<pdfrwt beam="2">  1       -1 0.32541936E-02 0.15773977E+03</pdfrwt>
<totfact> 0.52458198E+03</totfact>
</mgrwt>
</event>
<event>
 6    1  0.5818426E-006  0.1308358E+03  0.7546771E-02  0.1239135E+00
         -2   -1    0    0    0  501 -0.00000000000E+00  0.00000000000E+00  0.60088385858E+02  0.60088385858E+02  0.00000000000E+00 0.  1.
          2   -1    0    0  501    0  0.00000000000E+00 -0.00000000000E+00 -0.23153510700E+03  0.23153510700E+03  0.00000000000E+00 0. -1.
          5    1    1    2  502    0  0.43840032013E+02 -0.43105695278E+02  0.11052670032E+02  0.62644240654E+02  0.47000000000E+01 0.  1.
         -5    1    1    2    0  502 -0.76433728755E+01  0.29699634670E+02 -0.78807098739E+02  0.84694381515E+02  0.47000000000E+01 0.  1.
        -11    1    1    2    0    0 -0.10030467754E+02 -0.39010750350E+02 -0.30447343306E+02  0.50492471128E+02  0.00000000000E+00 0.  1.
         11    1    1    2    0    0 -0.26166191384E+02  0.52416810957E+02 -0.73244949128E+02  0.93792399560E+02  0.00000000000E+00 0. -1.
<mgrwt>
<rscale>  0 0.12243406E+03</rscale>
<asrwt>0</asrwt>
<pdfrwt beam="2">  1        2 0.35620785E-01 0.13083580E+03</pdfrwt>
<pdfrwt beam="1">  1       -2 0.92443672E-02 0.13083580E+03</pdfrwt>
<totfact> 0.10268294E+04</totfact>
</mgrwt>
</event>
<event>
 6    1  0.5818426E-006  0.1290818E+03  0.7546771E-02  0.1241658E+00
          1   -1    0    0  501    0  0.00000000000E+00  0.00000000000E+00  0.34749505664E+03  0.34749505664E+03  0.00000000000E+00 0. -1.
         -1   -1    0    0    0  501 -0.00000000000E+00 -0.00000000000E+00 -0.54049811801E+02  0.54049811801E+02  0.00000000000E+00 0.  1.
          5    1    1    2  502    0 -0.38358158986E+02 -0.62357157914E+02  0.10516468091E+02  0.74111062636E+02  0.47000000000E+01 0.  1.
         -5    1    1    2    0  502  0.40666526293E+02  0.30232918672E+02  0.39104164220E+02  0.64179602613E+02  0.47000000000E+01 0.  1.
        -11    1    1    2    0    0  0.31796678931E+02  0.38054222669E+02  0.68623741923E+02  0.84666230632E+02  0.00000000000E+00 0.  1.
         11    1    1    2    0    0 -0.34105046239E+02 -0.59299834271E+01  0.17520087060E+03  0.17858797256E+03  0.00000000000E+00 0. -1.
<mgrwt>
<rscale>  0 0.12087627E+03</rscale>
<asrwt>0</asrwt>
<pdfrwt beam="1">  1        1 0.53460776E-01 0.12908176E+03</pdfrwt>
<pdfrwt beam="2">  1       -1 0.83153559E-02 0.12908176E+03</pdfrwt>
<totfact> 0.56271690E+03</totfact>
</mgrwt>
</event>
<event>
 6    1  0.5818426E-006  0.2130900E+03  0.7546771E-02  0.1151818E+00
          2   -1    0    0  501    0  0.00000000000E+00  0.00000000000E+00  0.71824875088E+03  0.71824875088E+03  0.00000000000E+00 0. -1.
         -2   -1    0    0    0  501 -0.00000000000E+00 -0.00000000000E+00 -0.47793962201E+02  0.47793962201E+02  0.00000000000E+00 0.  1.
          5    1    1    2  502    0 -0.60920365155E+02 -0.12421583546E+03  0.31352122703E+03  0.34272221181E+03  0.47000000000E+01 0. -1.
         -5    1    1    2    0  502 -0.36289062872E+02  0.56494049288E+02  0.77964444400E+02  0.10300008874E+03  0.47000000000E+01 0.  1.
        -11    1    1    2    0    0  0.81736768088E+02 -0.52530413744E+01  0.16318050149E+03  0.18258250127E+03  0.00000000000E+00 0. -1.
         11    1    1    2    0    0  0.15472659939E+02  0.72974827550E+02  0.11578861576E+03  0.13773791127E+03  0.00000000000E+00 0.  1.
<mgrwt>
<rscale>  0 0.19755498E+03</rscale>
<asrwt>0</asrwt>
<pdfrwt beam="1">  1        2 0.11049980E+00 0.21308998E+03</pdfrwt>
<pdfrwt beam="2">  1       -2 0.73529178E-02 0.21308998E+03</pdfrwt>
<totfact> 0.43372292E+03</totfact>
</mgrwt>
</event>
<event>
 6    1  0.5818426E-006  0.1296880E+03  0.7546771E-02  0.1242072E+00
          2   -1    0    0  501    0  0.00000000000E+00  0.00000000000E+00  0.85441783042E+03  0.85441783042E+03  0.00000000000E+00 0. -1.
         -2   -1    0    0    0  501 -0.00000000000E+00 -0.00000000000E+00 -0.15048742706E+02  0.15048742706E+02  0.00000000000E+00 0.  1.
          5    1    1    2  502    0  0.16206771006E+02 -0.79489338226E+02  0.27664890719E+03  0.28833647387E+03  0.47000000000E+01 0. -1.
         -5    1    1    2    0  502 -0.14160180357E+02  0.44989300809E+02  0.21148937103E+03  0.21673576529E+03  0.47000000000E+01 0. -1.
        -11    1    1    2    0    0 -0.44367644847E+02  0.20082845967E+02  0.23199980259E+03  0.23705635830E+03  0.00000000000E+00 0. -1.
         11    1    1    2    0    0  0.42321054198E+02  0.14417191449E+02  0.11923100690E+03  0.12733797566E+03  0.00000000000E+00 0.  1.
<mgrwt>
<rscale>  0 0.12062357E+03</rscale>
<asrwt>0</asrwt>
<pdfrwt beam="1">  1        2 0.13144886E+00 0.12968804E+03</pdfrwt>
<pdfrwt beam="2">  1       -2 0.23151919E-02 0.12968804E+03</pdfrwt>
<totfact> 0.19211259E+04</totfact>
</mgrwt>
</event>
<event>
 6    1  0.5818426E-006  0.1396574E+03  0.7546771E-02  0.1225163E+00
          2   -1    0    0  501    0  0.00000000000E+00  0.00000000000E+00  0.32342957352E+02  0.32342957352E+02  0.00000000000E+00 0. -1.
         -2   -1    0    0    0  501 -0.00000000000E+00 -0.00000000000E+00 -0.56660556020E+03  0.56660556020E+03  0.00000000000E+00 0.  1.
          5    1    1    2  502    0 -0.64571184942E+02 -0.53273985351E+02 -0.25714481970E+03  0.27046830450E+03  0.47000000000E+01 0.  1.
         -5    1    1    2    0  502  0.54826482473E+02 -0.81039946773E+01 -0.15224951505E+03  0.16209140243E+03  0.47000000000E+01 0.  1.
        -11    1    1    2    0    0  0.44303073113E+02  0.60020401203E+02 -0.75756986534E+02  0.10632183151E+03  0.00000000000E+00 0.  1.
         11    1    1    2    0    0 -0.34558370645E+02  0.13575788244E+01 -0.49111281560E+02  0.60066979101E+02  0.00000000000E+00 0. -1.
<mgrwt>
<rscale>  0 0.13155741E+03</rscale>
<asrwt>0</asrwt>
<pdfrwt beam="1">  1        2 0.49758394E-02 0.13965736E+03</pdfrwt>
<pdfrwt beam="2">  1       -2 0.87170090E-01 0.13965736E+03</pdfrwt>
<totfact> 0.17933545E+03</totfact>
</mgrwt>
</event>
<event>
 6    1  0.5818426E-006  0.1375794E+03  0.7546771E-02  0.1228730E+00
          2   -1    0    0  501    0  0.00000000000E+00  0.00000000000E+00  0.17014594560E+02  0.17014594560E+02  0.00000000000E+00 0. -1.
         -2   -1    0    0    0  501 -0.00000000000E+00 -0.00000000000E+00 -0.88921999571E+03  0.88921999571E+03  0.00000000000E+00 0.  1.
          5    1    1    2  502    0  0.44616403891E+02  0.36692943870E+02 -0.10035030429E+03  0.11588472375E+03  0.47000000000E+01 0.  1.
         -5    1    1    2    0  502 -0.32721966035E+02  0.19534728685E+02 -0.44121608642E+03  0.44288379695E+03  0.47000000000E+01 0.  1.
        -11    1    1    2    0    0 -0.61162736324E+01  0.24438923455E+02 -0.97339857443E+02  0.10054709160E+03  0.00000000000E+00 0.  1.
         11    1    1    2    0    0 -0.57781642236E+01 -0.80666596010E+02 -0.23329915300E+03  0.24691897797E+03  0.00000000000E+00 0. -1.
<mgrwt>
<rscale>  0 0.12914522E+03</rscale>
<asrwt>0</asrwt>
<pdfrwt beam="1">  1        2 0.26176303E-02 0.13757945E+03</pdfrwt>
<pdfrwt beam="2">  1       -2 0.13680305E+00 0.13757945E+03</pdfrwt>
<totfact> 0.14599156E+03</totfact>
</mgrwt>
</event>
<event>
 6    1  0.5818426E-006  0.1292878E+03  0.7546771E-02  0.1242880E+00
          1   -1    0    0  501    0  0.00000000000E+00  0.00000000000E+00  0.35958614235E+02  0.35958614235E+02  0.00000000000E+00 0. -1.
         -1   -1    0    0    0  501 -0.00000000000E+00 -0.00000000000E+00 -0.35939917579E+03  0.35939917579E+03  0.00000000000E+00 0.  1.
          5    1    1    2  502    0  0.53441735343E+02 -0.27764745314E+01 -0.57364778903E+02  0.78590939337E+02  0.47000000000E+01 0.  1.
         -5    1    1    2    0  502 -0.61149164494E+02  0.34537216411E+02 -0.15147689723E+03  0.16703107504E+03  0.47000000000E+01 0.  1.
        -11    1    1    2    0    0 -0.24363797364E+02 -0.10044332103E+02  0.24292044499E+01  0.26464774015E+02  0.00000000000E+00 0. -1.
         11    1    1    2    0    0  0.32071226516E+02 -0.21716409776E+02 -0.11702808987E+03  0.12327100163E+03  0.00000000000E+00 0.  1.
<mgrwt>
<rscale>  0 0.12013174E+03</rscale>
<asrwt>0</asrwt>
<pdfrwt beam="1">  1        1 0.55320946E-02 0.12928777E+03</pdfrwt>
<pdfrwt beam="2">  1       -1 0.55292179E-01 0.12928777E+03</pdfrwt>
<totfact> 0.46816923E+03</totfact>
</mgrwt>
</event>
<event>
 6    1  0.5818426E-006  0.1328616E+03  0.7546771E-02  0.1237108E+00
          1   -1    0    0  501    0  0.00000000000E+00  0.00000000000E+00  0.48881988222E+02  0.48881988222E+02  0.00000000000E+00 0. -1.
         -1   -1    0    0    0  501 -0.00000000000E+00 -0.00000000000E+00 -0.28247653116E+03  0.28247653116E+03  0.00000000000E+00 0.  1.
          5    1    1    2  502    0 -0.26833465990E+02 -0.41300824265E+02 -0.42675058387E+02  0.65337918473E+02  0.47000000000E+01 0.  1.
         -5    1    1    2    0  502  0.58203420105E+01  0.81132409731E+02 -0.11328581723E+03  0.13954250491E+03  0.47000000000E+01 0.  1.
        -11    1    1    2    0    0 -0.25462186560E+02 -0.17334196247E+02  0.27655223960E+01  0.30926451754E+02  0.00000000000E+00 0. -1.
         11    1    1    2    0    0  0.46475310540E+02 -0.22497389219E+02 -0.80399189710E+02  0.95551644243E+02  0.00000000000E+00 0.  1.
<mgrwt>
<rscale>  0 0.12370433E+03</rscale>
<asrwt>0</asrwt>
<pdfrwt beam="1">  1        1 0.75203058E-02 0.13286156E+03</pdfrwt>
<pdfrwt beam="2">  1       -1 0.43457929E-01 0.13286156E+03</pdfrwt>
<totfact> 0.47971809E+03</totfact>
</mgrwt>
</event>
<event>
 6    1  0.5818426E-006  0.1359049E+03  0.7546771E-02  0.1231527E+00
          1   -1    0    0  501    0  0.00000000000E+00  0.00000000000E+00  0.26315744371E+02  0.26315744371E+02  0.00000000000E+00 0. -1.
         -1   -1    0    0    0  501 -0.00000000000E+00 -0.00000000000E+00 -0.64787867606E+03  0.64787867606E+03  0.00000000000E+00 0.  1.
          5    1    1    2  502    0  0.27151305895E+02  0.68490164168E+02 -0.18761583745E+03  0.20161817493E+03  0.47000000000E+01 0.  1.
         -5    1    1    2    0  502  0.22575420636E+02 -0.48933529789E+02 -0.28788530962E+03  0.29292350784E+03  0.47000000000E+01 0.  1.
        -11    1    1    2    0    0 -0.25889964032E+02  0.12048680982E+02 -0.24430470681E+00  0.28557321929E+02  0.00000000000E+00 0. -1.
         11    1    1    2    0    0 -0.23836762499E+02 -0.31605315361E+02 -0.14581747991E+03  0.15109541573E+03  0.00000000000E+00 0.  1.
<mgrwt>
<rscale>  0 0.12729423E+03</rscale>
<asrwt>0</asrwt>
<pdfrwt beam="1">  1        1 0.40485764E-02 0.13590488E+03</pdfrwt>
<pdfrwt beam="2">  1       -1 0.99673635E-01 0.13590488E+03</pdfrwt>
<totfact> 0.22001004E+03</totfact>
</mgrwt>
</event>
<event>
 6    1  0.5818426E-006  0.1281066E+03  0.7546771E-02  0.1247809E+00
          2   -1    0    0  501    0  0.00000000000E+00  0.00000000000E+00  0.25935641320E+03  0.25935641320E+03  0.00000000000E+00 0. -1.
         -2   -1    0    0    0  501 -0.00000000000E+00 -0.00000000000E+00 -0.62504351540E+02  0.62504351540E+02  0.00000000000E+00 0.  1.
          5    1    1    2  502    0  0.19747302312E+02 -0.51273899856E+01  0.77210628671E+02  0.79998857845E+02  0.47000000000E+01 0. -1.
         -5    1    1    2    0  502 -0.12105078284E+01 -0.15938388214E+02 -0.48503127057E+02  0.51284899165E+02  0.47000000000E+01 0. -1.
        -11    1    1    2    0    0 -0.31338136588E+02  0.42245162200E+02  0.60701176706E+02  0.80320392103E+02  0.00000000000E+00 0.  1.
         11    1    1    2    0    0  0.12801342105E+02 -0.21179384001E+02  0.10744338334E+03  0.11025661563E+03  0.00000000000E+00 0. -1.
<mgrwt>
<rscale>  0 0.11718794E+03</rscale>
<asrwt>0</asrwt>
<pdfrwt beam="1">  1        2 0.39900986E-01 0.12810661E+03</pdfrwt>
<pdfrwt beam="2">  1       -2 0.96160543E-02 0.12810661E+03</pdfrwt>
<totfact> 0.85420102E+03</totfact>
</mgrwt>
</event>
<event>
 6    1  0.5818426E-006  0.1402443E+03  0.7546771E-02  0.1224336E+00
          1   -1    0    0  501    0  0.00000000000E+00  0.00000000000E+00  0.16491250419E+03  0.16491250419E+03  0.00000000000E+00 0. -1.
         -1   -1    0    0    0  501 -0.00000000000E+00 -0.00000000000E+00 -0.13800695495E+03  0.13800695495E+03  0.00000000000E+00 0.  1.
          5    1    1    2  502    0  0.28923333055E+02  0.34186511855E+02 -0.52062022248E+02  0.68831830924E+02  0.47000000000E+01 0.  1.
         -5    1    1    2    0  502  0.89341119612E+01 -0.85289823363E+02 -0.17229504058E+02  0.87596336316E+02  0.47000000000E+01 0.  1.
        -11    1    1    2    0    0 -0.34648843656E+02 -0.18133633779E+02  0.21647171050E+02  0.44698669501E+02  0.00000000000E+00 0.  1.
         11    1    1    2    0    0 -0.32086013608E+01  0.69236945288E+02  0.74549904495E+02  0.10179262240E+03  0.00000000000E+00 0. -1.
<mgrwt>
<rscale>  0 0.13212492E+03</rscale>
<asrwt>0</asrwt>
<pdfrwt beam="1">  1        1 0.25371154E-01 0.14024427E+03</pdfrwt>
<pdfrwt beam="2">  1       -1 0.21231839E-01 0.14024427E+03</pdfrwt>
<totfact> 0.33140772E+03</totfact>
</mgrwt>
</event>
<event>
 6    1  0.5818426E-006  0.2588409E+03  0.7546771E-02  0.1109782E+00
         -2   -1    0    0    0  501 -0.00000000000E+00  0.00000000000E+00  0.42668744823E+02  0.42668744823E+02  0.00000000000E+00 0.  1.
          2   -1    0    0  501    0  0.00000000000E+00 -0.00000000000E+00 -0.14958940755E+04  0.14958940755E+04  0.00000000000E+00 0. -1.
          5    1    1    2  502    0  0.11680946143E+03 -0.11565294158E+03 -0.37721216277E+03  0.41149867426E+03  0.47000000000E+01 0.  1.
         -5    1    1    2    0  502  0.81124614117E+02  0.52205020522E+01 -0.38334129822E+03  0.39189424285E+03  0.47000000000E+01 0.  1.
        -11    1    1    2    0    0 -0.13928288655E+03  0.86853137500E+02 -0.34825000217E+03  0.38499513502E+03  0.00000000000E+00 0. -1.
         11    1    1    2    0    0 -0.58651188997E+02  0.23579302027E+02 -0.34442186755E+03  0.35017476822E+03  0.00000000000E+00 0.  1.
<mgrwt>
<rscale>  0 0.25565588E+03</rscale>
<asrwt>0</asrwt>
<pdfrwt beam="2">  1        2 0.23013756E+00 0.25884090E+03</pdfrwt>
<pdfrwt beam="1">  1       -2 0.65644219E-02 0.25884090E+03</pdfrwt>
<totfact> 0.17674769E+03</totfact>
</mgrwt>
</event>
<event>
 6    1  0.5818426E-006  0.1161124E+03  0.7546771E-02  0.1297098E+00
          2   -1    0    0  501    0  0.00000000000E+00  0.00000000000E+00  0.21418130789E+03  0.21418130789E+03  0.00000000000E+00 0. -1.
         -2   -1    0    0    0  501 -0.00000000000E+00 -0.00000000000E+00 -0.33447518714E+02  0.33447518714E+02  0.00000000000E+00 0.  1.
          5    1    1    2  502    0 -0.14996533479E+02 -0.47942083800E+02 -0.23345915852E+01  0.50506234599E+02  0.47000000000E+01 0.  1.
         -5    1    1    2    0  502  0.46906878281E+01  0.19810386072E+02  0.97234704966E+02  0.99454169336E+02  0.47000000000E+01 0. -1.
        -11    1    1    2    0    0 -0.69733954812E+01  0.27666409770E+02  0.61757471269E+02  0.68029726823E+02  0.00000000000E+00 0.  1.
         11    1    1    2    0    0  0.17279241133E+02  0.46528795879E+00  0.24076204522E+02  0.29638695841E+02  0.00000000000E+00 0. -1.
<mgrwt>
<rscale>  0 0.92418512E+02</rscale>
<asrwt>0</asrwt>
<pdfrwt beam="1">  1        2 0.32950970E-01 0.11611241E+03</pdfrwt>
<pdfrwt beam="2">  1       -2 0.51457722E-02 0.11611241E+03</pdfrwt>
<totfact> 0.26990495E+04</totfact>
</mgrwt>
</event>
<event>
 6    1  0.5818426E-006  0.1548455E+03  0.7546771E-02  0.1203556E+00
         -2   -1    0    0    0  501 -0.00000000000E+00  0.00000000000E+00  0.26139368576E+03  0.26139368576E+03  0.00000000000E+00 0. -1.
          2   -1    0    0  501    0  0.00000000000E+00 -0.00000000000E+00 -0.84241486599E+02  0.84241486599E+02  0.00000000000E+00 0.  1.
          5    1    1    2  502    0 -0.75953276974E+02 -0.29737922718E+02  0.55385598230E+02  0.98706123528E+02  0.47000000000E+01 0. -1.
         -5    1    1    2    0  502 -0.69313786297E+01  0.68252759916E+02  0.93869906422E+02  0.11636207534E+03  0.47000000000E+01 0. -1.
        -11    1    1    2    0    0 -0.14975387527E+02 -0.18292250554E+02  0.18840670633E+02  0.30229778891E+02  0.00000000000E+00 0. -1.
         11    1    1    2    0    0  0.97860043130E+02 -0.20222586644E+02  0.90560238789E+01  0.10033719460E+03  0.00000000000E+00 0.  1.
<mgrwt>
<rscale>  0 0.14751824E+03</rscale>
<asrwt>0</asrwt>
<pdfrwt beam="2">  1        2 0.12960229E-01 0.15484549E+03</pdfrwt>
<pdfrwt beam="1">  1       -2 0.40214413E-01 0.15484549E+03</pdfrwt>
<totfact> 0.26602912E+03</totfact>
</mgrwt>
</event>
<event>
 6    1  0.5818426E-006  0.1302624E+03  0.7546771E-02  0.1240652E+00
         -2   -1    0    0    0  501 -0.00000000000E+00  0.00000000000E+00  0.29526971519E+02  0.29526971519E+02  0.00000000000E+00 0. -1.
          2   -1    0    0  501    0  0.00000000000E+00 -0.00000000000E+00 -0.44458078334E+03  0.44458078334E+03  0.00000000000E+00 0.  1.
          5    1    1    2  502    0  0.31138859436E+02  0.11177285007E+02 -0.19532846809E+03  0.19816624514E+03  0.47000000000E+01 0. -1.
         -5    1    1    2    0  502 -0.25149056270E+02 -0.47314124297E+02 -0.28663781496E+02  0.60949189978E+02  0.47000000000E+01 0. -1.
        -11    1    1    2    0    0  0.20509700995E+02  0.59532555088E+02 -0.11473639147E+03  0.13087861735E+03  0.00000000000E+00 0. -1.
         11    1    1    2    0    0 -0.26499504162E+02 -0.23395715798E+02 -0.76325170762E+02  0.84113702394E+02  0.00000000000E+00 0.  1.
<mgrwt>
<rscale>  0 0.12149452E+03</rscale>
<asrwt>0</asrwt>
<pdfrwt beam="2">  1        2 0.68397035E-01 0.13026235E+03</pdfrwt>
<pdfrwt beam="1">  1       -2 0.45426116E-02 0.13026235E+03</pdfrwt>
<totfact> 0.15139207E+04</totfact>
</mgrwt>
</event>
<event>
 6    1  0.5818426E-006  0.2520466E+03  0.7546771E-02  0.1144986E+00
          1   -1    0    0  501    0  0.00000000000E+00  0.00000000000E+00  0.13537263393E+03  0.13537263393E+03  0.00000000000E+00 0. -1.
         -1   -1    0    0    0  501 -0.00000000000E+00 -0.00000000000E+00 -0.30651969133E+03  0.30651969133E+03  0.00000000000E+00 0.  1.
          5    1    1    2  502    0 -0.87103745163E+02 -0.11218338500E+03 -0.18398666053E+03  0.23247656988E+03  0.47000000000E+01 0. -1.
         -5    1    1    2    0  502  0.28356950963E+02  0.85323846981E+02 -0.21120333565E+02  0.92479370789E+02  0.47000000000E+01 0.  1.
        -11    1    1    2    0    0  0.12010475058E+02  0.47706892489E+02 -0.91307564344E+01  0.50035685417E+02  0.00000000000E+00 0.  1.
         11    1    1    2    0    0  0.46736319143E+02 -0.20847354469E+02  0.43090693130E+02  0.66900699173E+02  0.00000000000E+00 0. -1.
<mgrwt>
<rscale>  0 0.20573814E+03</rscale>
<asrwt>0</asrwt>
<pdfrwt beam="1">  1        1 0.20826559E-01 0.25204659E+03</pdfrwt>
<pdfrwt beam="2">  1       -1 0.47156875E-01 0.25204659E+03</pdfrwt>
<totfact> 0.11079790E+03</totfact>
</mgrwt>
</event>
<event>
 6    1  0.5818426E-006  0.1708517E+03  0.7546771E-02  0.1183667E+00
          2   -1    0    0  501    0  0.00000000000E+00  0.00000000000E+00  0.10116928397E+03  0.10116928397E+03  0.00000000000E+00 0. -1.
         -2   -1    0    0    0  501 -0.00000000000E+00 -0.00000000000E+00 -0.25830562495E+03  0.25830562495E+03  0.00000000000E+00 0.  1.
          5    1    1    2  502    0 -0.55856098983E+02 -0.35936828256E+02  0.53151938632E+01  0.66795963235E+02  0.47000000000E+01 0.  1.
         -5    1    1    2    0  502  0.38528662578E+01 -0.68288823477E+02 -0.12250545112E+03  0.14038476963E+03  0.47000000000E+01 0.  1.
        -11    1    1    2    0    0  0.38100959804E+02  0.16425749856E+02 -0.47512830206E+02  0.63078977722E+02  0.00000000000E+00 0.  1.
         11    1    1    2    0    0  0.13902272921E+02  0.87799901877E+02  0.75667464748E+01  0.89215198336E+02  0.00000000000E+00 0. -1.
<mgrwt>
<rscale>  0 0.16453781E+03</rscale>
<asrwt>0</asrwt>
<pdfrwt beam="1">  1        2 0.15564505E-01 0.17085169E+03</pdfrwt>
<pdfrwt beam="2">  1       -2 0.39739326E-01 0.17085169E+03</pdfrwt>
<totfact> 0.22008119E+03</totfact>
</mgrwt>
</event>
<event>
 6    1  0.5818426E-006  0.2438501E+03  0.7546771E-02  0.1120753E+00
          2   -1    0    0  501    0  0.00000000000E+00  0.00000000000E+00  0.15006879430E+04  0.15006879430E+04  0.00000000000E+00 0. -1.
         -2   -1    0    0    0  501 -0.00000000000E+00 -0.00000000000E+00 -0.37674020184E+02  0.37674020184E+02  0.00000000000E+00 0.  1.
          5    1    1    2  502    0 -0.36248837084E+02  0.97735455950E+02  0.29606053266E+03  0.31391101691E+03  0.47000000000E+01 0.  1.
         -5    1    1    2    0  502  0.90952706692E+02  0.10436682208E+03  0.32327872756E+03  0.35170449826E+03  0.47000000000E+01 0.  1.
        -11    1    1    2    0    0  0.10811373267E+01 -0.13856449433E+03  0.50325298991E+03  0.52198166615E+03  0.00000000000E+00 0. -1.
         11    1    1    2    0    0 -0.55785006935E+02 -0.63537783703E+02  0.34042167268E+03  0.35076478185E+03  0.00000000000E+00 0.  1.
<mgrwt>
<rscale>  0 0.23856362E+03</rscale>
<asrwt>0</asrwt>
<pdfrwt beam="1">  1        2 0.23087502E+00 0.24385015E+03</pdfrwt>
<pdfrwt beam="2">  1       -2 0.57960043E-02 0.24385015E+03</pdfrwt>
<totfact> 0.21295125E+03</totfact>
</mgrwt>
</event>
<event>
 6    1  0.5818426E-006  0.1407466E+03  0.7546771E-02  0.1225602E+00
         -2   -1    0    0    0  501 -0.00000000000E+00  0.00000000000E+00  0.11171546034E+03  0.11171546034E+03  0.00000000000E+00 0. -1.
          2   -1    0    0  501    0  0.00000000000E+00 -0.00000000000E+00 -0.14024785406E+03  0.14024785406E+03  0.00000000000E+00 0.  1.
          5    1    1    2  502    0  0.57520681577E+02  0.23883379112E+02 -0.48204571860E+02  0.78897499042E+02  0.47000000000E+01 0.  1.
         -5    1    1    2    0  502  0.65205452328E+01 -0.33052778841E+02  0.51707005410E+02  0.61892714496E+02  0.47000000000E+01 0.  1.
        -11    1    1    2    0    0 -0.38351091547E+02  0.36000980527E+02 -0.47557972366E+02  0.70912887103E+02  0.00000000000E+00 0. -1.
         11    1    1    2    0    0 -0.25690135262E+02 -0.26831580798E+02  0.15523145093E+02  0.40260213754E+02  0.00000000000E+00 0.  1.
<mgrwt>
<rscale>  0 0.13125708E+03</rscale>
<asrwt>0</asrwt>
<pdfrwt beam="2">  1        2 0.21576593E-01 0.14074664E+03</pdfrwt>
<pdfrwt beam="1">  1       -2 0.17186994E-01 0.14074664E+03</pdfrwt>
<totfact> 0.65924395E+03</totfact>
</mgrwt>
</event>
<event>
 6    1  0.5818426E-006  0.1414406E+03  0.7546771E-02  0.1222750E+00
          2   -1    0    0  501    0  0.00000000000E+00  0.00000000000E+00  0.28557593535E+03  0.28557593535E+03  0.00000000000E+00 0. -1.
         -2   -1    0    0    0  501 -0.00000000000E+00 -0.00000000000E+00 -0.82712928364E+02  0.82712928364E+02  0.00000000000E+00 0.  1.
          5    1    1    2  502    0 -0.92636573771E+02 -0.40581860110E+02 -0.11300413573E+02  0.10187350743E+03  0.47000000000E+01 0.  1.
         -5    1    1    2    0  502  0.34631261150E+02  0.86996457708E+01  0.16625125196E+02  0.39667277108E+02  0.47000000000E+01 0.  1.
        -11    1    1    2    0    0  0.58503599042E+02  0.13472981349E+02  0.19939685209E+03  0.20823855779E+03  0.00000000000E+00 0. -1.
         11    1    1    2    0    0 -0.49828642071E+00  0.18409232990E+02 -0.18585567278E+01  0.18509521381E+02  0.00000000000E+00 0.  1.
<mgrwt>
<rscale>  0 0.13322293E+03</rscale>
<asrwt>0</asrwt>
<pdfrwt beam="1">  1        2 0.43934759E-01 0.14144059E+03</pdfrwt>
<pdfrwt beam="2">  1       -2 0.12725066E-01 0.14144059E+03</pdfrwt>
<totfact> 0.49793516E+03</totfact>
</mgrwt>
</event>
<event>
 6    1  0.5818426E-006  0.1264373E+03  0.7546771E-02  0.1248572E+00
          2   -1    0    0  501    0  0.00000000000E+00  0.00000000000E+00  0.14456660265E+03  0.14456660265E+03  0.00000000000E+00 0. -1.
         -2   -1    0    0    0  501 -0.00000000000E+00 -0.00000000000E+00 -0.12194295535E+03  0.12194295535E+03  0.00000000000E+00 0.  1.
          5    1    1    2  502    0 -0.41676105715E+02 -0.49036244516E+02 -0.11723496356E+01  0.64536156281E+02  0.47000000000E+01 0.  1.
         -5    1    1    2    0  502  0.30385729515E+02  0.33710002791E+02 -0.61513436139E+02  0.76587529480E+02  0.47000000000E+01 0.  1.
        -11    1    1    2    0    0 -0.18339410849E+02  0.45817706207E+02  0.44442708541E+02  0.66413481575E+02  0.00000000000E+00 0.  1.
         11    1    1    2    0    0  0.29629787049E+02 -0.30491464482E+02  0.40866724529E+02  0.58972390664E+02  0.00000000000E+00 0. -1.
<mgrwt>
<rscale>  0 0.11674126E+03</rscale>
<asrwt>0</asrwt>
<pdfrwt beam="1">  1        2 0.22241016E-01 0.12643728E+03</pdfrwt>
<pdfrwt beam="2">  1       -2 0.18760455E-01 0.12643728E+03</pdfrwt>
<totfact> 0.54663610E+03</totfact>
</mgrwt>
</event>
<event>
 6    1  0.5818426E-006  0.3555714E+03  0.7546771E-02  0.1060351E+00
         -1   -1    0    0    0  501 -0.00000000000E+00  0.00000000000E+00  0.17354118994E+03  0.17354118994E+03  0.00000000000E+00 0.  1.
          1   -1    0    0  501    0  0.00000000000E+00 -0.00000000000E+00 -0.18213400329E+03  0.18213400329E+03  0.00000000000E+00 0. -1.
          5    1    1    2  502    0  0.15485143444E+02 -0.59482225359E+01 -0.26468704031E+02  0.31588816247E+02  0.47000000000E+01 0. -1.
         -5    1    1    2    0  502 -0.13460881729E+03 -0.60772222941E+02  0.44926055123E+02  0.15444493259E+03  0.47000000000E+01 0. -1.
        -11    1    1    2    0    0  0.11816488482E+03  0.19225388175E+02 -0.15189103955E+02  0.12067835114E+03  0.00000000000E+00 0.  1.
         11    1    1    2    0    0  0.95878902001E+00  0.47495057302E+02 -0.11861060492E+02  0.48963093248E+02  0.00000000000E+00 0. -1.
<mgrwt>
<rscale>  0 0.35557138E+03</rscale>
<asrwt>0</asrwt>
<pdfrwt beam="2">  1        1 0.28020616E-01 0.35557138E+03</pdfrwt>
<pdfrwt beam="1">  1       -1 0.26698645E-01 0.35557138E+03</pdfrwt>
<totfact> 0.20675726E+03</totfact>
</mgrwt>
</event>
<event>
 6    1  0.5818426E-006  0.3540719E+03  0.7546771E-02  0.1060956E+00
          1   -1    0    0  501    0  0.00000000000E+00  0.00000000000E+00  0.20433812837E+03  0.20433812837E+03  0.00000000000E+00 0. -1.
         -1   -1    0    0    0  501 -0.00000000000E+00 -0.00000000000E+00 -0.15338169289E+03  0.15338169289E+03  0.00000000000E+00 0.  1.
          5    1    1    2  502    0  0.52550422009E+02  0.12352867055E+03  0.27932057888E+02  0.13719755522E+03  0.47000000000E+01 0. -1.
         -5    1    1    2    0  502  0.27237907624E+02 -0.13145593212E+02 -0.36819955021E+02  0.47880155810E+02  0.47000000000E+01 0. -1.
        -11    1    1    2    0    0 -0.66344619305E+02 -0.41928340283E+02 -0.32916292431E+01  0.78552078602E+02  0.00000000000E+00 0. -1.
         11    1    1    2    0    0 -0.13443710328E+02 -0.68454737053E+02  0.63135961856E+02  0.94090031628E+02  0.00000000000E+00 0.  1.
<mgrwt>
<rscale>  0 0.35407190E+03</rscale>
<asrwt>0</asrwt>
<pdfrwt beam="1">  1        1 0.31436635E-01 0.35407190E+03</pdfrwt>
<pdfrwt beam="2">  1       -1 0.23597184E-01 0.35407190E+03</pdfrwt>
<totfact> 0.21964412E+03</totfact>
</mgrwt>
</event>
<event>
 6    1  0.5818426E-006  0.4506801E+03  0.7546771E-02  0.1027519E+00
          1   -1    0    0  501    0  0.00000000000E+00  0.00000000000E+00  0.35439437721E+02  0.35439437721E+02  0.00000000000E+00 0. -1.
         -1   -1    0    0    0  501 -0.00000000000E+00 -0.00000000000E+00 -0.14328145582E+04  0.14328145582E+04  0.00000000000E+00 0.  1.
          5    1    1    2  502    0  0.56792905412E+02  0.55657130969E+02 -0.46972994626E+03  0.47643621058E+03  0.47000000000E+01 0. -1.
         -5    1    1    2    0  502 -0.89805569989E+01 -0.18470618921E+02 -0.85969262575E+03  0.85995076308E+03  0.47000000000E+01 0.  1.
        -11    1    1    2    0    0 -0.19066962077E+02 -0.67883472544E+02 -0.48156837677E+02  0.85386157558E+02  0.00000000000E+00 0. -1.
         11    1    1    2    0    0 -0.28745386336E+02  0.30696960496E+02 -0.19795710827E+02  0.46480864734E+02  0.00000000000E+00 0.  1.
<mgrwt>
<rscale>  0 0.45068012E+03</rscale>
<asrwt>0</asrwt>
<pdfrwt beam="1">  1        1 0.54522220E-02 0.45068012E+03</pdfrwt>
<pdfrwt beam="2">  1       -1 0.22043297E+00 0.45068012E+03</pdfrwt>
<totfact> 0.17870442E+02</totfact>
</mgrwt>
</event>
<event>
 6    1  0.5818426E-006  0.4991663E+03  0.7546771E-02  0.1013997E+00
          3   -1    0    0  501    0  0.00000000000E+00  0.00000000000E+00  0.59675474301E+02  0.59675474301E+02  0.00000000000E+00 0. -1.
         -3   -1    0    0    0  501 -0.00000000000E+00 -0.00000000000E+00 -0.10438418417E+04  0.10438418417E+04  0.00000000000E+00 0.  1.
          5    1    1    2  502    0  0.33069556545E+02  0.40506871734E+01 -0.12762837153E+03  0.13198899520E+03  0.47000000000E+01 0. -1.
         -5    1    1    2    0  502 -0.39324230044E+02 -0.16714351986E+03 -0.72797926068E+03  0.74797008314E+03  0.47000000000E+01 0. -1.
        -11    1    1    2    0    0 -0.20111604279E+02  0.61359338480E+02 -0.10364645766E+02  0.65397789926E+02  0.00000000000E+00 0. -1.
         11    1    1    2    0    0  0.26366277778E+02  0.10173349421E+03 -0.11819408942E+03  0.15816044771E+03  0.00000000000E+00 0.  1.
<mgrwt>
<rscale>  0 0.49916633E+03</rscale>
<asrwt>0</asrwt>
<pdfrwt beam="1">  1        3 0.91808420E-02 0.49916633E+03</pdfrwt>
<pdfrwt beam="2">  1       -3 0.16059106E+00 0.49916633E+03</pdfrwt>
<totfact> 0.63061449E+01</totfact>
</mgrwt>
</event>
<event>
 6    1  0.5818426E-006  0.4383200E+03  0.7546771E-02  0.1031264E+00
         -2   -1    0    0    0  501 -0.00000000000E+00  0.00000000000E+00  0.40131561285E+02  0.40131561285E+02  0.00000000000E+00 0.  1.
          2   -1    0    0  501    0  0.00000000000E+00 -0.00000000000E+00 -0.11968409804E+04  0.11968409804E+04  0.00000000000E+00 0. -1.
          5    1    1    2  502    0  0.18412258350E+02 -0.54102316118E+01  0.45506824502E+01  0.20275122056E+02  0.47000000000E+01 0. -1.
         -5    1    1    2    0  502  0.15691477987E+03 -0.17143538052E+02 -0.40998789482E+03  0.43934987531E+03  0.47000000000E+01 0. -1.
        -11    1    1    2    0    0 -0.15627593301E+03 -0.14424933477E+02 -0.55804025714E+03  0.57968886011E+03  0.00000000000E+00 0.  1.
         11    1    1    2    0    0 -0.19051105207E+02  0.36978703141E+02 -0.19323194961E+03  0.19765868422E+03  0.00000000000E+00 0. -1.
<mgrwt>
<rscale>  0 0.43831996E+03</rscale>
<asrwt>0</asrwt>
<pdfrwt beam="2">  1        2 0.18412938E+00 0.43831996E+03</pdfrwt>
<pdfrwt beam="1">  1       -2 0.61740863E-02 0.43831996E+03</pdfrwt>
<totfact> 0.28456733E+03</totfact>
</mgrwt>
</event>
<event>
 6    1  0.5818426E-006  0.1977310E+03  0.7546771E-02  0.1155625E+00
         -1   -1    0    0    0  501 -0.00000000000E+00  0.00000000000E+00  0.56876075615E+02  0.56876075615E+02  0.00000000000E+00 0.  1.
          1   -1    0    0  501    0  0.00000000000E+00 -0.00000000000E+00 -0.71450309834E+03  0.71450309834E+03  0.00000000000E+00 0. -1.
          5    1    1    2  502    0  0.38391109218E+01 -0.65084670334E+02 -0.14372113720E+02  0.66928325378E+02  0.47000000000E+01 0.  1.
         -5    1    1    2    0  502 -0.78896041021E+02 -0.68516867987E+02 -0.19352293845E+03  0.21998264521E+03  0.47000000000E+01 0.  1.
        -11    1    1    2    0    0  0.41739598829E+02  0.13902979743E+03 -0.38513427516E+03  0.41158217720E+03  0.00000000000E+00 0. -1.
         11    1    1    2    0    0  0.33317331270E+02 -0.54282591143E+01 -0.64597695389E+02  0.72886026161E+02  0.00000000000E+00 0.  1.
<mgrwt>
<rscale>  0 0.19317856E+03</rscale>
<asrwt>0</asrwt>
<pdfrwt beam="2">  1        1 0.10992355E+00 0.19773101E+03</pdfrwt>
<pdfrwt beam="1">  1       -1 0.87501659E-02 0.19773101E+03</pdfrwt>
<totfact> 0.20384412E+03</totfact>
</mgrwt>
</event>
<event>
 6    1  0.5818426E-006  0.1515865E+03  0.7546771E-02  0.1207599E+00
         -2   -1    0    0    0  501 -0.00000000000E+00  0.00000000000E+00  0.90414974244E+02  0.90414974244E+02  0.00000000000E+00 0. -1.
          2   -1    0    0  501    0  0.00000000000E+00 -0.00000000000E+00 -0.21208398219E+03  0.21208398219E+03  0.00000000000E+00 0.  1.
          5    1    1    2  502    0 -0.99005831172E+01  0.11685178390E+03 -0.54406156701E+02  0.12936182139E+03  0.47000000000E+01 0. -1.
         -5    1    1    2    0  502  0.55275239979E+01 -0.31307249081E+02 -0.13889891156E+01  0.32167011942E+02  0.47000000000E+01 0. -1.
        -11    1    1    2    0    0 -0.16817364561E+02  0.13884925867E+02 -0.19400633390E+02  0.29189030354E+02  0.00000000000E+00 0. -1.
         11    1    1    2    0    0  0.21190423680E+02 -0.99429460682E+02 -0.46473228743E+02  0.11178109275E+03  0.00000000000E+00 0.  1.
<mgrwt>
<rscale>  0 0.14434543E+03</rscale>
<asrwt>0</asrwt>
<pdfrwt beam="2">  1        2 0.32628305E-01 0.15158650E+03</pdfrwt>
<pdfrwt beam="1">  1       -2 0.13909996E-01 0.15158650E+03</pdfrwt>
<totfact> 0.59515048E+03</totfact>
</mgrwt>
</event>
<event>
 6    1  0.5818426E-006  0.2624263E+03  0.7546771E-02  0.1105694E+00
          1   -1    0    0  501    0  0.00000000000E+00  0.00000000000E+00  0.18760452124E+03  0.18760452124E+03  0.00000000000E+00 0. -1.
         -1   -1    0    0    0  501 -0.00000000000E+00 -0.00000000000E+00 -0.91772241216E+02  0.91772241216E+02  0.00000000000E+00 0.  1.
          5    1    1    2  502    0  0.61560641212E-01  0.11465543646E+01 -0.66992199929E+02  0.67166682425E+02  0.47000000000E+01 0.  1.
         -5    1    1    2    0  502 -0.26056786997E+02  0.25163822759E+02  0.52543846959E+02  0.63993124457E+02  0.47000000000E+01 0.  1.
        -11    1    1    2    0    0 -0.28182991398E+02  0.12239105538E+02  0.48734902588E+02  0.57612216055E+02  0.00000000000E+00 0. -1.
         11    1    1    2    0    0  0.54178217754E+02 -0.38549482661E+02  0.61545730406E+02  0.90604739521E+02  0.00000000000E+00 0.  1.
<mgrwt>
<rscale>  0 0.26242627E+03</rscale>
<asrwt>0</asrwt>
<pdfrwt beam="1">  1        1 0.28862234E-01 0.26242627E+03</pdfrwt>
<pdfrwt beam="2">  1       -1 0.14118806E-01 0.26242627E+03</pdfrwt>
<totfact> 0.55791023E+03</totfact>
</mgrwt>
</event>
<event>
 6    1  0.5818426E-006  0.1544139E+03  0.7546771E-02  0.1206983E+00
          2   -1    0    0  501    0  0.00000000000E+00  0.00000000000E+00  0.27488005465E+03  0.27488005465E+03  0.00000000000E+00 0. -1.
         -2   -1    0    0    0  501 -0.00000000000E+00 -0.00000000000E+00 -0.69215754717E+02  0.69215754717E+02  0.00000000000E+00 0.  1.
          5    1    1    2  502    0 -0.32323516904E+02 -0.79945366720E+02  0.80518484422E+02  0.11807365387E+03  0.47000000000E+01 0.  1.
         -5    1    1    2    0  502  0.61180869091E+02 -0.59926452406E+01  0.14848030871E+02  0.63415806866E+02  0.47000000000E+01 0.  1.
        -11    1    1    2    0    0 -0.12522072567E+02  0.62631611814E+02  0.18498005908E+02  0.66495844399E+02  0.00000000000E+00 0.  1.
         11    1    1    2    0    0 -0.16335279620E+02  0.23306400146E+02  0.91799778734E+02  0.96110504231E+02  0.00000000000E+00 0. -1.
<mgrwt>
<rscale>  0 0.14482304E+03</rscale>
<asrwt>0</asrwt>
<pdfrwt beam="1">  1        2 0.42289239E-01 0.15441390E+03</pdfrwt>
<pdfrwt beam="2">  1       -2 0.10648578E-01 0.15441390E+03</pdfrwt>
<totfact> 0.69269212E+03</totfact>
</mgrwt>
</event>
<event>
 6    1  0.5818426E-006  0.2707627E+03  0.7546771E-02  0.1100844E+00
          3   -1    0    0  501    0  0.00000000000E+00  0.00000000000E+00  0.10415124622E+03  0.10415124622E+03  0.00000000000E+00 0. -1.
         -3   -1    0    0    0  501 -0.00000000000E+00 -0.00000000000E+00 -0.17597585898E+03  0.17597585898E+03  0.00000000000E+00 0.  1.
          5    1    1    2  502    0 -0.10833468215E+02  0.36853490296E+02 -0.71986711996E+02  0.81729556982E+02  0.47000000000E+01 0. -1.
         -5    1    1    2    0  502  0.44987320682E+02 -0.68758092281E+02 -0.35525084557E+02  0.89641820090E+02  0.47000000000E+01 0. -1.
        -11    1    1    2    0    0 -0.44232269133E+02 -0.20468183071E+02  0.10895318601E+02  0.49941446898E+02  0.00000000000E+00 0.  1.
         11    1    1    2    0    0  0.10078416666E+02  0.52372785056E+02  0.24791865195E+02  0.58814281232E+02  0.00000000000E+00 0. -1.
<mgrwt>
<rscale>  0 0.27076266E+03</rscale>
<asrwt>0</asrwt>
<pdfrwt beam="1">  1        3 0.16023269E-01 0.27076266E+03</pdfrwt>
<pdfrwt beam="2">  1       -3 0.27073209E-01 0.27076266E+03</pdfrwt>
<totfact> 0.10918036E+03</totfact>
</mgrwt>
</event>
<event>
 6    1  0.5818426E-006  0.3424777E+03  0.7546771E-02  0.1065746E+00
         -2   -1    0    0    0  501 -0.00000000000E+00  0.00000000000E+00  0.89950897167E+02  0.89950897167E+02  0.00000000000E+00 0.  1.
          2   -1    0    0  501    0  0.00000000000E+00 -0.00000000000E+00 -0.32598613568E+03  0.32598613568E+03  0.00000000000E+00 0. -1.
          5    1    1    2  502    0  0.31013566182E+02  0.46486399827E+01 -0.82648396452E+02  0.88522870362E+02  0.47000000000E+01 0.  1.
         -5    1    1    2    0  502  0.49075297360E+02 -0.10885954744E+03 -0.23994979222E+02  0.12188779638E+03  0.47000000000E+01 0.  1.
        -11    1    1    2    0    0 -0.45318120029E+01  0.75983090213E+02 -0.43376836747E+02  0.87610029589E+02  0.00000000000E+00 0. -1.
         11    1    1    2    0    0 -0.75557051540E+02  0.28227817240E+02 -0.86015026095E+02  0.11791633652E+03  0.00000000000E+00 0.  1.
<mgrwt>
<rscale>  0 0.34247771E+03</rscale>
<asrwt>0</asrwt>
<pdfrwt beam="2">  1        2 0.50151712E-01 0.34247771E+03</pdfrwt>
<pdfrwt beam="1">  1       -2 0.13838600E-01 0.34247771E+03</pdfrwt>
<totfact> 0.39192031E+03</totfact>
</mgrwt>
</event>
<event>
 6    1  0.5818426E-006  0.1409395E+03  0.7546771E-02  0.1230547E+00
          1   -1    0    0  501    0  0.00000000000E+00  0.00000000000E+00  0.13649835727E+03  0.13649835727E+03  0.00000000000E+00 0. -1.
         -1   -1    0    0    0  501 -0.00000000000E+00 -0.00000000000E+00 -0.15259732368E+03  0.15259732368E+03  0.00000000000E+00 0.  1.
          5    1    1    2  502    0  0.36099258951E+02 -0.55243319577E+02 -0.30094330065E+02  0.72682457008E+02  0.47000000000E+01 0. -1.
         -5    1    1    2    0  502 -0.64148080955E+02  0.34599784052E+02 -0.60738267402E+02  0.94991307358E+02  0.47000000000E+01 0.  1.
        -11    1    1    2    0    0 -0.21694048972E+02 -0.94088631545E+01 -0.35632010995E+01  0.23913487172E+02  0.00000000000E+00 0.  1.
         11    1    1    2    0    0  0.49742870975E+02  0.30052398679E+02  0.78296832156E+02  0.97508429404E+02  0.00000000000E+00 0. -1.
<mgrwt>
<rscale>  0 0.12793828E+03</rscale>
<asrwt>0</asrwt>
<pdfrwt beam="1">  1        1 0.20999747E-01 0.14093946E+03</pdfrwt>
<pdfrwt beam="2">  1       -1 0.23476511E-01 0.14093946E+03</pdfrwt>
<totfact> 0.35744114E+03</totfact>
</mgrwt>
</event>
<event>
 6    1  0.5818426E-006  0.2321826E+03  0.7546771E-02  0.1153617E+00
          2   -1    0    0  501    0  0.00000000000E+00  0.00000000000E+00  0.15986873782E+03  0.15986873782E+03  0.00000000000E+00 0. -1.
         -2   -1    0    0    0  501 -0.00000000000E+00 -0.00000000000E+00 -0.44811490525E+03  0.44811490525E+03  0.00000000000E+00 0.  1.
          5    1    1    2  502    0 -0.35408236163E+02  0.74370961387E+02 -0.11058346312E+03  0.13796947272E+03  0.47000000000E+01 0. -1.
         -5    1    1    2    0  502  0.91935885739E+02 -0.11515180189E+03 -0.27896523840E+03  0.31552470394E+03  0.47000000000E+01 0.  1.
        -11    1    1    2    0    0 -0.77521205727E+02  0.93019536000E+01  0.76089045411E+02  0.10902112873E+03  0.00000000000E+00 0.  1.
         11    1    1    2    0    0  0.20993556151E+02  0.31478886899E+02  0.25213488679E+02  0.45468337683E+02  0.00000000000E+00 0. -1.
<mgrwt>
<rscale>  0 0.19547166E+03</rscale>
<asrwt>0</asrwt>
<pdfrwt beam="1">  1        2 0.24595191E-01 0.23218264E+03</pdfrwt>
<pdfrwt beam="2">  1       -2 0.68940754E-01 0.23218264E+03</pdfrwt>
<totfact> 0.43299168E+02</totfact>
</mgrwt>
</event>
<event>
 6    1  0.5818426E-006  0.1304648E+03  0.7546771E-02  0.1243171E+00
         -1   -1    0    0    0  501 -0.00000000000E+00  0.00000000000E+00  0.11634832307E+03  0.11634832307E+03  0.00000000000E+00 0.  1.
          1   -1    0    0  501    0  0.00000000000E+00 -0.00000000000E+00 -0.12029867103E+03  0.12029867103E+03  0.00000000000E+00 0. -1.
          5    1    1    2  502    0  0.11819617026E+02  0.42167662025E+02  0.55424631997E+02  0.70794031523E+02  0.47000000000E+01 0.  1.
         -5    1    1    2    0  502  0.22488060280E+02 -0.56979457727E+02 -0.19622113154E+02  0.64494098820E+02  0.47000000000E+01 0.  1.
        -11    1    1    2    0    0 -0.29202829628E+02 -0.20353027049E+02  0.12879940619E+02  0.37854244659E+02  0.00000000000E+00 0.  1.
         11    1    1    2    0    0 -0.51048476772E+01  0.35164822751E+02 -0.52632807426E+02  0.63504619095E+02  0.00000000000E+00 0. -1.
<mgrwt>
<rscale>  0 0.11995496E+03</rscale>
<asrwt>0</asrwt>
<pdfrwt beam="2">  1        1 0.18507488E-01 0.13046478E+03</pdfrwt>
<pdfrwt beam="1">  1       -1 0.17899742E-01 0.13046478E+03</pdfrwt>
<totfact> 0.64647974E+03</totfact>
</mgrwt>
</event>
<event>
 6    1  0.5818426E-006  0.1439443E+03  0.7546771E-02  0.1217946E+00
          1   -1    0    0  501    0  0.00000000000E+00  0.00000000000E+00  0.27823254021E+03  0.27823254021E+03  0.00000000000E+00 0. -1.
         -1   -1    0    0    0  501 -0.00000000000E+00 -0.00000000000E+00 -0.71127009812E+02  0.71127009812E+02  0.00000000000E+00 0.  1.
          5    1    1    2  502    0 -0.54206129843E+02 -0.38366547221E+01  0.32982043775E+02  0.63741114232E+02  0.47000000000E+01 0. -1.
         -5    1    1    2    0  502  0.44006213492E+02  0.74475471524E+02  0.14536925134E+02  0.87843923392E+02  0.47000000000E+01 0. -1.
        -11    1    1    2    0    0  0.40547716029E+02 -0.38667466357E+02  0.13748370970E+03  0.14846232068E+03  0.00000000000E+00 0. -1.
         11    1    1    2    0    0 -0.30347799679E+02 -0.31971350444E+02  0.22102851792E+02  0.49312191717E+02  0.00000000000E+00 0.  1.
<mgrwt>
<rscale>  0 0.13662341E+03</rscale>
<asrwt>0</asrwt>
<pdfrwt beam="1">  1        1 0.42805006E-01 0.14394433E+03</pdfrwt>
<pdfrwt beam="2">  1       -1 0.10942617E-01 0.14394433E+03</pdfrwt>
<totfact> 0.49114366E+03</totfact>
</mgrwt>
</event>
<event>
 6    1  0.5818426E-006  0.1362183E+03  0.7546771E-02  0.1224630E+00
          2   -1    0    0  501    0  0.00000000000E+00  0.00000000000E+00  0.10068316912E+03  0.10068316912E+03  0.00000000000E+00 0. -1.
         -2   -1    0    0    0  501 -0.00000000000E+00 -0.00000000000E+00 -0.12053021831E+04  0.12053021831E+04  0.00000000000E+00 0.  1.
          5    1    1    2  502    0  0.30016629686E+02  0.47921821749E+01 -0.11525729913E+03  0.11929081302E+03  0.47000000000E+01 0. -1.
         -5    1    1    2    0  502 -0.45800452379E+02 -0.78071588017E+02 -0.10489537346E+04  0.10528622329E+04  0.47000000000E+01 0.  1.
        -11    1    1    2    0    0 -0.70005712569E+01  0.11778940502E+02 -0.23967526625E+02  0.27607857030E+02  0.00000000000E+00 0.  1.
         11    1    1    2    0    0  0.22784393950E+02  0.61500465340E+02  0.83559546297E+02  0.10622444927E+03  0.00000000000E+00 0. -1.
<mgrwt>
<rscale>  0 0.13192299E+03</rscale>
<asrwt>0</asrwt>
<pdfrwt beam="1">  1        2 0.15489719E-01 0.13621833E+03</pdfrwt>
<pdfrwt beam="2">  1       -2 0.18543110E+00 0.13621833E+03</pdfrwt>
<totfact> 0.68463024E+01</totfact>
</mgrwt>
</event>
<event>
 6    1  0.5818426E-006  0.1274587E+03  0.7546771E-02  0.1244108E+00
          1   -1    0    0  501    0  0.00000000000E+00  0.00000000000E+00  0.58149008610E+02  0.58149008610E+02  0.00000000000E+00 0. -1.
         -1   -1    0    0    0  501 -0.00000000000E+00 -0.00000000000E+00 -0.24291020043E+03  0.24291020043E+03  0.00000000000E+00 0.  1.
          5    1    1    2  502    0 -0.38249671231E+02 -0.27914709938E+02 -0.15866654795E+02  0.50160832475E+02  0.47000000000E+01 0.  1.
         -5    1    1    2    0  502  0.57662867448E+02  0.12753089946E+02 -0.13442586090E+03  0.14690149647E+03  0.47000000000E+01 0.  1.
        -11    1    1    2    0    0 -0.31162637528E+02  0.26468361915E+02  0.21153165785E+02  0.46034124113E+02  0.00000000000E+00 0. -1.
         11    1    1    2    0    0  0.11749441312E+02 -0.11306741923E+02 -0.55621841909E+02  0.57962755986E+02  0.00000000000E+00 0.  1.
<mgrwt>
<rscale>  0 0.11938918E+03</rscale>
<asrwt>0</asrwt>
<pdfrwt beam="1">  1        1 0.89460014E-02 0.12745870E+03</pdfrwt>
<pdfrwt beam="2">  1       -1 0.37370800E-01 0.12745870E+03</pdfrwt>
<totfact> 0.49408930E+03</totfact>
</mgrwt>
</event>
<event>
 6    1  0.5818426E-006  0.1267403E+03  0.7546771E-02  0.1247636E+00
          2   -1    0    0  501    0  0.00000000000E+00  0.00000000000E+00  0.22537334095E+03  0.22537334095E+03  0.00000000000E+00 0. -1.
         -2   -1    0    0    0  501 -0.00000000000E+00 -0.00000000000E+00 -0.54123010262E+02  0.54123010262E+02  0.00000000000E+00 0.  1.
          5    1    1    2  502    0  0.26132067783E+02  0.48233521609E+02  0.66477883948E+02  0.86317765423E+02  0.47000000000E+01 0.  1.
         -5    1    1    2    0  502 -0.46939678998E+02 -0.50780341075E+02  0.46470288211E+02  0.83447913039E+02  0.47000000000E+01 0.  1.
        -11    1    1    2    0    0  0.36860508954E+02 -0.74068189741E+01 -0.99675887249E+01  0.38896155500E+02  0.00000000000E+00 0.  1.
         11    1    1    2    0    0 -0.16052897739E+02  0.99536384398E+01  0.68269747253E+02  0.70834517250E+02  0.00000000000E+00 0. -1.
<mgrwt>
<rscale>  0 0.11728993E+03</rscale>
<asrwt>0</asrwt>
<pdfrwt beam="1">  1        2 0.34672821E-01 0.12674027E+03</pdfrwt>
<pdfrwt beam="2">  1       -2 0.83266171E-02 0.12674027E+03</pdfrwt>
<totfact> 0.12399165E+04</totfact>
</mgrwt>
</event>
<event>
 6    1  0.5818426E-006  0.1269057E+03  0.7546771E-02  0.1249121E+00
         -2   -1    0    0    0  501 -0.00000000000E+00  0.00000000000E+00  0.26177355430E+03  0.26177355430E+03  0.00000000000E+00 0.  1.
          2   -1    0    0  501    0  0.00000000000E+00 -0.00000000000E+00 -0.62588404247E+02  0.62588404247E+02  0.00000000000E+00 0. -1.
          5    1    1    2  502    0  0.39119302725E+02  0.62920596453E+02  0.10881995165E+03  0.13173151931E+03  0.47000000000E+01 0.  1.
         -5    1    1    2    0  502 -0.26427090912E+02 -0.45069337588E+02  0.88319605964E+02  0.10272331343E+03  0.47000000000E+01 0.  1.
        -11    1    1    2    0    0 -0.46349845083E+02 -0.27863837419E+02  0.66632939725E+01  0.54489458260E+02  0.00000000000E+00 0.  1.
         11    1    1    2    0    0  0.33657633269E+02  0.10012578553E+02 -0.46177015348E+01  0.35417667541E+02  0.00000000000E+00 0. -1.
<mgrwt>
<rscale>  0 0.11642100E+03</rscale>
<asrwt>0</asrwt>
<pdfrwt beam="2">  1        2 0.96289855E-02 0.12690573E+03</pdfrwt>
<pdfrwt beam="1">  1       -2 0.40272854E-01 0.12690573E+03</pdfrwt>
<totfact> 0.37595660E+03</totfact>
</mgrwt>
</event>
<event>
 6    1  0.5818426E-006  0.1905621E+03  0.7546771E-02  0.1188392E+00
          2   -1    0    0  501    0  0.00000000000E+00  0.00000000000E+00  0.11325147815E+04  0.11325147815E+04  0.00000000000E+00 0. -1.
         -2   -1    0    0    0  501 -0.00000000000E+00 -0.00000000000E+00 -0.18144150885E+02  0.18144150885E+02  0.00000000000E+00 0.  1.
          5    1    1    2  502    0 -0.39476232218E+01  0.73815874364E+02  0.16562312789E+03  0.18143174345E+03  0.47000000000E+01 0. -1.
         -5    1    1    2    0  502  0.58374576362E+01 -0.10168330819E+03  0.53589577794E+03  0.54550888708E+03  0.47000000000E+01 0.  1.
        -11    1    1    2    0    0  0.43183651575E+02  0.48284784766E+01  0.22550649808E+03  0.22965479017E+03  0.00000000000E+00 0.  1.
         11    1    1    2    0    0 -0.45073485990E+02  0.23038955347E+02  0.18734522674E+03  0.19406351173E+03  0.00000000000E+00 0. -1.
<mgrwt>
<rscale>  0 0.16026982E+03</rscale>
<asrwt>0</asrwt>
<pdfrwt beam="1">  1        2 0.17423299E+00 0.19056208E+03</pdfrwt>
<pdfrwt beam="2">  1       -2 0.27914087E-02 0.19056208E+03</pdfrwt>
<totfact> 0.10139203E+04</totfact>
</mgrwt>
</event>
<event>
 6    1  0.5818426E-006  0.2247961E+03  0.7546771E-02  0.1130357E+00
          1   -1    0    0  501    0  0.00000000000E+00  0.00000000000E+00  0.37056579577E+03  0.37056579577E+03  0.00000000000E+00 0. -1.
         -1   -1    0    0    0  501 -0.00000000000E+00 -0.00000000000E+00 -0.34091985523E+02  0.34091985523E+02  0.00000000000E+00 0.  1.
          5    1    1    2  502    0 -0.52637394445E+02  0.19418954365E+01  0.19510097541E+03  0.20214090842E+03  0.47000000000E+01 0. -1.
         -5    1    1    2    0  502  0.14658134122E+02 -0.98425278042E+01 -0.11088805657E+02  0.21372596015E+02  0.47000000000E+01 0.  1.
        -11    1    1    2    0    0  0.16617639297E+02  0.19799493053E+02  0.15446257629E+03  0.15661051476E+03  0.00000000000E+00 0. -1.
         11    1    1    2    0    0  0.21361621026E+02 -0.11898860686E+02 -0.20009357919E+01  0.24533762095E+02  0.00000000000E+00 0.  1.
<mgrwt>
<rscale>  0 0.22479612E+03</rscale>
<asrwt>0</asrwt>
<pdfrwt beam="1">  1        1 0.57010120E-01 0.22479612E+03</pdfrwt>
<pdfrwt beam="2">  1       -1 0.52449211E-02 0.22479612E+03</pdfrwt>
<totfact> 0.10742146E+04</totfact>
</mgrwt>
</event>
<event>
 6    1  0.5818426E-006  0.1436418E+03  0.7546771E-02  0.1218130E+00
          1   -1    0    0  501    0  0.00000000000E+00  0.00000000000E+00  0.97495000932E+02  0.97495000932E+02  0.00000000000E+00 0. -1.
         -1   -1    0    0    0  501 -0.00000000000E+00 -0.00000000000E+00 -0.17961102515E+03  0.17961102515E+03  0.00000000000E+00 0.  1.
          5    1    1    2  502    0  0.63455126896E+02 -0.23050440322E+02 -0.26776135626E+02  0.72779992906E+02  0.47000000000E+01 0.  1.
         -5    1    1    2    0  502 -0.58564297002E+02 -0.47571098788E+02 -0.41955130871E+02  0.86458714596E+02  0.47000000000E+01 0.  1.
        -11    1    1    2    0    0 -0.86195591444E+01  0.58535775036E+02  0.34397688104E+02  0.68439277508E+02  0.00000000000E+00 0. -1.
         11    1    1    2    0    0  0.37287292509E+01  0.12085764074E+02 -0.47782445828E+02  0.49428041074E+02  0.00000000000E+00 0.  1.
<mgrwt>
<rscale>  0 0.13649114E+03</rscale>
<asrwt>0</asrwt>
<pdfrwt beam="1">  1        1 0.14999231E-01 0.14364184E+03</pdfrwt>
<pdfrwt beam="2">  1       -1 0.27632465E-01 0.14364184E+03</pdfrwt>
<totfact> 0.42112993E+03</totfact>
</mgrwt>
</event>
<event>
 6    1  0.5818426E-006  0.1297341E+03  0.7546771E-02  0.1241532E+00
         -1   -1    0    0    0  501 -0.00000000000E+00  0.00000000000E+00  0.34184119489E+03  0.34184119489E+03  0.00000000000E+00 0.  1.
          1   -1    0    0  501    0  0.00000000000E+00 -0.00000000000E+00 -0.42259136696E+02  0.42259136696E+02  0.00000000000E+00 0. -1.
          5    1    1    2  502    0  0.74470208857E+02 -0.51184776974E+01  0.10989235295E+03  0.13293016985E+03  0.47000000000E+01 0. -1.
         -5    1    1    2    0  502 -0.46087724525E+02  0.25131350372E+02  0.11951367953E+03  0.13061880691E+03  0.47000000000E+01 0. -1.
        -11    1    1    2    0    0 -0.10420902005E+02 -0.13503565205E+02 -0.21194058149E+02  0.27205322507E+02  0.00000000000E+00 0. -1.
         11    1    1    2    0    0 -0.17961582326E+02 -0.65093074694E+01  0.91370083862E+02  0.93346032312E+02  0.00000000000E+00 0.  1.
<mgrwt>
<rscale>  0 0.12095378E+03</rscale>
<asrwt>0</asrwt>
<pdfrwt beam="2">  1        1 0.65014059E-02 0.12973410E+03</pdfrwt>
<pdfrwt beam="1">  1       -1 0.52590951E-01 0.12973410E+03</pdfrwt>
<totfact> 0.41276476E+03</totfact>
</mgrwt>
</event>
<event>
 6    1  0.5818426E-006  0.1282831E+03  0.7546771E-02  0.1244885E+00
          3   -1    0    0  501    0  0.00000000000E+00  0.00000000000E+00  0.31760085063E+03  0.31760085063E+03  0.00000000000E+00 0. -1.
         -3   -1    0    0    0  501 -0.00000000000E+00 -0.00000000000E+00 -0.39241573971E+02  0.39241573971E+02  0.00000000000E+00 0.  1.
          5    1    1    2  502    0 -0.38905378778E+02  0.44568748547E+02  0.97761112156E+02  0.11436488489E+03  0.47000000000E+01 0. -1.
         -5    1    1    2    0  502  0.61335664898E+02 -0.26446658960E+02  0.70647775685E+02  0.97338007828E+02  0.47000000000E+01 0. -1.
        -11    1    1    2    0    0 -0.49069925516E+02  0.14526703049E+00  0.26747428357E+02  0.55886524461E+02  0.00000000000E+00 0.  1.
         11    1    1    2    0    0  0.26639639396E+02 -0.18267356617E+02  0.83202960458E+02  0.89253007422E+02  0.00000000000E+00 0. -1.
<mgrwt>
<rscale>  0 0.11892274E+03</rscale>
<asrwt>0</asrwt>
<pdfrwt beam="1">  1        3 0.48861668E-01 0.12828313E+03</pdfrwt>
<pdfrwt beam="2">  1       -3 0.60371654E-02 0.12828313E+03</pdfrwt>
<totfact> 0.16055646E+03</totfact>
</mgrwt>
</event>
<event>
 6    1  0.5818426E-006  0.1333000E+03  0.7546771E-02  0.1235214E+00
          1   -1    0    0  501    0  0.00000000000E+00  0.00000000000E+00  0.18577557514E+03  0.18577557514E+03  0.00000000000E+00 0. -1.
         -1   -1    0    0    0  501 -0.00000000000E+00 -0.00000000000E+00 -0.75730545564E+02  0.75730545564E+02  0.00000000000E+00 0.  1.
          5    1    1    2  502    0  0.47902387629E+02 -0.66786810611E+01 -0.18340749851E+02  0.51939547807E+02  0.47000000000E+01 0. -1.
         -5    1    1    2    0  502 -0.31951319698E+02  0.50159266842E+02  0.67628895185E+02  0.90180908981E+02  0.47000000000E+01 0. -1.
        -11    1    1    2    0    0 -0.24139706680E+02 -0.54628698621E+02  0.27882878069E+01  0.59789586890E+02  0.00000000000E+00 0.  1.
         11    1    1    2    0    0  0.81886387490E+01  0.11148112840E+02  0.57968596432E+02  0.59596077024E+02  0.00000000000E+00 0. -1.
<mgrwt>
<rscale>  0 0.12490753E+03</rscale>
<asrwt>0</asrwt>
<pdfrwt beam="1">  1        1 0.28580858E-01 0.13330005E+03</pdfrwt>
<pdfrwt beam="2">  1       -1 0.11650853E-01 0.13330005E+03</pdfrwt>
<totfact> 0.73239004E+03</totfact>
</mgrwt>
</event>
<event>
 6    1  0.5818426E-006  0.1479949E+03  0.7546771E-02  0.1213069E+00
         -1   -1    0    0    0  501 -0.00000000000E+00  0.00000000000E+00  0.75091794062E+02  0.75091794062E+02  0.00000000000E+00 0.  1.
          1   -1    0    0  501    0  0.00000000000E+00 -0.00000000000E+00 -0.24414516577E+03  0.24414516577E+03  0.00000000000E+00 0. -1.
          5    1    1    2  502    0  0.28065226223E+01 -0.62839521778E+02 -0.52002338407E+02  0.81749711108E+02  0.47000000000E+01 0. -1.
         -5    1    1    2    0  502 -0.74069483159E+02  0.28242319974E+02 -0.15483319136E+02  0.80905748525E+02  0.47000000000E+01 0. -1.
        -11    1    1    2    0    0  0.81550765970E+02  0.31867047873E+00 -0.82607684598E+02  0.11608039686E+03  0.00000000000E+00 0.  1.
         11    1    1    2    0    0 -0.10287805434E+02  0.34278531325E+02 -0.18960029572E+02  0.40501103341E+02  0.00000000000E+00 0. -1.
<mgrwt>
<rscale>  0 0.14019348E+03</rscale>
<asrwt>0</asrwt>
<pdfrwt beam="2">  1        1 0.37560794E-01 0.14799488E+03</pdfrwt>
<pdfrwt beam="1">  1       -1 0.11552584E-01 0.14799488E+03</pdfrwt>
<totfact> 0.53203702E+03</totfact>
</mgrwt>
</event>
<event>
 6    1  0.5818426E-006  0.1684838E+03  0.7546771E-02  0.1186256E+00
          1   -1    0    0  501    0  0.00000000000E+00  0.00000000000E+00  0.74984307147E+03  0.74984307147E+03  0.00000000000E+00 0. -1.
         -1   -1    0    0    0  501 -0.00000000000E+00 -0.00000000000E+00 -0.33734766675E+02  0.33734766675E+02  0.00000000000E+00 0.  1.
          5    1    1    2  502    0  0.72297894836E+00 -0.50134381762E+02  0.31187590517E+02  0.59234573819E+02  0.47000000000E+01 0. -1.
         -5    1    1    2    0  502 -0.87881385672E+02 -0.21749814369E+02  0.28457854124E+03  0.29866909533E+03  0.47000000000E+01 0. -1.
        -11    1    1    2    0    0  0.11482087120E+02  0.17928525731E+02  0.84401114289E+01  0.22902092490E+02  0.00000000000E+00 0.  1.
         11    1    1    2    0    0  0.75676319603E+02  0.53955670401E+02  0.39190206161E+03  0.40277207650E+03  0.00000000000E+00 0. -1.
<mgrwt>
<rscale>  0 0.16218132E+03</rscale>
<asrwt>0</asrwt>
<pdfrwt beam="1">  1        1 0.11536046E+00 0.16848379E+03</pdfrwt>
<pdfrwt beam="2">  1       -1 0.51899647E-02 0.16848379E+03</pdfrwt>
<totfact> 0.41573383E+03</totfact>
</mgrwt>
</event>
<event>
 6    1  0.5818426E-006  0.1916118E+03  0.7546771E-02  0.1162806E+00
          1   -1    0    0  501    0  0.00000000000E+00  0.00000000000E+00  0.30241608383E+03  0.30241608383E+03  0.00000000000E+00 0. -1.
         -1   -1    0    0    0  501 -0.00000000000E+00 -0.00000000000E+00 -0.11185263938E+03  0.11185263938E+03  0.00000000000E+00 0.  1.
          5    1    1    2  502    0 -0.41650034999E+02  0.36616109593E+02 -0.34750633017E+02  0.65613728687E+02  0.47000000000E+01 0. -1.
         -5    1    1    2    0  502 -0.15097736296E+02  0.97058769883E+02  0.91253605880E+02  0.13415534666E+03  0.47000000000E+01 0. -1.
        -11    1    1    2    0    0  0.43335487639E+01 -0.65911492044E+02  0.14854930177E+02  0.67703569913E+02  0.00000000000E+00 0.  1.
         11    1    1    2    0    0  0.52414222532E+02 -0.67763387432E+02  0.11920554140E+03  0.14679607795E+03  0.00000000000E+00 0. -1.
<mgrwt>
<rscale>  0 0.18526139E+03</rscale>
<asrwt>0</asrwt>
<pdfrwt beam="1">  1        1 0.46525551E-01 0.19161184E+03</pdfrwt>
<pdfrwt beam="2">  1       -1 0.17208098E-01 0.19161184E+03</pdfrwt>
<totfact> 0.22066341E+03</totfact>
</mgrwt>
</event>
<event>
 6    1  0.5818426E-006  0.1589219E+03  0.7546771E-02  0.1197693E+00
         -2   -1    0    0    0  501 -0.00000000000E+00  0.00000000000E+00  0.15568810244E+03  0.15568810244E+03  0.00000000000E+00 0.  1.
          2   -1    0    0  501    0  0.00000000000E+00 -0.00000000000E+00 -0.13974338238E+03  0.13974338238E+03  0.00000000000E+00 0. -1.
          5    1    1    2  502    0  0.78419889884E+02 -0.80398042078E+02  0.13716936969E+02  0.11324207990E+03  0.47000000000E+01 0. -1.
         -5    1    1    2    0  502 -0.38621645430E+02 -0.93086539817E+01 -0.22555895830E+02  0.45925384825E+02  0.47000000000E+01 0. -1.
        -11    1    1    2    0    0  0.17357530149E+02 -0.34019527513E+01  0.20293260412E+02  0.26919761395E+02  0.00000000000E+00 0.  1.
         11    1    1    2    0    0 -0.57155774603E+02  0.93108648811E+02  0.44904185109E+01  0.10934425871E+03  0.00000000000E+00 0. -1.
<mgrwt>
<rscale>  0 0.15228489E+03</rscale>
<asrwt>0</asrwt>
<pdfrwt beam="2">  1        2 0.21498982E-01 0.15892185E+03</pdfrwt>
<pdfrwt beam="1">  1       -2 0.23952016E-01 0.15892185E+03</pdfrwt>
<totfact> 0.37938005E+03</totfact>
</mgrwt>
</event>
<event>
 6    1  0.5818426E-006  0.2108546E+03  0.7546771E-02  0.1144617E+00
          1   -1    0    0  501    0  0.00000000000E+00  0.00000000000E+00  0.46091854948E+03  0.46091854948E+03  0.00000000000E+00 0. -1.
         -1   -1    0    0    0  501 -0.00000000000E+00 -0.00000000000E+00 -0.95706218918E+02  0.95706218918E+02  0.00000000000E+00 0.  1.
          5    1    1    2  502    0 -0.81306336682E+01 -0.17487332799E+03  0.71523093694E+02  0.18916773239E+03  0.47000000000E+01 0.  1.
         -5    1    1    2    0  502  0.26792664536E+02  0.60957882566E+01  0.41709118126E+02  0.50167180928E+02  0.47000000000E+01 0.  1.
        -11    1    1    2    0    0 -0.47604546092E+02  0.14997399540E+03  0.19369197340E+03  0.24954953950E+03  0.00000000000E+00 0. -1.
         11    1    1    2    0    0  0.28942515224E+02  0.18803544334E+02  0.58288145347E+02  0.67740315581E+02  0.00000000000E+00 0.  1.
<mgrwt>
<rscale>  0 0.20619321E+03</rscale>
<asrwt>0</asrwt>
<pdfrwt beam="1">  1        1 0.70910545E-01 0.21085461E+03</pdfrwt>
<pdfrwt beam="2">  1       -1 0.14724034E-01 0.21085461E+03</pdfrwt>
<totfact> 0.16578033E+03</totfact>
</mgrwt>
</event>
<event>
 6    1  0.5818426E-006  0.1310593E+03  0.7546771E-02  0.1243586E+00
         -1   -1    0    0    0  501 -0.00000000000E+00  0.00000000000E+00  0.85608140161E+02  0.85608140161E+02  0.00000000000E+00 0.  1.
          1   -1    0    0  501    0  0.00000000000E+00 -0.00000000000E+00 -0.20821383798E+03  0.20821383798E+03  0.00000000000E+00 0. -1.
          5    1    1    2  502    0  0.36099226263E+02  0.19594848054E+02 -0.31979055903E+02  0.52267219397E+02  0.47000000000E+01 0.  1.
         -5    1    1    2    0  502 -0.65801398997E+02  0.62717742777E+01  0.43562700701E+02  0.79302951742E+02  0.47000000000E+01 0.  1.
        -11    1    1    2    0    0  0.22296568655E+02  0.84095203523E+01 -0.28453103913E+00  0.23831449059E+02  0.00000000000E+00 0.  1.
         11    1    1    2    0    0  0.74056040792E+01 -0.34276142684E+02 -0.13390481157E+03  0.13842035794E+03  0.00000000000E+00 0. -1.
<mgrwt>
<rscale>  0 0.11970404E+03</rscale>
<asrwt>0</asrwt>
<pdfrwt beam="2">  1        1 0.32032897E-01 0.13105926E+03</pdfrwt>
<pdfrwt beam="1">  1       -1 0.13170483E-01 0.13105926E+03</pdfrwt>
<totfact> 0.52536123E+03</totfact>
</mgrwt>
</event>
<event>
 6    1  0.5818426E-006  0.2223719E+03  0.7546771E-02  0.1135159E+00
         -1   -1    0    0    0  501 -0.00000000000E+00  0.00000000000E+00  0.24042059195E+03  0.24042059195E+03  0.00000000000E+00 0.  1.
          1   -1    0    0  501    0  0.00000000000E+00 -0.00000000000E+00 -0.43988338008E+03  0.43988338008E+03  0.00000000000E+00 0. -1.
          5    1    1    2  502    0  0.58148235174E+02 -0.17604648082E+03  0.11274696811E+03  0.21704273653E+03  0.47000000000E+01 0. -1.
         -5    1    1    2    0  502  0.30156181110E+02  0.14719939060E+02  0.41561056718E+02  0.53623533086E+02  0.47000000000E+01 0. -1.
        -11    1    1    2    0    0  0.18053359141E+02  0.11451527041E+02 -0.24208518898E+02  0.32297269777E+02  0.00000000000E+00 0. -1.
         11    1    1    2    0    0 -0.10635777542E+03  0.14987501472E+03 -0.32956229406E+03  0.37734043263E+03  0.00000000000E+00 0.  1.
<mgrwt>
<rscale>  0 0.21829755E+03</rscale>
<asrwt>0</asrwt>
<pdfrwt beam="2">  1        1 0.67674366E-01 0.22237190E+03</pdfrwt>
<pdfrwt beam="1">  1       -1 0.36987784E-01 0.22237190E+03</pdfrwt>
<totfact> 0.38364826E+02</totfact>
</mgrwt>
</event>
<event>
 6    1  0.5818426E-006  0.1255913E+03  0.7546771E-02  0.1249994E+00
         -1   -1    0    0    0  501 -0.00000000000E+00  0.00000000000E+00  0.64067805895E+03  0.64067805895E+03  0.00000000000E+00 0.  1.
          1   -1    0    0  501    0  0.00000000000E+00 -0.00000000000E+00 -0.19202206389E+02  0.19202206389E+02  0.00000000000E+00 0. -1.
          5    1    1    2  502    0 -0.46642098394E+02 -0.19823146168E+02  0.10152855251E+03  0.11357191308E+03  0.47000000000E+01 0. -1.
         -5    1    1    2    0  502  0.58512372290E+02  0.22754132210E+02  0.32593279305E+03  0.33195741267E+03  0.47000000000E+01 0. -1.
        -11    1    1    2    0    0 -0.51063488375E+02  0.19780214462E+01  0.12072221146E+03  0.13109250457E+03  0.00000000000E+00 0. -1.
         11    1    1    2    0    0  0.39193214479E+02 -0.49090074882E+01  0.73292295542E+02  0.83258435018E+02  0.00000000000E+00 0.  1.
<mgrwt>
<rscale>  0 0.11591381E+03</rscale>
<asrwt>0</asrwt>
<pdfrwt beam="2">  1        1 0.29541861E-02 0.12559131E+03</pdfrwt>
<pdfrwt beam="1">  1       -1 0.98565839E-01 0.12559131E+03</pdfrwt>
<totfact> 0.34664618E+03</totfact>
</mgrwt>
</event>
<event>
 6    1  0.5818426E-006  0.2989628E+03  0.7546771E-02  0.1085760E+00
          1   -1    0    0  501    0  0.00000000000E+00  0.00000000000E+00  0.14223221172E+03  0.14223221172E+03  0.00000000000E+00 0. -1.
         -1   -1    0    0    0  501 -0.00000000000E+00 -0.00000000000E+00 -0.15710009240E+03  0.15710009240E+03  0.00000000000E+00 0.  1.
          5    1    1    2  502    0  0.95757573545E+02 -0.32626958125E+01  0.30254023751E+02  0.10058605285E+03  0.47000000000E+01 0.  1.
         -5    1    1    2    0  502  0.52412739820E+00 -0.25139176530E+02 -0.56290580691E+02  0.61830189880E+02  0.47000000000E+01 0.  1.
        -11    1    1    2    0    0 -0.25232861463E+02  0.24496277416E+02 -0.36955317009E+02  0.51014315247E+02  0.00000000000E+00 0.  1.
         11    1    1    2    0    0 -0.71048839481E+02  0.39055949267E+01  0.48123993265E+02  0.85901746146E+02  0.00000000000E+00 0. -1.
<mgrwt>
<rscale>  0 0.29896283E+03</rscale>
<asrwt>0</asrwt>
<pdfrwt beam="1">  1        1 0.21881879E-01 0.29896283E+03</pdfrwt>
<pdfrwt beam="2">  1       -1 0.24169245E-01 0.29896283E+03</pdfrwt>
<totfact> 0.33417531E+03</totfact>
</mgrwt>
</event>
<event>
 6    1  0.5818426E-006  0.1634912E+03  0.7546771E-02  0.1192799E+00
         -4   -1    0    0    0  501 -0.00000000000E+00  0.00000000000E+00  0.43182680355E+03  0.43182680355E+03  0.00000000000E+00 0.  1.
          4   -1    0    0  501    0  0.00000000000E+00 -0.00000000000E+00 -0.66605510540E+02  0.66605510540E+02  0.00000000000E+00 0. -1.
          5    1    1    2  502    0  0.87222125238E+02  0.88768729961E+02  0.17964972333E+03  0.21859482986E+03  0.47000000000E+01 0.  1.
         -5    1    1    2    0  502 -0.12969149359E+02 -0.13986264412E+02  0.13086059604E+03  0.13232686811E+03  0.47000000000E+01 0.  1.
        -11    1    1    2    0    0  0.81142476016E+01 -0.28231652662E+02  0.43144135607E+02  0.52194670834E+02  0.00000000000E+00 0.  1.
         11    1    1    2    0    0 -0.82367223481E+02 -0.46550812887E+02  0.11566838039E+02  0.95315945291E+02  0.00000000000E+00 0. -1.
<mgrwt>
<rscale>  0 0.15642010E+03</rscale>
<asrwt>0</asrwt>
<pdfrwt beam="2">  1        4 0.10247002E-01 0.16349122E+03</pdfrwt>
<pdfrwt beam="1">  1       -4 0.66434891E-01 0.16349122E+03</pdfrwt>
<totfact> 0.26766570E+02</totfact>
</mgrwt>
</event>
<event>
 6    1  0.5818426E-006  0.1319344E+03  0.7546771E-02  0.1237479E+00
         -2   -1    0    0    0  501 -0.00000000000E+00  0.00000000000E+00  0.88847561029E+02  0.88847561029E+02  0.00000000000E+00 0. -1.
          2   -1    0    0  501    0  0.00000000000E+00 -0.00000000000E+00 -0.34301522114E+03  0.34301522114E+03  0.00000000000E+00 0.  1.
          5    1    1    2  502    0  0.55788223895E+02  0.27151520336E+02  0.61746091289E+02  0.87659573188E+02  0.47000000000E+01 0.  1.
         -5    1    1    2    0  502 -0.13610089467E+02 -0.25828192905E+02 -0.36182135626E+02  0.46728653121E+02  0.47000000000E+01 0.  1.
        -11    1    1    2    0    0 -0.49113679151E+02 -0.32407435797E+02 -0.23690826408E+03  0.24410637223E+03  0.00000000000E+00 0.  1.
         11    1    1    2    0    0  0.69355447226E+01  0.31084108366E+02 -0.42823351695E+02  0.53368183629E+02  0.00000000000E+00 0. -1.
<mgrwt>
<rscale>  0 0.12347045E+03</rscale>
<asrwt>0</asrwt>
<pdfrwt beam="2">  1        2 0.52771571E-01 0.13193438E+03</pdfrwt>
<pdfrwt beam="1">  1       -2 0.13668856E-01 0.13193438E+03</pdfrwt>
<totfact> 0.36402043E+03</totfact>
</mgrwt>
</event>
<event>
 6    1  0.5818426E-006  0.1258289E+03  0.7546771E-02  0.1248802E+00
          1   -1    0    0  501    0  0.00000000000E+00  0.00000000000E+00  0.10671025954E+03  0.10671025954E+03  0.00000000000E+00 0. -1.
         -1   -1    0    0    0  501 -0.00000000000E+00 -0.00000000000E+00 -0.12306709221E+03  0.12306709221E+03  0.00000000000E+00 0.  1.
          5    1    1    2  502    0  0.90099437038E+01  0.18182955989E+02 -0.86203529980E+02  0.88684483169E+02  0.47000000000E+01 0. -1.
         -5    1    1    2    0  502 -0.10301043169E+02 -0.38955245647E+01  0.42781779507E+02  0.44425862511E+02  0.47000000000E+01 0. -1.
        -11    1    1    2    0    0 -0.37369760019E+02  0.18684065645E+02  0.89893373395E+01  0.42736418412E+02  0.00000000000E+00 0.  1.
         11    1    1    2    0    0  0.38660859484E+02 -0.32971497069E+02  0.18075580463E+02  0.53930587649E+02  0.00000000000E+00 0. -1.
<mgrwt>
<rscale>  0 0.11660666E+03</rscale>
<asrwt>0</asrwt>
<pdfrwt beam="1">  1        1 0.16416963E-01 0.12582891E+03</pdfrwt>
<pdfrwt beam="2">  1       -1 0.18933399E-01 0.12582891E+03</pdfrwt>
<totfact> 0.68746445E+03</totfact>
</mgrwt>
</event>
<event>
 6    1  0.5818426E-006  0.1351755E+03  0.7546771E-02  0.1232685E+00
         -2   -1    0    0    0  501 -0.00000000000E+00  0.00000000000E+00  0.38507639113E+02  0.38507639113E+02  0.00000000000E+00 0.  1.
          2   -1    0    0  501    0  0.00000000000E+00 -0.00000000000E+00 -0.37210717742E+03  0.37210717742E+03  0.00000000000E+00 0. -1.
          5    1    1    2  502    0  0.43834622975E+02 -0.33366755951E+02 -0.65960827156E+02  0.86068201405E+02  0.47000000000E+01 0. -1.
         -5    1    1    2    0  502 -0.79428047261E+02 -0.37933684859E+01 -0.11041626302E+03  0.13615081886E+03  0.47000000000E+01 0. -1.
        -11    1    1    2    0    0  0.50619786268E+02  0.56922887047E+02 -0.13532797635E+03  0.15529404050E+03  0.00000000000E+00 0. -1.
         11    1    1    2    0    0 -0.15026361981E+02 -0.19762762610E+02 -0.21894471775E+02  0.33101755765E+02  0.00000000000E+00 0.  1.
<mgrwt>
<rscale>  0 0.12653801E+03</rscale>
<asrwt>0</asrwt>
<pdfrwt beam="2">  1        2 0.57247260E-01 0.13517550E+03</pdfrwt>
<pdfrwt beam="1">  1       -2 0.59242519E-02 0.13517550E+03</pdfrwt>
<totfact> 0.12321673E+04</totfact>
</mgrwt>
</event>
<event>
 6    1  0.5818426E-006  0.1482579E+03  0.7546771E-02  0.1212691E+00
          1   -1    0    0  501    0  0.00000000000E+00  0.00000000000E+00  0.48131316139E+03  0.48131316139E+03  0.00000000000E+00 0. -1.
         -1   -1    0    0    0  501 -0.00000000000E+00 -0.00000000000E+00 -0.42823761392E+02  0.42823761392E+02  0.00000000000E+00 0.  1.
          5    1    1    2  502    0 -0.49415737924E+02 -0.10551382330E+02  0.19278243830E+02  0.54286163143E+02  0.47000000000E+01 0.  1.
         -5    1    1    2    0  502  0.53045640634E+02 -0.69099219499E+02  0.12626530376E+03  0.15347168813E+03  0.47000000000E+01 0.  1.
        -11    1    1    2    0    0 -0.24020964975E+02  0.47319190537E+01  0.17226494521E+02  0.29935763390E+02  0.00000000000E+00 0.  1.
         11    1    1    2    0    0  0.20391062265E+02  0.74918682775E+02  0.27571935789E+03  0.28644330811E+03  0.00000000000E+00 0. -1.
<mgrwt>
<rscale>  0 0.14047481E+03</rscale>
<asrwt>0</asrwt>
<pdfrwt beam="1">  1        1 0.74048175E-01 0.14825789E+03</pdfrwt>
<pdfrwt beam="2">  1       -1 0.65882713E-02 0.14825789E+03</pdfrwt>
<totfact> 0.53265828E+03</totfact>
</mgrwt>
</event>
<event>
 6    1  0.5818426E-006  0.1551207E+03  0.7546771E-02  0.1202429E+00
          2   -1    0    0  501    0  0.00000000000E+00  0.00000000000E+00  0.22421617274E+03  0.22421617274E+03  0.00000000000E+00 0.  1.
         -2   -1    0    0    0  501 -0.00000000000E+00 -0.00000000000E+00 -0.99489294262E+02  0.99489294262E+02  0.00000000000E+00 0. -1.
          5    1    1    2  502    0  0.34548787950E+02 -0.93724772255E+02  0.33000400407E+02  0.10530464429E+03  0.47000000000E+01 0.  1.
         -5    1    1    2    0  502 -0.48813408611E+02  0.29804177114E+01 -0.13720664382E+02  0.51009591070E+02  0.47000000000E+01 0.  1.
        -11    1    1    2    0    0 -0.18252430677E+02  0.52859686129E+02  0.10324422635E+03  0.11741664242E+03  0.00000000000E+00 0.  1.
         11    1    1    2    0    0  0.32517051339E+02  0.37884668414E+02  0.22029161135E+01  0.49974589223E+02  0.00000000000E+00 0. -1.
<mgrwt>
<rscale>  0 0.14841934E+03</rscale>
<asrwt>0</asrwt>
<pdfrwt beam="1">  1        2 0.34494796E-01 0.15512070E+03</pdfrwt>
<pdfrwt beam="2">  1       -2 0.15306045E-01 0.15512070E+03</pdfrwt>
<totfact> 0.48009209E+03</totfact>
</mgrwt>
</event>
<event>
 6    1  0.5818426E-006  0.1262912E+03  0.7546771E-02  0.1246609E+00
         -3   -1    0    0    0  501 -0.00000000000E+00  0.00000000000E+00  0.49624629069E+02  0.49624629069E+02  0.00000000000E+00 0.  1.
          3   -1    0    0  501    0  0.00000000000E+00 -0.00000000000E+00 -0.24874402667E+03  0.24874402667E+03  0.00000000000E+00 0. -1.
          5    1    1    2  502    0  0.44218098843E+02 -0.33604657897E+02 -0.60805459695E+01  0.56067605059E+02  0.47000000000E+01 0.  1.
         -5    1    1    2    0  502 -0.29033934937E+02  0.24200059979E+02 -0.10654454013E+03  0.11314787366E+03  0.47000000000E+01 0.  1.
        -11    1    1    2    0    0 -0.31823403475E+02  0.11250154282E+02  0.67467338748E+01  0.34421118490E+02  0.00000000000E+00 0.  1.
         11    1    1    2    0    0  0.16639239569E+02 -0.18455563632E+01 -0.93241045370E+02  0.94732058530E+02  0.00000000000E+00 0. -1.
<mgrwt>
<rscale>  0 0.11789599E+03</rscale>
<asrwt>0</asrwt>
<pdfrwt beam="2">  1        3 0.38268312E-01 0.12629120E+03</pdfrwt>
<pdfrwt beam="1">  1       -3 0.76345584E-02 0.12629120E+03</pdfrwt>
<totfact> 0.17665773E+03</totfact>
</mgrwt>
</event>
<event>
 6    1  0.1035479E-005  0.1937639E+03  0.7546771E-02  0.1159630E+00
         -1   -1    0    0    0  501 -0.00000000000E+00  0.00000000000E+00  0.12790594246E+03  0.12790594246E+03  0.00000000000E+00 0.  1.
          1   -1    0    0  501    0  0.00000000000E+00 -0.00000000000E+00 -0.29804880100E+03  0.29804880100E+03  0.00000000000E+00 0. -1.
          5    1    1    2  502    0  0.85305065129E+02  0.39314009264E+02  0.18456763929E+02  0.95839906071E+02  0.47000000000E+01 0. -1.
         -5    1    1    2    0  502  0.59613888104E+02 -0.69612773477E+02 -0.36498142285E+02  0.98762129768E+02  0.47000000000E+01 0. -1.
        -11    1    1    2    0    0 -0.94744290126E+02 -0.69762194171E+01 -0.40155644455E+02  0.10313885752E+03  0.00000000000E+00 0.  1.
         11    1    1    2    0    0 -0.50174663107E+02  0.37274983631E+02 -0.11194583572E+03  0.12821385010E+03  0.00000000000E+00 0. -1.
<mgrwt>
<rscale>  0 0.18870988E+03</rscale>
<asrwt>0</asrwt>
<pdfrwt beam="2">  1        1 0.45853661E-01 0.19376393E+03</pdfrwt>
<pdfrwt beam="1">  1       -1 0.19677838E-01 0.19376393E+03</pdfrwt>
<totfact> 0.18120096E+03</totfact>
</mgrwt>
</event>
<event>
 6    1  0.5818426E-006  0.3757998E+03  0.7546771E-02  0.1052497E+00
         -2   -1    0    0    0  501 -0.00000000000E+00  0.00000000000E+00  0.92654287043E+02  0.92654287043E+02  0.00000000000E+00 0.  1.
          2   -1    0    0  501    0  0.00000000000E+00 -0.00000000000E+00 -0.38105494924E+03  0.38105494924E+03  0.00000000000E+00 0. -1.
          5    1    1    2  502    0  0.11404922479E+03  0.10914645044E+03 -0.57240658425E+02  0.16798439301E+03  0.47000000000E+01 0. -1.
         -5    1    1    2    0  502  0.41998597025E+01 -0.18101655326E+02 -0.51610000784E+02  0.55054436043E+02  0.47000000000E+01 0. -1.
        -11    1    1    2    0    0 -0.74568421376E+02 -0.68649978154E+01 -0.10997208405E+03  0.13304674717E+03  0.00000000000E+00 0. -1.
         11    1    1    2    0    0 -0.43680663113E+02 -0.84179797296E+02 -0.69577918930E+02  0.11762366006E+03  0.00000000000E+00 0.  1.
<mgrwt>
<rscale>  0 0.37579981E+03</rscale>
<asrwt>0</asrwt>
<pdfrwt beam="2">  1        2 0.58623838E-01 0.37579981E+03</pdfrwt>
<pdfrwt beam="1">  1       -2 0.14254506E-01 0.37579981E+03</pdfrwt>
<totfact> 0.31535976E+03</totfact>
</mgrwt>
</event>
<event>
 6    1  0.5818426E-006  0.1453545E+03  0.7546771E-02  0.1216401E+00
         -1   -1    0    0    0  501 -0.00000000000E+00  0.00000000000E+00  0.17552460252E+03  0.17552460252E+03  0.00000000000E+00 0.  1.
          1   -1    0    0  501    0  0.00000000000E+00 -0.00000000000E+00 -0.98372757824E+02  0.98372757824E+02  0.00000000000E+00 0. -1.
          5    1    1    2  502    0  0.70364285217E+02 -0.35931897860E+02  0.63400720855E+01  0.79401010270E+02  0.47000000000E+01 0.  1.
         -5    1    1    2    0  502 -0.31895990122E+00  0.60416224806E+02  0.42194783025E+02  0.73842478762E+02  0.47000000000E+01 0.  1.
        -11    1    1    2    0    0 -0.52319160226E+02 -0.35425785079E+02  0.57237645264E+02  0.85255080849E+02  0.00000000000E+00 0.  1.
         11    1    1    2    0    0 -0.17726165090E+02  0.10941458133E+02 -0.28620655677E+02  0.35398790463E+02  0.00000000000E+00 0. -1.
<mgrwt>
<rscale>  0 0.13774109E+03</rscale>
<asrwt>0</asrwt>
<pdfrwt beam="2">  1        1 0.15134270E-01 0.14535451E+03</pdfrwt>
<pdfrwt beam="1">  1       -1 0.27003785E-01 0.14535451E+03</pdfrwt>
<totfact> 0.43280093E+03</totfact>
</mgrwt>
</event>
<event>
 6    1  0.5818426E-006  0.1259661E+03  0.7546771E-02  0.1248896E+00
          1   -1    0    0  501    0  0.00000000000E+00  0.00000000000E+00  0.35614671839E+03  0.35614671839E+03  0.00000000000E+00 0. -1.
         -1   -1    0    0    0  501 -0.00000000000E+00 -0.00000000000E+00 -0.33533690114E+02  0.33533690114E+02  0.00000000000E+00 0.  1.
          5    1    1    2  502    0 -0.36737219799E+02 -0.79442919689E+01 -0.70521368402E+00  0.37885649259E+02  0.47000000000E+01 0. -1.
         -5    1    1    2    0  502  0.24543271433E+02 -0.17222585376E+01  0.17713613165E+03  0.17889839989E+03  0.47000000000E+01 0. -1.
        -11    1    1    2    0    0  0.22649790356E+02  0.14599883510E+02  0.15564230534E+03  0.15795789570E+03  0.00000000000E+00 0. -1.
         11    1    1    2    0    0 -0.10455841990E+02 -0.49333330036E+01 -0.94601950338E+01  0.14938463653E+02  0.00000000000E+00 0.  1.
<mgrwt>
<rscale>  0 0.11655215E+03</rscale>
<asrwt>0</asrwt>
<pdfrwt beam="1">  1        1 0.54791800E-01 0.12596609E+03</pdfrwt>
<pdfrwt beam="2">  1       -1 0.51590295E-02 0.12596609E+03</pdfrwt>
<totfact> 0.11110808E+04</totfact>
</mgrwt>
</event>
<event>
 6    1  0.5818426E-006  0.1906463E+03  0.7546771E-02  0.1162707E+00
         -1   -1    0    0    0  501 -0.00000000000E+00  0.00000000000E+00  0.32789572296E+03  0.32789572296E+03  0.00000000000E+00 0.  1.
          1   -1    0    0  501    0  0.00000000000E+00 -0.00000000000E+00 -0.13191062857E+03  0.13191062857E+03  0.00000000000E+00 0. -1.
          5    1    1    2  502    0  0.81774067383E+02 -0.10574059560E+02  0.24233127336E+02  0.86070571582E+02  0.47000000000E+01 0.  1.
         -5    1    1    2    0  502  0.57086799143E+02 -0.27337281157E+02  0.19193202130E+03  0.20215395217E+03  0.47000000000E+01 0.  1.
        -11    1    1    2    0    0 -0.99466429287E+02  0.55497326771E+02  0.16328450715E+02  0.11506581654E+03  0.00000000000E+00 0.  1.
         11    1    1    2    0    0 -0.39394437239E+02 -0.17585986054E+02 -0.36508504963E+02  0.56516011231E+02  0.00000000000E+00 0. -1.
<mgrwt>
<rscale>  0 0.18536721E+03</rscale>
<asrwt>0</asrwt>
<pdfrwt beam="2">  1        1 0.20293943E-01 0.19064628E+03</pdfrwt>
<pdfrwt beam="1">  1       -1 0.50445496E-01 0.19064628E+03</pdfrwt>
<totfact> 0.10076649E+03</totfact>
</mgrwt>
</event>
<event>
 6    1  0.5818426E-006  0.1317500E+03  0.7546771E-02  0.1241980E+00
          1   -1    0    0  501    0  0.00000000000E+00  0.00000000000E+00  0.21915092957E+03  0.21915092957E+03  0.00000000000E+00 0. -1.
         -1   -1    0    0    0  501 -0.00000000000E+00 -0.00000000000E+00 -0.68157651911E+02  0.68157651911E+02  0.00000000000E+00 0.  1.
          5    1    1    2  502    0  0.27683903980E+02  0.36046431962E+02  0.63245331717E+02  0.78024392216E+02  0.47000000000E+01 0. -1.
         -5    1    1    2    0  502 -0.22001834222E+02 -0.41122159438E+02 -0.32783846361E+02  0.57201252506E+02  0.47000000000E+01 0.  1.
        -11    1    1    2    0    0  0.49994575049E+01  0.40996087916E+02  0.10247559449E+03  0.11048493683E+03  0.00000000000E+00 0. -1.
         11    1    1    2    0    0 -0.10681527263E+02 -0.35920360439E+02  0.18056197811E+02  0.41597999930E+02  0.00000000000E+00 0.  1.
<mgrwt>
<rscale>  0 0.12067953E+03</rscale>
<asrwt>0</asrwt>
<pdfrwt beam="1">  1        1 0.33715527E-01 0.13175004E+03</pdfrwt>
<pdfrwt beam="2">  1       -1 0.10485793E-01 0.13175004E+03</pdfrwt>
<totfact> 0.70064327E+03</totfact>
</mgrwt>
</event>
<event>
 6    1  0.5818426E-006  0.3854427E+03  0.7546771E-02  0.1048940E+00
          2   -1    0    0  501    0  0.00000000000E+00  0.00000000000E+00  0.57146899876E+02  0.57146899876E+02  0.00000000000E+00 0. -1.
         -2   -1    0    0    0  501 -0.00000000000E+00 -0.00000000000E+00 -0.64993049429E+03  0.64993049429E+03  0.00000000000E+00 0.  1.
          5    1    1    2  502    0 -0.71817425493E+01 -0.10955656134E+02 -0.18890022936E+03  0.18941222368E+03  0.47000000000E+01 0. -1.
         -5    1    1    2    0  502  0.29681986679E+01 -0.14454180962E+03 -0.18957304416E+03  0.23845581143E+03  0.47000000000E+01 0. -1.
        -11    1    1    2    0    0 -0.18819988121E+02  0.10698224715E+03 -0.19292381478E+03  0.22140232941E+03  0.00000000000E+00 0.  1.
         11    1    1    2    0    0  0.23033532003E+02  0.48515218609E+02 -0.21386506118E+02  0.57807029651E+02  0.00000000000E+00 0. -1.
<mgrwt>
<rscale>  0 0.38544267E+03</rscale>
<asrwt>0</asrwt>
<pdfrwt beam="1">  1        2 0.87918309E-02 0.38544267E+03</pdfrwt>
<pdfrwt beam="2">  1       -2 0.99989305E-01 0.38544267E+03</pdfrwt>
<totfact> 0.65060201E+02</totfact>
</mgrwt>
</event>
<event>
 6    1  0.5818426E-006  0.1291254E+03  0.7546771E-02  0.1243445E+00
         -2   -1    0    0    0  501 -0.00000000000E+00  0.00000000000E+00  0.58125427735E+02  0.58125427735E+02  0.00000000000E+00 0.  1.
          2   -1    0    0  501    0  0.00000000000E+00 -0.00000000000E+00 -0.31454831335E+03  0.31454831335E+03  0.00000000000E+00 0. -1.
          5    1    1    2  502    0  0.37645944106E+01 -0.47972764630E+02 -0.18207739182E+02  0.51664011492E+02  0.47000000000E+01 0.  1.
         -5    1    1    2    0  502 -0.86153330528E+01  0.79966219865E+02 -0.20379684446E+02  0.83103801485E+02  0.47000000000E+01 0.  1.
        -11    1    1    2    0    0 -0.23693694539E+02  0.23314167290E+02 -0.69398683709E+02  0.76948806734E+02  0.00000000000E+00 0. -1.
         11    1    1    2    0    0  0.28544433181E+02 -0.55307622525E+02 -0.14843677828E+03  0.16095712137E+03  0.00000000000E+00 0.  1.
<mgrwt>
<rscale>  0 0.11978938E+03</rscale>
<asrwt>0</asrwt>
<pdfrwt beam="2">  1        2 0.48392046E-01 0.12912542E+03</pdfrwt>
<pdfrwt beam="1">  1       -2 0.89423739E-02 0.12912542E+03</pdfrwt>
<totfact> 0.78043779E+03</totfact>
</mgrwt>
</event>
<event>
 6    1  0.5818426E-006  0.1321277E+03  0.7546771E-02  0.1237317E+00
          2   -1    0    0  501    0  0.00000000000E+00  0.00000000000E+00  0.31156137760E+03  0.31156137760E+03  0.00000000000E+00 0. -1.
         -2   -1    0    0    0  501 -0.00000000000E+00 -0.00000000000E+00 -0.47793779269E+02  0.47793779269E+02  0.00000000000E+00 0.  1.
          5    1    1    2  502    0  0.23552737778E+02 -0.72820507934E+01  0.92086321650E+02  0.95444959823E+02  0.47000000000E+01 0. -1.
         -5    1    1    2    0  502 -0.65909296785E+02  0.13484998469E+02  0.33062422693E+01  0.67519640286E+02  0.47000000000E+01 0. -1.
        -11    1    1    2    0    0  0.50235401210E+02  0.31634705342E+02  0.12443752987E+03  0.13787330763E+03  0.00000000000E+00 0.  1.
         11    1    1    2    0    0 -0.78788422039E+01 -0.37837653018E+02  0.43937504544E+02  0.58517249132E+02  0.00000000000E+00 0. -1.
<mgrwt>
<rscale>  0 0.12357252E+03</rscale>
<asrwt>0</asrwt>
<pdfrwt beam="1">  1        2 0.47932518E-01 0.13212766E+03</pdfrwt>
<pdfrwt beam="2">  1       -2 0.73528893E-02 0.13212766E+03</pdfrwt>
<totfact> 0.10683954E+04</totfact>
</mgrwt>
</event>
<event>
 6    1  0.5818426E-006  0.1437533E+03  0.7546771E-02  0.1218704E+00
          1   -1    0    0  501    0  0.00000000000E+00  0.00000000000E+00  0.24425497473E+02  0.24425497473E+02  0.00000000000E+00 0. -1.
         -1   -1    0    0    0  501 -0.00000000000E+00 -0.00000000000E+00 -0.84926120119E+03  0.84926120119E+03  0.00000000000E+00 0.  1.
          5    1    1    2  502    0  0.70056566298E+02 -0.58260203369E+00 -0.28215792163E+03  0.29076355454E+03  0.47000000000E+01 0.  1.
         -5    1    1    2    0  502 -0.36304713094E+02  0.63018397122E+02 -0.35644430704E+03  0.36381861496E+03  0.47000000000E+01 0.  1.
        -11    1    1    2    0    0  0.31172869973E+02 -0.26650924474E+02 -0.73810448973E+02  0.84439339027E+02  0.00000000000E+00 0.  1.
         11    1    1    2    0    0 -0.64924723177E+02 -0.35784870614E+02 -0.11242302607E+03  0.13466519014E+03  0.00000000000E+00 0. -1.
<mgrwt>
<rscale>  0 0.13607935E+03</rscale>
<asrwt>0</asrwt>
<pdfrwt beam="1">  1        1 0.37577692E-02 0.14375330E+03</pdfrwt>
<pdfrwt beam="2">  1       -1 0.13065556E+00 0.14375330E+03</pdfrwt>
<totfact> 0.13076881E+03</totfact>
</mgrwt>
</event>
<event>
 6    1  0.5818426E-006  0.2689720E+03  0.7546771E-02  0.1104108E+00
         -2   -1    0    0    0  501 -0.00000000000E+00  0.00000000000E+00  0.33132553867E+03  0.33132553867E+03  0.00000000000E+00 0.  1.
          2   -1    0    0  501    0  0.00000000000E+00 -0.00000000000E+00 -0.26174504233E+03  0.26174504233E+03  0.00000000000E+00 0. -1.
          5    1    1    2  502    0 -0.11323477941E+03 -0.86690154354E+02  0.16754031749E+03  0.22006623120E+03  0.47000000000E+01 0. -1.
         -5    1    1    2    0  502 -0.53700001936E+02 -0.83185021088E+02  0.45116475379E+01  0.99226422413E+02  0.47000000000E+01 0. -1.
        -11    1    1    2    0    0  0.14241710553E+03  0.86765372943E+02 -0.75200361123E+02  0.18293702797E+03  0.00000000000E+00 0.  1.
         11    1    1    2    0    0  0.24517675824E+02  0.83109802499E+02 -0.27271107567E+02  0.90840899418E+02  0.00000000000E+00 0. -1.
<mgrwt>
<rscale>  0 0.26511632E+03</rscale>
<asrwt>0</asrwt>
<pdfrwt beam="2">  1        2 0.40268468E-01 0.26897197E+03</pdfrwt>
<pdfrwt beam="1">  1       -2 0.50973160E-01 0.26897197E+03</pdfrwt>
<totfact> 0.47070200E+02</totfact>
</mgrwt>
</event>
<event>
 6    1  0.5818426E-006  0.1364826E+03  0.7546771E-02  0.1238236E+00
         -3   -1    0    0    0  501 -0.00000000000E+00  0.00000000000E+00  0.77562922199E+03  0.77562922199E+03  0.00000000000E+00 0.  1.
          3   -1    0    0  501    0  0.00000000000E+00 -0.00000000000E+00 -0.16629404761E+02  0.16629404761E+02  0.00000000000E+00 0. -1.
          5    1    1    2  502    0 -0.58762526386E+02  0.58751744490E+02  0.44890865291E+03  0.45655872639E+03  0.47000000000E+01 0. -1.
         -5    1    1    2    0  502  0.13987651168E+02 -0.27106778581E+02  0.37146188994E+02  0.48294525435E+02  0.47000000000E+01 0. -1.
        -11    1    1    2    0    0  0.45315960413E+02  0.11555838117E+02  0.14644503205E+03  0.15373100233E+03  0.00000000000E+00 0.  1.
         11    1    1    2    0    0 -0.54108519511E+00 -0.43200804027E+02  0.12649994327E+03  0.13367437259E+03  0.00000000000E+00 0. -1.
<mgrwt>
<rscale>  0 0.12299513E+03</rscale>
<asrwt>0</asrwt>
<pdfrwt beam="2">  1        3 0.25583706E-02 0.13648259E+03</pdfrwt>
<pdfrwt beam="1">  1       -3 0.11932754E+00 0.13648259E+03</pdfrwt>
<totfact> 0.90476111E+02</totfact>
</mgrwt>
</event>
<event>
 6    1  0.5818426E-006  0.1258015E+03  0.7546771E-02  0.1246046E+00
         -2   -1    0    0    0  501 -0.00000000000E+00  0.00000000000E+00  0.28860145617E+03  0.28860145617E+03  0.00000000000E+00 0.  1.
          2   -1    0    0  501    0  0.00000000000E+00 -0.00000000000E+00 -0.46606852451E+02  0.46606852451E+02  0.00000000000E+00 0. -1.
          5    1    1    2  502    0  0.25731297854E+02 -0.77569526658E+01  0.18829791057E+03  0.19026419297E+03  0.47000000000E+01 0. -1.
         -5    1    1    2    0  502 -0.17162355948E+02  0.19069729042E+02 -0.10011418939E+02  0.27937779737E+02  0.47000000000E+01 0. -1.
        -11    1    1    2    0    0 -0.30177000371E+02 -0.24989985102E+02  0.78305241235E+02  0.87560616214E+02  0.00000000000E+00 0.  1.
         11    1    1    2    0    0  0.21608058466E+02  0.13677208726E+02 -0.14597129145E+02  0.29445719697E+02  0.00000000000E+00 0. -1.
<mgrwt>
<rscale>  0 0.11823000E+03</rscale>
<asrwt>0</asrwt>
<pdfrwt beam="2">  1        2 0.71702852E-02 0.12580154E+03</pdfrwt>
<pdfrwt beam="1">  1       -2 0.44400223E-01 0.12580154E+03</pdfrwt>
<totfact> 0.45050786E+03</totfact>
</mgrwt>
</event>
<event>
 6    1  0.5818426E-006  0.1484535E+03  0.7546771E-02  0.1212140E+00
         -1   -1    0    0    0  501 -0.00000000000E+00  0.00000000000E+00  0.13001117647E+03  0.13001117647E+03  0.00000000000E+00 0.  1.
          1   -1    0    0  501    0  0.00000000000E+00 -0.00000000000E+00 -0.13955812600E+03  0.13955812600E+03  0.00000000000E+00 0. -1.
          5    1    1    2  502    0  0.56584506826E+02 -0.76022765348E+02 -0.34047614747E+02  0.10080970853E+03  0.47000000000E+01 0.  1.
         -5    1    1    2    0  502 -0.29551860955E+02  0.63921352593E+00  0.37109641199E+02  0.47675324328E+02  0.47000000000E+01 0.  1.
        -11    1    1    2    0    0  0.19089472001E+02  0.11682067501E+02  0.25300608390E+02  0.33778683031E+02  0.00000000000E+00 0.  1.
         11    1    1    2    0    0 -0.46122117872E+02  0.63701484321E+02 -0.37909584369E+02  0.87305586584E+02  0.00000000000E+00 0. -1.
<mgrwt>
<rscale>  0 0.14088760E+03</rscale>
<asrwt>0</asrwt>
<pdfrwt beam="2">  1        1 0.21470481E-01 0.14845346E+03</pdfrwt>
<pdfrwt beam="1">  1       -1 0.20001719E-01 0.14845346E+03</pdfrwt>
<totfact> 0.45184220E+03</totfact>
</mgrwt>
</event>
<event>
 6    1  0.5818426E-006  0.1198277E+03  0.7546771E-02  0.1256235E+00
          2   -1    0    0  501    0  0.00000000000E+00  0.00000000000E+00  0.15499789453E+03  0.15499789453E+03  0.00000000000E+00 0. -1.
         -2   -1    0    0    0  501 -0.00000000000E+00 -0.00000000000E+00 -0.73579140312E+02  0.73579140312E+02  0.00000000000E+00 0.  1.
          5    1    1    2  502    0 -0.29367085793E+01 -0.48350852757E+01  0.79086805728E+02  0.79428050128E+02  0.47000000000E+01 0. -1.
         -5    1    1    2    0  502 -0.42513950697E+01 -0.46250890181E+01 -0.44583194663E+02  0.45268278682E+02  0.47000000000E+01 0.  1.
        -11    1    1    2    0    0 -0.40911593069E+02  0.15140262292E+02  0.16229629251E+02  0.46544461060E+02  0.00000000000E+00 0. -1.
         11    1    1    2    0    0  0.48099696718E+02 -0.56800879981E+01  0.30685513901E+02  0.57336244971E+02  0.00000000000E+00 0.  1.
<mgrwt>
<rscale>  0 0.11237459E+03</rscale>
<asrwt>0</asrwt>
<pdfrwt beam="1">  1        2 0.23845830E-01 0.11982769E+03</pdfrwt>
<pdfrwt beam="2">  1       -2 0.11319868E-01 0.11982769E+03</pdfrwt>
<totfact> 0.11458354E+04</totfact>
</mgrwt>
</event>
<event>
 6    1  0.5818426E-006  0.1294623E+03  0.7546771E-02  0.1242246E+00
          1   -1    0    0  501    0  0.00000000000E+00  0.00000000000E+00  0.36373433161E+02  0.36373433161E+02  0.00000000000E+00 0. -1.
         -1   -1    0    0    0  501 -0.00000000000E+00 -0.00000000000E+00 -0.37490230037E+03  0.37490230037E+03  0.00000000000E+00 0.  1.
          5    1    1    2  502    0  0.60244041774E+02 -0.26527356944E+02 -0.14238873857E+03  0.15693848510E+03  0.47000000000E+01 0.  1.
         -5    1    1    2    0  502 -0.36364234226E+02  0.50342800376E+02 -0.98576457675E+02  0.11660258611E+03  0.47000000000E+01 0.  1.
        -11    1    1    2    0    0 -0.29721722091E+02  0.15325228642E+02 -0.91852656029E+02  0.97750467092E+02  0.00000000000E+00 0.  1.
         11    1    1    2    0    0  0.58419145432E+01 -0.39140672075E+02 -0.57110149380E+01  0.39984195223E+02  0.00000000000E+00 0. -1.
<mgrwt>
<rscale>  0 0.12051718E+03</rscale>
<asrwt>0</asrwt>
<pdfrwt beam="1">  1        1 0.55959128E-02 0.12946232E+03</pdfrwt>
<pdfrwt beam="2">  1       -1 0.57677277E-01 0.12946232E+03</pdfrwt>
<totfact> 0.42595774E+03</totfact>
</mgrwt>
</event>
<event>
 6    1  0.5818426E-006  0.6505043E+03  0.7546771E-02  0.1037131E+00
          1   -1    0    0  501    0  0.00000000000E+00  0.00000000000E+00  0.40075035937E+03  0.40075035937E+03  0.00000000000E+00 0. -1.
         -1   -1    0    0    0  501 -0.00000000000E+00 -0.00000000000E+00 -0.49206018332E+03  0.49206018332E+03  0.00000000000E+00 0.  1.
          5    1    1    2  502    0  0.31181186087E+03 -0.70302486872E+02  0.18100963985E+02  0.32018558859E+03  0.47000000000E+01 0. -1.
         -5    1    1    2    0  502 -0.24837306571E+03  0.89685263541E+02 -0.26912762135E+03  0.37707345815E+03  0.47000000000E+01 0.  1.
        -11    1    1    2    0    0 -0.73150390385E+02 -0.44477165404E+02  0.11507993645E+03  0.14343148061E+03  0.00000000000E+00 0.  1.
         11    1    1    2    0    0  0.97115952235E+01  0.25094388735E+02  0.44636896965E+02  0.52120015334E+02  0.00000000000E+00 0. -1.
<mgrwt>
<rscale>  0 0.41980256E+03</rscale>
<asrwt>0</asrwt>
<pdfrwt beam="1">  1        1 0.61653901E-01 0.65050426E+03</pdfrwt>
<pdfrwt beam="2">  1       -1 0.75701567E-01 0.65050426E+03</pdfrwt>
<totfact> 0.10742525E+02</totfact>
</mgrwt>
</event>
<event>
 6    1  0.5818426E-006  0.1346847E+03  0.7546771E-02  0.1231239E+00
         -2   -1    0    0    0  501 -0.00000000000E+00  0.00000000000E+00  0.54987497674E+02  0.54987497674E+02  0.00000000000E+00 0.  1.
          2   -1    0    0  501    0  0.00000000000E+00 -0.00000000000E+00 -0.28409483400E+03  0.28409483400E+03  0.00000000000E+00 0. -1.
          5    1    1    2  502    0  0.38736137185E+02 -0.33137037339E+02  0.16721040926E+02  0.53853827880E+02  0.47000000000E+01 0.  1.
         -5    1    1    2    0  502  0.10336888480E+02  0.22795448854E+02 -0.10298737948E+03  0.10608946264E+03  0.47000000000E+01 0.  1.
        -11    1    1    2    0    0  0.28971556702E+02  0.65929852868E+01 -0.33949156507E+02  0.45115006154E+02  0.00000000000E+00 0. -1.
         11    1    1    2    0    0 -0.78044582368E+02  0.37486031985E+01 -0.10889184127E+03  0.13402403500E+03  0.00000000000E+00 0.  1.
<mgrwt>
<rscale>  0 0.12748315E+03</rscale>
<asrwt>0</asrwt>
<pdfrwt beam="2">  1        2 0.43706898E-01 0.13468472E+03</pdfrwt>
<pdfrwt beam="1">  1       -2 0.84596150E-02 0.13468472E+03</pdfrwt>
<totfact> 0.95035194E+03</totfact>
</mgrwt>
</event>
<event>
 6    1  0.5818426E-006  0.1376621E+03  0.7546771E-02  0.1246164E+00
          1   -1    0    0  501    0  0.00000000000E+00  0.00000000000E+00  0.25103317214E+03  0.25103317214E+03  0.00000000000E+00 0. -1.
         -1   -1    0    0    0  501 -0.00000000000E+00 -0.00000000000E+00 -0.47533812903E+02  0.47533812903E+02  0.00000000000E+00 0.  1.
          5    1    1    2  502    0 -0.42894552389E+02  0.21547720966E+02  0.12132940142E+03  0.13056477531E+03  0.47000000000E+01 0. -1.
         -5    1    1    2    0  502  0.10469491729E+02  0.26135661479E+02 -0.24601121121E+02  0.37682731037E+02  0.47000000000E+01 0. -1.
        -11    1    1    2    0    0  0.29690983953E+02 -0.29343189433E+01  0.40296414254E+02  0.50139463075E+02  0.00000000000E+00 0. -1.
         11    1    1    2    0    0  0.27340767066E+01 -0.44749063503E+02  0.66474664685E+02  0.80180015620E+02  0.00000000000E+00 0.  1.
<mgrwt>
<rscale>  0 0.11815996E+03</rscale>
<asrwt>0</asrwt>
<pdfrwt beam="1">  1        1 0.38620488E-01 0.13766213E+03</pdfrwt>
<pdfrwt beam="2">  1       -1 0.73128944E-02 0.13766213E+03</pdfrwt>
<totfact> 0.10257419E+04</totfact>
</mgrwt>
</event>
<event>
 6    1  0.5818426E-006  0.3081419E+03  0.7546771E-02  0.1172301E+00
          2   -1    0    0  501    0  0.00000000000E+00  0.00000000000E+00  0.18088820372E+03  0.18088820372E+03  0.00000000000E+00 0. -1.
         -2   -1    0    0    0  501 -0.00000000000E+00 -0.00000000000E+00 -0.16117905149E+03  0.16117905149E+03  0.00000000000E+00 0.  1.
          5    1    1    2  502    0 -0.30936877780E+02 -0.79418729082E+02  0.12984026500E+03  0.15538664470E+03  0.47000000000E+01 0. -1.
         -5    1    1    2    0  502  0.53547934569E+02  0.78515156697E+02 -0.11971188017E+03  0.15292166420E+03  0.47000000000E+01 0.  1.
        -11    1    1    2    0    0 -0.16677401699E+02  0.10458874298E+02  0.10785896692E+02  0.22446811499E+02  0.00000000000E+00 0.  1.
         11    1    1    2    0    0 -0.59336550904E+01 -0.95553019128E+01 -0.12051292880E+01  0.11312134811E+02  0.00000000000E+00 0. -1.
<mgrwt>
<rscale>  0 0.17542915E+03</rscale>
<asrwt>0</asrwt>
<pdfrwt beam="1">  1        2 0.27828955E-01 0.30814190E+03</pdfrwt>
<pdfrwt beam="2">  1       -2 0.24796777E-01 0.30814190E+03</pdfrwt>
<totfact> 0.27502585E+03</totfact>
</mgrwt>
</event>
<event>
 6    1  0.5818426E-006  0.2863911E+03  0.7546771E-02  0.1092249E+00
          1   -1    0    0  501    0  0.00000000000E+00  0.00000000000E+00  0.24988150608E+03  0.24988150608E+03  0.00000000000E+00 0. -1.
         -1   -1    0    0    0  501 -0.00000000000E+00 -0.00000000000E+00 -0.82058774366E+02  0.82058774366E+02  0.00000000000E+00 0.  1.
          5    1    1    2  502    0 -0.20503905933E+02 -0.20855268947E+01  0.37653410105E+02  0.43181348676E+02  0.47000000000E+01 0. -1.
         -5    1    1    2    0  502  0.60782653204E+02 -0.60692974158E+02 -0.27225821888E+02  0.90230279951E+02  0.47000000000E+01 0.  1.
        -11    1    1    2    0    0 -0.42475166778E+02  0.33947684569E+02  0.19704305949E+02  0.57834632819E+02  0.00000000000E+00 0.  1.
         11    1    1    2    0    0  0.21964195078E+01  0.28830816484E+02  0.13769083755E+03  0.14069401900E+03  0.00000000000E+00 0. -1.
<mgrwt>
<rscale>  0 0.28639113E+03</rscale>
<asrwt>0</asrwt>
<pdfrwt beam="1">  1        1 0.38443308E-01 0.28639113E+03</pdfrwt>
<pdfrwt beam="2">  1       -1 0.12624427E-01 0.28639113E+03</pdfrwt>
<totfact> 0.46511648E+03</totfact>
</mgrwt>
</event>
<event>
 6    1  0.5818426E-006  0.1328521E+03  0.7546771E-02  0.1236708E+00
          1   -1    0    0  501    0  0.00000000000E+00  0.00000000000E+00  0.28006641679E+03  0.28006641679E+03  0.00000000000E+00 0. -1.
         -1   -1    0    0    0  501 -0.00000000000E+00 -0.00000000000E+00 -0.48703513207E+02  0.48703513207E+02  0.00000000000E+00 0.  1.
          5    1    1    2  502    0  0.41632210433E+02  0.17401346059E+02  0.10947380754E+02  0.46668864734E+02  0.47000000000E+01 0. -1.
         -5    1    1    2    0  502 -0.37157140409E+02 -0.62179741282E+02  0.11756809303E+03  0.13817134221E+03  0.47000000000E+01 0. -1.
        -11    1    1    2    0    0  0.39864527338E+02  0.39009754483E+02  0.61561758705E+02  0.83071003483E+02  0.00000000000E+00 0.  1.
         11    1    1    2    0    0 -0.44339597362E+02  0.57686407398E+01  0.41285671094E+02  0.60858719571E+02  0.00000000000E+00 0. -1.
<mgrwt>
<rscale>  0 0.12395705E+03</rscale>
<asrwt>0</asrwt>
<pdfrwt beam="1">  1        1 0.43087140E-01 0.13285208E+03</pdfrwt>
<pdfrwt beam="2">  1       -1 0.74928484E-02 0.13285208E+03</pdfrwt>
<totfact> 0.86162285E+03</totfact>
</mgrwt>
</event>
<event>
 6    1  0.5818426E-006  0.2492317E+03  0.7546771E-02  0.1113791E+00
         -1   -1    0    0    0  501 -0.00000000000E+00  0.00000000000E+00  0.13818353773E+03  0.13818353773E+03  0.00000000000E+00 0.  1.
          1   -1    0    0  501    0  0.00000000000E+00 -0.00000000000E+00 -0.11238029057E+03  0.11238029057E+03  0.00000000000E+00 0. -1.
          5    1    1    2  502    0  0.15208426774E+02 -0.51809728232E+01 -0.31828968841E+02  0.35962647036E+02  0.47000000000E+01 0.  1.
         -5    1    1    2    0  502 -0.47001060128E+02  0.30182541327E+02  0.93868306138E+02  0.10933176277E+03  0.47000000000E+01 0.  1.
        -11    1    1    2    0    0 -0.24409830140E+01 -0.51364340935E+02 -0.34698172619E+02  0.62033999556E+02  0.00000000000E+00 0. -1.
         11    1    1    2    0    0  0.34233616368E+02  0.26362772431E+02 -0.15379175197E+01  0.43235418932E+02  0.00000000000E+00 0.  1.
<mgrwt>
<rscale>  0 0.24923167E+03</rscale>
<asrwt>0</asrwt>
<pdfrwt beam="2">  1        1 0.17289275E-01 0.24923167E+03</pdfrwt>
<pdfrwt beam="1">  1       -1 0.21259006E-01 0.24923167E+03</pdfrwt>
<totfact> 0.55636713E+03</totfact>
</mgrwt>
</event>
<event>
 6    1  0.5818426E-006  0.1806926E+03  0.7546771E-02  0.1172835E+00
          3   -1    0    0  501    0  0.00000000000E+00  0.00000000000E+00  0.48653602162E+03  0.48653602162E+03  0.00000000000E+00 0. -1.
         -3   -1    0    0    0  501 -0.00000000000E+00 -0.00000000000E+00 -0.69365593244E+02  0.69365593244E+02  0.00000000000E+00 0.  1.
          5    1    1    2  502    0  0.13953045705E+03 -0.12163469448E+02  0.10418264606E+03  0.17462191206E+03  0.47000000000E+01 0. -1.
         -5    1    1    2    0  502 -0.17184692151E+02 -0.33210604381E+02  0.95300509396E+01  0.38873766972E+02  0.47000000000E+01 0. -1.
        -11    1    1    2    0    0 -0.16903595529E+02 -0.16725333575E+02  0.12725816038E+02  0.26970626964E+02  0.00000000000E+00 0.  1.
         11    1    1    2    0    0 -0.10544216937E+03  0.62099407404E+02  0.29073191534E+03  0.31543530887E+03  0.00000000000E+00 0. -1.
<mgrwt>
<rscale>  0 0.17489761E+03</rscale>
<asrwt>0</asrwt>
<pdfrwt beam="1">  1        3 0.74851694E-01 0.18069263E+03</pdfrwt>
<pdfrwt beam="2">  1       -3 0.10671630E-01 0.18069263E+03</pdfrwt>
<totfact> 0.27565233E+02</totfact>
</mgrwt>
</event>
<event>
 6    1  0.5818426E-006  0.1418885E+03  0.7546771E-02  0.1221149E+00
         -1   -1    0    0    0  501 -0.00000000000E+00  0.00000000000E+00  0.64644764095E+03  0.64644764095E+03  0.00000000000E+00 0.  1.
          1   -1    0    0  501    0  0.00000000000E+00 -0.00000000000E+00 -0.28782137598E+02  0.28782137598E+02  0.00000000000E+00 0. -1.
          5    1    1    2  502    0 -0.74832970356E+02 -0.76801901851E+01  0.22179140778E+03  0.23424875098E+03  0.47000000000E+01 0. -1.
         -5    1    1    2    0  502  0.30665603467E+02  0.58235219998E+02  0.23294852515E+03  0.24211324923E+03  0.47000000000E+01 0. -1.
        -11    1    1    2    0    0 -0.72688472212E+01 -0.61096568520E+02  0.87538470226E+02  0.10699818033E+03  0.00000000000E+00 0. -1.
         11    1    1    2    0    0  0.51436214111E+02  0.10541538707E+02  0.75387100199E+02  0.91869598001E+02  0.00000000000E+00 0.  1.
<mgrwt>
<rscale>  0 0.13434410E+03</rscale>
<asrwt>0</asrwt>
<pdfrwt beam="2">  1        1 0.44280217E-02 0.14188851E+03</pdfrwt>
<pdfrwt beam="1">  1       -1 0.99453472E-01 0.14188851E+03</pdfrwt>
<totfact> 0.19586144E+03</totfact>
</mgrwt>
</event>
<event>
 6    1  0.5818426E-006  0.1413852E+03  0.7546771E-02  0.1218215E+00
         -1   -1    0    0    0  501 -0.00000000000E+00  0.00000000000E+00  0.10807869620E+03  0.10807869620E+03  0.00000000000E+00 0.  1.
          1   -1    0    0  501    0  0.00000000000E+00 -0.00000000000E+00 -0.16190352623E+03  0.16190352623E+03  0.00000000000E+00 0. -1.
          5    1    1    2  502    0 -0.75341356868E+02  0.53256751516E+02  0.68226435911E+01  0.92634983145E+02  0.47000000000E+01 0.  1.
         -5    1    1    2    0  502  0.10442004260E+02 -0.40901859234E+02 -0.26626672236E+02  0.50130501854E+02  0.47000000000E+01 0.  1.
        -11    1    1    2    0    0 -0.53601638149E+01 -0.23888472108E+02 -0.48710760497E+02  0.54517232542E+02  0.00000000000E+00 0. -1.
         11    1    1    2    0    0  0.70259516424E+02  0.11533579827E+02  0.14689959117E+02  0.72699504885E+02  0.00000000000E+00 0.  1.
<mgrwt>
<rscale>  0 0.13643033E+03</rscale>
<asrwt>0</asrwt>
<pdfrwt beam="2">  1        1 0.24908235E-01 0.14138523E+03</pdfrwt>
<pdfrwt beam="1">  1       -1 0.16627492E-01 0.14138523E+03</pdfrwt>
<totfact> 0.50148348E+03</totfact>
</mgrwt>
</event>
<event>
 6    1  0.5818426E-006  0.1366952E+03  0.7546771E-02  0.1228999E+00
          2   -1    0    0  501    0  0.00000000000E+00  0.00000000000E+00  0.68433837125E+03  0.68433837125E+03  0.00000000000E+00 0. -1.
         -2   -1    0    0    0  501 -0.00000000000E+00 -0.00000000000E+00 -0.22907639674E+02  0.22907639674E+02  0.00000000000E+00 0.  1.
          5    1    1    2  502    0  0.54637168764E+02  0.53879340514E+02  0.23750024765E+03  0.24963305306E+03  0.47000000000E+01 0. -1.
         -5    1    1    2    0  502  0.44255774500E+00 -0.48635960541E+02  0.57224410003E+02  0.75248758231E+02  0.47000000000E+01 0. -1.
        -11    1    1    2    0    0 -0.67663966835E+02  0.26047220820E+02  0.21301469341E+03  0.22501584329E+03  0.00000000000E+00 0.  1.
         11    1    1    2    0    0  0.12584240326E+02 -0.31290600792E+02  0.15369138051E+03  0.15734835635E+03  0.00000000000E+00 0. -1.
<mgrwt>
<rscale>  0 0.12896523E+03</rscale>
<asrwt>0</asrwt>
<pdfrwt beam="1">  1        2 0.10528281E+00 0.13669516E+03</pdfrwt>
<pdfrwt beam="2">  1       -2 0.35242528E-02 0.13669516E+03</pdfrwt>
<totfact> 0.13662961E+04</totfact>
</mgrwt>
</event>
<event>
 6    1  0.5818426E-006  0.1292475E+03  0.7546771E-02  0.1243531E+00
         -4   -1    0    0    0  501 -0.00000000000E+00  0.00000000000E+00  0.81689855365E+02  0.81689855365E+02  0.00000000000E+00 0.  1.
          4   -1    0    0  501    0  0.00000000000E+00 -0.00000000000E+00 -0.15717319537E+03  0.15717319537E+03  0.00000000000E+00 0. -1.
          5    1    1    2  502    0 -0.36971546923E+02 -0.36402283938E+02  0.10163298069E+02  0.53079225554E+02  0.47000000000E+01 0. -1.
         -5    1    1    2    0  502  0.22312565738E+02  0.65813232770E+02 -0.37210591090E+02  0.78968033322E+02  0.47000000000E+01 0. -1.
        -11    1    1    2    0    0  0.31932306025E+02  0.18477394401E+02 -0.50839927821E+00  0.36896405540E+02  0.00000000000E+00 0.  1.
         11    1    1    2    0    0 -0.17273324841E+02 -0.47888343233E+02 -0.47927647707E+02  0.69919386320E+02  0.00000000000E+00 0. -1.
<mgrwt>
<rscale>  0 0.11973718E+03</rscale>
<asrwt>0</asrwt>
<pdfrwt beam="2">  1        4 0.24180491E-01 0.12924752E+03</pdfrwt>
<pdfrwt beam="1">  1       -4 0.12567670E-01 0.12924752E+03</pdfrwt>
<totfact> 0.13329690E+03</totfact>
</mgrwt>
</event>
<event>
 6    1  0.5818426E-006  0.1386084E+03  0.7546771E-02  0.1223479E+00
          4   -1    0    0  501    0  0.00000000000E+00  0.00000000000E+00  0.10223372808E+03  0.10223372808E+03  0.00000000000E+00 0.  1.
         -4   -1    0    0    0  501 -0.00000000000E+00 -0.00000000000E+00 -0.16814471859E+03  0.16814471859E+03  0.00000000000E+00 0. -1.
          5    1    1    2  502    0 -0.69219764848E+02 -0.31986731391E+02 -0.81444647239E+02  0.11166847091E+03  0.47000000000E+01 0.  1.
         -5    1    1    2    0  502  0.35104827881E+02 -0.17681592194E+02  0.14629911339E+02  0.42203222020E+02  0.47000000000E+01 0.  1.
        -11    1    1    2    0    0  0.42025016235E+02  0.69780718054E+02 -0.22641655649E+02  0.84546408393E+02  0.00000000000E+00 0. -1.
         11    1    1    2    0    0 -0.79100792685E+01 -0.20112394468E+02  0.23545401037E+02  0.31960345356E+02  0.00000000000E+00 0.  1.
<mgrwt>
<rscale>  0 0.13271704E+03</rscale>
<asrwt>0</asrwt>
<pdfrwt beam="1">  1        4 0.15728266E-01 0.13860840E+03</pdfrwt>
<pdfrwt beam="2">  1       -4 0.25868418E-01 0.13860840E+03</pdfrwt>
<totfact> 0.80926485E+02</totfact>
</mgrwt>
</event>
<event>
 6    1  0.5818426E-006  0.1264390E+03  0.7546771E-02  0.1248430E+00
          2   -1    0    0  501    0  0.00000000000E+00  0.00000000000E+00  0.16421174204E+03  0.16421174204E+03  0.00000000000E+00 0. -1.
         -2   -1    0    0    0  501 -0.00000000000E+00 -0.00000000000E+00 -0.13809191721E+03  0.13809191721E+03  0.00000000000E+00 0.  1.
          5    1    1    2  502    0 -0.23655683497E+02 -0.57999947187E+02 -0.34582526088E+02  0.71705134725E+02  0.47000000000E+01 0. -1.
         -5    1    1    2    0  502  0.51587224767E+01  0.62152685615E+02 -0.54582105753E+02  0.83011234271E+02  0.47000000000E+01 0. -1.
        -11    1    1    2    0    0  0.44458098947E+02 -0.22312859180E+02  0.33745472053E+02  0.60109426306E+02  0.00000000000E+00 0. -1.
         11    1    1    2    0    0 -0.25961137927E+02  0.18160120751E+02  0.81538984614E+02  0.87477863943E+02  0.00000000000E+00 0.  1.
<mgrwt>
<rscale>  0 0.11682449E+03</rscale>
<asrwt>0</asrwt>
<pdfrwt beam="1">  1        2 0.25263345E-01 0.12643901E+03</pdfrwt>
<pdfrwt beam="2">  1       -2 0.21244911E-01 0.12643901E+03</pdfrwt>
<totfact> 0.38477350E+03</totfact>
</mgrwt>
</event>
<event>
 6    1  0.5818426E-006  0.1493270E+03  0.7546771E-02  0.1211057E+00
          2   -1    0    0  501    0  0.00000000000E+00  0.00000000000E+00  0.18720060833E+02  0.18720060833E+02  0.00000000000E+00 0. -1.
         -2   -1    0    0    0  501 -0.00000000000E+00 -0.00000000000E+00 -0.97680237609E+03  0.97680237609E+03  0.00000000000E+00 0.  1.
          5    1    1    2  502    0  0.92577781179E+01  0.11329068849E+02 -0.43482101029E+03  0.43509246746E+03  0.47000000000E+01 0.  1.
         -5    1    1    2    0  502  0.38971916036E+02  0.54608055963E+02 -0.10250928679E+03  0.12260136171E+03  0.47000000000E+01 0.  1.
        -11    1    1    2    0    0 -0.16574776072E+01  0.21691965506E+02 -0.69243046452E+02  0.72580218252E+02  0.00000000000E+00 0.  1.
         11    1    1    2    0    0 -0.46572216546E+02 -0.87629090318E+02 -0.35150897173E+03  0.36524838950E+03  0.00000000000E+00 0. -1.
<mgrwt>
<rscale>  0 0.14170219E+03</rscale>
<asrwt>0</asrwt>
<pdfrwt beam="1">  1        2 0.28800089E-02 0.14932702E+03</pdfrwt>
<pdfrwt beam="2">  1       -2 0.15027731E+00 0.14932702E+03</pdfrwt>
<totfact> 0.10169505E+03</totfact>
</mgrwt>
</event>
<event>
 6    1  0.5818426E-006  0.1341231E+03  0.7546771E-02  0.1244819E+00
          2   -1    0    0  501    0  0.00000000000E+00  0.00000000000E+00  0.12408184625E+03  0.12408184625E+03  0.00000000000E+00 0. -1.
         -2   -1    0    0    0  501 -0.00000000000E+00 -0.00000000000E+00 -0.13226385983E+03  0.13226385983E+03  0.00000000000E+00 0.  1.
          5    1    1    2  502    0 -0.10998669113E+02 -0.34176757544E+02  0.14763376494E+02  0.39103308863E+02  0.47000000000E+01 0.  1.
         -5    1    1    2    0  502  0.58903779367E+02  0.42583643212E+02 -0.86220385411E+02  0.11286747429E+03  0.47000000000E+01 0.  1.
        -11    1    1    2    0    0 -0.17278573192E+02 -0.29618134192E+02  0.42165351742E+01  0.34547968586E+02  0.00000000000E+00 0.  1.
         11    1    1    2    0    0 -0.30626537062E+02  0.21211248524E+02  0.59058460164E+02  0.69826954346E+02  0.00000000000E+00 0. -1.
<mgrwt>
<rscale>  0 0.11896202E+03</rscale>
<asrwt>0</asrwt>
<pdfrwt beam="1">  1        2 0.19089515E-01 0.13412313E+03</pdfrwt>
<pdfrwt beam="2">  1       -2 0.20348286E-01 0.13412313E+03</pdfrwt>
<totfact> 0.56840014E+03</totfact>
</mgrwt>
</event>
<event>
 6    1  0.5818426E-006  0.1611895E+03  0.7546771E-02  0.1194683E+00
          3   -1    0    0  501    0  0.00000000000E+00  0.00000000000E+00  0.24826305577E+03  0.24826305577E+03  0.00000000000E+00 0. -1.
         -3   -1    0    0    0  501 -0.00000000000E+00 -0.00000000000E+00 -0.11360431887E+03  0.11360431887E+03  0.00000000000E+00 0.  1.
          5    1    1    2  502    0 -0.45111215379E+02 -0.86052982828E+02  0.21629428361E+02  0.99649685287E+02  0.47000000000E+01 0. -1.
         -5    1    1    2    0  502  0.49861424655E+02 -0.15606532727E+02 -0.32926558472E+02  0.61935238639E+02  0.47000000000E+01 0. -1.
        -11    1    1    2    0    0  0.84976218471E+01  0.69885397421E+02  0.25294585536E+02  0.74806379455E+02  0.00000000000E+00 0.  1.
         11    1    1    2    0    0 -0.13247831124E+02  0.31774118134E+02  0.12066128147E+03  0.12547607126E+03  0.00000000000E+00 0. -1.
<mgrwt>
<rscale>  0 0.15481073E+03</rscale>
<asrwt>0</asrwt>
<pdfrwt beam="1">  1        3 0.38194316E-01 0.16118952E+03</pdfrwt>
<pdfrwt beam="2">  1       -3 0.17477588E-01 0.16118952E+03</pdfrwt>
<totfact> 0.45947821E+02</totfact>
</mgrwt>
</event>
<event>
 6    1  0.5818426E-006  0.2536633E+03  0.7546771E-02  0.1111011E+00
          2   -1    0    0  501    0  0.00000000000E+00  0.00000000000E+00  0.15972730209E+03  0.15972730209E+03  0.00000000000E+00 0. -1.
         -2   -1    0    0    0  501 -0.00000000000E+00 -0.00000000000E+00 -0.10071082963E+03  0.10071082963E+03  0.00000000000E+00 0.  1.
          5    1    1    2  502    0  0.34225710607E+01  0.76337204171E+02 -0.38886086195E+02  0.85867924354E+02  0.47000000000E+01 0.  1.
         -5    1    1    2    0  502 -0.99549600355E+00 -0.13748435311E+02  0.52636485666E+02  0.54614101741E+02  0.47000000000E+01 0.  1.
        -11    1    1    2    0    0 -0.35954795654E+02 -0.41265045733E+01 -0.40909780718E+01  0.36421305195E+02  0.00000000000E+00 0.  1.
         11    1    1    2    0    0  0.33527720597E+02 -0.58462264287E+02  0.49357051055E+02  0.83534800429E+02  0.00000000000E+00 0. -1.
<mgrwt>
<rscale>  0 0.25366331E+03</rscale>
<asrwt>0</asrwt>
<pdfrwt beam="1">  1        2 0.24573431E-01 0.25366331E+03</pdfrwt>
<pdfrwt beam="2">  1       -2 0.15493974E-01 0.25366331E+03</pdfrwt>
<totfact> 0.70218805E+03</totfact>
</mgrwt>
</event>
<event>
 6    1  0.7912984E-006  0.2233170E+03  0.7546771E-02  0.1134613E+00
         -2   -1    0    0    0  501 -0.00000000000E+00  0.00000000000E+00  0.50421968637E+02  0.50421968637E+02  0.00000000000E+00 0.  1.
          2   -1    0    0  501    0  0.00000000000E+00 -0.00000000000E+00 -0.98793993069E+03  0.98793993069E+03  0.00000000000E+00 0. -1.
          5    1    1    2  502    0  0.48024442871E+02 -0.12447442988E+03 -0.13693688844E+03  0.19124338478E+03  0.47000000000E+01 0.  1.
         -5    1    1    2    0  502 -0.35910117717E+02 -0.60183023632E+02 -0.20923362927E+03  0.22070870963E+03  0.47000000000E+01 0.  1.
        -11    1    1    2    0    0 -0.40210326197E+02  0.52055083207E+02 -0.13199849448E+03  0.14747950558E+03  0.00000000000E+00 0.  1.
         11    1    1    2    0    0  0.28096001044E+02  0.13260237031E+03 -0.45934894986E+03  0.47893029934E+03  0.00000000000E+00 0. -1.
<mgrwt>
<rscale>  0 0.21902396E+03</rscale>
<asrwt>0</asrwt>
<pdfrwt beam="2">  1        2 0.15199075E+00 0.22331704E+03</pdfrwt>
<pdfrwt beam="1">  1       -2 0.77572263E-02 0.22331704E+03</pdfrwt>
<totfact> 0.26404634E+03</totfact>
</mgrwt>
</event>
<event>
 6    1  0.5818426E-006  0.1265057E+03  0.7546771E-02  0.1248101E+00
          1   -1    0    0  501    0  0.00000000000E+00  0.00000000000E+00  0.37282508053E+02  0.37282508053E+02  0.00000000000E+00 0. -1.
         -1   -1    0    0    0  501 -0.00000000000E+00 -0.00000000000E+00 -0.48233159908E+03  0.48233159908E+03  0.00000000000E+00 0.  1.
          5    1    1    2  502    0  0.20301682770E+02  0.26734063068E+02 -0.26257333671E+02  0.42876637263E+02  0.47000000000E+01 0.  1.
         -5    1    1    2    0  502 -0.39807698943E+02 -0.27344412951E+02 -0.36785585690E+03  0.37104230388E+03  0.47000000000E+01 0.  1.
        -11    1    1    2    0    0  0.17608267098E+02  0.27709174826E+02 -0.66660852083E+02  0.74306921886E+02  0.00000000000E+00 0.  1.
         11    1    1    2    0    0  0.18977490756E+01 -0.27098824943E+02  0.15724951619E+02  0.31388244110E+02  0.00000000000E+00 0. -1.
<mgrwt>
<rscale>  0 0.11701712E+03</rscale>
<asrwt>0</asrwt>
<pdfrwt beam="1">  1        1 0.57357703E-02 0.12650566E+03</pdfrwt>
<pdfrwt beam="2">  1       -1 0.74204863E-01 0.12650566E+03</pdfrwt>
<totfact> 0.25243177E+03</totfact>
</mgrwt>
</event>
<event>
 6    1  0.5818426E-006  0.1823337E+03  0.7546771E-02  0.1170639E+00
         -1   -1    0    0    0  501 -0.00000000000E+00  0.00000000000E+00  0.69351922476E+03  0.69351922476E+03  0.00000000000E+00 0.  1.
          1   -1    0    0  501    0  0.00000000000E+00 -0.00000000000E+00 -0.56029260342E+02  0.56029260342E+02  0.00000000000E+00 0. -1.
          5    1    1    2  502    0 -0.48073510634E+02 -0.12205620952E+03  0.42152366549E+03  0.44148960495E+03  0.47000000000E+01 0. -1.
         -5    1    1    2    0  502 -0.40902269941E+02  0.23545019751E+02  0.93187020361E+02  0.10456229916E+03  0.47000000000E+01 0. -1.
        -11    1    1    2    0    0  0.78174902013E+01  0.56203577563E+02  0.89772599539E+02  0.10620298918E+03  0.00000000000E+00 0.  1.
         11    1    1    2    0    0  0.81158290373E+02  0.42307612206E+02  0.33006679025E+02  0.97293591810E+02  0.00000000000E+00 0. -1.
<mgrwt>
<rscale>  0 0.17710027E+03</rscale>
<asrwt>0</asrwt>
<pdfrwt beam="2">  1        1 0.86198867E-02 0.18233374E+03</pdfrwt>
<pdfrwt beam="1">  1       -1 0.10669526E+00 0.18233374E+03</pdfrwt>
<totfact> 0.68064553E+02</totfact>
</mgrwt>
</event>
<event>
 6    1  0.5818426E-006  0.1343414E+03  0.7546771E-02  0.1233038E+00
          2   -1    0    0  501    0  0.00000000000E+00  0.00000000000E+00  0.26975456954E+03  0.26975456954E+03  0.00000000000E+00 0. -1.
         -2   -1    0    0    0  501 -0.00000000000E+00 -0.00000000000E+00 -0.61366200871E+02  0.61366200871E+02  0.00000000000E+00 0.  1.
          5    1    1    2  502    0 -0.70337133752E+02 -0.43219252817E+02  0.32034535141E+02  0.88676477378E+02  0.47000000000E+01 0.  1.
         -5    1    1    2    0  502  0.21251421737E+02  0.46800557487E+02  0.22778939567E+02  0.56417064748E+02  0.47000000000E+01 0.  1.
        -11    1    1    2    0    0  0.82154934472E+01 -0.16636889234E+02 -0.69908013910E+01  0.19828053864E+02  0.00000000000E+00 0.  1.
         11    1    1    2    0    0  0.40870218568E+02  0.13055584563E+02  0.16056569535E+03  0.16619917442E+03  0.00000000000E+00 0. -1.
<mgrwt>
<rscale>  0 0.12630906E+03</rscale>
<asrwt>0</asrwt>
<pdfrwt beam="1">  1        2 0.41500702E-01 0.13434143E+03</pdfrwt>
<pdfrwt beam="2">  1       -2 0.94409542E-02 0.13434143E+03</pdfrwt>
<totfact> 0.84614817E+03</totfact>
</mgrwt>
</event>
<event>
 6    1  0.5818426E-006  0.2076527E+03  0.7546771E-02  0.1146007E+00
         -2   -1    0    0    0  501 -0.00000000000E+00  0.00000000000E+00  0.50481780916E+02  0.50481780916E+02  0.00000000000E+00 0.  1.
          2   -1    0    0  501    0  0.00000000000E+00 -0.00000000000E+00 -0.85914025605E+03  0.85914025605E+03  0.00000000000E+00 0. -1.
          5    1    1    2  502    0  0.31747739380E+01  0.46084413917E+02 -0.14872403567E+03  0.15580366228E+03  0.47000000000E+01 0. -1.
         -5    1    1    2    0  502  0.13013173094E+03  0.62410033233E+02 -0.15207982157E+03  0.20971323700E+03  0.47000000000E+01 0.  1.
        -11    1    1    2    0    0 -0.23076976490E+02  0.97844400387E+00 -0.15485131043E+02  0.27808154920E+02  0.00000000000E+00 0.  1.
         11    1    1    2    0    0 -0.11022952838E+03 -0.10947289115E+03 -0.49236948685E+03  0.51629698276E+03  0.00000000000E+00 0. -1.
<mgrwt>
<rscale>  0 0.20448778E+03</rscale>
<asrwt>0</asrwt>
<pdfrwt beam="2">  1        2 0.13217542E+00 0.20765270E+03</pdfrwt>
<pdfrwt beam="1">  1       -2 0.77664283E-02 0.20765270E+03</pdfrwt>
<totfact> 0.31772668E+03</totfact>
</mgrwt>
</event>
<event>
 6    1  0.5818426E-006  0.1724976E+03  0.7546771E-02  0.1181274E+00
         -1   -1    0    0    0  501 -0.00000000000E+00  0.00000000000E+00  0.18745947663E+03  0.18745947663E+03  0.00000000000E+00 0.  1.
          1   -1    0    0  501    0  0.00000000000E+00 -0.00000000000E+00 -0.13994508829E+03  0.13994508829E+03  0.00000000000E+00 0. -1.
          5    1    1    2  502    0 -0.28950530455E+02  0.58177407681E+02  0.26691900158E+02  0.70408035849E+02  0.47000000000E+01 0. -1.
         -5    1    1    2    0  502 -0.89523162858E+02 -0.48368231555E+02 -0.12724117599E+02  0.10265415569E+03  0.47000000000E+01 0. -1.
        -11    1    1    2    0    0  0.79910290831E+02 -0.10208513251E+02 -0.24898852051E+02  0.84319755437E+02  0.00000000000E+00 0. -1.
         11    1    1    2    0    0  0.38563402482E+02  0.39933712458E+00  0.58445457832E+02  0.70022617934E+02  0.00000000000E+00 0.  1.
<mgrwt>
<rscale>  0 0.16675598E+03</rscale>
<asrwt>0</asrwt>
<pdfrwt beam="2">  1        1 0.21530014E-01 0.17249760E+03</pdfrwt>
<pdfrwt beam="1">  1       -1 0.28839919E-01 0.17249760E+03</pdfrwt>
<totfact> 0.24858072E+03</totfact>
</mgrwt>
</event>
<event>
 6    1  0.5818426E-006  0.1604450E+03  0.7546771E-02  0.1193649E+00
         -2   -1    0    0    0  501 -0.00000000000E+00  0.00000000000E+00  0.20775117324E+02  0.20775117324E+02  0.00000000000E+00 0.  1.
          2   -1    0    0  501    0  0.00000000000E+00 -0.00000000000E+00 -0.11035252084E+04  0.11035252084E+04  0.00000000000E+00 0. -1.
          5    1    1    2  502    0 -0.75716054384E+02  0.44626773389E+02 -0.16905605028E+03  0.19059514142E+03  0.47000000000E+01 0. -1.
         -5    1    1    2    0  502 -0.21496548457E+02 -0.18795616793E+02 -0.38879569480E+03  0.38987120835E+03  0.47000000000E+01 0. -1.
        -11    1    1    2    0    0  0.89986116551E+01  0.32825497525E+02 -0.17382136480E+03  0.17712242987E+03  0.00000000000E+00 0. -1.
         11    1    1    2    0    0  0.88213991186E+02 -0.58656654122E+02 -0.35107698121E+03  0.36671154610E+03  0.00000000000E+00 0.  1.
<mgrwt>
<rscale>  0 0.15569094E+03</rscale>
<asrwt>0</asrwt>
<pdfrwt beam="2">  1        2 0.16977307E+00 0.16044505E+03</pdfrwt>
<pdfrwt beam="1">  1       -2 0.31961727E-02 0.16044505E+03</pdfrwt>
<totfact> 0.85579488E+03</totfact>
</mgrwt>
</event>
<event>
 6    1  0.5818426E-006  0.1597395E+03  0.7546771E-02  0.1197617E+00
          2   -1    0    0  501    0  0.00000000000E+00  0.00000000000E+00  0.50061506367E+02  0.50061506367E+02  0.00000000000E+00 0.  1.
         -2   -1    0    0    0  501 -0.00000000000E+00 -0.00000000000E+00 -0.60107332075E+03  0.60107332075E+03  0.00000000000E+00 0. -1.
          5    1    1    2  502    0  0.15258422384E+02  0.56697994146E+02 -0.44300330562E+03  0.44690211544E+03  0.47000000000E+01 0.  1.
         -5    1    1    2    0  502  0.15035997314E+02  0.38031966400E+02 -0.26318675017E+02  0.48859741487E+02  0.47000000000E+01 0.  1.
        -11    1    1    2    0    0  0.10850353138E+02 -0.90003338916E+02 -0.53326981176E+02  0.10517650926E+03  0.00000000000E+00 0.  1.
         11    1    1    2    0    0 -0.41144772836E+02 -0.47266216299E+01 -0.28362852568E+02  0.50196460927E+02  0.00000000000E+00 0. -1.
<mgrwt>
<rscale>  0 0.15234848E+03</rscale>
<asrwt>0</asrwt>
<pdfrwt beam="1">  1        2 0.77017707E-02 0.15973947E+03</pdfrwt>
<pdfrwt beam="2">  1       -2 0.92472813E-01 0.15973947E+03</pdfrwt>
<totfact> 0.90080448E+02</totfact>
</mgrwt>
</event>
<event>
 6    1  0.5818426E-006  0.1437406E+03  0.7546771E-02  0.1218218E+00
          1   -1    0    0  501    0  0.00000000000E+00  0.00000000000E+00  0.30715530191E+03  0.30715530191E+03  0.00000000000E+00 0. -1.
         -1   -1    0    0    0  501 -0.00000000000E+00 -0.00000000000E+00 -0.57694462248E+02  0.57694462248E+02  0.00000000000E+00 0.  1.
          5    1    1    2  502    0  0.12163568409E+02 -0.29312144124E+02  0.12287211370E+03  0.12699134032E+03  0.47000000000E+01 0. -1.
         -5    1    1    2    0  502 -0.32056559623E+01 -0.41089650889E+02 -0.23574378153E+02  0.47712440156E+02  0.47000000000E+01 0. -1.
        -11    1    1    2    0    0 -0.48241216339E+02  0.18994567549E+02  0.62852440991E+02  0.81476609458E+02  0.00000000000E+00 0. -1.
         11    1    1    2    0    0  0.39283303893E+02  0.51407227464E+02  0.87310663122E+02  0.10866937423E+03  0.00000000000E+00 0.  1.
<mgrwt>
<rscale>  0 0.13642788E+03</rscale>
<asrwt>0</asrwt>
<pdfrwt beam="1">  1        1 0.47254661E-01 0.14374064E+03</pdfrwt>
<pdfrwt beam="2">  1       -1 0.88760713E-02 0.14374064E+03</pdfrwt>
<totfact> 0.59810903E+03</totfact>
</mgrwt>
</event>
<event>
 6    1  0.5818426E-006  0.1286632E+03  0.7546771E-02  0.1240107E+00
          1   -1    0    0  501    0  0.00000000000E+00  0.00000000000E+00  0.49656526202E+03  0.49656526202E+03  0.00000000000E+00 0. -1.
         -1   -1    0    0    0  501 -0.00000000000E+00 -0.00000000000E+00 -0.27688343176E+02  0.27688343176E+02  0.00000000000E+00 0.  1.
          5    1    1    2  502    0 -0.49552499374E+02 -0.32442052801E+02  0.73001397473E+02  0.94123488127E+02  0.47000000000E+01 0. -1.
         -5    1    1    2    0  502  0.64434699782E+02  0.43844718722E+01  0.14908834995E+03  0.16254377940E+03  0.47000000000E+01 0. -1.
        -11    1    1    2    0    0 -0.41317771101E+02  0.37687035124E+02  0.22543136654E+03  0.23226444378E+03  0.00000000000E+00 0. -1.
         11    1    1    2    0    0  0.26435570693E+02 -0.96294541952E+01  0.21355804883E+02  0.35321893893E+02  0.00000000000E+00 0.  1.
<mgrwt>
<rscale>  0 0.12183062E+03</rscale>
<asrwt>0</asrwt>
<pdfrwt beam="1">  1        1 0.76394649E-01 0.12866324E+03</pdfrwt>
<pdfrwt beam="2">  1       -1 0.42597455E-02 0.12866324E+03</pdfrwt>
<totfact> 0.96831343E+03</totfact>
</mgrwt>
</event>
<event>
 6    1  0.5818426E-006  0.2715263E+03  0.7546771E-02  0.1102433E+00
         -2   -1    0    0    0  501 -0.00000000000E+00  0.00000000000E+00  0.43841591393E+03  0.43841591393E+03  0.00000000000E+00 0.  1.
          2   -1    0    0  501    0  0.00000000000E+00 -0.00000000000E+00 -0.17497597525E+03  0.17497597525E+03  0.00000000000E+00 0. -1.
          5    1    1    2  502    0 -0.97928204424E+01  0.35380862313E+02  0.11503345934E+03  0.12084076927E+03  0.47000000000E+01 0. -1.
         -5    1    1    2    0  502 -0.52021869218E+02  0.19734185563E+03  0.11044429533E+03  0.23209936500E+03  0.47000000000E+01 0. -1.
        -11    1    1    2    0    0 -0.18962420704E+02 -0.87620377241E+02  0.28666976335E+02  0.94120664251E+02  0.00000000000E+00 0.  1.
         11    1    1    2    0    0  0.80777110365E+02 -0.14510234070E+03  0.92952076790E+01  0.16633109067E+03  0.00000000000E+00 0. -1.
<mgrwt>
<rscale>  0 0.26799395E+03</rscale>
<asrwt>0</asrwt>
<pdfrwt beam="2">  1        2 0.26919381E-01 0.27152628E+03</pdfrwt>
<pdfrwt beam="1">  1       -2 0.67448602E-01 0.27152628E+03</pdfrwt>
<totfact> 0.41029224E+02</totfact>
</mgrwt>
</event>
<event>
 6    1  0.5818426E-006  0.1504207E+03  0.7546771E-02  0.1208788E+00
         -2   -1    0    0    0  501 -0.00000000000E+00  0.00000000000E+00  0.57478523290E+02  0.57478523290E+02  0.00000000000E+00 0.  1.
          2   -1    0    0  501    0  0.00000000000E+00 -0.00000000000E+00 -0.55347011627E+03  0.55347011627E+03  0.00000000000E+00 0. -1.
          5    1    1    2  502    0 -0.56990575361E+02 -0.40013177907E+02 -0.10425978641E+03  0.12546383203E+03  0.47000000000E+01 0.  1.
         -5    1    1    2    0  502 -0.11151281248E+02 -0.85362328509E+01  0.36593065066E+02  0.39476078271E+02  0.47000000000E+01 0.  1.
        -11    1    1    2    0    0  0.76238729745E+02  0.58542145431E+02 -0.41959541624E+03  0.43046467919E+03  0.00000000000E+00 0. -1.
         11    1    1    2    0    0 -0.80968731363E+01 -0.99927346724E+01 -0.87294553998E+01  0.15544050064E+02  0.00000000000E+00 0.  1.
<mgrwt>
<rscale>  0 0.14342917E+03</rscale>
<asrwt>0</asrwt>
<pdfrwt beam="2">  1        2 0.85149251E-01 0.15042071E+03</pdfrwt>
<pdfrwt beam="1">  1       -2 0.88428495E-02 0.15042071E+03</pdfrwt>
<totfact> 0.43524649E+03</totfact>
</mgrwt>
</event>
<event>
 6    1  0.5818426E-006  0.3970650E+03  0.7546771E-02  0.1044801E+00
          4   -1    0    0  501    0  0.00000000000E+00  0.00000000000E+00  0.13607886145E+03  0.13607886145E+03  0.00000000000E+00 0. -1.
         -4   -1    0    0    0  501 -0.00000000000E+00 -0.00000000000E+00 -0.28964933629E+03  0.28964933629E+03  0.00000000000E+00 0.  1.
          5    1    1    2  502    0 -0.66420088618E+02  0.49492824063E+02 -0.17446960600E+03  0.19319135908E+03  0.47000000000E+01 0. -1.
         -5    1    1    2    0  502 -0.11813398822E+02  0.37766258600E+02  0.13324222869E+02  0.42017515341E+02  0.47000000000E+01 0. -1.
        -11    1    1    2    0    0  0.18529732229E+02 -0.98488297146E+02 -0.45302035387E+02  0.10997986207E+03  0.00000000000E+00 0.  1.
         11    1    1    2    0    0  0.59703755211E+02  0.11229214482E+02  0.52876943678E+02  0.80539461240E+02  0.00000000000E+00 0. -1.
<mgrwt>
<rscale>  0 0.39706499E+03</rscale>
<asrwt>0</asrwt>
<pdfrwt beam="1">  1        4 0.20935210E-01 0.39706499E+03</pdfrwt>
<pdfrwt beam="2">  1       -4 0.44561436E-01 0.39706499E+03</pdfrwt>
<totfact> 0.19759704E+02</totfact>
</mgrwt>
</event>
<event>
 6    1  0.5818426E-006  0.1493537E+03  0.7546771E-02  0.1222663E+00
         -1   -1    0    0    0  501 -0.00000000000E+00  0.00000000000E+00  0.36933128075E+02  0.36933128075E+02  0.00000000000E+00 0.  1.
          1   -1    0    0  501    0  0.00000000000E+00 -0.00000000000E+00 -0.40389444068E+03  0.40389444068E+03  0.00000000000E+00 0. -1.
          5    1    1    2  502    0 -0.47524553080E+02  0.66240053086E+02 -0.11104228089E+03  0.13783615608E+03  0.47000000000E+01 0. -1.
         -5    1    1    2    0  502  0.55734032942E+02 -0.37730628885E+02 -0.10489555381E+03  0.12471988612E+03  0.47000000000E+01 0.  1.
        -11    1    1    2    0    0  0.28962496352E+02 -0.37118231452E+02 -0.12062362896E+03  0.12948609642E+03  0.00000000000E+00 0.  1.
         11    1    1    2    0    0 -0.37171976214E+02  0.86088072505E+01 -0.30399848938E+02  0.48785430135E+02  0.00000000000E+00 0. -1.
<mgrwt>
<rscale>  0 0.13328370E+03</rscale>
<asrwt>0</asrwt>
<pdfrwt beam="2">  1        1 0.62137604E-01 0.14935370E+03</pdfrwt>
<pdfrwt beam="1">  1       -1 0.56820199E-02 0.14935370E+03</pdfrwt>
<totfact> 0.83224162E+03</totfact>
</mgrwt>
</event>
<event>
 6    1  0.5818426E-006  0.2741242E+03  0.7546771E-02  0.1103635E+00
          3   -1    0    0  501    0  0.00000000000E+00  0.00000000000E+00  0.18186157816E+04  0.18186157816E+04  0.00000000000E+00 0. -1.
         -3   -1    0    0    0  501 -0.00000000000E+00 -0.00000000000E+00 -0.36735727249E+02  0.36735727249E+02  0.00000000000E+00 0.  1.
          5    1    1    2  502    0  0.22543002510E+03 -0.86074246480E+02  0.90990441883E+03  0.94136901029E+03  0.47000000000E+01 0. -1.
         -5    1    1    2    0  502 -0.19306243913E+02 -0.40908136896E+01  0.21600832204E+02  0.29633625539E+02  0.47000000000E+01 0.  1.
        -11    1    1    2    0    0 -0.13833639185E+03  0.34660372028E+02  0.37990120598E+03  0.40578716713E+03  0.00000000000E+00 0.  1.
         11    1    1    2    0    0 -0.67787389342E+02  0.55504688141E+02  0.47047359732E+03  0.47856170588E+03  0.00000000000E+00 0. -1.
<mgrwt>
<rscale>  0 0.26592415E+03</rscale>
<asrwt>0</asrwt>
<pdfrwt beam="1">  1        3 0.27978697E+00 0.27412422E+03</pdfrwt>
<pdfrwt beam="2">  1       -3 0.56516518E-02 0.27412422E+03</pdfrwt>
<totfact> 0.26704932E+01</totfact>
</mgrwt>
</event>
<event>
 6    1  0.5818426E-006  0.1262506E+03  0.7546771E-02  0.1247955E+00
          1   -1    0    0  501    0  0.00000000000E+00  0.00000000000E+00  0.29917752526E+03  0.29917752526E+03  0.00000000000E+00 0. -1.
         -1   -1    0    0    0  501 -0.00000000000E+00 -0.00000000000E+00 -0.40363594483E+02  0.40363594483E+02  0.00000000000E+00 0.  1.
          5    1    1    2  502    0 -0.22613898534E+02  0.22521267741E+02  0.13788397228E+03  0.14160747056E+03  0.47000000000E+01 0. -1.
         -5    1    1    2    0  502  0.30619207626E+02 -0.38709717327E+02  0.62025815738E+01  0.49965389115E+02  0.47000000000E+01 0. -1.
        -11    1    1    2    0    0 -0.35220322301E+02  0.36820569579E+02  0.36699958261E+02  0.62794206608E+02  0.00000000000E+00 0.  1.
         11    1    1    2    0    0  0.27215013208E+02 -0.20632119993E+02  0.78027418662E+02  0.85174053457E+02  0.00000000000E+00 0. -1.
<mgrwt>
<rscale>  0 0.11710242E+03</rscale>
<asrwt>0</asrwt>
<pdfrwt beam="1">  1        1 0.46027310E-01 0.12625065E+03</pdfrwt>
<pdfrwt beam="2">  1       -1 0.62097839E-02 0.12625065E+03</pdfrwt>
<totfact> 0.10477002E+04</totfact>
</mgrwt>
</event>
<event>
 6    1  0.5818426E-006  0.1413168E+03  0.7546771E-02  0.1221190E+00
          2   -1    0    0  501    0  0.00000000000E+00  0.00000000000E+00  0.50385922754E+03  0.50385922754E+03  0.00000000000E+00 0. -1.
         -2   -1    0    0    0  501 -0.00000000000E+00 -0.00000000000E+00 -0.34387394408E+02  0.34387394408E+02  0.00000000000E+00 0.  1.
          5    1    1    2  502    0  0.11870707601E+02 -0.57720076601E+02  0.21651085648E+02  0.62955384611E+02  0.47000000000E+01 0. -1.
         -5    1    1    2    0  502 -0.37403604836E+02 -0.30556078335E+01  0.17600438098E+03  0.18002221673E+03  0.47000000000E+01 0. -1.
        -11    1    1    2    0    0  0.38841497848E+01  0.78411122872E+02  0.13983161580E+03  0.16036293708E+03  0.00000000000E+00 0.  1.
         11    1    1    2    0    0  0.21648747450E+02 -0.17635438438E+02  0.13198475070E+03  0.13490608353E+03  0.00000000000E+00 0. -1.
<mgrwt>
<rscale>  0 0.13431526E+03</rscale>
<asrwt>0</asrwt>
<pdfrwt beam="1">  1        2 0.77516799E-01 0.14131678E+03</pdfrwt>
<pdfrwt beam="2">  1       -2 0.52903687E-02 0.14131678E+03</pdfrwt>
<totfact> 0.10574827E+04</totfact>
</mgrwt>
</event>
<event>
 6    1  0.5818426E-006  0.1346911E+03  0.7546771E-02  0.1233421E+00
          1   -1    0    0  501    0  0.00000000000E+00  0.00000000000E+00  0.12691945627E+03  0.12691945627E+03  0.00000000000E+00 0. -1.
         -1   -1    0    0    0  501 -0.00000000000E+00 -0.00000000000E+00 -0.13424714543E+03  0.13424714543E+03  0.00000000000E+00 0.  1.
          5    1    1    2  502    0 -0.16998536459E+02 -0.28136711307E+02 -0.54134268928E+02  0.63507746278E+02  0.47000000000E+01 0. -1.
         -5    1    1    2    0  502  0.50618510016E+02  0.65361417342E+02 -0.31630611732E+01  0.82864005390E+02  0.47000000000E+01 0. -1.
        -11    1    1    2    0    0 -0.18875168411E+02  0.28916125854E+02  0.92953077971E+01  0.35760551786E+02  0.00000000000E+00 0.  1.
         11    1    1    2    0    0 -0.14744805146E+02 -0.66140831889E+02  0.40674333151E+02  0.79034298245E+02  0.00000000000E+00 0. -1.
<mgrwt>
<rscale>  0 0.12606085E+03</rscale>
<asrwt>0</asrwt>
<pdfrwt beam="1">  1        1 0.19526070E-01 0.13469115E+03</pdfrwt>
<pdfrwt beam="2">  1       -1 0.20653407E-01 0.13469115E+03</pdfrwt>
<totfact> 0.48135566E+03</totfact>
</mgrwt>
</event>
<event>
 6    1  0.5818426E-006  0.1295418E+03  0.7546771E-02  0.1241948E+00
         -4   -1    0    0    0  501 -0.00000000000E+00  0.00000000000E+00  0.55530438511E+03  0.55530438511E+03  0.00000000000E+00 0.  1.
          4   -1    0    0  501    0  0.00000000000E+00 -0.00000000000E+00 -0.23579214114E+02  0.23579214114E+02  0.00000000000E+00 0. -1.
          5    1    1    2  502    0 -0.79147126688E+02  0.60035878214E+01  0.16623720560E+03  0.18427481992E+03  0.47000000000E+01 0. -1.
         -5    1    1    2    0  502  0.45338664462E+02 -0.20846420314E+01  0.17111431037E+03  0.17709358385E+03  0.47000000000E+01 0. -1.
        -11    1    1    2    0    0 -0.84505267928E+00  0.36505915831E+02  0.12402241457E+03  0.12928633076E+03  0.00000000000E+00 0.  1.
         11    1    1    2    0    0  0.34653514905E+02 -0.40424861621E+02  0.70351240448E+02  0.88228864692E+02  0.00000000000E+00 0. -1.
<mgrwt>
<rscale>  0 0.12069909E+03</rscale>
<asrwt>0</asrwt>
<pdfrwt beam="2">  1        4 0.36275718E-02 0.12954180E+03</pdfrwt>
<pdfrwt beam="1">  1       -4 0.85431434E-01 0.12954180E+03</pdfrwt>
<totfact> 0.80407619E+02</totfact>
</mgrwt>
</event>
<event>
 6    1  0.5818426E-006  0.1531907E+03  0.7546771E-02  0.1205091E+00
          1   -1    0    0  501    0  0.00000000000E+00  0.00000000000E+00  0.41550135105E+02  0.41550135105E+02  0.00000000000E+00 0. -1.
         -1   -1    0    0    0  501 -0.00000000000E+00 -0.00000000000E+00 -0.53785910107E+03  0.53785910107E+03  0.00000000000E+00 0.  1.
          5    1    1    2  502    0 -0.43836357189E+02 -0.26068744099E+02 -0.34858153127E+03  0.35232425345E+03  0.47000000000E+01 0. -1.
         -5    1    1    2    0  502 -0.41548523261E+02  0.25633657017E+01 -0.19192954150E+02  0.46079389296E+02  0.47000000000E+01 0. -1.
        -11    1    1    2    0    0  0.47510992060E+02  0.40390038819E+02 -0.12462346579E+03  0.13935443240E+03  0.00000000000E+00 0.  1.
         11    1    1    2    0    0  0.37873888389E+02 -0.16884660422E+02 -0.39110147619E+01  0.41651161037E+02  0.00000000000E+00 0. -1.
<mgrwt>
<rscale>  0 0.14630324E+03</rscale>
<asrwt>0</asrwt>
<pdfrwt beam="1">  1        1 0.63923292E-02 0.15319070E+03</pdfrwt>
<pdfrwt beam="2">  1       -1 0.82747545E-01 0.15319070E+03</pdfrwt>
<totfact> 0.17608015E+03</totfact>
</mgrwt>
</event>
<event>
 6    1  0.5818426E-006  0.1379543E+03  0.7546771E-02  0.1228390E+00
         -1   -1    0    0    0  501 -0.00000000000E+00  0.00000000000E+00  0.14446779165E+03  0.14446779165E+03  0.00000000000E+00 0.  1.
          1   -1    0    0  501    0  0.00000000000E+00 -0.00000000000E+00 -0.11191417191E+03  0.11191417191E+03  0.00000000000E+00 0. -1.
          5    1    1    2  502    0  0.44219904016E+02 -0.95454891396E-01  0.20982370272E+02  0.49170711659E+02  0.47000000000E+01 0.  1.
         -5    1    1    2    0  502 -0.81639413891E+02  0.44855523356E+02  0.31937182544E+02  0.98585422375E+02  0.47000000000E+01 0.  1.
        -11    1    1    2    0    0  0.65247051944E+02 -0.42805400344E+02 -0.20676758004E+02  0.80727990236E+02  0.00000000000E+00 0. -1.
         11    1    1    2    0    0 -0.27827542069E+02 -0.19546681203E+01  0.31082492701E+00  0.27897839293E+02  0.00000000000E+00 0.  1.
<mgrwt>
<rscale>  0 0.12937256E+03</rscale>
<asrwt>0</asrwt>
<pdfrwt beam="2">  1        1 0.17217565E-01 0.13795433E+03</pdfrwt>
<pdfrwt beam="1">  1       -1 0.22225814E-01 0.13795433E+03</pdfrwt>
<totfact> 0.50285259E+03</totfact>
</mgrwt>
</event>
<event>
 6    1  0.5818426E-006  0.2697161E+03  0.7546771E-02  0.1101442E+00
         -1   -1    0    0    0  501 -0.00000000000E+00  0.00000000000E+00  0.16407768508E+04  0.16407768508E+04  0.00000000000E+00 0.  1.
          1   -1    0    0  501    0  0.00000000000E+00 -0.00000000000E+00 -0.11084200110E+02  0.11084200110E+02  0.00000000000E+00 0. -1.
          5    1    1    2  502    0  0.10549632249E+02 -0.28483460486E+02  0.60769218902E+03  0.60846897115E+03  0.47000000000E+01 0.  1.
         -5    1    1    2    0  502 -0.67200480628E+02  0.66027224016E+02  0.56447631607E+03  0.57230332893E+03  0.47000000000E+01 0.  1.
        -11    1    1    2    0    0  0.45919716636E+02  0.16707189469E+02  0.12904429489E+03  0.13798616089E+03  0.00000000000E+00 0.  1.
         11    1    1    2    0    0  0.10731131744E+02 -0.54250952999E+02  0.32847985073E+03  0.33310258994E+03  0.00000000000E+00 0. -1.
<mgrwt>
<rscale>  0 0.26971614E+03</rscale>
<asrwt>0</asrwt>
<pdfrwt beam="2">  1        1 0.17052629E-02 0.26971614E+03</pdfrwt>
<pdfrwt beam="1">  1       -1 0.25242702E+00 0.26971614E+03</pdfrwt>
<totfact> 0.58095348E+02</totfact>
</mgrwt>
</event>
<event>
 6    1  0.5818426E-006  0.2959759E+03  0.7546771E-02  0.1087270E+00
         -2   -1    0    0    0  501 -0.00000000000E+00  0.00000000000E+00  0.23209201261E+03  0.23209201261E+03  0.00000000000E+00 0.  1.
          2   -1    0    0  501    0  0.00000000000E+00 -0.00000000000E+00 -0.94361026252E+02  0.94361026252E+02  0.00000000000E+00 0. -1.
          5    1    1    2  502    0 -0.24888568482E+02  0.10240250814E+03  0.10745331623E+03  0.15057894834E+03  0.47000000000E+01 0. -1.
         -5    1    1    2    0  502  0.27432430520E+02 -0.20360500962E+01 -0.17812812865E+02  0.33106948612E+02  0.47000000000E+01 0. -1.
        -11    1    1    2    0    0 -0.32425534318E+02 -0.33131335864E+02 -0.11868708483E+02  0.47853598956E+02  0.00000000000E+00 0. -1.
         11    1    1    2    0    0  0.29881672281E+02 -0.67235122182E+02  0.59959191476E+02  0.94913542952E+02  0.00000000000E+00 0.  1.
<mgrwt>
<rscale>  0 0.29597595E+03</rscale>
<asrwt>0</asrwt>
<pdfrwt beam="2">  1        2 0.14517081E-01 0.29597595E+03</pdfrwt>
<pdfrwt beam="1">  1       -2 0.35706463E-01 0.29597595E+03</pdfrwt>
<totfact> 0.29948339E+03</totfact>
</mgrwt>
</event>
<event>
 6    1  0.5818426E-006  0.1633138E+03  0.7546771E-02  0.1194484E+00
          1   -1    0    0  501    0  0.00000000000E+00  0.00000000000E+00  0.39538701329E+03  0.39538701329E+03  0.00000000000E+00 0. -1.
         -1   -1    0    0    0  501 -0.00000000000E+00 -0.00000000000E+00 -0.64454359084E+02  0.64454359084E+02  0.00000000000E+00 0.  1.
          5    1    1    2  502    0  0.30080303866E+02 -0.62374410996E+02 -0.82774659709E+00  0.69413017455E+02  0.47000000000E+01 0.  1.
         -5    1    1    2    0  502 -0.60748227970E+02 -0.38152027195E+02  0.94908061681E+02  0.11906113788E+03  0.47000000000E+01 0.  1.
        -11    1    1    2    0    0  0.36253850498E+02  0.42663764319E+02  0.47921477774E+02  0.73695362770E+02  0.00000000000E+00 0. -1.
         11    1    1    2    0    0 -0.55859263938E+01  0.57862673872E+02  0.18893086135E+03  0.19767185427E+03  0.00000000000E+00 0.  1.
<mgrwt>
<rscale>  0 0.15497955E+03</rscale>
<asrwt>0</asrwt>
<pdfrwt beam="1">  1        1 0.60828769E-01 0.16331381E+03</pdfrwt>
<pdfrwt beam="2">  1       -1 0.99160556E-02 0.16331381E+03</pdfrwt>
<totfact> 0.37059960E+03</totfact>
</mgrwt>
</event>
<event>
 6    1  0.5818426E-006  0.3294120E+03  0.7546771E-02  0.1071397E+00
          1   -1    0    0  501    0  0.00000000000E+00  0.00000000000E+00  0.41553700443E+02  0.41553700443E+02  0.00000000000E+00 0. -1.
         -1   -1    0    0    0  501 -0.00000000000E+00 -0.00000000000E+00 -0.65284367730E+03  0.65284367730E+03  0.00000000000E+00 0.  1.
          5    1    1    2  502    0  0.97725585030E+02  0.64627643860E+02 -0.17871966100E+03  0.21375179426E+03  0.47000000000E+01 0.  1.
         -5    1    1    2    0  502 -0.28793681576E+01  0.15813476338E+01 -0.21680525069E+03  0.21688106913E+03  0.47000000000E+01 0.  1.
        -11    1    1    2    0    0 -0.11489039419E+03 -0.63557147670E+02 -0.18219571842E+03  0.22457647585E+03  0.00000000000E+00 0. -1.
         11    1    1    2    0    0  0.20044177320E+02 -0.26518438236E+01 -0.33569346746E+02  0.39188038495E+02  0.00000000000E+00 0.  1.
<mgrwt>
<rscale>  0 0.32941203E+03</rscale>
<asrwt>0</asrwt>
<pdfrwt beam="1">  1        1 0.63928770E-02 0.32941203E+03</pdfrwt>
<pdfrwt beam="2">  1       -1 0.10043749E+00 0.32941203E+03</pdfrwt>
<totfact> 0.11845203E+03</totfact>
</mgrwt>
</event>
<event>
 6    1  0.5818426E-006  0.1268491E+03  0.7546771E-02  0.1246554E+00
         -1   -1    0    0    0  501 -0.00000000000E+00  0.00000000000E+00  0.22997119852E+02  0.22997119852E+02  0.00000000000E+00 0.  1.
          1   -1    0    0  501    0  0.00000000000E+00 -0.00000000000E+00 -0.53557776712E+03  0.53557776712E+03  0.00000000000E+00 0. -1.
          5    1    1    2  502    0  0.40392853080E+02 -0.57293827988E+02 -0.11050223321E+03  0.13094654959E+03  0.47000000000E+01 0. -1.
         -5    1    1    2    0  502 -0.24462256579E+02  0.42713789885E+02 -0.16714015512E+03  0.17430086430E+03  0.47000000000E+01 0. -1.
        -11    1    1    2    0    0 -0.37379920100E+01 -0.23375434155E+02 -0.11422121501E+02  0.26283994479E+02  0.00000000000E+00 0.  1.
         11    1    1    2    0    0 -0.12192604491E+02  0.37955472258E+02 -0.22351613745E+03  0.22704347861E+03  0.00000000000E+00 0. -1.
<mgrwt>
<rscale>  0 0.11792826E+03</rscale>
<asrwt>0</asrwt>
<pdfrwt beam="2">  1        1 0.82396562E-01 0.12684908E+03</pdfrwt>
<pdfrwt beam="1">  1       -1 0.35380192E-02 0.12684908E+03</pdfrwt>
<totfact> 0.11498151E+04</totfact>
</mgrwt>
</event>
<event>
 6    1  0.5818426E-006  0.1372935E+03  0.7546771E-02  0.1228237E+00
          2   -1    0    0  501    0  0.00000000000E+00  0.00000000000E+00  0.29245506356E+03  0.29245506356E+03  0.00000000000E+00 0. -1.
         -2   -1    0    0    0  501 -0.00000000000E+00 -0.00000000000E+00 -0.54749252908E+02  0.54749252908E+02  0.00000000000E+00 0.  1.
          5    1    1    2  502    0  0.13570137371E+02  0.40477623157E+02  0.56220077815E+02  0.70748666095E+02  0.47000000000E+01 0.  1.
         -5    1    1    2    0  502  0.22669272157E+02 -0.84190822896E+02  0.34907104012E+02  0.94035027891E+02  0.47000000000E+01 0.  1.
        -11    1    1    2    0    0 -0.59062167355E+02  0.27088049014E+02  0.50544742235E+02  0.82321764921E+02  0.00000000000E+00 0.  1.
         11    1    1    2    0    0  0.22822757827E+02  0.16625150725E+02  0.96033886592E+02  0.10009885756E+03  0.00000000000E+00 0. -1.
<mgrwt>
<rscale>  0 0.12947498E+03</rscale>
<asrwt>0</asrwt>
<pdfrwt beam="1">  1        2 0.44993086E-01 0.13729349E+03</pdfrwt>
<pdfrwt beam="2">  1       -2 0.84229622E-02 0.13729349E+03</pdfrwt>
<totfact> 0.92909488E+03</totfact>
</mgrwt>
</event>
<event>
 6    1  0.5818426E-006  0.1259197E+03  0.7546771E-02  0.1249762E+00
         -2   -1    0    0    0  501 -0.00000000000E+00  0.00000000000E+00  0.11295981913E+03  0.11295981913E+03  0.00000000000E+00 0.  1.
          2   -1    0    0  501    0  0.00000000000E+00 -0.00000000000E+00 -0.10682205570E+03  0.10682205570E+03  0.00000000000E+00 0. -1.
          5    1    1    2  502    0 -0.51827561343E+02 -0.10616256474E+02  0.34352717139E+02  0.63253459914E+02  0.47000000000E+01 0.  1.
         -5    1    1    2    0  502  0.62916900637E+02  0.24229933343E+00 -0.13123985661E+02  0.64443185011E+02  0.47000000000E+01 0.  1.
        -11    1    1    2    0    0  0.12571255071E+02 -0.35009165682E+02 -0.16935066662E+02  0.40871440135E+02  0.00000000000E+00 0. -1.
         11    1    1    2    0    0 -0.23660594365E+02  0.45383122823E+02  0.18440986153E+01  0.51213789769E+02  0.00000000000E+00 0.  1.
<mgrwt>
<rscale>  0 0.11604859E+03</rscale>
<asrwt>0</asrwt>
<pdfrwt beam="2">  1        2 0.16434162E-01 0.12591971E+03</pdfrwt>
<pdfrwt beam="1">  1       -2 0.17378434E-01 0.12591971E+03</pdfrwt>
<totfact> 0.87506595E+03</totfact>
</mgrwt>
</event>
<event>
 6    1  0.5818426E-006  0.1383866E+03  0.7546771E-02  0.1227363E+00
         -1   -1    0    0    0  501 -0.00000000000E+00  0.00000000000E+00  0.12136262163E+03  0.12136262163E+03  0.00000000000E+00 0.  1.
          1   -1    0    0  501    0  0.00000000000E+00 -0.00000000000E+00 -0.12792367810E+03  0.12792367810E+03  0.00000000000E+00 0. -1.
          5    1    1    2  502    0  0.81562370831E+01 -0.59562627886E+02  0.18565365722E+02  0.63095115884E+02  0.47000000000E+01 0.  1.
         -5    1    1    2    0  502  0.51118794609E+02  0.56054919625E+02 -0.36264938095E+01  0.76095509945E+02  0.47000000000E+01 0.  1.
        -11    1    1    2    0    0 -0.41697789130E+02  0.45938302555E+02 -0.11686653317E+02  0.63131696680E+02  0.00000000000E+00 0. -1.
         11    1    1    2    0    0 -0.17577242562E+02 -0.42430594294E+02 -0.98132750668E+01  0.46963977214E+02  0.00000000000E+00 0.  1.
<mgrwt>
<rscale>  0 0.13006259E+03</rscale>
<asrwt>0</asrwt>
<pdfrwt beam="2">  1        1 0.19680566E-01 0.13838663E+03</pdfrwt>
<pdfrwt beam="1">  1       -1 0.18671173E-01 0.13838663E+03</pdfrwt>
<totfact> 0.56116612E+03</totfact>
</mgrwt>
</event>
<event>
 6    1  0.5818426E-006  0.1584934E+03  0.7546771E-02  0.1197694E+00
         -2   -1    0    0    0  501 -0.00000000000E+00  0.00000000000E+00  0.52391190539E+02  0.52391190539E+02  0.00000000000E+00 0.  1.
          2   -1    0    0  501    0  0.00000000000E+00 -0.00000000000E+00 -0.41252430727E+03  0.41252430727E+03  0.00000000000E+00 0. -1.
          5    1    1    2  502    0 -0.62452920639E+02  0.63961465572E+02 -0.15821174183E+03  0.18178141167E+03  0.47000000000E+01 0. -1.
         -5    1    1    2    0  502  0.52425949394E+02  0.32953121075E+02 -0.49048982992E+02  0.79134575825E+02  0.47000000000E+01 0. -1.
        -11    1    1    2    0    0  0.51545829725E+02 -0.47573923795E+02 -0.71338438379E+02  0.10004710679E+03  0.00000000000E+00 0. -1.
         11    1    1    2    0    0 -0.41518858480E+02 -0.49340662852E+02 -0.81533953530E+02  0.10395240352E+03  0.00000000000E+00 0.  1.
<mgrwt>
<rscale>  0 0.15228382E+03</rscale>
<asrwt>0</asrwt>
<pdfrwt beam="2">  1        2 0.63465278E-01 0.15849336E+03</pdfrwt>
<pdfrwt beam="1">  1       -2 0.80601832E-02 0.15849336E+03</pdfrwt>
<totfact> 0.69592369E+03</totfact>
</mgrwt>
</event>
<event>
 6    1  0.5818426E-006  0.1722697E+03  0.7546771E-02  0.1181408E+00
         -1   -1    0    0    0  501 -0.00000000000E+00  0.00000000000E+00  0.44131812243E+02  0.44131812243E+02  0.00000000000E+00 0. -1.
          1   -1    0    0  501    0  0.00000000000E+00 -0.00000000000E+00 -0.67001403553E+03  0.67001403553E+03  0.00000000000E+00 0.  1.
          5    1    1    2  502    0  0.22056617547E+02 -0.20773788646E+02 -0.35009778162E+02  0.46538363092E+02  0.47000000000E+01 0. -1.
         -5    1    1    2    0  502 -0.24916982382E+02  0.13927824159E+03 -0.17409706880E+03  0.22439065033E+03  0.47000000000E+01 0. -1.
        -11    1    1    2    0    0 -0.33878436772E+02 -0.15917145551E+02 -0.15918149000E+03  0.16352324226E+03  0.00000000000E+00 0. -1.
         11    1    1    2    0    0  0.36738801607E+02 -0.10258730740E+03 -0.25759388632E+03  0.27969359208E+03  0.00000000000E+00 0.  1.
<mgrwt>
<rscale>  0 0.16663039E+03</rscale>
<asrwt>0</asrwt>
<pdfrwt beam="2">  1        1 0.10307908E+00 0.17226972E+03</pdfrwt>
<pdfrwt beam="1">  1       -1 0.67895098E-02 0.17226972E+03</pdfrwt>
<totfact> 0.32750350E+03</totfact>
</mgrwt>
</event>
<event>
 6    1  0.5818426E-006  0.2842673E+03  0.7546771E-02  0.1093381E+00
         -1   -1    0    0    0  501 -0.00000000000E+00  0.00000000000E+00  0.94434298534E+03  0.94434298534E+03  0.00000000000E+00 0.  1.
          1   -1    0    0  501    0  0.00000000000E+00 -0.00000000000E+00 -0.21392617864E+02  0.21392617864E+02  0.00000000000E+00 0. -1.
          5    1    1    2  502    0  0.55350031440E+02 -0.66542862592E+02  0.49815870172E+03  0.50564390696E+03  0.47000000000E+01 0.  1.
         -5    1    1    2    0  502  0.12363893468E+02  0.23249920782E+01 -0.27809991707E+01  0.13714787867E+02  0.47000000000E+01 0.  1.
        -11    1    1    2    0    0 -0.82532511326E+02  0.26127749562E+02  0.31213687720E+03  0.32391928752E+03  0.00000000000E+00 0.  1.
         11    1    1    2    0    0  0.14818586418E+02  0.38090120951E+02  0.11543578773E+03  0.12245762086E+03  0.00000000000E+00 0. -1.
<mgrwt>
<rscale>  0 0.28426726E+03</rscale>
<asrwt>0</asrwt>
<pdfrwt beam="2">  1        1 0.32911727E-02 0.28426726E+03</pdfrwt>
<pdfrwt beam="1">  1       -1 0.14528350E+00 0.28426726E+03</pdfrwt>
<totfact> 0.12298064E+03</totfact>
</mgrwt>
</event>
<event>
 6    1  0.5818426E-006  0.1387822E+03  0.7546771E-02  0.1225399E+00
          1   -1    0    0  501    0  0.00000000000E+00  0.00000000000E+00  0.44777096485E+03  0.44777096485E+03  0.00000000000E+00 0. -1.
         -1   -1    0    0    0  501 -0.00000000000E+00 -0.00000000000E+00 -0.34977970361E+02  0.34977970361E+02  0.00000000000E+00 0.  1.
          5    1    1    2  502    0  0.39024743079E+02 -0.28140751909E+02  0.75010210166E+02  0.89238187563E+02  0.47000000000E+01 0.  1.
         -5    1    1    2    0  502 -0.90143640894E+02 -0.38335545324E+01  0.15343533011E+03  0.17805915495E+03  0.47000000000E+01 0.  1.
        -11    1    1    2    0    0  0.21547172661E+02  0.56204835989E+02  0.58547526886E+02  0.83970692165E+02  0.00000000000E+00 0.  1.
         11    1    1    2    0    0  0.29571725154E+02 -0.24230529547E+02  0.12579992733E+03  0.13148090054E+03  0.00000000000E+00 0. -1.
<mgrwt>
<rscale>  0 0.13139622E+03</rscale>
<asrwt>0</asrwt>
<pdfrwt beam="1">  1        1 0.68887837E-01 0.13878222E+03</pdfrwt>
<pdfrwt beam="2">  1       -1 0.53812265E-02 0.13878222E+03</pdfrwt>
<totfact> 0.78758711E+03</totfact>
</mgrwt>
</event>
<event>
 6    1  0.5818426E-006  0.1372361E+03  0.7546771E-02  0.1228725E+00
          2   -1    0    0  501    0  0.00000000000E+00  0.00000000000E+00  0.40117210862E+03  0.40117210862E+03  0.00000000000E+00 0. -1.
         -2   -1    0    0    0  501 -0.00000000000E+00 -0.00000000000E+00 -0.38020953684E+02  0.38020953684E+02  0.00000000000E+00 0.  1.
          5    1    1    2  502    0  0.28910719874E+02 -0.42732138429E+02  0.10802689336E+03  0.11980719957E+03  0.47000000000E+01 0.  1.
         -5    1    1    2    0  502 -0.76537078340E+02  0.12073194031E+02  0.66512346312E+02  0.10222362049E+03  0.47000000000E+01 0.  1.
        -11    1    1    2    0    0  0.31271644932E+02  0.56441566087E+02  0.72285365226E+02  0.96895511686E+02  0.00000000000E+00 0.  1.
         11    1    1    2    0    0  0.16354713534E+02 -0.25782621689E+02  0.11632655003E+03  0.12026673055E+03  0.00000000000E+00 0. -1.
<mgrwt>
<rscale>  0 0.12914813E+03</rscale>
<asrwt>0</asrwt>
<pdfrwt beam="1">  1        2 0.61718783E-01 0.13723607E+03</pdfrwt>
<pdfrwt beam="2">  1       -2 0.58493777E-02 0.13723607E+03</pdfrwt>
<totfact> 0.11606602E+04</totfact>
</mgrwt>
</event>
<event>
 6    1  0.5818426E-006  0.5218684E+03  0.7546771E-02  0.1008223E+00
          2   -1    0    0  501    0  0.00000000000E+00  0.00000000000E+00  0.59067827473E+02  0.59067827473E+02  0.00000000000E+00 0. -1.
         -2   -1    0    0    0  501 -0.00000000000E+00 -0.00000000000E+00 -0.11526860185E+04  0.11526860185E+04  0.00000000000E+00 0.  1.
          5    1    1    2  502    0  0.38524857907E+02  0.11381304059E+03 -0.80620037979E+03  0.81511883506E+03  0.47000000000E+01 0. -1.
         -5    1    1    2    0  502 -0.33296553933E+02 -0.64452181023E+01 -0.24880762766E+03  0.25115239780E+03  0.47000000000E+01 0.  1.
        -11    1    1    2    0    0 -0.46571121370E+02 -0.50295889846E+02 -0.93660973423E+01  0.69182871149E+02  0.00000000000E+00 0. -1.
         11    1    1    2    0    0  0.41342817395E+02 -0.57071932645E+02 -0.29244086250E+02  0.76299741982E+02  0.00000000000E+00 0.  1.
<mgrwt>
<rscale>  0 0.52186841E+03</rscale>
<asrwt>0</asrwt>
<pdfrwt beam="1">  1        2 0.90873595E-02 0.52186841E+03</pdfrwt>
<pdfrwt beam="2">  1       -2 0.17733628E+00 0.52186841E+03</pdfrwt>
<totfact> 0.14541790E+02</totfact>
</mgrwt>
</event>
<event>
 6    1  0.5818426E-006  0.2873694E+03  0.7546771E-02  0.1121078E+00
         -1   -1    0    0    0  501 -0.00000000000E+00  0.00000000000E+00  0.10134904137E+03  0.10134904137E+03  0.00000000000E+00 0.  1.
          1   -1    0    0  501    0  0.00000000000E+00 -0.00000000000E+00 -0.70212317683E+03  0.70212317683E+03  0.00000000000E+00 0. -1.
          5    1    1    2  502    0  0.11250093142E+03 -0.38113388621E+02 -0.77150985716E+02  0.14171610551E+03  0.47000000000E+01 0. -1.
         -5    1    1    2    0  502 -0.15781394306E+03 -0.50667176736E+02 -0.56136475855E+02  0.17505941090E+03  0.47000000000E+01 0.  1.
        -11    1    1    2    0    0 -0.69015710686E+01  0.82458949800E+02 -0.29188319907E+03  0.30338574783E+03  0.00000000000E+00 0.  1.
         11    1    1    2    0    0  0.52214582709E+02  0.63216155567E+01 -0.17560347483E+03  0.18331095396E+03  0.00000000000E+00 0. -1.
<mgrwt>
<rscale>  0 0.23808136E+03</rscale>
<asrwt>0</asrwt>
<pdfrwt beam="2">  1        1 0.10801895E+00 0.28736941E+03</pdfrwt>
<pdfrwt beam="1">  1       -1 0.15592160E-01 0.28736941E+03</pdfrwt>
<totfact> 0.84954827E+02</totfact>
</mgrwt>
</event>
<event>
 6    1  0.5818426E-006  0.1255274E+03  0.7546771E-02  0.1249268E+00
         -2   -1    0    0    0  501 -0.00000000000E+00  0.00000000000E+00  0.53345436229E+02  0.53345436229E+02  0.00000000000E+00 0.  1.
          2   -1    0    0  501    0  0.00000000000E+00 -0.00000000000E+00 -0.22301185716E+03  0.22301185716E+03  0.00000000000E+00 0. -1.
          5    1    1    2  502    0 -0.18811656199E+02 -0.53410320200E+02 -0.50828868696E+02  0.76237816113E+02  0.47000000000E+01 0. -1.
         -5    1    1    2    0  502  0.21347593383E+02  0.64599043013E+02 -0.45338301566E+02  0.81892659564E+02  0.47000000000E+01 0. -1.
        -11    1    1    2    0    0 -0.69875863925E+01 -0.38787058099E+02  0.19134561480E+00  0.39411912574E+02  0.00000000000E+00 0.  1.
         11    1    1    2    0    0  0.44516492079E+01  0.27598335285E+02 -0.73690596282E+02  0.78814905136E+02  0.00000000000E+00 0. -1.
<mgrwt>
<rscale>  0 0.11633514E+03</rscale>
<asrwt>0</asrwt>
<pdfrwt beam="2">  1        2 0.34309516E-01 0.12552738E+03</pdfrwt>
<pdfrwt beam="1">  1       -2 0.82069903E-02 0.12552738E+03</pdfrwt>
<totfact> 0.12812610E+04</totfact>
</mgrwt>
</event>
<event>
 6    1  0.5818426E-006  0.1765380E+03  0.7546771E-02  0.1177249E+00
          2   -1    0    0  501    0  0.00000000000E+00  0.00000000000E+00  0.11543869881E+03  0.11543869881E+03  0.00000000000E+00 0. -1.
         -2   -1    0    0    0  501 -0.00000000000E+00 -0.00000000000E+00 -0.29476551746E+03  0.29476551746E+03  0.00000000000E+00 0.  1.
          5    1    1    2  502    0 -0.74514178676E+01  0.64958937794E+01  0.18679595067E+02  0.21650347251E+02  0.47000000000E+01 0.  1.
         -5    1    1    2    0  502 -0.66447883390E+02  0.93901835221E+02 -0.20435472678E+03  0.23455451439E+03  0.47000000000E+01 0.  1.
        -11    1    1    2    0    0  0.76675285663E+02 -0.11510154666E+03  0.97795930136E+01  0.13864741582E+03  0.00000000000E+00 0. -1.
         11    1    1    2    0    0 -0.27759844057E+01  0.14703817655E+02 -0.34312799563E+01  0.15351938809E+02  0.00000000000E+00 0.  1.
<mgrwt>
<rscale>  0 0.17057528E+03</rscale>
<asrwt>0</asrwt>
<pdfrwt beam="1">  1        2 0.17759800E-01 0.17653803E+03</pdfrwt>
<pdfrwt beam="2">  1       -2 0.45348541E-01 0.17653803E+03</pdfrwt>
<totfact> 0.14659348E+03</totfact>
</mgrwt>
</event>
<event>
 6    1  0.5818426E-006  0.1481521E+03  0.7546771E-02  0.1212055E+00
          1   -1    0    0  501    0  0.00000000000E+00  0.00000000000E+00  0.64916198054E+02  0.64916198054E+02  0.00000000000E+00 0. -1.
         -1   -1    0    0    0  501 -0.00000000000E+00 -0.00000000000E+00 -0.30443845811E+03  0.30443845811E+03  0.00000000000E+00 0.  1.
          5    1    1    2  502    0  0.39668061287E+02  0.32946112407E+01 -0.51714293262E+01  0.40413404098E+02  0.47000000000E+01 0. -1.
         -5    1    1    2    0  502 -0.14310780419E+02 -0.78673875945E+02 -0.17784589938E+03  0.19505289313E+03  0.47000000000E+01 0. -1.
        -11    1    1    2    0    0 -0.23921840586E+02  0.54086584785E+02  0.13534682442E+02  0.60669603094E+02  0.00000000000E+00 0. -1.
         11    1    1    2    0    0 -0.14354402824E+01  0.21292679920E+02 -0.70039613789E+02  0.73218755839E+02  0.00000000000E+00 0.  1.
<mgrwt>
<rscale>  0 0.14095102E+03</rscale>
<asrwt>0</asrwt>
<pdfrwt beam="1">  1        1 0.99871074E-02 0.14815207E+03</pdfrwt>
<pdfrwt beam="2">  1       -1 0.46836686E-01 0.14815207E+03</pdfrwt>
<totfact> 0.28889246E+03</totfact>
</mgrwt>
</event>
<event>
 6    1  0.5818426E-006  0.1723653E+03  0.7546771E-02  0.1188786E+00
         -1   -1    0    0    0  501 -0.00000000000E+00  0.00000000000E+00  0.51337073233E+02  0.51337073233E+02  0.00000000000E+00 0.  1.
          1   -1    0    0  501    0  0.00000000000E+00 -0.00000000000E+00 -0.47274784461E+03  0.47274784461E+03  0.00000000000E+00 0. -1.
          5    1    1    2  502    0  0.29881950613E+02  0.55926126998E+02 -0.19761829527E+03  0.20759514271E+03  0.47000000000E+01 0. -1.
         -5    1    1    2    0  502  0.37238965202E+01  0.19834282166E+02  0.27599832514E+02  0.34512416738E+02  0.47000000000E+01 0.  1.
        -11    1    1    2    0    0 -0.45542352740E+02  0.41884542661E+01 -0.10964087603E+03  0.11879718321E+03  0.00000000000E+00 0.  1.
         11    1    1    2    0    0  0.11936505607E+02 -0.79948863430E+02 -0.14175143259E+03  0.16318017518E+03  0.00000000000E+00 0. -1.
<mgrwt>
<rscale>  0 0.15992065E+03</rscale>
<asrwt>0</asrwt>
<pdfrwt beam="2">  1        1 0.72730435E-01 0.17236529E+03</pdfrwt>
<pdfrwt beam="1">  1       -1 0.78980116E-02 0.17236529E+03</pdfrwt>
<totfact> 0.41781963E+03</totfact>
</mgrwt>
</event>
<event>
 6    1  0.5818426E-006  0.1535845E+03  0.7546771E-02  0.1204634E+00
         -1   -1    0    0    0  501 -0.00000000000E+00  0.00000000000E+00  0.18193414102E+02  0.18193414102E+02  0.00000000000E+00 0.  1.
          1   -1    0    0  501    0  0.00000000000E+00 -0.00000000000E+00 -0.11623244698E+04  0.11623244698E+04  0.00000000000E+00 0. -1.
          5    1    1    2  502    0 -0.88637526946E+02  0.16551110548E+02 -0.17561838893E+03  0.19747014705E+03  0.47000000000E+01 0.  1.
         -5    1    1    2    0  502  0.15789501479E+02  0.34958221932E+02 -0.29633928971E+03  0.29884854068E+03  0.47000000000E+01 0.  1.
        -11    1    1    2    0    0  0.93803786121E+02 -0.32075436197E+02 -0.52225095480E+03  0.53157694051E+03  0.00000000000E+00 0. -1.
         11    1    1    2    0    0 -0.20955760654E+02 -0.19433896283E+02 -0.14992242228E+03  0.15262225569E+03  0.00000000000E+00 0.  1.
<mgrwt>
<rscale>  0 0.14666355E+03</rscale>
<asrwt>0</asrwt>
<pdfrwt beam="2">  1        1 0.17881922E+00 0.15358447E+03</pdfrwt>
<pdfrwt beam="1">  1       -1 0.27989857E-02 0.15358447E+03</pdfrwt>
<totfact> 0.50027922E+03</totfact>
</mgrwt>
</event>
<event>
 6    1  0.5818426E-006  0.1895109E+03  0.7546771E-02  0.1163184E+00
         -1   -1    0    0    0  501 -0.00000000000E+00  0.00000000000E+00  0.12870034951E+04  0.12870034951E+04  0.00000000000E+00 0.  1.
          1   -1    0    0  501    0  0.00000000000E+00 -0.00000000000E+00 -0.58861039694E+02  0.58861039694E+02  0.00000000000E+00 0. -1.
          5    1    1    2  502    0 -0.43813661449E+02  0.91282375353E+02  0.41512633416E+03  0.42732197731E+03  0.47000000000E+01 0. -1.
         -5    1    1    2    0  502 -0.70787521645E+02 -0.66764417179E+01  0.71974007377E+03  0.72325881390E+03  0.47000000000E+01 0. -1.
        -11    1    1    2    0    0 -0.66984334637E+01 -0.18752040160E+02 -0.10582650450E+02  0.22549955910E+02  0.00000000000E+00 0. -1.
         11    1    1    2    0    0  0.12129961656E+03 -0.65853893476E+02  0.10385869789E+03  0.17273378763E+03  0.00000000000E+00 0.  1.
<mgrwt>
<rscale>  0 0.18485632E+03</rscale>
<asrwt>0</asrwt>
<pdfrwt beam="2">  1        1 0.90555455E-02 0.18951093E+03</pdfrwt>
<pdfrwt beam="1">  1       -1 0.19800052E+00 0.18951093E+03</pdfrwt>
<totfact> 0.12790886E+02</totfact>
</mgrwt>
</event>
<event>
 6    1  0.5818426E-006  0.1180077E+03  0.7546771E-02  0.1266225E+00
         -2   -1    0    0    0  501 -0.00000000000E+00  0.00000000000E+00  0.14607869919E+03  0.14607869919E+03  0.00000000000E+00 0.  1.
          2   -1    0    0  501    0  0.00000000000E+00 -0.00000000000E+00 -0.67905764592E+02  0.67905764592E+02  0.00000000000E+00 0. -1.
          5    1    1    2  502    0  0.37635789759E+02 -0.26920044515E+02 -0.69049942449E+01  0.47020319150E+02  0.47000000000E+01 0. -1.
         -5    1    1    2    0  502 -0.18396405721E+02  0.50041835276E+02  0.65946364683E+02  0.84933067978E+02  0.47000000000E+01 0.  1.
        -11    1    1    2    0    0 -0.11299125211E+02 -0.42183455854E+02  0.35019002992E+02  0.55977180609E+02  0.00000000000E+00 0. -1.
         11    1    1    2    0    0 -0.79402588268E+01  0.19061665092E+02 -0.15887438834E+02  0.26053896043E+02  0.00000000000E+00 0.  1.
<mgrwt>
<rscale>  0 0.10700181E+03</rscale>
<asrwt>0</asrwt>
<pdfrwt beam="2">  1        2 0.10447041E-01 0.11800768E+03</pdfrwt>
<pdfrwt beam="1">  1       -2 0.22473646E-01 0.11800768E+03</pdfrwt>
<totfact> 0.96550799E+03</totfact>
</mgrwt>
</event>
<event>
 6    1  0.5818426E-006  0.1558335E+03  0.7546771E-02  0.1202018E+00
         -3   -1    0    0    0  501 -0.00000000000E+00  0.00000000000E+00  0.14739393082E+03  0.14739393082E+03  0.00000000000E+00 0.  1.
          3   -1    0    0  501    0  0.00000000000E+00 -0.00000000000E+00 -0.16365359285E+03  0.16365359285E+03  0.00000000000E+00 0. -1.
          5    1    1    2  502    0 -0.20930876776E+02 -0.71788618326E+02  0.94516025018E+01  0.75519071191E+02  0.47000000000E+01 0.  1.
         -5    1    1    2    0  502  0.77613725770E+02 -0.20090378164E+01  0.43172523655E+02  0.88960010452E+02  0.47000000000E+01 0.  1.
        -11    1    1    2    0    0 -0.34399066747E+02  0.20338162132E+02  0.16632436452E+02  0.43284807662E+02  0.00000000000E+00 0.  1.
         11    1    1    2    0    0 -0.22283782247E+02  0.53459494010E+02 -0.85516224643E+02  0.10328363437E+03  0.00000000000E+00 0. -1.
<mgrwt>
<rscale>  0 0.14874978E+03</rscale>
<asrwt>0</asrwt>
<pdfrwt beam="2">  1        3 0.25177476E-01 0.15583347E+03</pdfrwt>
<pdfrwt beam="1">  1       -3 0.22675990E-01 0.15583347E+03</pdfrwt>
<totfact> 0.62795692E+02</totfact>
</mgrwt>
</event>
<event>
 6    1  0.5818426E-006  0.1540180E+03  0.7546771E-02  0.1203737E+00
          2   -1    0    0  501    0  0.00000000000E+00  0.00000000000E+00  0.61560166625E+02  0.61560166625E+02  0.00000000000E+00 0. -1.
         -2   -1    0    0    0  501 -0.00000000000E+00 -0.00000000000E+00 -0.33353313059E+03  0.33353313059E+03  0.00000000000E+00 0.  1.
          5    1    1    2  502    0 -0.24621938357E+02  0.12016188291E+02  0.14535571558E+02  0.31368797714E+02  0.47000000000E+01 0. -1.
         -5    1    1    2    0  502 -0.27371601196E+02  0.61422000245E+02 -0.19264313353E+03  0.20409638302E+03  0.47000000000E+01 0. -1.
        -11    1    1    2    0    0  0.29863988513E+02 -0.76857093853E+02 -0.10589355241E+03  0.13420996657E+03  0.00000000000E+00 0.  1.
         11    1    1    2    0    0  0.22129551040E+02  0.34189053167E+01  0.12028150408E+02  0.25418149913E+02  0.00000000000E+00 0. -1.
<mgrwt>
<rscale>  0 0.14737437E+03</rscale>
<asrwt>0</asrwt>
<pdfrwt beam="1">  1        2 0.94707951E-02 0.15401801E+03</pdfrwt>
<pdfrwt beam="2">  1       -2 0.51312788E-01 0.15401801E+03</pdfrwt>
<totfact> 0.24253660E+03</totfact>
</mgrwt>
</event>
<event>
 6    1  0.5818426E-006  0.1458475E+03  0.7546771E-02  0.1215800E+00
         -2   -1    0    0    0  501 -0.00000000000E+00  0.00000000000E+00  0.70587670283E+03  0.70587670283E+03  0.00000000000E+00 0.  1.
          2   -1    0    0  501    0  0.00000000000E+00 -0.00000000000E+00 -0.30428153704E+02  0.30428153704E+02  0.00000000000E+00 0. -1.
          5    1    1    2  502    0  0.26767710660E+02  0.31916044761E+02  0.16170140019E+03  0.16704663143E+03  0.47000000000E+01 0.  1.
         -5    1    1    2    0  502 -0.10128682711E+03 -0.22290107590E+02  0.36622168215E+03  0.38065244084E+03  0.47000000000E+01 0.  1.
        -11    1    1    2    0    0  0.61056449932E+02 -0.40050108347E+02  0.13417489206E+03  0.15275733343E+03  0.00000000000E+00 0. -1.
         11    1    1    2    0    0  0.13462666521E+02  0.30424171176E+02  0.13350574720E+02  0.35848450831E+02  0.00000000000E+00 0.  1.
<mgrwt>
<rscale>  0 0.13817901E+03</rscale>
<asrwt>0</asrwt>
<pdfrwt beam="2">  1        2 0.46812549E-02 0.14584750E+03</pdfrwt>
<pdfrwt beam="1">  1       -2 0.10859640E+00 0.14584750E+03</pdfrwt>
<totfact> 0.11772150E+03</totfact>
</mgrwt>
</event>
<event>
 6    1  0.5818426E-006  0.1323057E+03  0.7546771E-02  0.1237892E+00
         -1   -1    0    0    0  501 -0.00000000000E+00  0.00000000000E+00  0.27622313667E+02  0.27622313667E+02  0.00000000000E+00 0.  1.
          1   -1    0    0  501    0  0.00000000000E+00 -0.00000000000E+00 -0.48990516705E+03  0.48990516705E+03  0.00000000000E+00 0. -1.
          5    1    1    2  502    0 -0.23623878981E+02  0.18413588570E+02 -0.20549813554E+03  0.20772270365E+03  0.47000000000E+01 0. -1.
         -5    1    1    2    0  502  0.56309369878E+02  0.10100072700E+02 -0.36328372659E+02  0.67930827057E+02  0.47000000000E+01 0. -1.
        -11    1    1    2    0    0  0.94240594403E+01 -0.20198048580E+02 -0.58859434686E+01  0.23052513817E+02  0.00000000000E+00 0.  1.
         11    1    1    2    0    0 -0.42109550338E+02 -0.83156126910E+01 -0.21457040172E+03  0.21882143620E+03  0.00000000000E+00 0. -1.
<mgrwt>
<rscale>  0 0.12321098E+03</rscale>
<asrwt>0</asrwt>
<pdfrwt beam="2">  1        1 0.75370018E-01 0.13230574E+03</pdfrwt>
<pdfrwt beam="1">  1       -1 0.42495872E-02 0.13230574E+03</pdfrwt>
<totfact> 0.99089575E+03</totfact>
</mgrwt>
</event>
<event>
 6    1  0.5818426E-006  0.3658691E+03  0.7546771E-02  0.1058451E+00
         -3   -1    0    0    0  501 -0.00000000000E+00  0.00000000000E+00  0.60155216834E+03  0.60155216834E+03  0.00000000000E+00 0.  1.
          3   -1    0    0  501    0  0.00000000000E+00 -0.00000000000E+00 -0.21188996268E+03  0.21188996268E+03  0.00000000000E+00 0. -1.
          5    1    1    2  502    0  0.29207007347E+03 -0.18717896984E+03  0.23980671592E+03  0.42174666041E+03  0.47000000000E+01 0. -1.
         -5    1    1    2    0  502 -0.16342746414E+02  0.31908785511E+01  0.35422892702E+01  0.17660828960E+02  0.47000000000E+01 0.  1.
        -11    1    1    2    0    0 -0.16197768325E+03  0.12048719875E+03  0.13587445547E+03  0.24334297315E+03  0.00000000000E+00 0. -1.
         11    1    1    2    0    0 -0.11374964381E+03  0.63500892534E+02  0.10438744997E+02  0.13069166850E+03  0.00000000000E+00 0.  1.
<mgrwt>
<rscale>  0 0.36033506E+03</rscale>
<asrwt>0</asrwt>
<pdfrwt beam="2">  1        3 0.32598456E-01 0.36586911E+03</pdfrwt>
<pdfrwt beam="1">  1       -3 0.92546487E-01 0.36586911E+03</pdfrwt>
<totfact> 0.24957373E+01</totfact>
</mgrwt>
</event>
<event>
 6    1  0.5818426E-006  0.1747903E+03  0.7546771E-02  0.1178934E+00
          1   -1    0    0  501    0  0.00000000000E+00  0.00000000000E+00  0.66827982963E+03  0.66827982963E+03  0.00000000000E+00 0. -1.
         -1   -1    0    0    0  501 -0.00000000000E+00 -0.00000000000E+00 -0.56879637692E+02  0.56879637692E+02  0.00000000000E+00 0.  1.
          5    1    1    2  502    0 -0.38556841669E+02 -0.37667968275E+02  0.73344622610E+02  0.91142907234E+02  0.47000000000E+01 0. -1.
         -5    1    1    2    0  502  0.81873042016E+02 -0.76586951769E+02  0.50348375905E+02  0.12298701210E+03  0.47000000000E+01 0. -1.
        -11    1    1    2    0    0 -0.67421711540E+02  0.55049673057E+02  0.31747725847E+03  0.32919289685E+03  0.00000000000E+00 0. -1.
         11    1    1    2    0    0  0.24105511193E+02  0.59205246986E+02  0.17022993495E+03  0.18183665113E+03  0.00000000000E+00 0.  1.
<mgrwt>
<rscale>  0 0.16896276E+03</rscale>
<asrwt>0</asrwt>
<pdfrwt beam="1">  1        1 0.10281228E+00 0.17479034E+03</pdfrwt>
<pdfrwt beam="2">  1       -1 0.87507140E-02 0.17479034E+03</pdfrwt>
<totfact> 0.22386767E+03</totfact>
</mgrwt>
</event>
<event>
 6    1  0.5818426E-006  0.2005992E+03  0.7546771E-02  0.1153758E+00
          4   -1    0    0  501    0  0.00000000000E+00  0.00000000000E+00  0.10260463805E+04  0.10260463805E+04  0.00000000000E+00 0. -1.
         -4   -1    0    0    0  501 -0.00000000000E+00 -0.00000000000E+00 -0.35884469529E+02  0.35884469529E+02  0.00000000000E+00 0.  1.
          5    1    1    2  502    0 -0.54142976956E+02 -0.28094680199E+02  0.82722454376E+02  0.10288764487E+03  0.47000000000E+01 0. -1.
         -5    1    1    2    0  502 -0.87578699635E+01 -0.11564971016E+03  0.50348722540E+03  0.51669433119E+03  0.47000000000E+01 0. -1.
        -11    1    1    2    0    0  0.36629202747E+02  0.11992812855E+03  0.37841400074E+03  0.39864973406E+03  0.00000000000E+00 0. -1.
         11    1    1    2    0    0  0.26271644173E+02  0.23816261805E+02  0.25538230468E+02  0.43699139915E+02  0.00000000000E+00 0.  1.
<mgrwt>
<rscale>  0 0.19530985E+03</rscale>
<asrwt>0</asrwt>
<pdfrwt beam="1">  1        4 0.15785327E+00 0.20059919E+03</pdfrwt>
<pdfrwt beam="2">  1       -4 0.55206884E-02 0.20059919E+03</pdfrwt>
<totfact> 0.10067984E+02</totfact>
</mgrwt>
</event>
<event>
 6    1  0.5818426E-006  0.1855623E+03  0.7546771E-02  0.1168039E+00
          2   -1    0    0  501    0  0.00000000000E+00  0.00000000000E+00  0.48409901030E+03  0.48409901030E+03  0.00000000000E+00 0. -1.
         -2   -1    0    0    0  501 -0.00000000000E+00 -0.00000000000E+00 -0.72243548674E+02  0.72243548674E+02  0.00000000000E+00 0.  1.
          5    1    1    2  502    0 -0.23017877345E+02 -0.90562424389E+02  0.72121139770E+02  0.11813096203E+03  0.47000000000E+01 0.  1.
         -5    1    1    2    0  502  0.86180397695E+02 -0.28155849246E+02  0.45268760897E+02  0.10144537203E+03  0.47000000000E+01 0.  1.
        -11    1    1    2    0    0 -0.10966453615E+02  0.73251061848E+02  0.23196500476E+03  0.24350306897E+03  0.00000000000E+00 0. -1.
         11    1    1    2    0    0 -0.52196066736E+02  0.45467211787E+02  0.62500556204E+02  0.93263155942E+02  0.00000000000E+00 0.  1.
<mgrwt>
<rscale>  0 0.17975640E+03</rscale>
<asrwt>0</asrwt>
<pdfrwt beam="1">  1        2 0.74476769E-01 0.18556233E+03</pdfrwt>
<pdfrwt beam="2">  1       -2 0.11114392E-01 0.18556233E+03</pdfrwt>
<totfact> 0.35524290E+03</totfact>
</mgrwt>
</event>
<event>
 6    1  0.5818426E-006  0.1527227E+03  0.7546771E-02  0.1205427E+00
         -1   -1    0    0    0  501 -0.00000000000E+00  0.00000000000E+00  0.61436836103E+02  0.61436836103E+02  0.00000000000E+00 0.  1.
          1   -1    0    0  501    0  0.00000000000E+00 -0.00000000000E+00 -0.52825178798E+03  0.52825178798E+03  0.00000000000E+00 0. -1.
          5    1    1    2  502    0 -0.72217688030E+02 -0.92668225028E+02 -0.40542288091E+02  0.12437267191E+03  0.47000000000E+01 0. -1.
         -5    1    1    2    0  502  0.30321359580E+02  0.15579206969E+02 -0.20794268499E+02  0.40206817071E+02  0.47000000000E+01 0. -1.
        -11    1    1    2    0    0  0.34409560668E+02  0.54820234409E+01 -0.42013837772E+02  0.54582350725E+02  0.00000000000E+00 0.  1.
         11    1    1    2    0    0  0.74867677817E+01  0.71606994618E+02 -0.36346455752E+03  0.37052678438E+03  0.00000000000E+00 0. -1.
<mgrwt>
<rscale>  0 0.14603873E+03</rscale>
<asrwt>0</asrwt>
<pdfrwt beam="2">  1        1 0.81269506E-01 0.15272274E+03</pdfrwt>
<pdfrwt beam="1">  1       -1 0.94518209E-02 0.15272274E+03</pdfrwt>
<totfact> 0.27355809E+03</totfact>
</mgrwt>
</event>
<event>
 6    1  0.5818426E-006  0.1232033E+03  0.7546771E-02  0.1247696E+00
          2   -1    0    0  501    0  0.00000000000E+00  0.00000000000E+00  0.11912264005E+03  0.11912264005E+03  0.00000000000E+00 0. -1.
         -2   -1    0    0    0  501 -0.00000000000E+00 -0.00000000000E+00 -0.26970700694E+03  0.26970700694E+03  0.00000000000E+00 0.  1.
          5    1    1    2  502    0 -0.24011139376E+02  0.13401789320E+02  0.15994827730E+01  0.27942639751E+02  0.47000000000E+01 0. -1.
         -5    1    1    2    0  502 -0.11254157709E+01  0.25273638566E+02 -0.23117715129E+03  0.23260479068E+03  0.47000000000E+01 0.  1.
        -11    1    1    2    0    0  0.53854532047E+01  0.10577380644E+02 -0.15731096534E+02  0.19706635575E+02  0.00000000000E+00 0.  1.
         11    1    1    2    0    0  0.19751101943E+02 -0.49252808531E+02  0.94724398173E+02  0.10857558098E+03  0.00000000000E+00 0. -1.
<mgrwt>
<rscale>  0 0.11725435E+03</rscale>
<asrwt>0</asrwt>
<pdfrwt beam="1">  1        2 0.18326560E-01 0.12320332E+03</pdfrwt>
<pdfrwt beam="2">  1       -2 0.41493385E-01 0.12320332E+03</pdfrwt>
<totfact> 0.16545433E+03</totfact>
</mgrwt>
</event>
<event>
 6    1  0.5818426E-006  0.1768985E+03  0.7546771E-02  0.1176244E+00
         -2   -1    0    0    0  501 -0.00000000000E+00  0.00000000000E+00  0.52326019592E+02  0.52326019592E+02  0.00000000000E+00 0.  1.
          2   -1    0    0  501    0  0.00000000000E+00 -0.00000000000E+00 -0.53548392364E+03  0.53548392364E+03  0.00000000000E+00 0. -1.
          5    1    1    2  502    0 -0.35167832574E+02  0.12618287026E+02  0.60367199796E+01  0.38138295761E+02  0.47000000000E+01 0. -1.
         -5    1    1    2    0  502 -0.88104869820E+02  0.90894356074E+01 -0.23513511764E+03  0.25130797734E+03  0.47000000000E+01 0. -1.
        -11    1    1    2    0    0  0.11733872116E+03 -0.41644005924E+02 -0.16386490722E+03  0.20580161936E+03  0.00000000000E+00 0.  1.
         11    1    1    2    0    0  0.59339812359E+01  0.19936283291E+02 -0.90194599167E+02  0.92562050775E+02  0.00000000000E+00 0. -1.
<mgrwt>
<rscale>  0 0.17154680E+03</rscale>
<asrwt>0</asrwt>
<pdfrwt beam="2">  1        2 0.82382147E-01 0.17689847E+03</pdfrwt>
<pdfrwt beam="1">  1       -2 0.80501564E-02 0.17689847E+03</pdfrwt>
<totfact> 0.52666412E+03</totfact>
</mgrwt>
</event>
<event>
 6    1  0.5818426E-006  0.1468368E+03  0.7546771E-02  0.1214018E+00
          2   -1    0    0  501    0  0.00000000000E+00  0.00000000000E+00  0.13452731592E+03  0.13452731592E+03  0.00000000000E+00 0. -1.
         -2   -1    0    0    0  501 -0.00000000000E+00 -0.00000000000E+00 -0.14021037167E+03  0.14021037167E+03  0.00000000000E+00 0.  1.
          5    1    1    2  502    0 -0.61199450577E+02  0.84596580488E+02 -0.51403132943E+02  0.11647457344E+03  0.47000000000E+01 0. -1.
         -5    1    1    2    0  502  0.26803463764E+02 -0.15664549111E+02  0.15014154504E+02  0.34804002702E+02  0.47000000000E+01 0. -1.
        -11    1    1    2    0    0 -0.27437402878E+02 -0.26899726119E+02 -0.80293148165E+01  0.39253996464E+02  0.00000000000E+00 0.  1.
         11    1    1    2    0    0  0.61833389691E+02 -0.42032305259E+02  0.38735237508E+02  0.84205114992E+02  0.00000000000E+00 0. -1.
<mgrwt>
<rscale>  0 0.13948919E+03</rscale>
<asrwt>0</asrwt>
<pdfrwt beam="1">  1        2 0.20696510E-01 0.14683681E+03</pdfrwt>
<pdfrwt beam="2">  1       -2 0.21570826E-01 0.14683681E+03</pdfrwt>
<totfact> 0.47230518E+03</totfact>
</mgrwt>
</event>
<event>
 6    1  0.5818426E-006  0.2079212E+03  0.7546771E-02  0.1147556E+00
          2   -1    0    0  501    0  0.00000000000E+00  0.00000000000E+00  0.32117525554E+03  0.32117525554E+03  0.00000000000E+00 0. -1.
         -2   -1    0    0    0  501 -0.00000000000E+00 -0.00000000000E+00 -0.12196559270E+03  0.12196559270E+03  0.00000000000E+00 0.  1.
          5    1    1    2  502    0  0.15694377251E+03 -0.65423157736E+01  0.11157311044E+03  0.19272985913E+03  0.47000000000E+01 0.  1.
         -5    1    1    2    0  502  0.51193368083E+01 -0.30247519088E+02 -0.17337248068E+02  0.35549826876E+02  0.47000000000E+01 0.  1.
        -11    1    1    2    0    0 -0.32989406067E+02 -0.27431815191E+02  0.30095392937E+02  0.52407423838E+02  0.00000000000E+00 0.  1.
         11    1    1    2    0    0 -0.12907370325E+03  0.64221650052E+02  0.74878407536E+02  0.16245373841E+03  0.00000000000E+00 0. -1.
<mgrwt>
<rscale>  0 0.20260878E+03</rscale>
<asrwt>0</asrwt>
<pdfrwt beam="1">  1        2 0.49411577E-01 0.20792118E+03</pdfrwt>
<pdfrwt beam="2">  1       -2 0.18763938E-01 0.20792118E+03</pdfrwt>
<totfact> 0.23547731E+03</totfact>
</mgrwt>
</event>
<event>
 6    1  0.5818426E-006  0.5449513E+03  0.7546771E-02  0.1002669E+00
          1   -1    0    0  501    0  0.00000000000E+00  0.00000000000E+00  0.62724867216E+03  0.62724867216E+03  0.00000000000E+00 0. -1.
         -1   -1    0    0    0  501 -0.00000000000E+00 -0.00000000000E+00 -0.11836289335E+03  0.11836289335E+03  0.00000000000E+00 0.  1.
          5    1    1    2  502    0  0.19231401368E+01  0.19617544448E+02 -0.29470736408E+02  0.35765357856E+02  0.47000000000E+01 0. -1.
         -5    1    1    2    0  502  0.50317360672E+02 -0.13261663709E+03 -0.76890962735E+01  0.14212748298E+03  0.47000000000E+01 0.  1.
        -11    1    1    2    0    0  0.21461794932E+02  0.32197221682E+02  0.78065955543E+02  0.87129576727E+02  0.00000000000E+00 0.  1.
         11    1    1    2    0    0 -0.73702295740E+02  0.80801870957E+02  0.46797965595E+03  0.48058914795E+03  0.00000000000E+00 0. -1.
<mgrwt>
<rscale>  0 0.54495126E+03</rscale>
<asrwt>0</asrwt>
<pdfrwt beam="1">  1        1 0.96499794E-01 0.54495126E+03</pdfrwt>
<pdfrwt beam="2">  1       -1 0.18209676E-01 0.54495126E+03</pdfrwt>
<totfact> 0.77368673E+02</totfact>
</mgrwt>
</event>
<event>
 6    1  0.5818426E-006  0.1634133E+03  0.7546771E-02  0.1194218E+00
          1   -1    0    0  501    0  0.00000000000E+00  0.00000000000E+00  0.11194019612E+03  0.11194019612E+03  0.00000000000E+00 0. -1.
         -1   -1    0    0    0  501 -0.00000000000E+00 -0.00000000000E+00 -0.51544490642E+03  0.51544490642E+03  0.00000000000E+00 0.  1.
          5    1    1    2  502    0  0.18371092021E+02 -0.18072922546E+02 -0.89544711096E+01  0.27683932240E+02  0.47000000000E+01 0. -1.
         -5    1    1    2    0  502  0.61750815598E+02  0.70004725707E+02 -0.44706568178E+03  0.45673147327E+03  0.47000000000E+01 0.  1.
        -11    1    1    2    0    0 -0.51348174228E+02 -0.69396622514E+02  0.63935692862E+02  0.10742578384E+03  0.00000000000E+00 0.  1.
         11    1    1    2    0    0 -0.28773733392E+02  0.17464819353E+02 -0.11420250284E+02  0.35543913190E+02  0.00000000000E+00 0. -1.
<mgrwt>
<rscale>  0 0.15520596E+03</rscale>
<asrwt>0</asrwt>
<pdfrwt beam="1">  1        1 0.17221569E-01 0.16341330E+03</pdfrwt>
<pdfrwt beam="2">  1       -1 0.79299214E-01 0.16341330E+03</pdfrwt>
<totfact> 0.51682376E+02</totfact>
</mgrwt>
</event>
<event>
 6    1  0.5818426E-006  0.1523638E+03  0.7546771E-02  0.1206349E+00
         -1   -1    0    0    0  501 -0.00000000000E+00  0.00000000000E+00  0.13222631864E+03  0.13222631864E+03  0.00000000000E+00 0.  1.
          1   -1    0    0  501    0  0.00000000000E+00 -0.00000000000E+00 -0.15437916797E+03  0.15437916797E+03  0.00000000000E+00 0. -1.
          5    1    1    2  502    0 -0.85462685428E+02  0.43432976053E+02 -0.91403675786E+01  0.96415405039E+02  0.47000000000E+01 0. -1.
         -5    1    1    2    0  502  0.38749016202E+02  0.30087208155E+02  0.29145178997E+02  0.57256072254E+02  0.47000000000E+01 0. -1.
        -11    1    1    2    0    0 -0.11182752721E+01  0.20369438909E+02 -0.35175598154E+01  0.20701154753E+02  0.00000000000E+00 0.  1.
         11    1    1    2    0    0  0.47831944498E+02 -0.93889623117E+02 -0.38640100937E+02  0.11223285457E+03  0.00000000000E+00 0. -1.
<mgrwt>
<rscale>  0 0.14531691E+03</rscale>
<asrwt>0</asrwt>
<pdfrwt beam="2">  1        1 0.23750641E-01 0.15236381E+03</pdfrwt>
<pdfrwt beam="1">  1       -1 0.20342511E-01 0.15236381E+03</pdfrwt>
<totfact> 0.38753168E+03</totfact>
</mgrwt>
</event>
<event>
 6    1  0.5818426E-006  0.1395482E+03  0.7546771E-02  0.1222196E+00
         -2   -1    0    0    0  501 -0.00000000000E+00  0.00000000000E+00  0.14729712563E+03  0.14729712563E+03  0.00000000000E+00 0.  1.
          2   -1    0    0  501    0  0.00000000000E+00 -0.00000000000E+00 -0.14629282283E+03  0.14629282283E+03  0.00000000000E+00 0. -1.
          5    1    1    2  502    0  0.42343351721E+02  0.16194127100E+01  0.99269632112E+02  0.10803764063E+03  0.47000000000E+01 0. -1.
         -5    1    1    2    0  502  0.71086122112E+01 -0.39118462904E+02 -0.27806103460E+02  0.48744803796E+02  0.47000000000E+01 0. -1.
        -11    1    1    2    0    0 -0.40064832129E+02  0.61140130801E+02 -0.13373642377E+02  0.74311241938E+02  0.00000000000E+00 0.  1.
         11    1    1    2    0    0 -0.93871318027E+01 -0.23641080607E+02 -0.57085583476E+02  0.62496262100E+02  0.00000000000E+00 0. -1.
<mgrwt>
<rscale>  0 0.13360973E+03</rscale>
<asrwt>0</asrwt>
<pdfrwt beam="2">  1        2 0.22506588E-01 0.13954820E+03</pdfrwt>
<pdfrwt beam="1">  1       -2 0.22661096E-01 0.13954820E+03</pdfrwt>
<totfact> 0.39379626E+03</totfact>
</mgrwt>
</event>
<event>
 6    1  0.5818426E-006  0.1987369E+03  0.7546771E-02  0.1155270E+00
          3   -1    0    0  501    0  0.00000000000E+00  0.00000000000E+00  0.37556302445E+03  0.37556302445E+03  0.00000000000E+00 0. -1.
         -3   -1    0    0    0  501 -0.00000000000E+00 -0.00000000000E+00 -0.97578581118E+02  0.97578581118E+02  0.00000000000E+00 0.  1.
          5    1    1    2  502    0 -0.89626048831E+02  0.60974844057E+02  0.53367267450E+02  0.12091697760E+03  0.47000000000E+01 0.  1.
         -5    1    1    2    0  502  0.33888005460E+02  0.83265917695E+02  0.53829784898E+02  0.10488730002E+03  0.47000000000E+01 0.  1.
        -11    1    1    2    0    0  0.65376605296E+02 -0.48854396687E+02  0.94143327048E+02  0.12459461715E+03  0.00000000000E+00 0.  1.
         11    1    1    2    0    0 -0.96385619248E+01 -0.95386365064E+02  0.76644063932E+02  0.12274271079E+03  0.00000000000E+00 0. -1.
<mgrwt>
<rscale>  0 0.19358212E+03</rscale>
<asrwt>0</asrwt>
<pdfrwt beam="1">  1        3 0.57778926E-01 0.19873692E+03</pdfrwt>
<pdfrwt beam="2">  1       -3 0.15012090E-01 0.19873692E+03</pdfrwt>
<totfact> 0.26939151E+02</totfact>
</mgrwt>
</event>
<event>
 6    1  0.5818426E-006  0.1469559E+03  0.7546771E-02  0.1216598E+00
          1   -1    0    0  501    0  0.00000000000E+00  0.00000000000E+00  0.65800563347E+03  0.65800563347E+03  0.00000000000E+00 0. -1.
         -1   -1    0    0    0  501 -0.00000000000E+00 -0.00000000000E+00 -0.26064313722E+02  0.26064313722E+02  0.00000000000E+00 0.  1.
          5    1    1    2  502    0  0.10192163556E+03  0.40250620746E+02  0.32767253886E+03  0.34554234905E+03  0.47000000000E+01 0.  1.
         -5    1    1    2    0  502 -0.26615585356E+02 -0.22916352419E+02  0.70968310479E+02  0.79323008543E+02  0.47000000000E+01 0.  1.
        -11    1    1    2    0    0 -0.63744989735E+01  0.27199831173E+02  0.88025979756E+02  0.92352791863E+02  0.00000000000E+00 0.  1.
         11    1    1    2    0    0 -0.68931551227E+02 -0.44534099500E+02  0.14527449065E+03  0.16685179774E+03  0.00000000000E+00 0. -1.
<mgrwt>
<rscale>  0 0.13759821E+03</rscale>
<asrwt>0</asrwt>
<pdfrwt beam="1">  1        1 0.10123162E+00 0.14695593E+03</pdfrwt>
<pdfrwt beam="2">  1       -1 0.40098949E-02 0.14695593E+03</pdfrwt>
<totfact> 0.73045699E+03</totfact>
</mgrwt>
</event>
<event>
 6    1  0.5818426E-006  0.2223161E+03  0.7546771E-02  0.1135477E+00
          3   -1    0    0  501    0  0.00000000000E+00  0.00000000000E+00  0.95290551960E+03  0.95290551960E+03  0.00000000000E+00 0. -1.
         -3   -1    0    0    0  501 -0.00000000000E+00 -0.00000000000E+00 -0.51978695769E+02  0.51978695769E+02  0.00000000000E+00 0.  1.
          5    1    1    2  502    0 -0.25086601946E+02  0.20153847844E+02  0.86742696034E+02  0.92638547567E+02  0.47000000000E+01 0.  1.
         -5    1    1    2    0  502  0.12886549192E+03  0.13161083004E+03  0.24023091724E+03  0.30275519680E+03  0.47000000000E+01 0.  1.
        -11    1    1    2    0    0 -0.15178916790E+02 -0.10260671088E+03  0.29550526888E+03  0.31318030041E+03  0.00000000000E+00 0.  1.
         11    1    1    2    0    0 -0.88599973185E+02 -0.49157967006E+02  0.27844794167E+03  0.29631017058E+03  0.00000000000E+00 0. -1.
<mgrwt>
<rscale>  0 0.21787490E+03</rscale>
<asrwt>0</asrwt>
<pdfrwt beam="1">  1        3 0.14660084E+00 0.22231615E+03</pdfrwt>
<pdfrwt beam="2">  1       -3 0.79967231E-02 0.22231615E+03</pdfrwt>
<totfact> 0.95803498E+01</totfact>
</mgrwt>
</event>
<event>
 6    1  0.5818426E-006  0.1304696E+03  0.7546771E-02  0.1243571E+00
          1   -1    0    0  501    0  0.00000000000E+00  0.00000000000E+00  0.24326326666E+03  0.24326326666E+03  0.00000000000E+00 0. -1.
         -1   -1    0    0    0  501 -0.00000000000E+00 -0.00000000000E+00 -0.13758018107E+03  0.13758018107E+03  0.00000000000E+00 0.  1.
          5    1    1    2  502    0  0.47178498920E+02 -0.41515138887E+01 -0.38337194708E+01  0.47747599237E+02  0.47000000000E+01 0. -1.
         -5    1    1    2    0  502 -0.67707156138E+02 -0.68083234465E+01 -0.90153031390E+02  0.11304986214E+03  0.47000000000E+01 0.  1.
        -11    1    1    2    0    0  0.26407609444E+02  0.44567777739E+02  0.77637858476E+02  0.93334268723E+02  0.00000000000E+00 0.  1.
         11    1    1    2    0    0 -0.58789522256E+01 -0.33607940404E+02  0.12203197797E+03  0.12671171763E+03  0.00000000000E+00 0. -1.
<mgrwt>
<rscale>  0 0.11971310E+03</rscale>
<asrwt>0</asrwt>
<pdfrwt beam="1">  1        1 0.37425118E-01 0.13046959E+03</pdfrwt>
<pdfrwt beam="2">  1       -1 0.21166182E-01 0.13046959E+03</pdfrwt>
<totfact> 0.20476499E+03</totfact>
</mgrwt>
</event>
<event>
 6    1  0.5818426E-006  0.1476655E+03  0.7546771E-02  0.1212258E+00
          1   -1    0    0  501    0  0.00000000000E+00  0.00000000000E+00  0.15537763005E+02  0.15537763005E+02  0.00000000000E+00 0. -1.
         -1   -1    0    0    0  501 -0.00000000000E+00 -0.00000000000E+00 -0.13554331403E+04  0.13554331403E+04  0.00000000000E+00 0.  1.
          5    1    1    2  502    0 -0.11996379565E+02  0.54143395263E+02 -0.83382587255E+03  0.83568121679E+03  0.47000000000E+01 0.  1.
         -5    1    1    2    0  502 -0.51641827275E+02 -0.66111234470E+01 -0.14325256450E+03  0.15249253265E+03  0.47000000000E+01 0.  1.
        -11    1    1    2    0    0  0.46584977270E+02  0.15371672803E+02 -0.22582636406E+03  0.23109304433E+03  0.00000000000E+00 0.  1.
         11    1    1    2    0    0  0.17053229570E+02 -0.62903944619E+02 -0.13699057623E+03  0.15170410958E+03  0.00000000000E+00 0. -1.
<mgrwt>
<rscale>  0 0.14079864E+03</rscale>
<asrwt>0</asrwt>
<pdfrwt beam="1">  1        1 0.23904252E-02 0.14766546E+03</pdfrwt>
<pdfrwt beam="2">  1       -1 0.20852817E+00 0.14766546E+03</pdfrwt>
<totfact> 0.68141193E+02</totfact>
</mgrwt>
</event>
<event>
 6    1  0.5818426E-006  0.1376871E+03  0.7546771E-02  0.1228226E+00
          1   -1    0    0  501    0  0.00000000000E+00  0.00000000000E+00  0.30177617341E+03  0.30177617341E+03  0.00000000000E+00 0. -1.
         -1   -1    0    0    0  501 -0.00000000000E+00 -0.00000000000E+00 -0.51735379814E+02  0.51735379814E+02  0.00000000000E+00 0.  1.
          5    1    1    2  502    0 -0.15663644745E+02 -0.22846259854E+02  0.84022088774E+02  0.88595162159E+02  0.47000000000E+01 0.  1.
         -5    1    1    2    0  502  0.68942527788E+02  0.45012164207E+02  0.22490485851E+02  0.85481454235E+02  0.47000000000E+01 0.  1.
        -11    1    1    2    0    0 -0.67349872305E+02  0.38146748580E+01  0.58057184611E+02  0.89001088357E+02  0.00000000000E+00 0.  1.
         11    1    1    2    0    0  0.14070989262E+02 -0.25980579211E+02  0.85471034358E+02  0.90433848471E+02  0.00000000000E+00 0. -1.
<mgrwt>
<rscale>  0 0.12948249E+03</rscale>
<asrwt>0</asrwt>
<pdfrwt beam="1">  1        1 0.46427102E-01 0.13768711E+03</pdfrwt>
<pdfrwt beam="2">  1       -1 0.79592894E-02 0.13768711E+03</pdfrwt>
<totfact> 0.71908670E+03</totfact>
</mgrwt>
</event>
<event>
 6    1  0.5818426E-006  0.1553077E+03  0.7546771E-02  0.1201962E+00
         -2   -1    0    0    0  501 -0.00000000000E+00  0.00000000000E+00  0.34685098663E+03  0.34685098663E+03  0.00000000000E+00 0.  1.
          2   -1    0    0  501    0  0.00000000000E+00 -0.00000000000E+00 -0.78526213180E+02  0.78526213180E+02  0.00000000000E+00 0. -1.
          5    1    1    2  502    0 -0.56986540194E+02 -0.61969437671E+02  0.25630399754E+03  0.26981754228E+03  0.47000000000E+01 0.  1.
         -5    1    1    2    0  502 -0.18987891526E+02  0.97700535523E+01 -0.78098208120E+01  0.23218037646E+02  0.47000000000E+01 0.  1.
        -11    1    1    2    0    0 -0.17747716738E+01 -0.10024526633E+02  0.30532798930E+02  0.32185287932E+02  0.00000000000E+00 0.  1.
         11    1    1    2    0    0  0.77749203394E+02  0.62223910752E+02 -0.10702202207E+02  0.10015633195E+03  0.00000000000E+00 0. -1.
<mgrwt>
<rscale>  0 0.14879425E+03</rscale>
<asrwt>0</asrwt>
<pdfrwt beam="2">  1        2 0.12080956E-01 0.15530774E+03</pdfrwt>
<pdfrwt beam="1">  1       -2 0.53361689E-01 0.15530774E+03</pdfrwt>
<totfact> 0.16661567E+03</totfact>
</mgrwt>
</event>
<event>
 6    1  0.5818426E-006  0.1451254E+03  0.7546771E-02  0.1217341E+00
         -2   -1    0    0    0  501 -0.00000000000E+00  0.00000000000E+00  0.65113343641E+02  0.65113343641E+02  0.00000000000E+00 0.  1.
          2   -1    0    0  501    0  0.00000000000E+00 -0.00000000000E+00 -0.28265446582E+03  0.28265446582E+03  0.00000000000E+00 0. -1.
          5    1    1    2  502    0  0.42991576136E+01  0.10856054999E+03 -0.51555528981E+02  0.12034923489E+03  0.47000000000E+01 0.  1.
         -5    1    1    2    0  502 -0.85485246572E+01 -0.34955553546E+02 -0.20472043342E+02  0.41667284003E+02  0.47000000000E+01 0.  1.
        -11    1    1    2    0    0 -0.34832637557E+01  0.11063259979E+02  0.51997065248E+01  0.12710853461E+02  0.00000000000E+00 0.  1.
         11    1    1    2    0    0  0.77326307993E+01 -0.84668256424E+02 -0.15071325638E+03  0.17304043711E+03  0.00000000000E+00 0. -1.
<mgrwt>
<rscale>  0 0.13705936E+03</rscale>
<asrwt>0</asrwt>
<pdfrwt beam="2">  1        2 0.43485302E-01 0.14512540E+03</pdfrwt>
<pdfrwt beam="1">  1       -2 0.10017437E-01 0.14512540E+03</pdfrwt>
<totfact> 0.73758282E+03</totfact>
</mgrwt>
</event>
<event>
 6    1  0.5818426E-006  0.2878629E+03  0.7546771E-02  0.1093257E+00
          2   -1    0    0  501    0  0.00000000000E+00  0.00000000000E+00  0.20391743591E+04  0.20391743591E+04  0.00000000000E+00 0. -1.
         -2   -1    0    0    0  501 -0.00000000000E+00 -0.00000000000E+00 -0.38996910665E+02  0.38996910665E+02  0.00000000000E+00 0.  1.
          5    1    1    2  502    0  0.33864151424E+02 -0.36306565243E+02  0.74121267569E+02  0.89336441262E+02  0.47000000000E+01 0. -1.
         -5    1    1    2    0  502  0.74298986144E+02 -0.19936291053E+03  0.10247504417E+04  0.10466142877E+04  0.47000000000E+01 0. -1.
        -11    1    1    2    0    0 -0.11675543515E+03  0.20419398130E+03  0.70452632502E+03  0.74275457338E+03  0.00000000000E+00 0.  1.
         11    1    1    2    0    0  0.85922975848E+01  0.31475494473E+02  0.19677941418E+03  0.19946596746E+03  0.00000000000E+00 0. -1.
<mgrwt>
<rscale>  0 0.28449881E+03</rscale>
<asrwt>0</asrwt>
<pdfrwt beam="1">  1        2 0.31371905E+00 0.28786286E+03</pdfrwt>
<pdfrwt beam="2">  1       -2 0.59995263E-02 0.28786286E+03</pdfrwt>
<totfact> 0.10467459E+03</totfact>
</mgrwt>
</event>
<event>
 6    1  0.5818426E-006  0.1525536E+03  0.7546771E-02  0.1207366E+00
         -1   -1    0    0    0  501 -0.00000000000E+00  0.00000000000E+00  0.12456120560E+03  0.12456120560E+03  0.00000000000E+00 0.  1.
          1   -1    0    0  501    0  0.00000000000E+00 -0.00000000000E+00 -0.26163229040E+03  0.26163229040E+03  0.00000000000E+00 0. -1.
          5    1    1    2  502    0 -0.49321032020E+02 -0.21690768656E+02  0.54781974456E+02  0.76981870396E+02  0.47000000000E+01 0. -1.
         -5    1    1    2    0  502 -0.13204346352E+02  0.82820211192E+02 -0.31931979225E+01  0.84058483555E+02  0.47000000000E+01 0. -1.
        -11    1    1    2    0    0  0.74346173642E+02 -0.66106053708E+02 -0.12273024757E+03  0.15798758666E+03  0.00000000000E+00 0.  1.
         11    1    1    2    0    0 -0.11820795271E+02  0.49766111715E+01 -0.65929613758E+02  0.67165555383E+02  0.00000000000E+00 0. -1.
<mgrwt>
<rscale>  0 0.14452532E+03</rscale>
<asrwt>0</asrwt>
<pdfrwt beam="2">  1        1 0.40251121E-01 0.15255358E+03</pdfrwt>
<pdfrwt beam="1">  1       -1 0.19163262E-01 0.15255358E+03</pdfrwt>
<totfact> 0.22079620E+03</totfact>
</mgrwt>
</event>
<event>
 6    1  0.5818426E-006  0.1711443E+03  0.7546771E-02  0.1183535E+00
          4   -1    0    0  501    0  0.00000000000E+00  0.00000000000E+00  0.25500643983E+02  0.25500643983E+02  0.00000000000E+00 0. -1.
         -4   -1    0    0    0  501 -0.00000000000E+00 -0.00000000000E+00 -0.10559463022E+04  0.10559463022E+04  0.00000000000E+00 0.  1.
          5    1    1    2  502    0  0.79519895845E+01  0.28980169486E+02 -0.50871579715E+03  0.50962430930E+03  0.47000000000E+01 0. -1.
         -5    1    1    2    0  502  0.27901354098E+02  0.82284455105E+02 -0.17845832786E+03  0.19854138585E+03  0.47000000000E+01 0. -1.
        -11    1    1    2    0    0 -0.43166640503E+02 -0.67454819758E+02 -0.30273364277E+03  0.31314720185E+03  0.00000000000E+00 0.  1.
         11    1    1    2    0    0  0.73132968205E+01 -0.43809804834E+02 -0.40537890431E+02  0.60134049178E+02  0.00000000000E+00 0. -1.
<mgrwt>
<rscale>  0 0.16465905E+03</rscale>
<asrwt>0</asrwt>
<pdfrwt beam="1">  1        4 0.39231766E-02 0.17114431E+03</pdfrwt>
<pdfrwt beam="2">  1       -4 0.16245325E+00 0.17114431E+03</pdfrwt>
<totfact> 0.15844700E+02</totfact>
</mgrwt>
</event>
<event>
 6    1  0.5818426E-006  0.3374481E+03  0.7546771E-02  0.1067888E+00
         -1   -1    0    0    0  501 -0.00000000000E+00  0.00000000000E+00  0.61872763128E+02  0.61872763128E+02  0.00000000000E+00 0.  1.
          1   -1    0    0  501    0  0.00000000000E+00 -0.00000000000E+00 -0.46010244156E+03  0.46010244156E+03  0.00000000000E+00 0. -1.
          5    1    1    2  502    0  0.16886619377E+02 -0.16942444226E+02  0.71966272158E+01  0.25418217357E+02  0.47000000000E+01 0.  1.
         -5    1    1    2    0  502  0.10339879322E+03  0.61155088704E+02 -0.23953900066E+03  0.26801544387E+03  0.47000000000E+01 0.  1.
        -11    1    1    2    0    0 -0.12533692837E+02 -0.47714664939E+02 -0.55046258334E+02  0.73918017174E+02  0.00000000000E+00 0. -1.
         11    1    1    2    0    0 -0.10775171976E+03  0.35020204610E+01 -0.11084104666E+03  0.15462352629E+03  0.00000000000E+00 0.  1.
<mgrwt>
<rscale>  0 0.33744813E+03</rscale>
<asrwt>0</asrwt>
<pdfrwt beam="2">  1        1 0.70784986E-01 0.33744813E+03</pdfrwt>
<pdfrwt beam="1">  1       -1 0.95188873E-02 0.33744813E+03</pdfrwt>
<totfact> 0.33272126E+03</totfact>
</mgrwt>
</event>
<event>
 6    1  0.5818426E-006  0.1297709E+03  0.7546771E-02  0.1237320E+00
         -2   -1    0    0    0  501 -0.00000000000E+00  0.00000000000E+00  0.32788699984E+02  0.32788699984E+02  0.00000000000E+00 0. -1.
          2   -1    0    0  501    0  0.00000000000E+00 -0.00000000000E+00 -0.42751285169E+03  0.42751285169E+03  0.00000000000E+00 0.  1.
          5    1    1    2  502    0 -0.63207837349E+02  0.27182429507E+02 -0.17800692026E+03  0.19089963027E+03  0.47000000000E+01 0. -1.
         -5    1    1    2    0  502  0.28801158737E+02 -0.32829611012E+02 -0.26479891366E+02  0.51289031484E+02  0.47000000000E+01 0. -1.
        -11    1    1    2    0    0 -0.68072390827E+01 -0.39944262490E+02 -0.45846133742E+02  0.61186196065E+02  0.00000000000E+00 0. -1.
         11    1    1    2    0    0  0.41213917695E+02  0.45591443994E+02 -0.14439120634E+03  0.15692669386E+03  0.00000000000E+00 0.  1.
<mgrwt>
<rscale>  0 0.12357058E+03</rscale>
<asrwt>0</asrwt>
<pdfrwt beam="2">  1        2 0.65771204E-01 0.12977092E+03</pdfrwt>
<pdfrwt beam="1">  1       -2 0.50444157E-02 0.12977092E+03</pdfrwt>
<totfact> 0.13494460E+04</totfact>
</mgrwt>
</event>
<event>
 6    1  0.5818426E-006  0.1474929E+03  0.7546771E-02  0.1213003E+00
          1   -1    0    0  501    0  0.00000000000E+00  0.00000000000E+00  0.40684187357E+03  0.40684187357E+03  0.00000000000E+00 0. -1.
         -1   -1    0    0    0  501 -0.00000000000E+00 -0.00000000000E+00 -0.57166838757E+02  0.57166838757E+02  0.00000000000E+00 0.  1.
          5    1    1    2  502    0 -0.36201910074E+01 -0.40853130570E+02 -0.21009170762E+02  0.46320182603E+02  0.47000000000E+01 0. -1.
         -5    1    1    2    0  502 -0.67889908083E+02  0.89897738634E+01  0.99151072316E+02  0.12059386715E+03  0.47000000000E+01 0. -1.
        -11    1    1    2    0    0 -0.69374502632E+01 -0.23518544276E+02  0.53439233341E+02  0.58796273701E+02  0.00000000000E+00 0. -1.
         11    1    1    2    0    0  0.78447549354E+02  0.55381900983E+02  0.21809389992E+03  0.23829838887E+03  0.00000000000E+00 0.  1.
<mgrwt>
<rscale>  0 0.14024265E+03</rscale>
<asrwt>0</asrwt>
<pdfrwt beam="1">  1        1 0.62591056E-01 0.14749286E+03</pdfrwt>
<pdfrwt beam="2">  1       -1 0.87948985E-02 0.14749286E+03</pdfrwt>
<totfact> 0.42721064E+03</totfact>
</mgrwt>
</event>
<event>
 6    1  0.5818426E-006  0.3324189E+03  0.7546771E-02  0.1070072E+00
         -2   -1    0    0    0  501 -0.00000000000E+00  0.00000000000E+00  0.50284820533E+02  0.50284820533E+02  0.00000000000E+00 0.  1.
          2   -1    0    0  501    0  0.00000000000E+00 -0.00000000000E+00 -0.54938196402E+03  0.54938196402E+03  0.00000000000E+00 0. -1.
          5    1    1    2  502    0 -0.13123205174E+03  0.71666737893E+02 -0.19359821810E+03  0.24466371365E+03  0.47000000000E+01 0. -1.
         -5    1    1    2    0  502  0.18987908708E+02 -0.16500834609E+02 -0.52112585452E+02  0.58057125165E+02  0.47000000000E+01 0. -1.
        -11    1    1    2    0    0  0.64876087437E+02 -0.71289022595E+02 -0.20859891591E+03  0.22979238278E+03  0.00000000000E+00 0. -1.
         11    1    1    2    0    0  0.47368055600E+02  0.16123119311E+02 -0.44787424023E+02  0.67153562960E+02  0.00000000000E+00 0.  1.
<mgrwt>
<rscale>  0 0.33241885E+03</rscale>
<asrwt>0</asrwt>
<pdfrwt beam="2">  1        2 0.84520307E-01 0.33241885E+03</pdfrwt>
<pdfrwt beam="1">  1       -2 0.77361258E-02 0.33241885E+03</pdfrwt>
<totfact> 0.55858563E+03</totfact>
</mgrwt>
</event>
<event>
 6    1  0.5818426E-006  0.1884862E+03  0.7546771E-02  0.1164933E+00
          3   -1    0    0  501    0  0.00000000000E+00  0.00000000000E+00  0.24821803563E+03  0.24821803563E+03  0.00000000000E+00 0. -1.
         -3   -1    0    0    0  501 -0.00000000000E+00 -0.00000000000E+00 -0.12843958821E+03  0.12843958821E+03  0.00000000000E+00 0.  1.
          5    1    1    2  502    0 -0.50461865600E+02  0.47137689841E+02 -0.40392430261E+02  0.80137382699E+02  0.47000000000E+01 0. -1.
         -5    1    1    2    0  502 -0.56378151285E+02  0.44974209815E+02  0.88747603540E+02  0.11445262175E+03  0.47000000000E+01 0. -1.
        -11    1    1    2    0    0  0.74666018904E+02 -0.69517760918E+02  0.17100167990E+01  0.10203263017E+03  0.00000000000E+00 0.  1.
         11    1    1    2    0    0  0.32173997981E+02 -0.22594138737E+02  0.69713257340E+02  0.80034989226E+02  0.00000000000E+00 0. -1.
<mgrwt>
<rscale>  0 0.18299790E+03</rscale>
<asrwt>0</asrwt>
<pdfrwt beam="1">  1        3 0.38187390E-01 0.18848620E+03</pdfrwt>
<pdfrwt beam="2">  1       -3 0.19759937E-01 0.18848620E+03</pdfrwt>
<totfact> 0.37779378E+02</totfact>
</mgrwt>
</event>
<event>
 6    1  0.5818426E-006  0.1329495E+03  0.7546771E-02  0.1236566E+00
         -2   -1    0    0    0  501 -0.00000000000E+00  0.00000000000E+00  0.27087670006E+02  0.27087670006E+02  0.00000000000E+00 0.  1.
          2   -1    0    0  501    0  0.00000000000E+00 -0.00000000000E+00 -0.53712284976E+03  0.53712284976E+03  0.00000000000E+00 0. -1.
          5    1    1    2  502    0  0.42433047518E+01 -0.14842075978E+02  0.10227072628E+02  0.19104341630E+02  0.47000000000E+01 0. -1.
         -5    1    1    2    0  502 -0.87860810116E+01  0.59882973310E+02 -0.22889415796E+03  0.23680749832E+03  0.47000000000E+01 0. -1.
        -11    1    1    2    0    0 -0.21172657310E+02  0.98860807487E+01 -0.21680437992E+02  0.31875655314E+02  0.00000000000E+00 0.  1.
         11    1    1    2    0    0  0.25715433570E+02 -0.54926978081E+02 -0.26968765643E+03  0.27642302451E+03  0.00000000000E+00 0. -1.
<mgrwt>
<rscale>  0 0.12404745E+03</rscale>
<asrwt>0</asrwt>
<pdfrwt beam="2">  1        2 0.82634291E-01 0.13294952E+03</pdfrwt>
<pdfrwt beam="1">  1       -2 0.41673335E-02 0.13294952E+03</pdfrwt>
<totfact> 0.14022633E+04</totfact>
</mgrwt>
</event>
<event>
 6    1  0.5818426E-006  0.1422039E+03  0.7546771E-02  0.1220747E+00
          2   -1    0    0  501    0  0.00000000000E+00  0.00000000000E+00  0.15790944601E+03  0.15790944601E+03  0.00000000000E+00 0. -1.
         -2   -1    0    0    0  501 -0.00000000000E+00 -0.00000000000E+00 -0.17070035675E+03  0.17070035675E+03  0.00000000000E+00 0.  1.
          5    1    1    2  502    0 -0.22573343155E+02  0.88663269420E+01 -0.12881779366E+03  0.13116509268E+03  0.47000000000E+01 0.  1.
         -5    1    1    2    0  502 -0.40239161170E+02  0.16655557367E+02  0.19749704215E+02  0.48049334017E+02  0.47000000000E+01 0.  1.
        -11    1    1    2    0    0  0.35618949072E+02  0.21812755660E+02  0.37118351532E+01  0.41931891952E+02  0.00000000000E+00 0.  1.
         11    1    1    2    0    0  0.27193555254E+02 -0.47334639969E+02  0.92565343557E+02  0.10746348411E+03  0.00000000000E+00 0. -1.
<mgrwt>
<rscale>  0 0.13462749E+03</rscale>
<asrwt>0</asrwt>
<pdfrwt beam="1">  1        2 0.24293761E-01 0.14220395E+03</pdfrwt>
<pdfrwt beam="2">  1       -2 0.26261593E-01 0.14220395E+03</pdfrwt>
<totfact> 0.28007311E+03</totfact>
</mgrwt>
</event>
<event>
 6    1  0.5818426E-006  0.1689556E+03  0.7546771E-02  0.1185618E+00
         -1   -1    0    0    0  501 -0.00000000000E+00  0.00000000000E+00  0.16923348643E+03  0.16923348643E+03  0.00000000000E+00 0.  1.
          1   -1    0    0  501    0  0.00000000000E+00 -0.00000000000E+00 -0.14955724701E+03  0.14955724701E+03  0.00000000000E+00 0. -1.
          5    1    1    2  502    0  0.55042217618E+02  0.23079438097E+02  0.36658025901E+02  0.70201189777E+02  0.47000000000E+01 0.  1.
         -5    1    1    2    0  502 -0.47736878145E+02  0.90347836744E+02 -0.18232425681E+01  0.10230813923E+03  0.47000000000E+01 0.  1.
        -11    1    1    2    0    0  0.22822850608E+02 -0.42925436828E+02 -0.42810042865E+02  0.64777892887E+02  0.00000000000E+00 0. -1.
         11    1    1    2    0    0 -0.30128190081E+02 -0.70501838013E+02  0.27651498947E+02  0.81503511548E+02  0.00000000000E+00 0.  1.
<mgrwt>
<rscale>  0 0.16275738E+03</rscale>
<asrwt>0</asrwt>
<pdfrwt beam="2">  1        1 0.23008807E-01 0.16895563E+03</pdfrwt>
<pdfrwt beam="1">  1       -1 0.26035921E-01 0.16895563E+03</pdfrwt>
<totfact> 0.27077939E+03</totfact>
</mgrwt>
</event>
<event>
 6    1  0.5818426E-006  0.1576323E+03  0.7546771E-02  0.1197597E+00
          1   -1    0    0  501    0  0.00000000000E+00  0.00000000000E+00  0.18061710538E+03  0.18061710538E+03  0.00000000000E+00 0. -1.
         -1   -1    0    0    0  501 -0.00000000000E+00 -0.00000000000E+00 -0.13108418353E+03  0.13108418353E+03  0.00000000000E+00 0.  1.
          5    1    1    2  502    0  0.37586849893E+02 -0.63474250932E+01 -0.70274227813E+02  0.80085068426E+02  0.47000000000E+01 0.  1.
         -5    1    1    2    0  502  0.57902922709E+02 -0.38496754036E+01  0.52692316564E+02  0.78524764781E+02  0.47000000000E+01 0.  1.
        -11    1    1    2    0    0 -0.23084140342E+02  0.16001298742E+02 -0.23734929813E+02  0.36773169431E+02  0.00000000000E+00 0.  1.
         11    1    1    2    0    0 -0.72405632261E+02 -0.58041982454E+01  0.90849762915E+02  0.11631828628E+03  0.00000000000E+00 0. -1.
<mgrwt>
<rscale>  0 0.15236502E+03</rscale>
<asrwt>0</asrwt>
<pdfrwt beam="1">  1        1 0.27787247E-01 0.15763234E+03</pdfrwt>
<pdfrwt beam="2">  1       -1 0.20166797E-01 0.15763234E+03</pdfrwt>
<totfact> 0.32311445E+03</totfact>
</mgrwt>
</event>
<event>
 6    1  0.5818426E-006  0.2801320E+03  0.7546771E-02  0.1095617E+00
          2   -1    0    0  501    0  0.00000000000E+00  0.00000000000E+00  0.22516402243E+03  0.22516402243E+03  0.00000000000E+00 0. -1.
         -2   -1    0    0    0  501 -0.00000000000E+00 -0.00000000000E+00 -0.87129743943E+02  0.87129743943E+02  0.00000000000E+00 0.  1.
          5    1    1    2  502    0 -0.52882185384E+01 -0.73109726091E+02  0.45197008085E+02  0.86243010408E+02  0.47000000000E+01 0. -1.
         -5    1    1    2    0  502 -0.10439673697E+01  0.17242128619E+02 -0.42055494623E+02  0.45707061764E+02  0.47000000000E+01 0.  1.
        -11    1    1    2    0    0  0.31149067744E+02 -0.81507097145E+01  0.96388326006E+02  0.10162385488E+03  0.00000000000E+00 0.  1.
         11    1    1    2    0    0 -0.24816881836E+02  0.64018307186E+02  0.38504439023E+02  0.78719839326E+02  0.00000000000E+00 0. -1.
<mgrwt>
<rscale>  0 0.28013199E+03</rscale>
<asrwt>0</asrwt>
<pdfrwt beam="1">  1        2 0.34640619E-01 0.28013199E+03</pdfrwt>
<pdfrwt beam="2">  1       -2 0.13404576E-01 0.28013199E+03</pdfrwt>
<totfact> 0.61300859E+03</totfact>
</mgrwt>
</event>
<event>
 6    1  0.5818426E-006  0.1267420E+03  0.7546771E-02  0.1246806E+00
          2   -1    0    0  501    0  0.00000000000E+00  0.00000000000E+00  0.16282048601E+03  0.16282048601E+03  0.00000000000E+00 0. -1.
         -2   -1    0    0    0  501 -0.00000000000E+00 -0.00000000000E+00 -0.83342421578E+02  0.83342421578E+02  0.00000000000E+00 0.  1.
          5    1    1    2  502    0  0.35210074076E+02 -0.26263922945E+02  0.34796435264E+02  0.56235441423E+02  0.47000000000E+01 0. -1.
         -5    1    1    2    0  502 -0.50159680607E+02  0.40914511502E+02 -0.28012615025E+02  0.70687958031E+02  0.47000000000E+01 0. -1.
        -11    1    1    2    0    0  0.48501050142E+02  0.13664839262E+02  0.34728450767E+02  0.61197589737E+02  0.00000000000E+00 0.  1.
         11    1    1    2    0    0 -0.33551443611E+02 -0.28315427819E+02  0.37965793429E+02  0.58041918401E+02  0.00000000000E+00 0. -1.
<mgrwt>
<rscale>  0 0.11777923E+03</rscale>
<asrwt>0</asrwt>
<pdfrwt beam="1">  1        2 0.25049305E-01 0.12674198E+03</pdfrwt>
<pdfrwt beam="2">  1       -2 0.12821911E-01 0.12674198E+03</pdfrwt>
<totfact> 0.89398982E+03</totfact>
</mgrwt>
</event>
<event>
 6    1  0.5818426E-006  0.1312927E+03  0.7546771E-02  0.1238860E+00
         -2   -1    0    0    0  501 -0.00000000000E+00  0.00000000000E+00  0.15825121736E+02  0.15825121736E+02  0.00000000000E+00 0.  1.
          2   -1    0    0  501    0  0.00000000000E+00 -0.00000000000E+00 -0.84770693777E+03  0.84770693777E+03  0.00000000000E+00 0. -1.
          5    1    1    2  502    0 -0.15222374956E+02 -0.83947784855E+02 -0.27315559434E+03  0.28620800129E+03  0.47000000000E+01 0. -1.
         -5    1    1    2    0  502  0.98559389250E+01  0.44165019099E+02 -0.17070602614E+03  0.17666444408E+03  0.47000000000E+01 0. -1.
        -11    1    1    2    0    0 -0.37103923610E+02 -0.57644607949E+01 -0.14236110671E+03  0.14722980289E+03  0.00000000000E+00 0.  1.
         11    1    1    2    0    0  0.42470359641E+02  0.45547226550E+02 -0.24565908885E+03  0.25342981124E+03  0.00000000000E+00 0. -1.
<mgrwt>
<rscale>  0 0.12260518E+03</rscale>
<asrwt>0</asrwt>
<pdfrwt beam="2">  1        2 0.13041650E+00 0.13129266E+03</pdfrwt>
<pdfrwt beam="1">  1       -2 0.24346332E-02 0.13129266E+03</pdfrwt>
<totfact> 0.18050476E+04</totfact>
</mgrwt>
</event>
<event>
 6    1  0.5818426E-006  0.1578578E+03  0.7546771E-02  0.1199080E+00
         -2   -1    0    0    0  501 -0.00000000000E+00  0.00000000000E+00  0.11154199499E+03  0.11154199499E+03  0.00000000000E+00 0.  1.
          2   -1    0    0  501    0  0.00000000000E+00 -0.00000000000E+00 -0.44527427477E+03  0.44527427477E+03  0.00000000000E+00 0. -1.
          5    1    1    2  502    0  0.17268152504E+02 -0.56787473209E+02  0.75865071949E+02  0.96439646133E+02  0.47000000000E+01 0. -1.
         -5    1    1    2    0  502  0.52698991994E+02 -0.95624765641E+01 -0.38070801549E+02  0.65879440235E+02  0.47000000000E+01 0. -1.
        -11    1    1    2    0    0 -0.56066828932E+02 -0.68154885829E+01 -0.12973202117E+03  0.14149324192E+03  0.00000000000E+00 0. -1.
         11    1    1    2    0    0 -0.13900315565E+02  0.73165438356E+02 -0.24179452901E+03  0.25300394147E+03  0.00000000000E+00 0.  1.
<mgrwt>
<rscale>  0 0.15113895E+03</rscale>
<asrwt>0</asrwt>
<pdfrwt beam="2">  1        2 0.68503736E-01 0.15785778E+03</pdfrwt>
<pdfrwt beam="1">  1       -2 0.17160307E-01 0.15785778E+03</pdfrwt>
<totfact> 0.19085177E+03</totfact>
</mgrwt>
</event>
<event>
 6    1  0.5818426E-006  0.1520391E+03  0.7546771E-02  0.1206723E+00
         -1   -1    0    0    0  501 -0.00000000000E+00  0.00000000000E+00  0.42044776150E+02  0.42044776150E+02  0.00000000000E+00 0.  1.
          1   -1    0    0  501    0  0.00000000000E+00 -0.00000000000E+00 -0.54072950305E+03  0.54072950305E+03  0.00000000000E+00 0. -1.
          5    1    1    2  502    0  0.37690218179E+02 -0.69133735022E+02 -0.11772788751E+03  0.14171087242E+03  0.47000000000E+01 0.  1.
         -5    1    1    2    0  502 -0.64443891771E+02 -0.13180968976E+02 -0.38853781679E+02  0.76540574080E+02  0.47000000000E+01 0.  1.
        -11    1    1    2    0    0  0.58109543837E+01 -0.19432131988E+02 -0.36634826677E+02  0.41874639940E+02  0.00000000000E+00 0. -1.
         11    1    1    2    0    0  0.20942719208E+02  0.10174683599E+03 -0.30546823103E+03  0.32264819276E+03  0.00000000000E+00 0.  1.
<mgrwt>
<rscale>  0 0.14502537E+03</rscale>
<asrwt>0</asrwt>
<pdfrwt beam="2">  1        1 0.83189143E-01 0.15203906E+03</pdfrwt>
<pdfrwt beam="1">  1       -1 0.64684280E-02 0.15203906E+03</pdfrwt>
<totfact> 0.47043609E+03</totfact>
</mgrwt>
</event>
<event>
 6    1  0.5818426E-006  0.1276148E+03  0.7546771E-02  0.1245543E+00
          1   -1    0    0  501    0  0.00000000000E+00  0.00000000000E+00  0.18395638388E+03  0.18395638388E+03  0.00000000000E+00 0. -1.
         -1   -1    0    0    0  501 -0.00000000000E+00 -0.00000000000E+00 -0.67451753148E+02  0.67451753148E+02  0.00000000000E+00 0.  1.
          5    1    1    2  502    0  0.23579798132E+02 -0.63099755484E+02  0.14716376401E+02  0.69110402664E+02  0.47000000000E+01 0.  1.
         -5    1    1    2    0  502 -0.37884002875E+00  0.51859059202E+02  0.57283351520E+02  0.77414326209E+02  0.47000000000E+01 0.  1.
        -11    1    1    2    0    0 -0.51548041901E+01 -0.36888899874E+02  0.55074704191E+00  0.37251392758E+02  0.00000000000E+00 0. -1.
         11    1    1    2    0    0 -0.18046153913E+02  0.48129596155E+02  0.43954155767E+02  0.67632015395E+02  0.00000000000E+00 0.  1.
<mgrwt>
<rscale>  0 0.11852928E+03</rscale>
<asrwt>0</asrwt>
<pdfrwt beam="1">  1        1 0.28300982E-01 0.12761479E+03</pdfrwt>
<pdfrwt beam="2">  1       -1 0.10377193E-01 0.12761479E+03</pdfrwt>
<totfact> 0.88250663E+03</totfact>
</mgrwt>
</event>
<event>
 6    1  0.5818426E-006  0.1348159E+03  0.7546771E-02  0.1233113E+00
         -2   -1    0    0    0  501 -0.00000000000E+00  0.00000000000E+00  0.40811284436E+02  0.40811284436E+02  0.00000000000E+00 0.  1.
          2   -1    0    0  501    0  0.00000000000E+00 -0.00000000000E+00 -0.39768545952E+03  0.39768545952E+03  0.00000000000E+00 0. -1.
          5    1    1    2  502    0 -0.14524629523E+02  0.12797708004E+02 -0.14295152238E+03  0.14433285816E+03  0.47000000000E+01 0.  1.
         -5    1    1    2    0  502 -0.25811643187E+02  0.17560582418E+02  0.20623342054E+02  0.37709776137E+02  0.47000000000E+01 0.  1.
        -11    1    1    2    0    0  0.58748313285E+02 -0.44122461400E+01 -0.84108360077E+02  0.10268908639E+03  0.00000000000E+00 0.  1.
         11    1    1    2    0    0 -0.18412040575E+02 -0.25946044282E+02 -0.15043763468E+03  0.15376502327E+03  0.00000000000E+00 0. -1.
<mgrwt>
<rscale>  0 0.12626028E+03</rscale>
<asrwt>0</asrwt>
<pdfrwt beam="2">  1        2 0.61182378E-01 0.13481594E+03</pdfrwt>
<pdfrwt beam="1">  1       -2 0.62786592E-02 0.13481594E+03</pdfrwt>
<totfact> 0.10508252E+04</totfact>
</mgrwt>
</event>
<event>
 6    1  0.5818426E-006  0.2264927E+03  0.7546771E-02  0.1129133E+00
         -2   -1    0    0    0  501 -0.00000000000E+00  0.00000000000E+00  0.12217131789E+02  0.12217131789E+02  0.00000000000E+00 0.  1.
          2   -1    0    0  501    0  0.00000000000E+00 -0.00000000000E+00 -0.10497339346E+04  0.10497339346E+04  0.00000000000E+00 0. -1.
          5    1    1    2  502    0  0.27975015861E+02  0.78269930306E+00 -0.30234261542E+02  0.41465825708E+02  0.47000000000E+01 0.  1.
         -5    1    1    2    0  502 -0.58930281741E+02 -0.11981275019E+02 -0.53322244029E+03  0.53662332216E+03  0.47000000000E+01 0.  1.
        -11    1    1    2    0    0  0.17575297200E+01  0.49051435054E+02 -0.24373051309E+03  0.24862360146E+03  0.00000000000E+00 0.  1.
         11    1    1    2    0    0  0.29197736159E+02 -0.37852859338E+02 -0.23032958786E+03  0.23523831703E+03  0.00000000000E+00 0. -1.
<mgrwt>
<rscale>  0 0.22649272E+03</rscale>
<asrwt>0</asrwt>
<pdfrwt beam="2">  1        2 0.16149758E+00 0.22649272E+03</pdfrwt>
<pdfrwt beam="1">  1       -2 0.18795582E-02 0.22649272E+03</pdfrwt>
<totfact> 0.20478227E+04</totfact>
</mgrwt>
</event>
<event>
 6    1  0.5818426E-006  0.1317910E+03  0.7546771E-02  0.1238125E+00
          1   -1    0    0  501    0  0.00000000000E+00  0.00000000000E+00  0.16084896938E+02  0.16084896938E+02  0.00000000000E+00 0. -1.
         -1   -1    0    0    0  501 -0.00000000000E+00 -0.00000000000E+00 -0.88990688094E+03  0.88990688094E+03  0.00000000000E+00 0.  1.
          5    1    1    2  502    0  0.46852999624E+02 -0.67374794166E+02 -0.43417689574E+03  0.44188939030E+03  0.47000000000E+01 0.  1.
         -5    1    1    2    0  502 -0.38994415529E+02  0.26474714364E+02 -0.16863378756E+03  0.17515969642E+03  0.47000000000E+01 0.  1.
        -11    1    1    2    0    0  0.81618421659E+01  0.53378376457E+02 -0.26057484853E+03  0.26611110166E+03  0.00000000000E+00 0.  1.
         11    1    1    2    0    0 -0.16020426260E+02 -0.12478296654E+02 -0.10436452165E+02  0.22831589493E+02  0.00000000000E+00 0. -1.
<mgrwt>
<rscale>  0 0.12306512E+03</rscale>
<asrwt>0</asrwt>
<pdfrwt beam="1">  1        1 0.24745993E-02 0.13179095E+03</pdfrwt>
<pdfrwt beam="2">  1       -1 0.13690877E+00 0.13179095E+03</pdfrwt>
<totfact> 0.20715455E+03</totfact>
</mgrwt>
</event>
<event>
 6    1  0.5818426E-006  0.1448690E+03  0.7546771E-02  0.1216314E+00
         -2   -1    0    0    0  501 -0.00000000000E+00  0.00000000000E+00  0.76767270057E+02  0.76767270057E+02  0.00000000000E+00 0. -1.
          2   -1    0    0  501    0  0.00000000000E+00 -0.00000000000E+00 -0.25998802044E+03  0.25998802044E+03  0.00000000000E+00 0.  1.
          5    1    1    2  502    0  0.46102930842E+02  0.49125084656E+02 -0.71726686427E+02  0.98516809330E+02  0.47000000000E+01 0.  1.
         -5    1    1    2    0  502 -0.32267690931E+02  0.22786438717E+02  0.32723691765E+02  0.51510733543E+02  0.47000000000E+01 0.  1.
        -11    1    1    2    0    0 -0.18275561967E+02 -0.44671229298E+02 -0.94736422102E+01  0.49186022292E+02  0.00000000000E+00 0. -1.
         11    1    1    2    0    0  0.44403220562E+01 -0.27240294074E+02 -0.13474411352E+03  0.13754172534E+03  0.00000000000E+00 0.  1.
<mgrwt>
<rscale>  0 0.13780423E+03</rscale>
<asrwt>0</asrwt>
<pdfrwt beam="2">  1        2 0.39998156E-01 0.14486901E+03</pdfrwt>
<pdfrwt beam="1">  1       -2 0.11810349E-01 0.14486901E+03</pdfrwt>
<totfact> 0.62088256E+03</totfact>
</mgrwt>
</event>
<event>
 6    1  0.5818426E-006  0.2569799E+03  0.7546771E-02  0.1108971E+00
         -2   -1    0    0    0  501 -0.00000000000E+00  0.00000000000E+00  0.42827534797E+02  0.42827534797E+02  0.00000000000E+00 0.  1.
          2   -1    0    0  501    0  0.00000000000E+00 -0.00000000000E+00 -0.38549181003E+03  0.38549181003E+03  0.00000000000E+00 0. -1.
          5    1    1    2  502    0  0.16145653285E+02  0.19644367250E+02 -0.70543261646E+02  0.75133381718E+02  0.47000000000E+01 0. -1.
         -5    1    1    2    0  502 -0.61793793859E+02 -0.75135891699E+02 -0.69219947498E+02  0.11948793375E+03  0.47000000000E+01 0.  1.
        -11    1    1    2    0    0  0.37188011461E+02 -0.23344934025E+01 -0.21288167443E+02  0.42913682305E+02  0.00000000000E+00 0.  1.
         11    1    1    2    0    0  0.84601291126E+01  0.57826017852E+02 -0.18161289865E+03  0.19078434706E+03  0.00000000000E+00 0. -1.
<mgrwt>
<rscale>  0 0.25697987E+03</rscale>
<asrwt>0</asrwt>
<pdfrwt beam="2">  1        2 0.59306435E-01 0.25697987E+03</pdfrwt>
<pdfrwt beam="1">  1       -2 0.65888512E-02 0.25697987E+03</pdfrwt>
<totfact> 0.10527569E+04</totfact>
</mgrwt>
</event>
<event>
 6    1  0.5818426E-006  0.1427299E+03  0.7546771E-02  0.1219403E+00
         -2   -1    0    0    0  501 -0.00000000000E+00  0.00000000000E+00  0.36277482302E+03  0.36277482302E+03  0.00000000000E+00 0.  1.
          2   -1    0    0  501    0  0.00000000000E+00 -0.00000000000E+00 -0.46335985081E+02  0.46335985081E+02  0.00000000000E+00 0. -1.
          5    1    1    2  502    0  0.66053236352E+02 -0.21284899245E+02  0.37065410677E+02  0.78816315805E+02  0.47000000000E+01 0. -1.
         -5    1    1    2    0  502 -0.15228416279E+01  0.45374767752E+02  0.14810306463E+03  0.15497676067E+03  0.47000000000E+01 0. -1.
        -11    1    1    2    0    0 -0.61015698733E+02 -0.51377748994E+01  0.14100329495E+03  0.15372456345E+03  0.00000000000E+00 0.  1.
         11    1    1    2    0    0 -0.35146959908E+01 -0.18952093608E+02 -0.97329323178E+01  0.21593168168E+02  0.00000000000E+00 0. -1.
<mgrwt>
<rscale>  0 0.13558003E+03</rscale>
<asrwt>0</asrwt>
<pdfrwt beam="2">  1        2 0.71286133E-02 0.14272995E+03</pdfrwt>
<pdfrwt beam="1">  1       -2 0.55811509E-01 0.14272995E+03</pdfrwt>
<totfact> 0.29131967E+03</totfact>
</mgrwt>
</event>
<event>
 6    1  0.5818426E-006  0.1358574E+03  0.7546771E-02  0.1231932E+00
          2   -1    0    0  501    0  0.00000000000E+00  0.00000000000E+00  0.10205317205E+04  0.10205317205E+04  0.00000000000E+00 0.  1.
         -2   -1    0    0    0  501 -0.00000000000E+00 -0.00000000000E+00 -0.14217783253E+02  0.14217783253E+02  0.00000000000E+00 0. -1.
          5    1    1    2  502    0  0.25964749970E+02  0.35680941567E+02  0.42511227736E+03  0.42742231597E+03  0.47000000000E+01 0. -1.
         -5    1    1    2    0  502  0.15662306167E+02 -0.68827117810E+02  0.19603992291E+03  0.20841358246E+03  0.47000000000E+01 0. -1.
        -11    1    1    2    0    0 -0.66138051769E+02  0.92504881547E+01  0.29518982772E+03  0.30264971140E+03  0.00000000000E+00 0.  1.
         11    1    1    2    0    0  0.24510995633E+02  0.23895688088E+02  0.89971909308E+02  0.96263893962E+02  0.00000000000E+00 0. -1.
<mgrwt>
<rscale>  0 0.12702887E+03</rscale>
<asrwt>0</asrwt>
<pdfrwt beam="1">  1        2 0.15700482E+00 0.13585740E+03</pdfrwt>
<pdfrwt beam="2">  1       -2 0.21873521E-02 0.13585740E+03</pdfrwt>
<totfact> 0.16532930E+04</totfact>
</mgrwt>
</event>
<event>
 6    1  0.5818426E-006  0.2706994E+03  0.7546771E-02  0.1100880E+00
          2   -1    0    0  501    0  0.00000000000E+00  0.00000000000E+00  0.22788637367E+03  0.22788637367E+03  0.00000000000E+00 0. -1.
         -2   -1    0    0    0  501 -0.00000000000E+00 -0.00000000000E+00 -0.80388926949E+02  0.80388926949E+02  0.00000000000E+00 0.  1.
          5    1    1    2  502    0  0.16065172625E+02 -0.81069442587E+02 -0.20951991425E+02  0.85389813430E+02  0.47000000000E+01 0. -1.
         -5    1    1    2    0  502 -0.30142045086E+02  0.23738970938E+02  0.37467573583E+02  0.53832988895E+02  0.47000000000E+01 0. -1.
        -11    1    1    2    0    0 -0.74502816174E+01  0.31200561293E+02  0.13133456159E+03  0.13519522473E+03  0.00000000000E+00 0. -1.
         11    1    1    2    0    0  0.21527154078E+02  0.26129910357E+02 -0.35269703072E+00  0.33857273564E+02  0.00000000000E+00 0.  1.
<mgrwt>
<rscale>  0 0.27069940E+03</rscale>
<asrwt>0</asrwt>
<pdfrwt beam="1">  1        2 0.35059442E-01 0.27069940E+03</pdfrwt>
<pdfrwt beam="2">  1       -2 0.12367527E-01 0.27069940E+03</pdfrwt>
<totfact> 0.68882512E+03</totfact>
</mgrwt>
</event>
<event>
 6    1  0.5818426E-006  0.1610888E+03  0.7546771E-02  0.1260885E+00
         -1   -1    0    0    0  501 -0.00000000000E+00  0.00000000000E+00  0.11597838374E+03  0.11597838374E+03  0.00000000000E+00 0.  1.
          1   -1    0    0  501    0  0.00000000000E+00 -0.00000000000E+00 -0.14489266716E+03  0.14489266716E+03  0.00000000000E+00 0. -1.
          5    1    1    2  502    0 -0.52423431645E+02 -0.67744739323E+02 -0.47196756037E+00  0.85789735078E+02  0.47000000000E+01 0. -1.
         -5    1    1    2    0  502  0.35175676943E+02  0.52920947609E+02  0.55315025494E+02  0.84378889478E+02  0.47000000000E+01 0.  1.
        -11    1    1    2    0    0  0.12456260633E+02 -0.96493900951E+00 -0.62793157361E+02  0.64023981036E+02  0.00000000000E+00 0. -1.
         11    1    1    2    0    0  0.47914940687E+01  0.15788730724E+02 -0.20964183993E+02  0.26678445303E+02  0.00000000000E+00 0.  1.
<mgrwt>
<rscale>  0 0.10982990E+03</rscale>
<asrwt>0</asrwt>
<pdfrwt beam="2">  1        1 0.22291180E-01 0.16108879E+03</pdfrwt>
<pdfrwt beam="1">  1       -1 0.17842828E-01 0.16108879E+03</pdfrwt>
<totfact> 0.51986894E+03</totfact>
</mgrwt>
</event>
<event>
 6    1  0.5818426E-006  0.1511169E+03  0.7546771E-02  0.1216963E+00
         -1   -1    0    0    0  501 -0.00000000000E+00  0.00000000000E+00  0.29157958174E+03  0.29157958174E+03  0.00000000000E+00 0.  1.
          1   -1    0    0  501    0  0.00000000000E+00 -0.00000000000E+00 -0.84168527963E+02  0.84168527963E+02  0.00000000000E+00 0. -1.
          5    1    1    2  502    0 -0.72361712485E+02  0.60480130415E+02  0.16329145973E+03  0.18862728972E+03  0.47000000000E+01 0. -1.
         -5    1    1    2    0  502  0.28155385244E+02 -0.46589820978E+02  0.61852828011E+02  0.82529991336E+02  0.47000000000E+01 0.  1.
        -11    1    1    2    0    0 -0.82504808592E+01  0.29796587130E+02 -0.19043754472E+02  0.36312141543E+02  0.00000000000E+00 0. -1.
         11    1    1    2    0    0  0.52456808100E+02 -0.43686896567E+02  0.13105205086E+01  0.68278687097E+02  0.00000000000E+00 0.  1.
<mgrwt>
<rscale>  0 0.13733295E+03</rscale>
<asrwt>0</asrwt>
<pdfrwt beam="2">  1        1 0.12949004E-01 0.15111691E+03</pdfrwt>
<pdfrwt beam="1">  1       -1 0.44858397E-01 0.15111691E+03</pdfrwt>
<totfact> 0.22181449E+03</totfact>
</mgrwt>
</event>
<event>
 6    1  0.5818426E-006  0.4267702E+03  0.7546771E-02  0.1036208E+00
         -1   -1    0    0    0  501 -0.00000000000E+00  0.00000000000E+00  0.42046317192E+03  0.42046317192E+03  0.00000000000E+00 0.  1.
          1   -1    0    0  501    0  0.00000000000E+00 -0.00000000000E+00 -0.42797022491E+03  0.42797022491E+03  0.00000000000E+00 0. -1.
          5    1    1    2  502    0  0.25940797616E+03 -0.15970675018E+03  0.99312325278E+02  0.32044308715E+03  0.47000000000E+01 0. -1.
         -5    1    1    2    0  502  0.61591391029E+02 -0.63580631039E+02 -0.34567641329E+02  0.95147295912E+02  0.47000000000E+01 0. -1.
        -11    1    1    2    0    0 -0.20645075693E+02  0.87026346933E+02 -0.49538298211E+02  0.10224405704E+03  0.00000000000E+00 0. -1.
         11    1    1    2    0    0 -0.30035429150E+03  0.13626103429E+03 -0.22713438732E+02  0.33059895672E+03  0.00000000000E+00 0.  1.
<mgrwt>
<rscale>  0 0.42264728E+03</rscale>
<asrwt>0</asrwt>
<pdfrwt beam="2">  1        1 0.65841573E-01 0.42677015E+03</pdfrwt>
<pdfrwt beam="1">  1       -1 0.64686642E-01 0.42677015E+03</pdfrwt>
<totfact> 0.13813980E+02</totfact>
</mgrwt>
</event>
<event>
 6    1  0.5818426E-006  0.2949899E+03  0.7546771E-02  0.1087772E+00
          2   -1    0    0  501    0  0.00000000000E+00  0.00000000000E+00  0.92784938408E+03  0.92784938408E+03  0.00000000000E+00 0.  1.
         -2   -1    0    0    0  501 -0.00000000000E+00 -0.00000000000E+00 -0.23446438307E+02  0.23446438307E+02  0.00000000000E+00 0. -1.
          5    1    1    2  502    0  0.29751807979E+02 -0.10434721889E+02  0.18517949045E+03  0.18790313244E+03  0.47000000000E+01 0. -1.
         -5    1    1    2    0  502 -0.80968143500E+02 -0.11240649722E+02  0.10711809599E+03  0.13482792350E+03  0.47000000000E+01 0. -1.
        -11    1    1    2    0    0  0.84314255340E+02  0.50471133591E+02  0.45193728340E+03  0.46249706714E+03  0.00000000000E+00 0.  1.
         11    1    1    2    0    0 -0.33097919819E+02 -0.28795761980E+02  0.16016807593E+03  0.16606769930E+03  0.00000000000E+00 0. -1.
<mgrwt>
<rscale>  0 0.29498992E+03</rscale>
<asrwt>0</asrwt>
<pdfrwt beam="1">  1        2 0.14274603E+00 0.29498992E+03</pdfrwt>
<pdfrwt beam="2">  1       -2 0.36071451E-02 0.29498992E+03</pdfrwt>
<totfact> 0.93638451E+03</totfact>
</mgrwt>
</event>
<event>
 6    1  0.5818426E-006  0.3497791E+03  0.7546771E-02  0.1062706E+00
          2   -1    0    0  501    0  0.00000000000E+00  0.00000000000E+00  0.47696776814E+03  0.47696776814E+03  0.00000000000E+00 0. -1.
         -2   -1    0    0    0  501 -0.00000000000E+00 -0.00000000000E+00 -0.64126656073E+02  0.64126656073E+02  0.00000000000E+00 0.  1.
          5    1    1    2  502    0  0.82876788177E+02  0.10631165685E+03  0.96563349708E+02  0.16588339551E+03  0.47000000000E+01 0.  1.
         -5    1    1    2    0  502  0.16085576509E+02 -0.18152671695E+02  0.96310691323E+02  0.99428891799E+02  0.47000000000E+01 0.  1.
        -11    1    1    2    0    0 -0.21560607251E+02 -0.58596967272E+02  0.16482636068E+03  0.17625604538E+03  0.00000000000E+00 0. -1.
         11    1    1    2    0    0 -0.77401757435E+02 -0.29562017879E+02  0.55140710363E+02  0.99526091526E+02  0.00000000000E+00 0.  1.
<mgrwt>
<rscale>  0 0.34977906E+03</rscale>
<asrwt>0</asrwt>
<pdfrwt beam="1">  1        2 0.73379654E-01 0.34977906E+03</pdfrwt>
<pdfrwt beam="2">  1       -2 0.98656397E-02 0.34977906E+03</pdfrwt>
<totfact> 0.44681844E+03</totfact>
</mgrwt>
</event>
<event>
 6    1  0.5818426E-006  0.1655882E+03  0.7546771E-02  0.1189440E+00
         -1   -1    0    0    0  501 -0.00000000000E+00  0.00000000000E+00  0.51912707883E+02  0.51912707883E+02  0.00000000000E+00 0.  1.
          1   -1    0    0  501    0  0.00000000000E+00 -0.00000000000E+00 -0.62878780613E+03  0.62878780613E+03  0.00000000000E+00 0. -1.
          5    1    1    2  502    0  0.62634140138E+02 -0.15720159035E+02  0.56232654530E+01  0.64991307305E+02  0.47000000000E+01 0. -1.
         -5    1    1    2    0  502  0.44488325129E+02  0.33568189534E+02 -0.13184883502E+03  0.14322094720E+03  0.47000000000E+01 0. -1.
        -11    1    1    2    0    0 -0.26141762703E+02  0.98526490058E+01 -0.22507912680E+02  0.35875793829E+02  0.00000000000E+00 0.  1.
         11    1    1    2    0    0 -0.80980702564E+02 -0.27700679504E+02 -0.42814161600E+03  0.43661246568E+03  0.00000000000E+00 0. -1.
<mgrwt>
<rscale>  0 0.15934328E+03</rscale>
<asrwt>0</asrwt>
<pdfrwt beam="2">  1        1 0.96736584E-01 0.16558819E+03</pdfrwt>
<pdfrwt beam="1">  1       -1 0.79865706E-02 0.16558819E+03</pdfrwt>
<totfact> 0.27981769E+03</totfact>
</mgrwt>
</event>
<event>
 6    1  0.5818426E-006  0.1869795E+03  0.7546771E-02  0.1165205E+00
          1   -1    0    0  501    0  0.00000000000E+00  0.00000000000E+00  0.77834055362E+02  0.77834055362E+02  0.00000000000E+00 0. -1.
         -1   -1    0    0    0  501 -0.00000000000E+00 -0.00000000000E+00 -0.44597715753E+03  0.44597715753E+03  0.00000000000E+00 0.  1.
          5    1    1    2  502    0 -0.59213506899E+02  0.65481922463E+02 -0.74741254832E+02  0.11576902324E+03  0.47000000000E+01 0.  1.
         -5    1    1    2    0  502 -0.76820369807E+02 -0.36641906574E+02 -0.19103456246E+03  0.20918960918E+03  0.47000000000E+01 0.  1.
        -11    1    1    2    0    0  0.29561777252E+02 -0.15708459113E+02  0.17677751414E+02  0.37857063503E+02  0.00000000000E+00 0.  1.
         11    1    1    2    0    0  0.10647209945E+03 -0.13131556775E+02 -0.12004503628E+03  0.16099551696E+03  0.00000000000E+00 0. -1.
<mgrwt>
<rscale>  0 0.18271052E+03</rscale>
<asrwt>0</asrwt>
<pdfrwt beam="1">  1        1 0.11974470E-01 0.18697948E+03</pdfrwt>
<pdfrwt beam="2">  1       -1 0.68611869E-01 0.18697948E+03</pdfrwt>
<totfact> 0.11141722E+03</totfact>
</mgrwt>
</event>
<event>
 6    1  0.5818426E-006  0.2920996E+03  0.7546771E-02  0.1089258E+00
          1   -1    0    0  501    0  0.00000000000E+00  0.00000000000E+00  0.30208946479E+03  0.30208946479E+03  0.00000000000E+00 0. -1.
         -1   -1    0    0    0  501 -0.00000000000E+00 -0.00000000000E+00 -0.70610047080E+02  0.70610047080E+02  0.00000000000E+00 0.  1.
          5    1    1    2  502    0  0.26534740051E+02 -0.41602091473E+02  0.46126024409E+02  0.67709132119E+02  0.47000000000E+01 0.  1.
         -5    1    1    2    0  502  0.52011221076E+02  0.88548923182E+02  0.46934869494E+02  0.11300907437E+03  0.47000000000E+01 0.  1.
        -11    1    1    2    0    0 -0.42693097496E+02 -0.22089669744E+02  0.12969168683E+01  0.48086755729E+02  0.00000000000E+00 0.  1.
         11    1    1    2    0    0 -0.35852863631E+02 -0.24857161965E+02  0.13712160694E+03  0.14389454965E+03  0.00000000000E+00 0. -1.
<mgrwt>
<rscale>  0 0.29209965E+03</rscale>
<asrwt>0</asrwt>
<pdfrwt beam="1">  1        1 0.46475302E-01 0.29209965E+03</pdfrwt>
<pdfrwt beam="2">  1       -1 0.10863084E-01 0.29209965E+03</pdfrwt>
<totfact> 0.46355234E+03</totfact>
</mgrwt>
</event>
<event>
 6    1  0.5818426E-006  0.2547139E+03  0.7546771E-02  0.1110361E+00
         -3   -1    0    0    0  501 -0.00000000000E+00  0.00000000000E+00  0.18505773900E+03  0.18505773900E+03  0.00000000000E+00 0.  1.
          3   -1    0    0  501    0  0.00000000000E+00 -0.00000000000E+00 -0.87647232844E+02  0.87647232844E+02  0.00000000000E+00 0. -1.
          5    1    1    2  502    0  0.95046364086E+01  0.30493480815E+02 -0.26752036047E+02  0.41927937203E+02  0.47000000000E+01 0. -1.
         -5    1    1    2    0  502  0.54497179237E+02 -0.54778357228E+02  0.77095682277E+02  0.10925403970E+03  0.47000000000E+01 0. -1.
        -11    1    1    2    0    0 -0.11860157268E+02  0.49204880538E+02  0.67577713432E+01  0.51063206643E+02  0.00000000000E+00 0. -1.
         11    1    1    2    0    0 -0.52141658378E+02 -0.24920004124E+02  0.40309088578E+02  0.70459788291E+02  0.00000000000E+00 0.  1.
<mgrwt>
<rscale>  0 0.25471395E+03</rscale>
<asrwt>0</asrwt>
<pdfrwt beam="2">  1        3 0.13484190E-01 0.25471395E+03</pdfrwt>
<pdfrwt beam="1">  1       -3 0.28470421E-01 0.25471395E+03</pdfrwt>
<totfact> 0.13301258E+03</totfact>
</mgrwt>
</event>
<event>
 6    1  0.5818426E-006  0.1268640E+03  0.7546771E-02  0.1247360E+00
         -1   -1    0    0    0  501 -0.00000000000E+00  0.00000000000E+00  0.89628389439E+02  0.89628389439E+02  0.00000000000E+00 0.  1.
          1   -1    0    0  501    0  0.00000000000E+00 -0.00000000000E+00 -0.13706663153E+03  0.13706663153E+03  0.00000000000E+00 0. -1.
          5    1    1    2  502    0 -0.57802828492E+02 -0.97058812855E+01  0.66560031042E+01  0.59175700169E+02  0.47000000000E+01 0.  1.
         -5    1    1    2    0  502  0.57148396789E+02  0.31250789189E+02 -0.20474884837E+02  0.68438746260E+02  0.47000000000E+01 0.  1.
        -11    1    1    2    0    0 -0.42440713922E+00 -0.57317461014E+02 -0.22860128102E+02  0.61709455640E+02  0.00000000000E+00 0.  1.
         11    1    1    2    0    0  0.10788388421E+01  0.35772553110E+02 -0.10759232257E+02  0.37371118903E+02  0.00000000000E+00 0. -1.
<mgrwt>
<rscale>  0 0.11745209E+03</rscale>
<asrwt>0</asrwt>
<pdfrwt beam="2">  1        1 0.21087174E-01 0.12686404E+03</pdfrwt>
<pdfrwt beam="1">  1       -1 0.13788983E-01 0.12686404E+03</pdfrwt>
<totfact> 0.82347340E+03</totfact>
</mgrwt>
</event>
<event>
 6    1  0.5818426E-006  0.1270961E+03  0.7546771E-02  0.1248967E+00
         -2   -1    0    0    0  501 -0.00000000000E+00  0.00000000000E+00  0.11642351626E+03  0.11642351626E+03  0.00000000000E+00 0.  1.
          2   -1    0    0  501    0  0.00000000000E+00 -0.00000000000E+00 -0.11224911733E+03  0.11224911733E+03  0.00000000000E+00 0. -1.
          5    1    1    2  502    0  0.71219122719E+02  0.74521820782E+01  0.42925838802E+02  0.83620667873E+02  0.47000000000E+01 0.  1.
         -5    1    1    2    0  502 -0.48247022117E+02 -0.60101130152E+01 -0.47711668637E+01  0.49079024388E+02  0.47000000000E+01 0.  1.
        -11    1    1    2    0    0  0.24105876092E+02  0.18169970316E+02 -0.33331386701E+02  0.44969127442E+02  0.00000000000E+00 0. -1.
         11    1    1    2    0    0 -0.47077976694E+02 -0.19612039380E+02 -0.64888631051E+00  0.51003813894E+02  0.00000000000E+00 0.  1.
<mgrwt>
<rscale>  0 0.11651053E+03</rscale>
<asrwt>0</asrwt>
<pdfrwt beam="2">  1        2 0.17269095E-01 0.12709614E+03</pdfrwt>
<pdfrwt beam="1">  1       -2 0.17911310E-01 0.12709614E+03</pdfrwt>
<totfact> 0.78662767E+03</totfact>
</mgrwt>
</event>
<event>
 6    1  0.5818426E-006  0.1598832E+03  0.7546771E-02  0.1195192E+00
          4   -1    0    0  501    0  0.00000000000E+00  0.00000000000E+00  0.55469840372E+02  0.55469840372E+02  0.00000000000E+00 0. -1.
         -4   -1    0    0    0  501 -0.00000000000E+00 -0.00000000000E+00 -0.73887027358E+03  0.73887027358E+03  0.00000000000E+00 0.  1.
          5    1    1    2  502    0  0.27243974754E+02  0.12863913183E+02 -0.42846202406E+03  0.42954570244E+03  0.47000000000E+01 0. -1.
         -5    1    1    2    0  502  0.55590085087E+02 -0.68330468855E+02 -0.19385793508E+03  0.21298427061E+03  0.47000000000E+01 0. -1.
        -11    1    1    2    0    0 -0.96397748414E+02  0.37431851670E+02 -0.72719739697E+02  0.12641926262E+03  0.00000000000E+00 0.  1.
         11    1    1    2    0    0  0.13563688574E+02  0.18034704003E+02  0.11639265623E+02  0.25390878292E+02  0.00000000000E+00 0. -1.
<mgrwt>
<rscale>  0 0.15437975E+03</rscale>
<asrwt>0</asrwt>
<pdfrwt beam="1">  1        4 0.85338226E-02 0.15988319E+03</pdfrwt>
<pdfrwt beam="2">  1       -4 0.11367234E+00 0.15988319E+03</pdfrwt>
<totfact> 0.10787636E+02</totfact>
</mgrwt>
</event>
<event>
 6    1  0.5818426E-006  0.1366680E+03  0.7546771E-02  0.1230164E+00
         -2   -1    0    0    0  501 -0.00000000000E+00  0.00000000000E+00  0.14491635489E+03  0.14491635489E+03  0.00000000000E+00 0.  1.
          2   -1    0    0  501    0  0.00000000000E+00 -0.00000000000E+00 -0.11272066234E+03  0.11272066234E+03  0.00000000000E+00 0. -1.
          5    1    1    2  502    0 -0.78934593146E+00 -0.40504551060E+02  0.18241733864E+02  0.44677651885E+02  0.47000000000E+01 0.  1.
         -5    1    1    2    0  502 -0.31430702535E+00  0.95758872202E+02  0.40202420719E+02  0.10396242122E+03  0.47000000000E+01 0.  1.
        -11    1    1    2    0    0  0.24042698840E+02 -0.35240947828E+02  0.24957528189E+02  0.49425236313E+02  0.00000000000E+00 0.  1.
         11    1    1    2    0    0 -0.22939045883E+02 -0.20013373314E+02 -0.51205990218E+02  0.59571707812E+02  0.00000000000E+00 0. -1.
<mgrwt>
<rscale>  0 0.12819189E+03</rscale>
<asrwt>0</asrwt>
<pdfrwt beam="2">  1        2 0.17341640E-01 0.13666804E+03</pdfrwt>
<pdfrwt beam="1">  1       -2 0.22294824E-01 0.13666804E+03</pdfrwt>
<totfact> 0.54347615E+03</totfact>
</mgrwt>
</event>
<event>
 6    1  0.5818426E-006  0.1734234E+03  0.7546771E-02  0.1180659E+00
         -2   -1    0    0    0  501 -0.00000000000E+00  0.00000000000E+00  0.23196045977E+02  0.23196045977E+02  0.00000000000E+00 0.  1.
          2   -1    0    0  501    0  0.00000000000E+00 -0.00000000000E+00 -0.11389244987E+04  0.11389244987E+04  0.00000000000E+00 0. -1.
          5    1    1    2  502    0 -0.59606847191E+01 -0.11545845350E+03 -0.31508385359E+03  0.33565772602E+03  0.47000000000E+01 0. -1.
         -5    1    1    2    0  502  0.37844983529E+02 -0.44309826884E+00 -0.33488305286E+03  0.33704775360E+03  0.47000000000E+01 0. -1.
        -11    1    1    2    0    0 -0.63194407424E+02  0.73952839408E+02 -0.32451968582E+03  0.33878545139E+03  0.00000000000E+00 0. -1.
         11    1    1    2    0    0  0.31310108614E+02  0.41948712357E+02 -0.14124186047E+03  0.15062961369E+03  0.00000000000E+00 0.  1.
<mgrwt>
<rscale>  0 0.16733171E+03</rscale>
<asrwt>0</asrwt>
<pdfrwt beam="2">  1        2 0.17521910E+00 0.17342342E+03</pdfrwt>
<pdfrwt beam="1">  1       -2 0.35686235E-02 0.17342342E+03</pdfrwt>
<totfact> 0.69571477E+03</totfact>
</mgrwt>
</event>
<event>
 6    1  0.5818426E-006  0.2858957E+03  0.7546771E-02  0.1092512E+00
         -1   -1    0    0    0  501 -0.00000000000E+00  0.00000000000E+00  0.32507671890E+02  0.32507671890E+02  0.00000000000E+00 0.  1.
          1   -1    0    0  501    0  0.00000000000E+00 -0.00000000000E+00 -0.62859282009E+03  0.62859282009E+03  0.00000000000E+00 0. -1.
          5    1    1    2  502    0  0.28792705012E+02 -0.24615110152E+02 -0.68419499948E+02  0.78346930270E+02  0.47000000000E+01 0. -1.
         -5    1    1    2    0  502 -0.12941917419E+02  0.11337192916E+03 -0.30069361883E+03  0.32165109973E+03  0.47000000000E+01 0. -1.
        -11    1    1    2    0    0  0.38818108801E+02 -0.41213419592E+02 -0.99650309959E+02  0.11461053966E+03  0.00000000000E+00 0. -1.
         11    1    1    2    0    0 -0.54668896395E+02 -0.47543399415E+02 -0.12732171946E+03  0.14649192233E+03  0.00000000000E+00 0.  1.
<mgrwt>
<rscale>  0 0.28589571E+03</rscale>
<asrwt>0</asrwt>
<pdfrwt beam="2">  1        1 0.96706590E-01 0.28589571E+03</pdfrwt>
<pdfrwt beam="1">  1       -1 0.50011802E-02 0.28589571E+03</pdfrwt>
<totfact> 0.57834072E+03</totfact>
</mgrwt>
</event>
<event>
 6    1  0.5818426E-006  0.1290346E+03  0.7546771E-02  0.1243017E+00
         -2   -1    0    0    0  501 -0.00000000000E+00  0.00000000000E+00  0.10489947963E+03  0.10489947963E+03  0.00000000000E+00 0.  1.
          2   -1    0    0  501    0  0.00000000000E+00 -0.00000000000E+00 -0.13653659928E+03  0.13653659928E+03  0.00000000000E+00 0. -1.
          5    1    1    2  502    0  0.12868775032E+02 -0.47645795561E+02  0.57192427106E+01  0.49905179517E+02  0.47000000000E+01 0.  1.
         -5    1    1    2    0  502 -0.61954834972E+01  0.78957080338E+02  0.16254081029E+02  0.80986972417E+02  0.47000000000E+01 0.  1.
        -11    1    1    2    0    0  0.27342950357E+02 -0.50363728396E+02 -0.27068979639E+02  0.63378795594E+02  0.00000000000E+00 0.  1.
         11    1    1    2    0    0 -0.34016241892E+02  0.19052443619E+02 -0.26541463750E+02  0.47165131383E+02  0.00000000000E+00 0. -1.
<mgrwt>
<rscale>  0 0.12004862E+03</rscale>
<asrwt>0</asrwt>
<pdfrwt beam="2">  1        2 0.21005631E-01 0.12903460E+03</pdfrwt>
<pdfrwt beam="1">  1       -2 0.16138381E-01 0.12903460E+03</pdfrwt>
<totfact> 0.74922682E+03</totfact>
</mgrwt>
</event>
<event>
 6    1  0.5818426E-006  0.2118808E+03  0.7546771E-02  0.1143653E+00
         -2   -1    0    0    0  501 -0.00000000000E+00  0.00000000000E+00  0.47755504394E+02  0.47755504394E+02  0.00000000000E+00 0. -1.
          2   -1    0    0  501    0  0.00000000000E+00 -0.00000000000E+00 -0.86475614263E+03  0.86475614263E+03  0.00000000000E+00 0.  1.
          5    1    1    2  502    0 -0.10707960204E+03  0.54995226836E+02 -0.16650649357E+03  0.20551646783E+03  0.47000000000E+01 0.  1.
         -5    1    1    2    0  502 -0.63648502400E+02 -0.44185140260E+02 -0.25018317642E+03  0.26194879316E+03  0.47000000000E+01 0.  1.
        -11    1    1    2    0    0  0.12980346405E+02  0.24696083024E+02 -0.10182259204E+03  0.10557568925E+03  0.00000000000E+00 0.  1.
         11    1    1    2    0    0  0.15774775804E+03 -0.35506169600E+02 -0.29848837621E+03  0.33947069678E+03  0.00000000000E+00 0. -1.
<mgrwt>
<rscale>  0 0.20738638E+03</rscale>
<asrwt>0</asrwt>
<pdfrwt beam="2">  1        2 0.13303941E+00 0.21188084E+03</pdfrwt>
<pdfrwt beam="1">  1       -2 0.73470007E-02 0.21188084E+03</pdfrwt>
<totfact> 0.34358873E+03</totfact>
</mgrwt>
</event>
<event>
 6    1  0.5818426E-006  0.1321539E+03  0.7546771E-02  0.1239216E+00
         -2   -1    0    0    0  501 -0.00000000000E+00  0.00000000000E+00  0.37241233502E+02  0.37241233502E+02  0.00000000000E+00 0.  1.
          2   -1    0    0  501    0  0.00000000000E+00 -0.00000000000E+00 -0.36149830068E+03  0.36149830068E+03  0.00000000000E+00 0. -1.
          5    1    1    2  502    0 -0.53365803069E+02 -0.35303454074E+02 -0.97023875259E+02  0.11631837850E+03  0.47000000000E+01 0. -1.
         -5    1    1    2    0  502  0.55616370012E+02 -0.34326702877E+02 -0.59232534456E+02  0.88329419119E+02  0.47000000000E+01 0.  1.
        -11    1    1    2    0    0 -0.20511153408E+02  0.38913984071E+02 -0.34536354281E+02  0.55926427898E+02  0.00000000000E+00 0. -1.
         11    1    1    2    0    0  0.18260586465E+02  0.30716172880E+02 -0.13346430318E+03  0.13816530867E+03  0.00000000000E+00 0.  1.
<mgrwt>
<rscale>  0 0.12238380E+03</rscale>
<asrwt>0</asrwt>
<pdfrwt beam="2">  1        2 0.55615123E-01 0.13215391E+03</pdfrwt>
<pdfrwt beam="1">  1       -2 0.57294206E-02 0.13215391E+03</pdfrwt>
<totfact> 0.13342664E+04</totfact>
</mgrwt>
</event>
<event>
 6    1  0.5818426E-006  0.1826572E+03  0.7546771E-02  0.1170536E+00
         -2   -1    0    0    0  501 -0.00000000000E+00  0.00000000000E+00  0.64904928981E+02  0.64904928981E+02  0.00000000000E+00 0.  1.
          2   -1    0    0  501    0  0.00000000000E+00 -0.00000000000E+00 -0.46315054477E+03  0.46315054477E+03  0.00000000000E+00 0. -1.
          5    1    1    2  502    0 -0.55219479382E+02  0.45536729044E+01 -0.27728968513E+02  0.62136241719E+02  0.47000000000E+01 0.  1.
         -5    1    1    2    0  502 -0.13244794352E+02  0.10968008570E+03 -0.21359291553E+03  0.24051854261E+03  0.47000000000E+01 0.  1.
        -11    1    1    2    0    0  0.20697251129E+02 -0.81870334295E+02 -0.14295781502E+03  0.16603633553E+03  0.00000000000E+00 0. -1.
         11    1    1    2    0    0  0.47767022606E+02 -0.32363424312E+02 -0.13965916724E+02  0.59364353881E+02  0.00000000000E+00 0.  1.
<mgrwt>
<rscale>  0 0.17720449E+03</rscale>
<asrwt>0</asrwt>
<pdfrwt beam="2">  1        2 0.71253932E-01 0.18265724E+03</pdfrwt>
<pdfrwt beam="1">  1       -2 0.99853735E-02 0.18265724E+03</pdfrwt>
<totfact> 0.44192773E+03</totfact>
</mgrwt>
</event>
<event>
 6    1  0.5818426E-006  0.5143609E+03  0.7546771E-02  0.1010097E+00
          2   -1    0    0  501    0  0.00000000000E+00  0.00000000000E+00  0.96819479672E+02  0.96819479672E+02  0.00000000000E+00 0.  1.
         -2   -1    0    0    0  501 -0.00000000000E+00 -0.00000000000E+00 -0.68314551071E+03  0.68314551071E+03  0.00000000000E+00 0. -1.
          5    1    1    2  502    0 -0.25929890664E+02  0.37345300473E+02 -0.57073803460E+02  0.73120036506E+02  0.47000000000E+01 0. -1.
         -5    1    1    2    0  502 -0.13195936008E+03 -0.46798591161E+02 -0.50250751836E+03  0.52166970092E+03  0.47000000000E+01 0. -1.
        -11    1    1    2    0    0  0.61630155640E+02  0.33774438201E+02  0.23237044931E+02  0.74019923110E+02  0.00000000000E+00 0. -1.
         11    1    1    2    0    0  0.96259095101E+02 -0.24321147514E+02 -0.49981754149E+02  0.11115532985E+03  0.00000000000E+00 0.  1.
<mgrwt>
<rscale>  0 0.51436094E+03</rscale>
<asrwt>0</asrwt>
<pdfrwt beam="1">  1        2 0.14895305E-01 0.51436094E+03</pdfrwt>
<pdfrwt beam="2">  1       -2 0.10509931E+00 0.51436094E+03</pdfrwt>
<totfact> 0.30027967E+02</totfact>
</mgrwt>
</event>
<event>
 6    1  0.5818426E-006  0.1487773E+03  0.7546771E-02  0.1212201E+00
          2   -1    0    0  501    0  0.00000000000E+00  0.00000000000E+00  0.13914985294E+03  0.13914985294E+03  0.00000000000E+00 0.  1.
         -2   -1    0    0    0  501 -0.00000000000E+00 -0.00000000000E+00 -0.13895279427E+03  0.13895279427E+03  0.00000000000E+00 0. -1.
          5    1    1    2  502    0  0.39402504807E+02  0.21485818504E+02 -0.80295819274E+02  0.92107037596E+02  0.47000000000E+01 0. -1.
         -5    1    1    2    0  502  0.40613797553E+02 -0.11117590397E+02  0.43948140907E+02  0.61045970031E+02  0.47000000000E+01 0. -1.
        -11    1    1    2    0    0 -0.48754916349E+02  0.53262198865E+01 -0.24324168762E+02  0.54745553905E+02  0.00000000000E+00 0. -1.
         11    1    1    2    0    0 -0.31261386011E+02 -0.15694447994E+02  0.60868905802E+02  0.70204085684E+02  0.00000000000E+00 0.  1.
<mgrwt>
<rscale>  0 0.14084186E+03</rscale>
<asrwt>0</asrwt>
<pdfrwt beam="1">  1        2 0.21407670E-01 0.14877732E+03</pdfrwt>
<pdfrwt beam="2">  1       -2 0.21377353E-01 0.14877732E+03</pdfrwt>
<totfact> 0.46209936E+03</totfact>
</mgrwt>
</event>
<event>
 6    1  0.5818426E-006  0.1199338E+03  0.7546771E-02  0.1256155E+00
          1   -1    0    0  501    0  0.00000000000E+00  0.00000000000E+00  0.20322841169E+03  0.20322841169E+03  0.00000000000E+00 0. -1.
         -1   -1    0    0    0  501 -0.00000000000E+00 -0.00000000000E+00 -0.55562098716E+02  0.55562098716E+02  0.00000000000E+00 0.  1.
          5    1    1    2  502    0 -0.10116744582E+01  0.62289059196E+02  0.71751504345E+02  0.95138418930E+02  0.47000000000E+01 0. -1.
         -5    1    1    2    0  502  0.41795442932E+01 -0.49574288927E+02  0.12744839969E+02  0.51571306547E+02  0.47000000000E+01 0.  1.
        -11    1    1    2    0    0  0.38808232590E+02 -0.45132708853E+01  0.42874217556E+01  0.39304332028E+02  0.00000000000E+00 0. -1.
         11    1    1    2    0    0 -0.41976102426E+02 -0.82014993845E+01  0.58882546908E+02  0.72776452905E+02  0.00000000000E+00 0.  1.
<mgrwt>
<rscale>  0 0.11241888E+03</rscale>
<asrwt>0</asrwt>
<pdfrwt beam="1">  1        1 0.31265909E-01 0.11993378E+03</pdfrwt>
<pdfrwt beam="2">  1       -1 0.85480153E-02 0.11993378E+03</pdfrwt>
<totfact> 0.10415344E+04</totfact>
</mgrwt>
</event>
<event>
 6    1  0.5818426E-006  0.1327888E+03  0.7546771E-02  0.1237478E+00
          2   -1    0    0  501    0  0.00000000000E+00  0.00000000000E+00  0.69552496669E+03  0.69552496669E+03  0.00000000000E+00 0. -1.
         -2   -1    0    0    0  501 -0.00000000000E+00 -0.00000000000E+00 -0.20831123618E+02  0.20831123618E+02  0.00000000000E+00 0.  1.
          5    1    1    2  502    0 -0.43472167687E+02  0.15870404022E+01  0.80615043354E+02  0.91723624414E+02  0.47000000000E+01 0. -1.
         -5    1    1    2    0  502  0.88197384660E+02  0.11629874380E+01  0.20759908485E+03  0.22560939970E+03  0.47000000000E+01 0. -1.
        -11    1    1    2    0    0  0.15898139519E+02 -0.24623917977E+02  0.67362978912E+02  0.73463318089E+02  0.00000000000E+00 0.  1.
         11    1    1    2    0    0 -0.60623356492E+02  0.21873890137E+02  0.31911673596E+03  0.32555974811E+03  0.00000000000E+00 0. -1.
<mgrwt>
<rscale>  0 0.12347136E+03</rscale>
<asrwt>0</asrwt>
<pdfrwt beam="1">  1        2 0.10700382E+00 0.13278880E+03</pdfrwt>
<pdfrwt beam="2">  1       -2 0.32047888E-02 0.13278880E+03</pdfrwt>
<totfact> 0.15388885E+04</totfact>
</mgrwt>
</event>
<event>
 6    1  0.5818426E-006  0.1516711E+03  0.7546771E-02  0.1207760E+00
          4   -1    0    0  501    0  0.00000000000E+00  0.00000000000E+00  0.45689829875E+02  0.45689829875E+02  0.00000000000E+00 0. -1.
         -4   -1    0    0    0  501 -0.00000000000E+00 -0.00000000000E+00 -0.43277678805E+03  0.43277678805E+03  0.00000000000E+00 0.  1.
          5    1    1    2  502    0  0.90256810257E+02  0.87380356587E+01 -0.20679062832E+03  0.22584751277E+03  0.47000000000E+01 0.  1.
         -5    1    1    2    0  502 -0.24591564827E+02  0.46644340268E+02 -0.52576115705E+02  0.74610840247E+02  0.47000000000E+01 0.  1.
        -11    1    1    2    0    0 -0.59104682033E+02 -0.76739908634E+02 -0.81178903235E+02  0.12638192650E+03  0.00000000000E+00 0.  1.
         11    1    1    2    0    0 -0.65605633969E+01  0.21357532707E+02 -0.46541310919E+02  0.51626338408E+02  0.00000000000E+00 0. -1.
<mgrwt>
<rscale>  0 0.14422055E+03</rscale>
<asrwt>0</asrwt>
<pdfrwt beam="1">  1        4 0.70292049E-02 0.15167107E+03</pdfrwt>
<pdfrwt beam="2">  1       -4 0.66581042E-01 0.15167107E+03</pdfrwt>
<totfact> 0.49318805E+02</totfact>
</mgrwt>
</event>
<event>
 6    1  0.5818426E-006  0.1504644E+03  0.7546771E-02  0.1215523E+00
         -4   -1    0    0    0  501 -0.00000000000E+00  0.00000000000E+00  0.39623924675E+03  0.39623924675E+03  0.00000000000E+00 0.  1.
          4   -1    0    0  501    0  0.00000000000E+00 -0.00000000000E+00 -0.42627037369E+02  0.42627037369E+02  0.00000000000E+00 0. -1.
          5    1    1    2  502    0  0.69607893999E+01  0.54407522652E+02  0.26074189922E+02  0.60914567143E+02  0.47000000000E+01 0. -1.
         -5    1    1    2    0  502  0.44581900766E+02 -0.45923775134E+02  0.20516243631E+03  0.21496570487E+03  0.47000000000E+01 0.  1.
        -11    1    1    2    0    0 -0.74628278438E+02  0.12802559000E+02  0.78887671285E+02  0.10934601109E+03  0.00000000000E+00 0. -1.
         11    1    1    2    0    0  0.23085588272E+02 -0.21286306518E+02  0.43487911869E+02  0.53640001023E+02  0.00000000000E+00 0.  1.
<mgrwt>
<rscale>  0 0.13838198E+03</rscale>
<asrwt>0</asrwt>
<pdfrwt beam="2">  1        4 0.65580060E-02 0.15046444E+03</pdfrwt>
<pdfrwt beam="1">  1       -4 0.60959881E-01 0.15046444E+03</pdfrwt>
<totfact> 0.66573114E+02</totfact>
</mgrwt>
</event>
<event>
 6    1  0.5818426E-006  0.1276837E+03  0.7546771E-02  0.1248792E+00
         -2   -1    0    0    0  501 -0.00000000000E+00  0.00000000000E+00  0.77831060061E+02  0.77831060061E+02  0.00000000000E+00 0.  1.
          2   -1    0    0  501    0  0.00000000000E+00 -0.00000000000E+00 -0.15304052143E+03  0.15304052143E+03  0.00000000000E+00 0. -1.
          5    1    1    2  502    0  0.29349405455E+02 -0.12348847732E+02  0.40829541236E+02  0.51990605675E+02  0.47000000000E+01 0.  1.
         -5    1    1    2    0  502 -0.32609746906E+02 -0.13477822093E+02 -0.70677093456E+02  0.79135256498E+02  0.47000000000E+01 0.  1.
        -11    1    1    2    0    0 -0.26624724705E+02 -0.19594302943E+02 -0.25904303806E+02  0.41998162211E+02  0.00000000000E+00 0.  1.
         11    1    1    2    0    0  0.29885066156E+02  0.45420972768E+02 -0.19457605346E+02  0.57747557109E+02  0.00000000000E+00 0. -1.
<mgrwt>
<rscale>  0 0.11661286E+03</rscale>
<asrwt>0</asrwt>
<pdfrwt beam="2">  1        2 0.23544695E-01 0.12768365E+03</pdfrwt>
<pdfrwt beam="1">  1       -2 0.11974009E-01 0.12768365E+03</pdfrwt>
<totfact> 0.10686002E+04</totfact>
</mgrwt>
</event>
<event>
 6    1  0.5818426E-006  0.3146233E+03  0.7546771E-02  0.1078151E+00
          1   -1    0    0  501    0  0.00000000000E+00  0.00000000000E+00  0.36274395134E+03  0.36274395134E+03  0.00000000000E+00 0. -1.
         -1   -1    0    0    0  501 -0.00000000000E+00 -0.00000000000E+00 -0.68221556310E+02  0.68221556310E+02  0.00000000000E+00 0.  1.
          5    1    1    2  502    0  0.89655898423E+02  0.13726217311E+02  0.36982349927E+01  0.90897503298E+02  0.47000000000E+01 0.  1.
         -5    1    1    2    0  502  0.17921483982E+02 -0.57764765142E+01  0.10522232624E+03  0.10699708037E+03  0.47000000000E+01 0.  1.
        -11    1    1    2    0    0 -0.16220974647E+02 -0.40764768758E+02  0.55545095747E+02  0.70782371054E+02  0.00000000000E+00 0.  1.
         11    1    1    2    0    0 -0.91356407758E+02  0.32815027962E+02  0.13005673806E+03  0.16228855293E+03  0.00000000000E+00 0. -1.
<mgrwt>
<rscale>  0 0.31462331E+03</rscale>
<asrwt>0</asrwt>
<pdfrwt beam="1">  1        1 0.55806761E-01 0.31462331E+03</pdfrwt>
<pdfrwt beam="2">  1       -1 0.10495624E-01 0.31462331E+03</pdfrwt>
<totfact> 0.38846401E+03</totfact>
</mgrwt>
</event>
<event>
 6    1  0.5818426E-006  0.1458850E+03  0.7546771E-02  0.1215928E+00
         -2   -1    0    0    0  501 -0.00000000000E+00  0.00000000000E+00  0.36294239240E+02  0.36294239240E+02  0.00000000000E+00 0.  1.
          2   -1    0    0  501    0  0.00000000000E+00 -0.00000000000E+00 -0.60355782892E+03  0.60355782892E+03  0.00000000000E+00 0. -1.
          5    1    1    2  502    0  0.39826371590E+02  0.54973421789E+01 -0.45193245003E+02  0.60670256625E+02  0.47000000000E+01 0. -1.
         -5    1    1    2    0  502 -0.94776122143E+02  0.45890870914E+02 -0.11679156242E+03  0.15732401093E+03  0.47000000000E+01 0. -1.
        -11    1    1    2    0    0 -0.14885776583E+02 -0.44158973312E+02 -0.17651597672E+03  0.18256366371E+03  0.00000000000E+00 0. -1.
         11    1    1    2    0    0  0.69835527136E+02 -0.72292397810E+01 -0.22876280554E+03  0.23929413690E+03  0.00000000000E+00 0.  1.
<mgrwt>
<rscale>  0 0.13808608E+03</rscale>
<asrwt>0</asrwt>
<pdfrwt beam="2">  1        2 0.92855041E-01 0.14588496E+03</pdfrwt>
<pdfrwt beam="1">  1       -2 0.55837297E-02 0.14588496E+03</pdfrwt>
<totfact> 0.79783620E+03</totfact>
</mgrwt>
</event>
<event>
 6    1  0.5818426E-006  0.1186673E+03  0.7546771E-02  0.1255762E+00
         -2   -1    0    0    0  501 -0.00000000000E+00  0.00000000000E+00  0.28673293362E+02  0.28673293362E+02  0.00000000000E+00 0.  1.
          2   -1    0    0  501    0  0.00000000000E+00 -0.00000000000E+00 -0.47507260453E+03  0.47507260453E+03  0.00000000000E+00 0. -1.
          5    1    1    2  502    0 -0.83344874494E+01  0.55298566116E+02 -0.44570836070E+02  0.71666202100E+02  0.47000000000E+01 0.  1.
         -5    1    1    2    0  502 -0.22596083812E+02 -0.52568322736E+02 -0.10065338145E+03  0.11587581610E+03  0.47000000000E+01 0. -1.
        -11    1    1    2    0    0 -0.17195635137E+02  0.26700803124E+02 -0.53768083981E+02  0.62447014422E+02  0.00000000000E+00 0.  1.
         11    1    1    2    0    0  0.48126206398E+02 -0.29431046504E+02 -0.24740700966E+03  0.25375686526E+03  0.00000000000E+00 0. -1.
<mgrwt>
<rscale>  0 0.11263746E+03</rscale>
<asrwt>0</asrwt>
<pdfrwt beam="2">  1        2 0.73088086E-01 0.11866733E+03</pdfrwt>
<pdfrwt beam="1">  1       -2 0.44112764E-02 0.11866733E+03</pdfrwt>
<totfact> 0.14607725E+04</totfact>
</mgrwt>
</event>
<event>
 6    1  0.5818426E-006  0.1617871E+03  0.7546771E-02  0.1193734E+00
         -2   -1    0    0    0  501 -0.00000000000E+00  0.00000000000E+00  0.17837771823E+03  0.17837771823E+03  0.00000000000E+00 0.  1.
          2   -1    0    0  501    0  0.00000000000E+00 -0.00000000000E+00 -0.13440528546E+03  0.13440528546E+03  0.00000000000E+00 0. -1.
          5    1    1    2  502    0 -0.10101224745E+03 -0.75232342405E+02  0.74098398412E+02  0.14620547912E+03  0.47000000000E+01 0. -1.
         -5    1    1    2    0  502  0.16815999868E+02  0.16386678202E+02 -0.12376928594E+02  0.26955137460E+02  0.47000000000E+01 0. -1.
        -11    1    1    2    0    0  0.40561120748E+01 -0.21188241837E+02 -0.15097596190E+02  0.26331180148E+02  0.00000000000E+00 0. -1.
         11    1    1    2    0    0  0.80140135506E+02  0.80033906040E+02 -0.26514408549E+01  0.11329120696E+03  0.00000000000E+00 0.  1.
<mgrwt>
<rscale>  0 0.15561885E+03</rscale>
<asrwt>0</asrwt>
<pdfrwt beam="2">  1        2 0.20677736E-01 0.16178708E+03</pdfrwt>
<pdfrwt beam="1">  1       -2 0.27442726E-01 0.16178708E+03</pdfrwt>
<totfact> 0.31233286E+03</totfact>
</mgrwt>
</event>
<event>
 6    1  0.5818426E-006  0.1783096E+03  0.7546771E-02  0.1175057E+00
         -1   -1    0    0    0  501 -0.00000000000E+00  0.00000000000E+00  0.89914979675E+02  0.89914979675E+02  0.00000000000E+00 0.  1.
          1   -1    0    0  501    0  0.00000000000E+00 -0.00000000000E+00 -0.33859072067E+03  0.33859072067E+03  0.00000000000E+00 0. -1.
          5    1    1    2  502    0  0.12500650045E+02  0.24849841081E+02 -0.83703816334E+01  0.29426758945E+02  0.47000000000E+01 0.  1.
         -5    1    1    2    0  502 -0.12823018182E+03 -0.77535156571E+02 -0.63885199903E+02  0.16296652663E+03  0.47000000000E+01 0.  1.
        -11    1    1    2    0    0  0.10224527544E+03  0.65161467525E+02 -0.98958154057E+02  0.15650185128E+03  0.00000000000E+00 0.  1.
         11    1    1    2    0    0  0.13484256332E+02 -0.12476152036E+02 -0.77462005403E+02  0.79610563492E+02  0.00000000000E+00 0. -1.
<mgrwt>
<rscale>  0 0.17270426E+03</rscale>
<asrwt>0</asrwt>
<pdfrwt beam="2">  1        1 0.52090880E-01 0.17830958E+03</pdfrwt>
<pdfrwt beam="1">  1       -1 0.13833074E-01 0.17830958E+03</pdfrwt>
<totfact> 0.26992211E+03</totfact>
</mgrwt>
</event>
<event>
 6    1  0.5818426E-006  0.1800919E+03  0.7546771E-02  0.1174907E+00
         -1   -1    0    0    0  501 -0.00000000000E+00  0.00000000000E+00  0.89852161412E+03  0.89852161412E+03  0.00000000000E+00 0.  1.
          1   -1    0    0  501    0  0.00000000000E+00 -0.00000000000E+00 -0.31363086165E+02  0.31363086165E+02  0.00000000000E+00 0. -1.
          5    1    1    2  502    0 -0.87806775161E+02 -0.13954021883E+02  0.16704623315E+03  0.18929151725E+03  0.47000000000E+01 0. -1.
         -5    1    1    2    0  502  0.27497075012E+02 -0.69083389789E+02  0.36138993838E+03  0.36898967661E+03  0.47000000000E+01 0.  1.
        -11    1    1    2    0    0  0.77589209222E+02  0.10035211137E+03  0.30108647313E+03  0.32671653760E+03  0.00000000000E+00 0.  1.
         11    1    1    2    0    0 -0.17279509073E+02 -0.17314699695E+02  0.37635883292E+02  0.44886968827E+02  0.00000000000E+00 0. -1.
<mgrwt>
<rscale>  0 0.17285075E+03</rscale>
<asrwt>0</asrwt>
<pdfrwt beam="2">  1        1 0.48250909E-02 0.18009193E+03</pdfrwt>
<pdfrwt beam="1">  1       -1 0.13823407E+00 0.18009193E+03</pdfrwt>
<totfact> 0.81084257E+02</totfact>
</mgrwt>
</event>
<event>
 6    1  0.5818426E-006  0.2343854E+03  0.7546771E-02  0.1123591E+00
          1   -1    0    0  501    0  0.00000000000E+00  0.00000000000E+00  0.31759539125E+02  0.31759539125E+02  0.00000000000E+00 0. -1.
         -1   -1    0    0    0  501 -0.00000000000E+00 -0.00000000000E+00 -0.43244092793E+03  0.43244092793E+03  0.00000000000E+00 0.  1.
          5    1    1    2  502    0 -0.36301616283E+02 -0.48869037748E+00 -0.90788001272E+01  0.37716850011E+02  0.47000000000E+01 0.  1.
         -5    1    1    2    0  502  0.14298452144E+01  0.96924235981E+01 -0.26983927049E+03  0.27005797420E+03  0.47000000000E+01 0.  1.
        -11    1    1    2    0    0 -0.79329469818E+01 -0.22574923524E+02  0.27473476459E+01  0.24085405104E+02  0.00000000000E+00 0. -1.
         11    1    1    2    0    0  0.42804718050E+02  0.13371190304E+02 -0.12451066583E+03  0.13234023774E+03  0.00000000000E+00 0.  1.
<mgrwt>
<rscale>  0 0.23438536E+03</rscale>
<asrwt>0</asrwt>
<pdfrwt beam="1">  1        1 0.48860833E-02 0.23438536E+03</pdfrwt>
<pdfrwt beam="2">  1       -1 0.66529368E-01 0.23438536E+03</pdfrwt>
<totfact> 0.40356506E+03</totfact>
</mgrwt>
</event>
<event>
 6    1  0.5818426E-006  0.2867841E+03  0.7546771E-02  0.1092040E+00
          1   -1    0    0  501    0  0.00000000000E+00  0.00000000000E+00  0.17709893999E+03  0.17709893999E+03  0.00000000000E+00 0. -1.
         -1   -1    0    0    0  501 -0.00000000000E+00 -0.00000000000E+00 -0.11610054657E+03  0.11610054657E+03  0.00000000000E+00 0.  1.
          5    1    1    2  502    0 -0.37066124542E+01  0.23483955151E+02  0.57004901628E+02  0.61942585795E+02  0.47000000000E+01 0. -1.
         -5    1    1    2    0  502  0.85824606059E+02  0.18870782145E+02 -0.35648768546E+02  0.94946796274E+02  0.47000000000E+01 0. -1.
        -11    1    1    2    0    0 -0.37329396533E+02 -0.67267081120E+02  0.11334663016E+02  0.77761292644E+02  0.00000000000E+00 0. -1.
         11    1    1    2    0    0 -0.44788597072E+02  0.24912343824E+02  0.28307597322E+02  0.58548811846E+02  0.00000000000E+00 0.  1.
<mgrwt>
<rscale>  0 0.28678413E+03</rscale>
<asrwt>0</asrwt>
<pdfrwt beam="1">  1        1 0.27245991E-01 0.28678413E+03</pdfrwt>
<pdfrwt beam="2">  1       -1 0.17861623E-01 0.28678413E+03</pdfrwt>
<totfact> 0.41368908E+03</totfact>
</mgrwt>
</event>
<event>
 6    1  0.5818426E-006  0.1296304E+03  0.7546771E-02  0.1233244E+00
         -2   -1    0    0    0  501 -0.00000000000E+00  0.00000000000E+00  0.67260916179E+02  0.67260916179E+02  0.00000000000E+00 0.  1.
          2   -1    0    0  501    0  0.00000000000E+00 -0.00000000000E+00 -0.28152024315E+03  0.28152024315E+03  0.00000000000E+00 0. -1.
          5    1    1    2  502    0  0.37513268620E+02 -0.27506451128E+02  0.82035686417E+01  0.47468291676E+02  0.47000000000E+01 0. -1.
         -5    1    1    2    0  502 -0.72266959858E+02  0.21896895314E+02 -0.41835030063E+02  0.86453728964E+02  0.47000000000E+01 0. -1.
        -11    1    1    2    0    0 -0.25524655827E+02 -0.35135753733E+02 -0.62012601044E+02  0.75707277944E+02  0.00000000000E+00 0. -1.
         11    1    1    2    0    0  0.60278347065E+02  0.40745309547E+02 -0.11861526451E+03  0.13915186074E+03  0.00000000000E+00 0.  1.
<mgrwt>
<rscale>  0 0.12617534E+03</rscale>
<asrwt>0</asrwt>
<pdfrwt beam="2">  1        2 0.43310807E-01 0.12963037E+03</pdfrwt>
<pdfrwt beam="1">  1       -2 0.10347833E-01 0.12963037E+03</pdfrwt>
<totfact> 0.69860742E+03</totfact>
</mgrwt>
</event>
<event>
 6    1  0.5818426E-006  0.1412467E+03  0.7546771E-02  0.1222743E+00
          1   -1    0    0  501    0  0.00000000000E+00  0.00000000000E+00  0.69878422207E+03  0.69878422207E+03  0.00000000000E+00 0. -1.
         -1   -1    0    0    0  501 -0.00000000000E+00 -0.00000000000E+00 -0.30025904609E+02  0.30025904609E+02  0.00000000000E+00 0.  1.
          5    1    1    2  502    0 -0.32956073556E+02  0.13205085820E+01  0.89789140323E+02  0.95770696182E+02  0.47000000000E+01 0.  1.
         -5    1    1    2    0  502  0.98728050782E+02 -0.16665941344E+00  0.97782609950E+02  0.13903519193E+03  0.47000000000E+01 0.  1.
        -11    1    1    2    0    0 -0.82274927433E+02 -0.21852851573E+02  0.35396094909E+03  0.36405365578E+03  0.00000000000E+00 0.  1.
         11    1    1    2    0    0  0.16502950208E+02  0.20699002405E+02  0.12722561810E+03  0.12995058278E+03  0.00000000000E+00 0. -1.
<mgrwt>
<rscale>  0 0.13322821E+03</rscale>
<asrwt>0</asrwt>
<pdfrwt beam="1">  1        1 0.10750525E+00 0.14124675E+03</pdfrwt>
<pdfrwt beam="2">  1       -1 0.46193705E-02 0.14124675E+03</pdfrwt>
<totfact> 0.54339945E+03</totfact>
</mgrwt>
</event>
<event>
 6    1  0.5818426E-006  0.1300182E+03  0.7546771E-02  0.1240908E+00
         -2   -1    0    0    0  501 -0.00000000000E+00  0.00000000000E+00  0.44146265524E+02  0.44146265524E+02  0.00000000000E+00 0.  1.
          2   -1    0    0  501    0  0.00000000000E+00 -0.00000000000E+00 -0.29938772731E+03  0.29938772731E+03  0.00000000000E+00 0. -1.
          5    1    1    2  502    0 -0.39717119398E+02  0.19863072811E+02  0.66609001260E+01  0.45149184104E+02  0.47000000000E+01 0. -1.
         -5    1    1    2    0  502  0.24858960884E+02  0.12670244270E+02 -0.13358845460E+03  0.13655207149E+03  0.47000000000E+01 0. -1.
        -11    1    1    2    0    0 -0.18132387277E+02 -0.49284764454E+02 -0.39786183125E+02  0.65884078830E+02  0.00000000000E+00 0.  1.
         11    1    1    2    0    0  0.32990545791E+02  0.16751447373E+02 -0.88527724184E+02  0.95948658406E+02  0.00000000000E+00 0. -1.
<mgrwt>
<rscale>  0 0.12133651E+03</rscale>
<asrwt>0</asrwt>
<pdfrwt beam="2">  1        2 0.46059650E-01 0.13001824E+03</pdfrwt>
<pdfrwt beam="1">  1       -2 0.67917331E-02 0.13001824E+03</pdfrwt>
<totfact> 0.12567249E+04</totfact>
</mgrwt>
</event>
<event>
 6    1  0.5818426E-006  0.2603981E+03  0.7546771E-02  0.1106904E+00
         -2   -1    0    0    0  501 -0.00000000000E+00  0.00000000000E+00  0.32179872937E+03  0.32179872937E+03  0.00000000000E+00 0.  1.
          2   -1    0    0  501    0  0.00000000000E+00 -0.00000000000E+00 -0.52678226473E+02  0.52678226473E+02  0.00000000000E+00 0. -1.
          5    1    1    2  502    0 -0.12657338417E+01  0.12177156177E+02 -0.14186820712E+02  0.19319448663E+02  0.47000000000E+01 0. -1.
         -5    1    1    2    0  502 -0.16472273866E+02 -0.79136622035E+02  0.19505494660E+03  0.21119295193E+03  0.47000000000E+01 0. -1.
        -11    1    1    2    0    0 -0.34026959658E+01  0.58337030577E+02  0.61641781861E+01  0.58760399667E+02  0.00000000000E+00 0.  1.
         11    1    1    2    0    0  0.21140703673E+02  0.86224352817E+01  0.82088198827E+02  0.85204155583E+02  0.00000000000E+00 0. -1.
<mgrwt>
<rscale>  0 0.26039805E+03</rscale>
<asrwt>0</asrwt>
<pdfrwt beam="2">  1        2 0.81043428E-02 0.26039805E+03</pdfrwt>
<pdfrwt beam="1">  1       -2 0.49507495E-01 0.26039805E+03</pdfrwt>
<totfact> 0.32554159E+03</totfact>
</mgrwt>
</event>
<event>
 6    1  0.5818426E-006  0.1337393E+03  0.7546771E-02  0.1231655E+00
         -1   -1    0    0    0  501 -0.00000000000E+00  0.00000000000E+00  0.20934657924E+03  0.20934657924E+03  0.00000000000E+00 0.  1.
          1   -1    0    0  501    0  0.00000000000E+00 -0.00000000000E+00 -0.71764443336E+02  0.71764443336E+02  0.00000000000E+00 0. -1.
          5    1    1    2  502    0  0.45202631144E+02 -0.34359239139E+01 -0.17087602703E+02  0.48674013617E+02  0.47000000000E+01 0. -1.
         -5    1    1    2    0  502 -0.42717007255E+02 -0.44055892475E+02  0.75123314493E+02  0.97114709241E+02  0.47000000000E+01 0. -1.
        -11    1    1    2    0    0  0.22516953200E+02  0.11700897035E+02 -0.16190147248E+02  0.30100582066E+02  0.00000000000E+00 0. -1.
         11    1    1    2    0    0 -0.25002577089E+02  0.35790919353E+02  0.95736571360E+02  0.10522171765E+03  0.00000000000E+00 0.  1.
<mgrwt>
<rscale>  0 0.12721016E+03</rscale>
<asrwt>0</asrwt>
<pdfrwt beam="2">  1        1 0.11040684E-01 0.13373933E+03</pdfrwt>
<pdfrwt beam="1">  1       -1 0.32207166E-01 0.13373933E+03</pdfrwt>
<totfact> 0.48390167E+03</totfact>
</mgrwt>
</event>
<event>
 6    1  0.5818426E-006  0.1352217E+03  0.7546771E-02  0.1232006E+00
          4   -1    0    0  501    0  0.00000000000E+00  0.00000000000E+00  0.51534928764E+03  0.51534928764E+03  0.00000000000E+00 0. -1.
         -4   -1    0    0    0  501 -0.00000000000E+00 -0.00000000000E+00 -0.28378443697E+02  0.28378443697E+02  0.00000000000E+00 0.  1.
          5    1    1    2  502    0 -0.15147230817E+02 -0.86921943358E+02  0.13342911518E+03  0.16003212683E+03  0.47000000000E+01 0. -1.
         -5    1    1    2    0  502 -0.10686801228E+02  0.42277825184E+02  0.11019944597E+03  0.11860704075E+03  0.47000000000E+01 0. -1.
        -11    1    1    2    0    0  0.13340771567E+02  0.63583292155E+02  0.22948239037E+03  0.23850152770E+03  0.00000000000E+00 0. -1.
         11    1    1    2    0    0  0.12493260477E+02 -0.18939173981E+02  0.13859892419E+02  0.26587036057E+02  0.00000000000E+00 0.  1.
<mgrwt>
<rscale>  0 0.12698047E+03</rscale>
<asrwt>0</asrwt>
<pdfrwt beam="1">  1        4 0.79284499E-01 0.13522171E+03</pdfrwt>
<pdfrwt beam="2">  1       -4 0.43659148E-02 0.13522171E+03</pdfrwt>
<totfact> 0.71359301E+02</totfact>
</mgrwt>
</event>
<event>
 6    1  0.5818426E-006  0.1366249E+03  0.7546771E-02  0.1229635E+00
          1   -1    0    0  501    0  0.00000000000E+00  0.00000000000E+00  0.54287580187E+03  0.54287580187E+03  0.00000000000E+00 0. -1.
         -1   -1    0    0    0  501 -0.00000000000E+00 -0.00000000000E+00 -0.42852416797E+02  0.42852416797E+02  0.00000000000E+00 0.  1.
          5    1    1    2  502    0 -0.59851122149E+02  0.63228549536E+02  0.48731983989E+02  0.99884446048E+02  0.47000000000E+01 0. -1.
         -5    1    1    2    0  502  0.46669103106E+02 -0.10013280542E+02  0.45290857165E+02  0.65966830412E+02  0.47000000000E+01 0. -1.
        -11    1    1    2    0    0 -0.37919870324E+02 -0.19660316749E+02  0.21934188582E+03  0.22346209409E+03  0.00000000000E+00 0. -1.
         11    1    1    2    0    0  0.51101889367E+02 -0.33554952245E+02  0.18665865809E+03  0.19641484811E+03  0.00000000000E+00 0.  1.
<mgrwt>
<rscale>  0 0.12854238E+03</rscale>
<asrwt>0</asrwt>
<pdfrwt beam="1">  1        1 0.83519349E-01 0.13662486E+03</pdfrwt>
<pdfrwt beam="2">  1       -1 0.65926799E-02 0.13662486E+03</pdfrwt>
<totfact> 0.45252312E+03</totfact>
</mgrwt>
</event>
<event>
 6    1  0.5818426E-006  0.1403161E+03  0.7546771E-02  0.1223492E+00
         -4   -1    0    0    0  501 -0.00000000000E+00  0.00000000000E+00  0.58205613177E+02  0.58205613177E+02  0.00000000000E+00 0.  1.
          4   -1    0    0  501    0  0.00000000000E+00 -0.00000000000E+00 -0.44122026132E+03  0.44122026132E+03  0.00000000000E+00 0. -1.
          5    1    1    2  502    0  0.73233930585E+02  0.66875986063E+01 -0.85863606686E+02  0.11314849322E+03  0.47000000000E+01 0. -1.
         -5    1    1    2    0  502 -0.94942586307E+01 -0.58441330473E+01  0.34277250980E+02  0.36349893711E+02  0.47000000000E+01 0. -1.
        -11    1    1    2    0    0 -0.27736377036E+01  0.13920346732E+02 -0.17115500897E+01  0.14296801144E+02  0.00000000000E+00 0.  1.
         11    1    1    2    0    0 -0.60966034251E+02 -0.14763812291E+02 -0.32971674235E+03  0.33563068643E+03  0.00000000000E+00 0. -1.
<mgrwt>
<rscale>  0 0.13270783E+03</rscale>
<asrwt>0</asrwt>
<pdfrwt beam="2">  1        4 0.67880042E-01 0.14031613E+03</pdfrwt>
<pdfrwt beam="1">  1       -4 0.89547095E-02 0.14031613E+03</pdfrwt>
<totfact> 0.31219505E+02</totfact>
</mgrwt>
</event>
<event>
 6    1  0.5818426E-006  0.1404664E+03  0.7546771E-02  0.1225270E+00
         -2   -1    0    0    0  501 -0.00000000000E+00  0.00000000000E+00  0.55192048490E+02  0.55192048490E+02  0.00000000000E+00 0.  1.
          2   -1    0    0  501    0  0.00000000000E+00 -0.00000000000E+00 -0.27940380726E+03  0.27940380726E+03  0.00000000000E+00 0. -1.
          5    1    1    2  502    0  0.65017869206E+02  0.35259407694E+02 -0.74008587482E+02  0.10473733894E+03  0.47000000000E+01 0.  1.
         -5    1    1    2    0  502 -0.84964736892E+01 -0.65434510316E+02 -0.56347928466E+02  0.86896744748E+02  0.47000000000E+01 0.  1.
        -11    1    1    2    0    0 -0.27007253586E+02  0.14804363896E+02  0.11192459238E+02  0.32769377175E+02  0.00000000000E+00 0.  1.
         11    1    1    2    0    0 -0.29514141931E+02  0.15370738725E+02 -0.10504770206E+03  0.11019239488E+03  0.00000000000E+00 0. -1.
<mgrwt>
<rscale>  0 0.13148411E+03</rscale>
<asrwt>0</asrwt>
<pdfrwt beam="2">  1        2 0.42985200E-01 0.14046637E+03</pdfrwt>
<pdfrwt beam="1">  1       -2 0.84910846E-02 0.14046637E+03</pdfrwt>
<totfact> 0.96466185E+03</totfact>
</mgrwt>
</event>
<event>
 6    1  0.5818426E-006  0.1260977E+03  0.7546771E-02  0.1248487E+00
         -2   -1    0    0    0  501 -0.00000000000E+00  0.00000000000E+00  0.87491976495E+02  0.87491976495E+02  0.00000000000E+00 0. -1.
          2   -1    0    0  501    0  0.00000000000E+00 -0.00000000000E+00 -0.14972565355E+03  0.14972565355E+03  0.00000000000E+00 0.  1.
          5    1    1    2  502    0 -0.28147674194E+02  0.57734164983E+02 -0.26800510602E+02  0.69755879590E+02  0.47000000000E+01 0. -1.
         -5    1    1    2    0  502  0.14988776864E+02 -0.47625645911E+02  0.25690427347E+02  0.56346726947E+02  0.47000000000E+01 0. -1.
        -11    1    1    2    0    0 -0.70973545593E+01 -0.17274369675E+02 -0.80222282329E+02  0.82367413893E+02  0.00000000000E+00 0.  1.
         11    1    1    2    0    0  0.20256251889E+02  0.71658506026E+01  0.19098688525E+02  0.28747609619E+02  0.00000000000E+00 0. -1.
<mgrwt>
<rscale>  0 0.11679081E+03</rscale>
<asrwt>0</asrwt>
<pdfrwt beam="2">  1        2 0.23034716E-01 0.12609772E+03</pdfrwt>
<pdfrwt beam="1">  1       -2 0.13460304E-01 0.12609772E+03</pdfrwt>
<totfact> 0.90670059E+03</totfact>
</mgrwt>
</event>
<event>
 6    1  0.5818426E-006  0.2122754E+03  0.7546771E-02  0.1143703E+00
          2   -1    0    0  501    0  0.00000000000E+00  0.00000000000E+00  0.39546069976E+03  0.39546069976E+03  0.00000000000E+00 0. -1.
         -2   -1    0    0    0  501 -0.00000000000E+00 -0.00000000000E+00 -0.10406004412E+03  0.10406004412E+03  0.00000000000E+00 0.  1.
          5    1    1    2  502    0  0.49854367351E+02  0.15121498546E+03  0.11297190547E+03  0.19528484631E+03  0.47000000000E+01 0. -1.
         -5    1    1    2    0  502 -0.48031760737E+02  0.20351316036E+02  0.49050779284E+02  0.71758588700E+02  0.47000000000E+01 0. -1.
        -11    1    1    2    0    0  0.38850299154E+02 -0.83860727200E+02  0.39621063889E+02  0.10055742645E+03  0.00000000000E+00 0. -1.
         11    1    1    2    0    0 -0.40672905769E+02 -0.87705574291E+02  0.89756906995E+02  0.13191988242E+03  0.00000000000E+00 0.  1.
<mgrwt>
<rscale>  0 0.20732353E+03</rscale>
<asrwt>0</asrwt>
<pdfrwt beam="1">  1        2 0.60840107E-01 0.21227540E+03</pdfrwt>
<pdfrwt beam="2">  1       -2 0.16009238E-01 0.21227540E+03</pdfrwt>
<totfact> 0.24571121E+03</totfact>
</mgrwt>
</event>
<event>
 6    1  0.5818426E-006  0.1295839E+03  0.7546771E-02  0.1243950E+00
         -1   -1    0    0    0  501 -0.00000000000E+00  0.00000000000E+00  0.48252934789E+03  0.48252934789E+03  0.00000000000E+00 0.  1.
          1   -1    0    0  501    0  0.00000000000E+00 -0.00000000000E+00 -0.26011472168E+02  0.26011472168E+02  0.00000000000E+00 0. -1.
          5    1    1    2  502    0  0.39202345890E+02  0.62343225230E+02  0.24860400823E+03  0.25932517148E+03  0.47000000000E+01 0. -1.
         -5    1    1    2    0  502 -0.19240208216E+02 -0.34631762182E+02  0.37482871173E+02  0.54741211125E+02  0.47000000000E+01 0. -1.
        -11    1    1    2    0    0  0.75814070643E+01 -0.13775594116E+02 -0.48821048991E+01  0.16464497398E+02  0.00000000000E+00 0. -1.
         11    1    1    2    0    0 -0.27543544738E+02 -0.13935868932E+02  0.17531310122E+03  0.17800994006E+03  0.00000000000E+00 0.  1.
<mgrwt>
<rscale>  0 0.11948419E+03</rscale>
<asrwt>0</asrwt>
<pdfrwt beam="2">  1        1 0.40017653E-02 0.12958391E+03</pdfrwt>
<pdfrwt beam="1">  1       -1 0.74235278E-01 0.12958391E+03</pdfrwt>
<totfact> 0.41306463E+03</totfact>
</mgrwt>
</event>
<event>
 6    1  0.5818426E-006  0.1489129E+03  0.7546771E-02  0.1211800E+00
         -1   -1    0    0    0  501 -0.00000000000E+00  0.00000000000E+00  0.25915817766E+03  0.25915817766E+03  0.00000000000E+00 0.  1.
          1   -1    0    0  501    0  0.00000000000E+00 -0.00000000000E+00 -0.10410320455E+03  0.10410320455E+03  0.00000000000E+00 0. -1.
          5    1    1    2  502    0  0.30567671300E+01 -0.92136892980E+02  0.10238610108E+03  0.13785338069E+03  0.47000000000E+01 0.  1.
         -5    1    1    2    0  502  0.47264040468E+02  0.28746814140E+02  0.84478096020E+02  0.10108861237E+03  0.47000000000E+01 0.  1.
        -11    1    1    2    0    0 -0.62238765531E+02  0.50857544622E+02 -0.53518914815E+02  0.96563077948E+02  0.00000000000E+00 0. -1.
         11    1    1    2    0    0  0.11917957933E+02  0.12532534218E+02  0.21709690830E+02  0.27756311195E+02  0.00000000000E+00 0.  1.
<mgrwt>
<rscale>  0 0.14114263E+03</rscale>
<asrwt>0</asrwt>
<pdfrwt beam="2">  1        1 0.16015878E-01 0.14891289E+03</pdfrwt>
<pdfrwt beam="1">  1       -1 0.39870489E-01 0.14891289E+03</pdfrwt>
<totfact> 0.20721964E+03</totfact>
</mgrwt>
</event>
<event>
 6    1  0.5818426E-006  0.1557614E+03  0.7546771E-02  0.1200720E+00
          1   -1    0    0  501    0  0.00000000000E+00  0.00000000000E+00  0.52627549395E+03  0.52627549395E+03  0.00000000000E+00 0.  1.
         -1   -1    0    0    0  501 -0.00000000000E+00 -0.00000000000E+00 -0.80827144495E+02  0.80827144495E+02  0.00000000000E+00 0. -1.
          5    1    1    2  502    0  0.39973569089E+02 -0.56958384373E+02  0.65877253060E+02  0.95937720667E+02  0.47000000000E+01 0. -1.
         -5    1    1    2    0  502 -0.97747399086E+01 -0.30932090708E+02 -0.50900936914E+02  0.60542011484E+02  0.47000000000E+01 0. -1.
        -11    1    1    2    0    0 -0.26009985857E+01 -0.14859865256E+02  0.13344148138E+02  0.20140682178E+02  0.00000000000E+00 0. -1.
         11    1    1    2    0    0 -0.27597830595E+02  0.10275034034E+03  0.41712788517E+03  0.43048222411E+03  0.00000000000E+00 0.  1.
<mgrwt>
<rscale>  0 0.14979919E+03</rscale>
<asrwt>0</asrwt>
<pdfrwt beam="1">  1        1 0.80965458E-01 0.15576141E+03</pdfrwt>
<pdfrwt beam="2">  1       -1 0.12434946E-01 0.15576141E+03</pdfrwt>
<totfact> 0.18037470E+03</totfact>
</mgrwt>
</event>
<event>
 6    1  0.5818426E-006  0.1259282E+03  0.7546771E-02  0.1248405E+00
          1   -1    0    0  501    0  0.00000000000E+00  0.00000000000E+00  0.17938760200E+03  0.17938760200E+03  0.00000000000E+00 0. -1.
         -1   -1    0    0    0  501 -0.00000000000E+00 -0.00000000000E+00 -0.73916455278E+02  0.73916455278E+02  0.00000000000E+00 0.  1.
          5    1    1    2  502    0 -0.13466332754E+02  0.54246869357E+02  0.37911402184E+02  0.67701029301E+02  0.47000000000E+01 0. -1.
         -5    1    1    2    0  502  0.28130888531E+02 -0.50215060794E+02 -0.16441707571E+02  0.60044308373E+02  0.47000000000E+01 0. -1.
        -11    1    1    2    0    0  0.21271037667E+02 -0.27496245145E+02  0.42893148171E+01  0.35027114670E+02  0.00000000000E+00 0. -1.
         11    1    1    2    0    0 -0.35935593445E+02  0.23464436581E+02  0.79712137289E+02  0.90531604931E+02  0.00000000000E+00 0.  1.
<mgrwt>
<rscale>  0 0.11683873E+03</rscale>
<asrwt>0</asrwt>
<pdfrwt beam="1">  1        1 0.27598092E-01 0.12592825E+03</pdfrwt>
<pdfrwt beam="2">  1       -1 0.11371762E-01 0.12592825E+03</pdfrwt>
<totfact> 0.79072393E+03</totfact>
</mgrwt>
</event>
<event>
 6    1  0.5818426E-006  0.1159412E+03  0.7546771E-02  0.1265610E+00
         -2   -1    0    0    0  501 -0.00000000000E+00  0.00000000000E+00  0.32097122100E+02  0.32097122100E+02  0.00000000000E+00 0.  1.
          2   -1    0    0  501    0  0.00000000000E+00 -0.00000000000E+00 -0.33239469887E+03  0.33239469887E+03  0.00000000000E+00 0. -1.
          5    1    1    2  502    0 -0.36006010372E+00 -0.17965346610E+02 -0.14585590924E+03  0.14703373620E+03  0.47000000000E+01 0. -1.
         -5    1    1    2    0  502 -0.94371440235E+01  0.20421557448E+02  0.15271333365E+02  0.27593537625E+02  0.47000000000E+01 0.  1.
        -11    1    1    2    0    0 -0.53666230649E+01 -0.35360755735E+02 -0.13511271396E+03  0.13976633773E+03  0.00000000000E+00 0. -1.
         11    1    1    2    0    0  0.15163827192E+02  0.32904544898E+02 -0.34600286939E+02  0.50098209412E+02  0.00000000000E+00 0.  1.
<mgrwt>
<rscale>  0 0.10732252E+03</rscale>
<asrwt>0</asrwt>
<pdfrwt beam="2">  1        2 0.51137646E-01 0.11594116E+03</pdfrwt>
<pdfrwt beam="1">  1       -2 0.49380187E-02 0.11594116E+03</pdfrwt>
<totfact> 0.18025135E+04</totfact>
</mgrwt>
</event>
<event>
 6    1  0.5818426E-006  0.2839617E+03  0.7546771E-02  0.1093545E+00
         -2   -1    0    0    0  501 -0.00000000000E+00  0.00000000000E+00  0.46819332090E+02  0.46819332090E+02  0.00000000000E+00 0.  1.
          2   -1    0    0  501    0  0.00000000000E+00 -0.00000000000E+00 -0.43056069624E+03  0.43056069624E+03  0.00000000000E+00 0. -1.
          5    1    1    2  502    0  0.99552706771E+01 -0.98862879494E+02 -0.47536796562E+02  0.11024887021E+03  0.47000000000E+01 0. -1.
         -5    1    1    2    0  502  0.47811923947E+01  0.16592406401E+02 -0.95918726225E+02  0.97573868385E+02  0.47000000000E+01 0. -1.
        -11    1    1    2    0    0  0.24916786661E+02  0.70342444817E+02 -0.11060269642E+03  0.13342361956E+03  0.00000000000E+00 0.  1.
         11    1    1    2    0    0 -0.39653249733E+02  0.11928028277E+02 -0.12968314493E+03  0.13613367017E+03  0.00000000000E+00 0. -1.
<mgrwt>
<rscale>  0 0.28396172E+03</rscale>
<asrwt>0</asrwt>
<pdfrwt beam="2">  1        2 0.66240107E-01 0.28396172E+03</pdfrwt>
<pdfrwt beam="1">  1       -2 0.72029742E-02 0.28396172E+03</pdfrwt>
<totfact> 0.81646003E+03</totfact>
</mgrwt>
</event>
<event>
 6    1  0.5818426E-006  0.2384465E+03  0.7546771E-02  0.1120832E+00
         -3   -1    0    0    0  501 -0.00000000000E+00  0.00000000000E+00  0.14625042856E+02  0.14625042856E+02  0.00000000000E+00 0.  1.
          3   -1    0    0  501    0  0.00000000000E+00 -0.00000000000E+00 -0.97190693530E+03  0.97190693530E+03  0.00000000000E+00 0. -1.
          5    1    1    2  502    0  0.29140321220E+02  0.79722523275E+01 -0.30726406399E+03  0.30878149256E+03  0.47000000000E+01 0.  1.
         -5    1    1    2    0  502 -0.78898621030E+02 -0.83133443604E+00 -0.17645553466E+03  0.19335027600E+03  0.47000000000E+01 0.  1.
        -11    1    1    2    0    0  0.18588563391E+02  0.40691829466E+02 -0.21666345140E+03  0.22123383748E+03  0.00000000000E+00 0. -1.
         11    1    1    2    0    0  0.31169736419E+02 -0.47832747357E+02 -0.25689884240E+03  0.26316637212E+03  0.00000000000E+00 0.  1.
<mgrwt>
<rscale>  0 0.23844648E+03</rscale>
<asrwt>0</asrwt>
<pdfrwt beam="2">  1        3 0.14952416E+00 0.23844648E+03</pdfrwt>
<pdfrwt beam="1">  1       -3 0.22500064E-02 0.23844648E+03</pdfrwt>
<totfact> 0.68879354E+02</totfact>
</mgrwt>
</event>
<event>
 6    1  0.5818426E-006  0.1797273E+03  0.7546771E-02  0.1172056E+00
         -1   -1    0    0    0  501 -0.00000000000E+00  0.00000000000E+00  0.20818955562E+03  0.20818955562E+03  0.00000000000E+00 0.  1.
          1   -1    0    0  501    0  0.00000000000E+00 -0.00000000000E+00 -0.14814169263E+03  0.14814169263E+03  0.00000000000E+00 0. -1.
          5    1    1    2  502    0 -0.94569573118E+02 -0.39174577965E+02 -0.91808999861E+00  0.10247431194E+03  0.47000000000E+01 0.  1.
         -5    1    1    2    0  502 -0.34398809470E+02  0.45861455768E+02  0.68721338420E+02  0.89617317369E+02  0.47000000000E+01 0.  1.
        -11    1    1    2    0    0 -0.16747336330E+02 -0.20700726352E+01  0.57476736852E+01  0.17826783997E+02  0.00000000000E+00 0. -1.
         11    1    1    2    0    0  0.14571571892E+03 -0.46168051675E+01 -0.13503059119E+02  0.14641283494E+03  0.00000000000E+00 0.  1.
<mgrwt>
<rscale>  0 0.17567457E+03</rscale>
<asrwt>0</asrwt>
<pdfrwt beam="2">  1        1 0.22791030E-01 0.17972733E+03</pdfrwt>
<pdfrwt beam="1">  1       -1 0.32029163E-01 0.17972733E+03</pdfrwt>
<totfact> 0.19386415E+03</totfact>
</mgrwt>
</event>
<event>
 6    1  0.5818426E-006  0.3495372E+03  0.7546771E-02  0.1062805E+00
          1   -1    0    0  501    0  0.00000000000E+00  0.00000000000E+00  0.29532100809E+02  0.29532100809E+02  0.00000000000E+00 0. -1.
         -1   -1    0    0    0  501 -0.00000000000E+00 -0.00000000000E+00 -0.10342663132E+04  0.10342663132E+04  0.00000000000E+00 0.  1.
          5    1    1    2  502    0  0.12531422241E+02  0.30981648100E+02 -0.18330889659E+03  0.18638975463E+03  0.47000000000E+01 0.  1.
         -5    1    1    2    0  502 -0.28416378236E+02 -0.11281414208E+03 -0.67992987892E+03  0.68982697211E+03  0.47000000000E+01 0.  1.
        -11    1    1    2    0    0 -0.20707463821E+02  0.41777056478E+02 -0.12084928671E+03  0.12953251176E+03  0.00000000000E+00 0.  1.
         11    1    1    2    0    0  0.36592419816E+02  0.40055437505E+02 -0.20646150201E+02  0.58049175531E+02  0.00000000000E+00 0. -1.
<mgrwt>
<rscale>  0 0.34953716E+03</rscale>
<asrwt>0</asrwt>
<pdfrwt beam="1">  1        1 0.45434005E-02 0.34953716E+03</pdfrwt>
<pdfrwt beam="2">  1       -1 0.15911788E+00 0.34953716E+03</pdfrwt>
<totfact> 0.61520217E+02</totfact>
</mgrwt>
</event>
<event>
 6    1  0.5818426E-006  0.1620273E+03  0.7546771E-02  0.1195322E+00
          2   -1    0    0  501    0  0.00000000000E+00  0.00000000000E+00  0.44110658978E+03  0.44110658978E+03  0.00000000000E+00 0. -1.
         -2   -1    0    0    0  501 -0.00000000000E+00 -0.00000000000E+00 -0.49462434478E+02  0.49462434478E+02  0.00000000000E+00 0.  1.
          5    1    1    2  502    0  0.28240899027E+02  0.24595569419E+02  0.99095118464E+02  0.10603972329E+03  0.47000000000E+01 0.  1.
         -5    1    1    2    0  502  0.24175485866E+02 -0.11337023860E+03  0.12560227646E+03  0.17098329442E+03  0.47000000000E+01 0.  1.
        -11    1    1    2    0    0 -0.68850443349E+02  0.56004198599E+02  0.14725221729E+03  0.17193041996E+03  0.00000000000E+00 0. -1.
         11    1    1    2    0    0  0.16434058455E+02  0.32770470585E+02  0.19694543087E+02  0.41615586588E+02  0.00000000000E+00 0.  1.
<mgrwt>
<rscale>  0 0.15427009E+03</rscale>
<asrwt>0</asrwt>
<pdfrwt beam="1">  1        2 0.67862549E-01 0.16202726E+03</pdfrwt>
<pdfrwt beam="2">  1       -2 0.76096056E-02 0.16202726E+03</pdfrwt>
<totfact> 0.70847889E+03</totfact>
</mgrwt>
</event>
<event>
 6    1  0.5818426E-006  0.1459918E+03  0.7546771E-02  0.1214491E+00
         -3   -1    0    0    0  501 -0.00000000000E+00  0.00000000000E+00  0.30808300494E+02  0.30808300494E+02  0.00000000000E+00 0.  1.
          3   -1    0    0  501    0  0.00000000000E+00 -0.00000000000E+00 -0.57609181930E+03  0.57609181930E+03  0.00000000000E+00 0. -1.
          5    1    1    2  502    0 -0.17836477030E+02 -0.16383791249E+02 -0.37941120342E+01  0.24961045945E+02  0.47000000000E+01 0. -1.
         -5    1    1    2    0  502 -0.10103301057E+02  0.86426458649E+02 -0.29484293468E+03  0.30745089946E+03  0.47000000000E+01 0. -1.
        -11    1    1    2    0    0  0.15904245816E+02 -0.85818013704E+02 -0.13272019132E+03  0.15884686240E+03  0.00000000000E+00 0.  1.
         11    1    1    2    0    0  0.12035532271E+02  0.15775346304E+02 -0.11392628077E+03  0.11564131198E+03  0.00000000000E+00 0. -1.
<mgrwt>
<rscale>  0 0.13914005E+03</rscale>
<asrwt>0</asrwt>
<pdfrwt beam="2">  1        3 0.88629509E-01 0.14599183E+03</pdfrwt>
<pdfrwt beam="1">  1       -3 0.47397386E-02 0.14599183E+03</pdfrwt>
<totfact> 0.69150102E+02</totfact>
</mgrwt>
</event>
<event>
 6    1  0.5818426E-006  0.1390156E+03  0.7546771E-02  0.1225562E+00
         -2   -1    0    0    0  501 -0.00000000000E+00  0.00000000000E+00  0.67157572578E+02  0.67157572578E+02  0.00000000000E+00 0.  1.
          2   -1    0    0  501    0  0.00000000000E+00 -0.00000000000E+00 -0.23616853352E+03  0.23616853352E+03  0.00000000000E+00 0. -1.
          5    1    1    2  502    0  0.97079666977E+01  0.26857484389E+02  0.17258787387E+02  0.33697549275E+02  0.47000000000E+01 0.  1.
         -5    1    1    2    0  502 -0.64557820059E+02 -0.53143857391E+02 -0.90970736834E+02  0.12365171519E+03  0.47000000000E+01 0.  1.
        -11    1    1    2    0    0  0.46547415823E+02  0.53709962056E+02 -0.35016163842E+02  0.79231014597E+02  0.00000000000E+00 0.  1.
         11    1    1    2    0    0  0.83024375379E+01 -0.27423589054E+02 -0.60282847657E+02  0.66745827041E+02  0.00000000000E+00 0. -1.
<mgrwt>
<rscale>  0 0.13128471E+03</rscale>
<asrwt>0</asrwt>
<pdfrwt beam="2">  1        2 0.36333620E-01 0.13901561E+03</pdfrwt>
<pdfrwt beam="1">  1       -2 0.10331934E-01 0.13901561E+03</pdfrwt>
<totfact> 0.84822055E+03</totfact>
</mgrwt>
</event>
<event>
 6    1  0.5818426E-006  0.1268208E+03  0.7546771E-02  0.1245994E+00
          1   -1    0    0  501    0  0.00000000000E+00  0.00000000000E+00  0.16304990220E+03  0.16304990220E+03  0.00000000000E+00 0. -1.
         -1   -1    0    0    0  501 -0.00000000000E+00 -0.00000000000E+00 -0.76714059637E+02  0.76714059637E+02  0.00000000000E+00 0.  1.
          5    1    1    2  502    0 -0.60948437318E+01 -0.54370650034E+02 -0.18306675731E+02  0.57883841282E+02  0.47000000000E+01 0. -1.
         -5    1    1    2    0  502  0.23768109961E+02  0.42274386468E+02  0.56404150580E+02  0.74535662639E+02  0.47000000000E+01 0. -1.
        -11    1    1    2    0    0 -0.31348557050E+02 -0.27502695287E+02 -0.22193526853E+01  0.41761894156E+02  0.00000000000E+00 0.  1.
         11    1    1    2    0    0  0.13675290821E+02  0.39598958853E+02  0.50457720398E+02  0.65582563758E+02  0.00000000000E+00 0. -1.
<mgrwt>
<rscale>  0 0.11826113E+03</rscale>
<asrwt>0</asrwt>
<pdfrwt beam="1">  1        1 0.25084600E-01 0.12682077E+03</pdfrwt>
<pdfrwt beam="2">  1       -1 0.11802163E-01 0.12682077E+03</pdfrwt>
<totfact> 0.84192283E+03</totfact>
</mgrwt>
</event>
<event>
 6    1  0.1035037E-005  0.3077637E+03  0.7546771E-02  0.1082871E+00
         -1   -1    0    0    0  501 -0.00000000000E+00  0.00000000000E+00  0.23811571786E+03  0.23811571786E+03  0.00000000000E+00 0.  1.
          1   -1    0    0  501    0  0.00000000000E+00 -0.00000000000E+00 -0.41233186959E+03  0.41233186959E+03  0.00000000000E+00 0. -1.
          5    1    1    2  502    0  0.13871569528E+02  0.18664666705E+03  0.52249795599E+02  0.19437471518E+03  0.47000000000E+01 0.  1.
         -5    1    1    2    0  502  0.46922360566E+02  0.87941272772E+02 -0.53856688455E+02  0.11339315795E+03  0.47000000000E+01 0.  1.
        -11    1    1    2    0    0 -0.59102989915E+02 -0.98312709091E+02 -0.99449157113E+02  0.15181794043E+03  0.00000000000E+00 0.  1.
         11    1    1    2    0    0 -0.16909401797E+01 -0.17627523073E+03 -0.73160101759E+02  0.19086177390E+03  0.00000000000E+00 0. -1.
<mgrwt>
<rscale>  0 0.30478809E+03</rscale>
<asrwt>0</asrwt>
<pdfrwt beam="2">  1        1 0.63435671E-01 0.30776368E+03</pdfrwt>
<pdfrwt beam="1">  1       -1 0.36633188E-01 0.30776368E+03</pdfrwt>
<totfact> 0.42215545E+02</totfact>
</mgrwt>
</event>
<event>
 6    1  0.5818426E-006  0.1652054E+03  0.7546771E-02  0.1189772E+00
         -1   -1    0    0    0  501 -0.00000000000E+00  0.00000000000E+00  0.10254058334E+03  0.10254058334E+03  0.00000000000E+00 0.  1.
          1   -1    0    0  501    0  0.00000000000E+00 -0.00000000000E+00 -0.24782492847E+03  0.24782492847E+03  0.00000000000E+00 0. -1.
          5    1    1    2  502    0  0.77656558192E+01 -0.68656013010E+02 -0.79250010150E+02  0.10524546376E+03  0.47000000000E+01 0.  1.
         -5    1    1    2    0  502 -0.60165429044E+01 -0.39348508031E+02  0.48372133148E+02  0.62820833631E+02  0.47000000000E+01 0.  1.
        -11    1    1    2    0    0  0.89587357396E+01  0.69452378603E+02 -0.10316051395E+02  0.70783562753E+02  0.00000000000E+00 0.  1.
         11    1    1    2    0    0 -0.10707848654E+02  0.38552142438E+02 -0.10409041674E+03  0.11151565166E+03  0.00000000000E+00 0. -1.
<mgrwt>
<rscale>  0 0.15905119E+03</rscale>
<asrwt>0</asrwt>
<pdfrwt beam="2">  1        1 0.38126912E-01 0.16520544E+03</pdfrwt>
<pdfrwt beam="1">  1       -1 0.15775474E-01 0.16520544E+03</pdfrwt>
<totfact> 0.32293328E+03</totfact>
</mgrwt>
</event>
<event>
 6    1  0.5818426E-006  0.1437962E+03  0.7546771E-02  0.1218883E+00
         -1   -1    0    0    0  501 -0.00000000000E+00  0.00000000000E+00  0.49778894083E+02  0.49778894083E+02  0.00000000000E+00 0.  1.
          1   -1    0    0  501    0  0.00000000000E+00 -0.00000000000E+00 -0.37824398736E+03  0.37824398736E+03  0.00000000000E+00 0. -1.
          5    1    1    2  502    0  0.39682989793E+02 -0.17915396282E+02 -0.15893187384E+02  0.46587385718E+02  0.47000000000E+01 0. -1.
         -5    1    1    2    0  502 -0.90628789578E+02 -0.31619970100E+02 -0.93593490878E+02  0.13414630649E+03  0.47000000000E+01 0. -1.
        -11    1    1    2    0    0  0.55404264269E+02  0.17530624149E+02 -0.54509234172E+02  0.79675666877E+02  0.00000000000E+00 0.  1.
         11    1    1    2    0    0 -0.44584644833E+01  0.32004742233E+02 -0.16446918084E+03  0.16761352236E+03  0.00000000000E+00 0. -1.
<mgrwt>
<rscale>  0 0.13595145E+03</rscale>
<asrwt>0</asrwt>
<pdfrwt beam="2">  1        1 0.58191384E-01 0.14379616E+03</pdfrwt>
<pdfrwt beam="1">  1       -1 0.76582912E-02 0.14379616E+03</pdfrwt>
<totfact> 0.57665191E+03</totfact>
</mgrwt>
</event>
<event>
 6    1  0.5818426E-006  0.1466269E+03  0.7546771E-02  0.1215041E+00
          1   -1    0    0  501    0  0.00000000000E+00  0.00000000000E+00  0.70747367503E+02  0.70747367503E+02  0.00000000000E+00 0. -1.
         -1   -1    0    0    0  501 -0.00000000000E+00 -0.00000000000E+00 -0.25182373726E+03  0.25182373726E+03  0.00000000000E+00 0.  1.
          5    1    1    2  502    0 -0.62137951134E+02  0.17705358657E+02 -0.22711110340E+02  0.68647572638E+02  0.47000000000E+01 0. -1.
         -5    1    1    2    0  502  0.54765292183E+02  0.58582796817E+02 -0.54407982630E+02  0.97023192509E+02  0.47000000000E+01 0. -1.
        -11    1    1    2    0    0 -0.15208525176E+02 -0.75098449627E+02 -0.10947365919E+03  0.13362469244E+03  0.00000000000E+00 0.  1.
         11    1    1    2    0    0  0.22581184126E+02 -0.11897058461E+01  0.55163824000E+01  0.23275647173E+02  0.00000000000E+00 0. -1.
<mgrwt>
<rscale>  0 0.13873525E+03</rscale>
<asrwt>0</asrwt>
<pdfrwt beam="1">  1        1 0.10884210E-01 0.14662690E+03</pdfrwt>
<pdfrwt beam="2">  1       -1 0.38742114E-01 0.14662690E+03</pdfrwt>
<totfact> 0.36083832E+03</totfact>
</mgrwt>
</event>
<event>
 6    1  0.5818426E-006  0.2557764E+03  0.7546771E-02  0.1112131E+00
         -2   -1    0    0    0  501 -0.00000000000E+00  0.00000000000E+00  0.18515315120E+03  0.18515315120E+03  0.00000000000E+00 0.  1.
          2   -1    0    0  501    0  0.00000000000E+00 -0.00000000000E+00 -0.41325661702E+03  0.41325661702E+03  0.00000000000E+00 0. -1.
          5    1    1    2  502    0 -0.11175026846E+03  0.13738469765E+03 -0.31704898814E+02  0.17997213189E+03  0.47000000000E+01 0.  1.
         -5    1    1    2    0  502 -0.59603866729E+02  0.55618754491E+01  0.47013155170E+02  0.76261931175E+02  0.47000000000E+01 0.  1.
        -11    1    1    2    0    0  0.11319764028E+03 -0.10869364054E+03 -0.22101265221E+03  0.27106199604E+03  0.00000000000E+00 0. -1.
         11    1    1    2    0    0  0.58156494903E+02 -0.34252932552E+02 -0.22399069963E+02  0.71113709108E+02  0.00000000000E+00 0.  1.
<mgrwt>
<rscale>  0 0.25186575E+03</rscale>
<asrwt>0</asrwt>
<pdfrwt beam="2">  1        2 0.63577941E-01 0.25577637E+03</pdfrwt>
<pdfrwt beam="1">  1       -2 0.28485100E-01 0.25577637E+03</pdfrwt>
<totfact> 0.86740717E+02</totfact>
</mgrwt>
</event>
<event>
 6    1  0.5818426E-006  0.1270753E+03  0.7546771E-02  0.1246633E+00
         -3   -1    0    0    0  501 -0.00000000000E+00  0.00000000000E+00  0.74906189110E+03  0.74906189110E+03  0.00000000000E+00 0.  1.
          3   -1    0    0  501    0  0.00000000000E+00 -0.00000000000E+00 -0.16622296519E+02  0.16622296519E+02  0.00000000000E+00 0. -1.
          5    1    1    2  502    0  0.12030831547E+02 -0.37658357559E+02  0.40990210966E+03  0.41183093898E+03  0.47000000000E+01 0.  1.
         -5    1    1    2    0  502  0.10066596374E+02  0.43636668120E+02  0.60405812247E+02  0.75342201457E+02  0.47000000000E+01 0.  1.
        -11    1    1    2    0    0 -0.40229757846E+02 -0.38562423006E+02  0.13575647897E+03  0.14674915832E+03  0.00000000000E+00 0.  1.
         11    1    1    2    0    0  0.18132329926E+02  0.32584112445E+02  0.12637519370E+03  0.13176188886E+03  0.00000000000E+00 0. -1.
<mgrwt>
<rscale>  0 0.11788180E+03</rscale>
<asrwt>0</asrwt>
<pdfrwt beam="2">  1        3 0.25572770E-02 0.12707528E+03</pdfrwt>
<pdfrwt beam="1">  1       -3 0.11524026E+00 0.12707528E+03</pdfrwt>
<totfact> 0.97121278E+02</totfact>
</mgrwt>
</event>
<event>
 6    1  0.5818426E-006  0.4083153E+03  0.7546771E-02  0.1040938E+00
          3   -1    0    0  501    0  0.00000000000E+00  0.00000000000E+00  0.35828625942E+03  0.35828625942E+03  0.00000000000E+00 0. -1.
         -3   -1    0    0    0  501 -0.00000000000E+00 -0.00000000000E+00 -0.11633252304E+03  0.11633252304E+03  0.00000000000E+00 0.  1.
          5    1    1    2  502    0 -0.67744931276E+02  0.30028648028E+02  0.20656618338E+02  0.77070625385E+02  0.47000000000E+01 0. -1.
         -5    1    1    2    0  502  0.18927818203E+01  0.36091835631E+01 -0.76728702172E+02  0.76980468731E+02  0.47000000000E+01 0.  1.
        -11    1    1    2    0    0 -0.13916088518E+02 -0.94413826140E+01  0.76695829535E+01  0.18482957772E+02  0.00000000000E+00 0.  1.
         11    1    1    2    0    0  0.79768237974E+02 -0.24196448978E+02  0.29035623725E+03  0.30208473057E+03  0.00000000000E+00 0. -1.
<mgrwt>
<rscale>  0 0.40831529E+03</rscale>
<asrwt>0</asrwt>
<pdfrwt beam="1">  1        3 0.55120962E-01 0.40831529E+03</pdfrwt>
<pdfrwt beam="2">  1       -3 0.17897311E-01 0.40831529E+03</pdfrwt>
<totfact> 0.23339288E+02</totfact>
</mgrwt>
</event>
<event>
 6    1  0.1164971E-005  0.1912240E+03  0.7546771E-02  0.1162247E+00
          1   -1    0    0  501    0  0.00000000000E+00  0.00000000000E+00  0.52716062845E+03  0.52716062845E+03  0.00000000000E+00 0. -1.
         -1   -1    0    0    0  501 -0.00000000000E+00 -0.00000000000E+00 -0.62385296563E+02  0.62385296563E+02  0.00000000000E+00 0.  1.
          5    1    1    2  502    0  0.91411248055E+02  0.19199986073E+02  0.56163594938E+02  0.10909214056E+03  0.47000000000E+01 0.  1.
         -5    1    1    2    0  502  0.46646317050E+02 -0.62573297422E+02  0.16971759437E+03  0.18686211035E+03  0.47000000000E+01 0.  1.
        -11    1    1    2    0    0 -0.64760656050E+02  0.67450481807E+02  0.12971974161E+03  0.15990847830E+03  0.00000000000E+00 0.  1.
         11    1    1    2    0    0 -0.73296909054E+02 -0.24077170458E+02  0.10917440097E+03  0.13368319581E+03  0.00000000000E+00 0. -1.
<mgrwt>
<rscale>  0 0.18586226E+03</rscale>
<asrwt>0</asrwt>
<pdfrwt beam="1">  1        1 0.81101632E-01 0.19122397E+03</pdfrwt>
<pdfrwt beam="2">  1       -1 0.95977383E-02 0.19122397E+03</pdfrwt>
<totfact> 0.26986072E+03</totfact>
</mgrwt>
</event>
<event>
 6    1  0.5818426E-006  0.1585186E+03  0.7546771E-02  0.1218292E+00
         -4   -1    0    0    0  501 -0.00000000000E+00  0.00000000000E+00  0.67454905045E+03  0.67454905045E+03  0.00000000000E+00 0.  1.
          4   -1    0    0  501    0  0.00000000000E+00 -0.00000000000E+00 -0.23487349609E+02  0.23487349609E+02  0.00000000000E+00 0. -1.
          5    1    1    2  502    0  0.24687715545E+02  0.69518839772E+02  0.12985746167E+03  0.14942356820E+03  0.47000000000E+01 0. -1.
         -5    1    1    2    0  502 -0.34633439710E+02 -0.52012977469E+02  0.36090563943E+03  0.36630560403E+03  0.47000000000E+01 0.  1.
        -11    1    1    2    0    0  0.34059945770E+02  0.99233570062E+01  0.13030392858E+03  0.13504690564E+03  0.00000000000E+00 0.  1.
         11    1    1    2    0    0 -0.24114221605E+02 -0.27429219309E+02  0.29994671172E+02  0.47260322198E+02  0.00000000000E+00 0. -1.
<mgrwt>
<rscale>  0 0.13637467E+03</rscale>
<asrwt>0</asrwt>
<pdfrwt beam="2">  1        4 0.36134389E-02 0.15851864E+03</pdfrwt>
<pdfrwt beam="1">  1       -4 0.10377676E+00 0.15851864E+03</pdfrwt>
<totfact> 0.53949585E+02</totfact>
</mgrwt>
</event>
<event>
 6    1  0.5818426E-006  0.1499952E+03  0.7546771E-02  0.1210574E+00
          1   -1    0    0  501    0  0.00000000000E+00  0.00000000000E+00  0.68474036932E+03  0.68474036932E+03  0.00000000000E+00 0. -1.
         -1   -1    0    0    0  501 -0.00000000000E+00 -0.00000000000E+00 -0.27632979540E+02  0.27632979540E+02  0.00000000000E+00 0.  1.
          5    1    1    2  502    0 -0.33676432507E+02  0.63741335468E+01  0.47052860262E+02  0.58401997772E+02  0.47000000000E+01 0. -1.
         -5    1    1    2    0  502  0.10995891430E+03 -0.25271465646E+02  0.25279365629E+03  0.27686880010E+03  0.47000000000E+01 0.  1.
        -11    1    1    2    0    0 -0.12676142063E+02 -0.22871599712E+02  0.24782284086E+02  0.36027159970E+02  0.00000000000E+00 0.  1.
         11    1    1    2    0    0 -0.63606339729E+02  0.41768931811E+02  0.33247858914E+03  0.34107539101E+03  0.00000000000E+00 0. -1.
<mgrwt>
<rscale>  0 0.14206736E+03</rscale>
<asrwt>0</asrwt>
<pdfrwt beam="1">  1        1 0.10534466E+00 0.14999525E+03</pdfrwt>
<pdfrwt beam="2">  1       -1 0.42512281E-02 0.14999525E+03</pdfrwt>
<totfact> 0.63420558E+03</totfact>
</mgrwt>
</event>
<event>
 6    1  0.5818426E-006  0.1559624E+03  0.7546771E-02  0.1200108E+00
          2   -1    0    0  501    0  0.00000000000E+00  0.00000000000E+00  0.18412774357E+03  0.18412774357E+03  0.00000000000E+00 0. -1.
         -2   -1    0    0    0  501 -0.00000000000E+00 -0.00000000000E+00 -0.11464277324E+03  0.11464277324E+03  0.00000000000E+00 0.  1.
          5    1    1    2  502    0 -0.29112838366E+02 -0.17221601425E+02  0.79435464649E+02  0.86465160368E+02  0.47000000000E+01 0. -1.
         -5    1    1    2    0  502 -0.51784276468E+02 -0.38149541739E+02 -0.38070395106E+02  0.74889544048E+02  0.47000000000E+01 0.  1.
        -11    1    1    2    0    0  0.93272896013E+02  0.21136504689E+02  0.31898932694E+02  0.10081729449E+03  0.00000000000E+00 0. -1.
         11    1    1    2    0    0 -0.12375781180E+02  0.34234638475E+02 -0.37790319080E+01  0.36598517914E+02  0.00000000000E+00 0.  1.
<mgrwt>
<rscale>  0 0.15029755E+03</rscale>
<asrwt>0</asrwt>
<pdfrwt beam="1">  1        2 0.28327345E-01 0.15596240E+03</pdfrwt>
<pdfrwt beam="2">  1       -2 0.17637350E-01 0.15596240E+03</pdfrwt>
<totfact> 0.47016397E+03</totfact>
</mgrwt>
</event>
<event>
 6    1  0.5818426E-006  0.1349451E+03  0.7546771E-02  0.1232699E+00
          2   -1    0    0  501    0  0.00000000000E+00  0.00000000000E+00  0.47087369854E+03  0.47087369854E+03  0.00000000000E+00 0. -1.
         -2   -1    0    0    0  501 -0.00000000000E+00 -0.00000000000E+00 -0.34473856007E+02  0.34473856007E+02  0.00000000000E+00 0.  1.
          5    1    1    2  502    0  0.16732223973E+02  0.87240659049E+02  0.10452884136E+03  0.13725621511E+03  0.47000000000E+01 0.  1.
         -5    1    1    2    0  502  0.10755050293E+02 -0.44453725916E+02  0.51969749634E+02  0.69388397673E+02  0.47000000000E+01 0.  1.
        -11    1    1    2    0    0  0.29294679606E+02 -0.21792168681E+02  0.56710094206E+02  0.67447102635E+02  0.00000000000E+00 0.  1.
         11    1    1    2    0    0 -0.56781953872E+02 -0.20994764452E+02  0.22319115733E+03  0.23125583913E+03  0.00000000000E+00 0. -1.
<mgrwt>
<rscale>  0 0.12652904E+03</rscale>
<asrwt>0</asrwt>
<pdfrwt beam="1">  1        2 0.72442103E-01 0.13494513E+03</pdfrwt>
<pdfrwt beam="2">  1       -2 0.53036705E-02 0.13494513E+03</pdfrwt>
<totfact> 0.11308518E+04</totfact>
</mgrwt>
</event>
<event>
 6    1  0.5818426E-006  0.4063860E+03  0.7546771E-02  0.1041591E+00
         -1   -1    0    0    0  501 -0.00000000000E+00  0.00000000000E+00  0.21605121976E+03  0.21605121976E+03  0.00000000000E+00 0.  1.
          1   -1    0    0  501    0  0.00000000000E+00 -0.00000000000E+00 -0.19110004347E+03  0.19110004347E+03  0.00000000000E+00 0. -1.
          5    1    1    2  502    0  0.12282873151E+03  0.14190466146E+03 -0.66791044531E+01  0.18785774050E+03  0.47000000000E+01 0. -1.
         -5    1    1    2    0  502 -0.70154013473E+01 -0.19184408817E+02 -0.87321991469E+01  0.22706798534E+02  0.47000000000E+01 0. -1.
        -11    1    1    2    0    0 -0.85265571181E+02 -0.89088365215E+02 -0.15825455390E+02  0.12432779047E+03  0.00000000000E+00 0. -1.
         11    1    1    2    0    0 -0.30547758984E+02 -0.33631887430E+02  0.56187935289E+02  0.72258933725E+02  0.00000000000E+00 0.  1.
<mgrwt>
<rscale>  0 0.40638601E+03</rscale>
<asrwt>0</asrwt>
<pdfrwt beam="2">  1        1 0.29400007E-01 0.40638601E+03</pdfrwt>
<pdfrwt beam="1">  1       -1 0.33238649E-01 0.40638601E+03</pdfrwt>
<totfact> 0.13369986E+03</totfact>
</mgrwt>
</event>
<event>
 6    1  0.5818426E-006  0.1857672E+03  0.7546771E-02  0.1167450E+00
          2   -1    0    0  501    0  0.00000000000E+00  0.00000000000E+00  0.13809667554E+04  0.13809667554E+04  0.00000000000E+00 0. -1.
         -2   -1    0    0    0  501 -0.00000000000E+00 -0.00000000000E+00 -0.22683013198E+02  0.22683013198E+02  0.00000000000E+00 0.  1.
          5    1    1    2  502    0 -0.89296535623E+02  0.34476937562E+02  0.17339661929E+03  0.19811867171E+03  0.47000000000E+01 0. -1.
         -5    1    1    2    0  502 -0.44916501725E+02 -0.49433368664E+01  0.45220391324E+03  0.45448036025E+03  0.47000000000E+01 0. -1.
        -11    1    1    2    0    0 -0.14517292442E+01  0.11219358862E+02  0.11666222944E+02  0.16250608876E+02  0.00000000000E+00 0.  1.
         11    1    1    2    0    0  0.13566476659E+03 -0.40752959558E+02  0.72101698670E+03  0.73480012773E+03  0.00000000000E+00 0. -1.
<mgrwt>
<rscale>  0 0.18036518E+03</rscale>
<asrwt>0</asrwt>
<pdfrwt beam="1">  1        2 0.21245636E+00 0.18576725E+03</pdfrwt>
<pdfrwt beam="2">  1       -2 0.34896954E-02 0.18576725E+03</pdfrwt>
<totfact> 0.52986397E+03</totfact>
</mgrwt>
</event>
<event>
 6    1  0.5818426E-006  0.1531572E+03  0.7546771E-02  0.1205296E+00
          2   -1    0    0  501    0  0.00000000000E+00  0.00000000000E+00  0.27795474450E+03  0.27795474450E+03  0.00000000000E+00 0.  1.
         -2   -1    0    0    0  501 -0.00000000000E+00 -0.00000000000E+00 -0.79589811705E+02  0.79589811705E+02  0.00000000000E+00 0. -1.
          5    1    1    2  502    0  0.19637663824E+02  0.39956476640E+02 -0.36281097779E+02  0.57624351814E+02  0.47000000000E+01 0. -1.
         -5    1    1    2    0  502 -0.36128808424E+02  0.46998323617E+02  0.83761167619E+02  0.10272368968E+03  0.47000000000E+01 0. -1.
        -11    1    1    2    0    0 -0.17658662773E+02  0.10102921272E+02  0.98080293990E+01  0.22585279052E+02  0.00000000000E+00 0. -1.
         11    1    1    2    0    0  0.34149807373E+02 -0.97057721529E+02  0.14107683356E+03  0.17461123566E+03  0.00000000000E+00 0.  1.
<mgrwt>
<rscale>  0 0.14614182E+03</rscale>
<asrwt>0</asrwt>
<pdfrwt beam="1">  1        2 0.42762268E-01 0.15315723E+03</pdfrwt>
<pdfrwt beam="2">  1       -2 0.12244587E-01 0.15315723E+03</pdfrwt>
<totfact> 0.54762915E+03</totfact>
</mgrwt>
</event>
<event>
 6    1  0.1019563E-005  0.2744181E+03  0.7546771E-02  0.1100772E+00
          3   -1    0    0  501    0  0.00000000000E+00  0.00000000000E+00  0.75724455033E+03  0.75724455033E+03  0.00000000000E+00 0. -1.
         -3   -1    0    0    0  501 -0.00000000000E+00 -0.00000000000E+00 -0.11893894383E+03  0.11893894383E+03  0.00000000000E+00 0.  1.
          5    1    1    2  502    0  0.18703240863E+02 -0.52274733634E+01 -0.21001437756E+02  0.28987722994E+02  0.47000000000E+01 0. -1.
         -5    1    1    2    0  502  0.11865575623E+03 -0.19679438694E+03  0.14815450377E+03  0.27345761318E+03  0.47000000000E+01 0. -1.
        -11    1    1    2    0    0 -0.50621804478E+02  0.28792540537E+02  0.64617786637E+02  0.86988710929E+02  0.00000000000E+00 0.  1.
         11    1    1    2    0    0 -0.86737192614E+02  0.17322931977E+03  0.44653475385E+03  0.48674944706E+03  0.00000000000E+00 0. -1.
<mgrwt>
<rscale>  0 0.27088946E+03</rscale>
<asrwt>0</asrwt>
<pdfrwt beam="1">  1        3 0.11649916E+00 0.27441807E+03</pdfrwt>
<pdfrwt beam="2">  1       -3 0.18298299E-01 0.27441807E+03</pdfrwt>
<totfact> 0.41625430E+01</totfact>
</mgrwt>
</event>
<event>
 6    1  0.5818426E-006  0.3018754E+03  0.7546771E-02  0.1084307E+00
          3   -1    0    0  501    0  0.00000000000E+00  0.00000000000E+00  0.31434726256E+03  0.31434726256E+03  0.00000000000E+00 0. -1.
         -3   -1    0    0    0  501 -0.00000000000E+00 -0.00000000000E+00 -0.72474594185E+02  0.72474594185E+02  0.00000000000E+00 0.  1.
          5    1    1    2  502    0  0.60410675380E+01 -0.62735058215E+01 -0.37645501182E+02  0.38924608303E+02  0.47000000000E+01 0.  1.
         -5    1    1    2    0  502  0.78460429180E+02  0.16735496239E+02  0.91117639035E+02  0.12149333284E+03  0.47000000000E+01 0.  1.
        -11    1    1    2    0    0 -0.35361220880E+02  0.17463105571E+02  0.12081503710E+02  0.41247287549E+02  0.00000000000E+00 0.  1.
         11    1    1    2    0    0 -0.49140275839E+02 -0.27925095989E+02  0.17631902681E+03  0.18515662805E+03  0.00000000000E+00 0. -1.
<mgrwt>
<rscale>  0 0.30187541E+03</rscale>
<asrwt>0</asrwt>
<pdfrwt beam="1">  1        3 0.48361117E-01 0.30187541E+03</pdfrwt>
<pdfrwt beam="2">  1       -3 0.11149938E-01 0.30187541E+03</pdfrwt>
<totfact> 0.67363941E+02</totfact>
</mgrwt>
</event>
<event>
 6    1  0.5818426E-006  0.1271066E+03  0.7546771E-02  0.1240152E+00
          1   -1    0    0  501    0  0.00000000000E+00  0.00000000000E+00  0.58387508395E+02  0.58387508395E+02  0.00000000000E+00 0. -1.
         -1   -1    0    0    0  501 -0.00000000000E+00 -0.00000000000E+00 -0.26074024227E+03  0.26074024227E+03  0.00000000000E+00 0.  1.
          5    1    1    2  502    0  0.39626702652E+02  0.11152686980E+01 -0.46754249115E+01  0.40192897202E+02  0.47000000000E+01 0. -1.
         -5    1    1    2    0  502 -0.20901956281E+02  0.49203649655E+02 -0.15419522929E+03  0.16326711136E+03  0.47000000000E+01 0.  1.
        -11    1    1    2    0    0 -0.42958146595E+02  0.73598649928E+01 -0.25826644823E+02  0.50661479987E+02  0.00000000000E+00 0. -1.
         11    1    1    2    0    0  0.24233400224E+02 -0.57678783346E+02 -0.17655434849E+02  0.65006262117E+02  0.00000000000E+00 0.  1.
<mgrwt>
<rscale>  0 0.12180307E+03</rscale>
<asrwt>0</asrwt>
<pdfrwt beam="1">  1        1 0.89826937E-02 0.12710661E+03</pdfrwt>
<pdfrwt beam="2">  1       -1 0.40113883E-01 0.12710661E+03</pdfrwt>
<totfact> 0.43433573E+03</totfact>
</mgrwt>
</event>
<event>
 6    1  0.5818426E-006  0.1286190E+03  0.7546771E-02  0.1243962E+00
          2   -1    0    0  501    0  0.00000000000E+00  0.00000000000E+00  0.89056084961E+01  0.89056084961E+01  0.00000000000E+00 0. -1.
         -2   -1    0    0    0  501 -0.00000000000E+00 -0.00000000000E+00 -0.15206904535E+04  0.15206904535E+04  0.00000000000E+00 0.  1.
          5    1    1    2  502    0  0.42803319103E+02  0.16477008150E+02 -0.13792434478E+03  0.14542637590E+03  0.47000000000E+01 0.  1.
         -5    1    1    2    0  502 -0.12535013184E+02 -0.18054262560E+02 -0.92190298305E+03  0.92217692614E+03  0.47000000000E+01 0.  1.
        -11    1    1    2    0    0 -0.52795995443E+02  0.28672511441E+02 -0.30598456256E+03  0.31182700744E+03  0.00000000000E+00 0. -1.
         11    1    1    2    0    0  0.22527689523E+02 -0.27095257031E+02 -0.14597295466E+03  0.15016575256E+03  0.00000000000E+00 0.  1.
<mgrwt>
<rscale>  0 0.11947723E+03</rscale>
<asrwt>0</asrwt>
<pdfrwt beam="1">  1        2 0.13700936E-02 0.12861899E+03</pdfrwt>
<pdfrwt beam="2">  1       -2 0.23395239E+00 0.12861899E+03</pdfrwt>
<totfact> 0.80361076E+02</totfact>
</mgrwt>
</event>
<event>
 6    1  0.5818426E-006  0.2680914E+03  0.7546771E-02  0.1102377E+00
         -2   -1    0    0    0  501 -0.00000000000E+00  0.00000000000E+00  0.34562263146E+02  0.34562263146E+02  0.00000000000E+00 0.  1.
          2   -1    0    0  501    0  0.00000000000E+00 -0.00000000000E+00 -0.51988075659E+03  0.51988075659E+03  0.00000000000E+00 0. -1.
          5    1    1    2  502    0  0.55508397251E+02 -0.48634152300E+02 -0.45312864603E+02  0.86728361185E+02  0.47000000000E+01 0.  1.
         -5    1    1    2    0  502 -0.65099969823E+01  0.36455442519E+02 -0.12515056556E+03  0.13059913250E+03  0.47000000000E+01 0.  1.
        -11    1    1    2    0    0 -0.19983450078E+02 -0.48716432141E+02 -0.15107900280E+03  0.15999216894E+03  0.00000000000E+00 0.  1.
         11    1    1    2    0    0 -0.29014950190E+02  0.60895141922E+02 -0.16377606049E+03  0.17712335711E+03  0.00000000000E+00 0. -1.
<mgrwt>
<rscale>  0 0.26809144E+03</rscale>
<asrwt>0</asrwt>
<pdfrwt beam="2">  1        2 0.79981651E-01 0.26809144E+03</pdfrwt>
<pdfrwt beam="1">  1       -2 0.53172715E-02 0.26809144E+03</pdfrwt>
<totfact> 0.10539126E+04</totfact>
</mgrwt>
</event>
<event>
 6    1  0.5818426E-006  0.1952934E+03  0.7546771E-02  0.1158445E+00
          2   -1    0    0  501    0  0.00000000000E+00  0.00000000000E+00  0.25679230527E+03  0.25679230527E+03  0.00000000000E+00 0. -1.
         -2   -1    0    0    0  501 -0.00000000000E+00 -0.00000000000E+00 -0.13669389100E+03  0.13669389100E+03  0.00000000000E+00 0.  1.
          5    1    1    2  502    0 -0.10672506532E+03  0.56919503991E+02 -0.30649767438E+02  0.12486619937E+03  0.47000000000E+01 0. -1.
         -5    1    1    2    0  502 -0.13555827370E+02  0.32709225216E+02  0.63946304098E+02  0.73245297990E+02  0.47000000000E+01 0. -1.
        -11    1    1    2    0    0  0.82304779505E+02 -0.76891203200E+02  0.10255964647E+03  0.15233126712E+03  0.00000000000E+00 0. -1.
         11    1    1    2    0    0  0.37976113180E+02 -0.12737526007E+02 -0.15757768864E+02  0.43043431794E+02  0.00000000000E+00 0.  1.
<mgrwt>
<rscale>  0 0.19001851E+03</rscale>
<asrwt>0</asrwt>
<pdfrwt beam="1">  1        2 0.39506508E-01 0.19529338E+03</pdfrwt>
<pdfrwt beam="2">  1       -2 0.21029829E-01 0.19529338E+03</pdfrwt>
<totfact> 0.24598818E+03</totfact>
</mgrwt>
</event>
<event>
 6    1  0.5818426E-006  0.1303985E+03  0.7546771E-02  0.1242739E+00
          1   -1    0    0  501    0  0.00000000000E+00  0.00000000000E+00  0.25056552255E+02  0.25056552255E+02  0.00000000000E+00 0. -1.
         -1   -1    0    0    0  501 -0.00000000000E+00 -0.00000000000E+00 -0.51082074962E+03  0.51082074962E+03  0.00000000000E+00 0.  1.
          5    1    1    2  502    0 -0.29759002084E+02  0.31360707896E+01 -0.14160347323E+02  0.33437083924E+02  0.47000000000E+01 0. -1.
         -5    1    1    2    0  502  0.59395516888E+02 -0.23288270735E+02 -0.29937725006E+03  0.30613558897E+03  0.47000000000E+01 0.  1.
        -11    1    1    2    0    0 -0.24952052586E+02  0.43980255140E+02 -0.16243029644E+03  0.17011898475E+03  0.00000000000E+00 0.  1.
         11    1    1    2    0    0 -0.46844622181E+01 -0.23828055195E+02 -0.97963035391E+01  0.26185644228E+02  0.00000000000E+00 0. -1.
<mgrwt>
<rscale>  0 0.12021715E+03</rscale>
<asrwt>0</asrwt>
<pdfrwt beam="1">  1        1 0.38548540E-02 0.13039852E+03</pdfrwt>
<pdfrwt beam="2">  1       -1 0.78587811E-01 0.13039852E+03</pdfrwt>
<totfact> 0.38779983E+03</totfact>
</mgrwt>
</event>
<event>
 6    1  0.5818426E-006  0.1398058E+03  0.7546771E-02  0.1225005E+00
         -1   -1    0    0    0  501 -0.00000000000E+00  0.00000000000E+00  0.34647402661E+02  0.34647402661E+02  0.00000000000E+00 0.  1.
          1   -1    0    0  501    0  0.00000000000E+00 -0.00000000000E+00 -0.45202909621E+03  0.45202909621E+03  0.00000000000E+00 0. -1.
          5    1    1    2  502    0  0.91074673997E+02  0.23369746101E+02 -0.17659586989E+03  0.20012229396E+03  0.47000000000E+01 0.  1.
         -5    1    1    2    0  502 -0.39698456692E+02  0.12406128485E+02 -0.41543416653E+02  0.58973086700E+02  0.47000000000E+01 0.  1.
        -11    1    1    2    0    0 -0.76300192188E+02 -0.15807439364E+02 -0.14611749366E+03  0.16559564131E+03  0.00000000000E+00 0.  1.
         11    1    1    2    0    0  0.24923974883E+02 -0.19968435221E+02 -0.53124913338E+02  0.61985476899E+02  0.00000000000E+00 0. -1.
<mgrwt>
<rscale>  0 0.13166565E+03</rscale>
<asrwt>0</asrwt>
<pdfrwt beam="2">  1        1 0.69542934E-01 0.13980582E+03</pdfrwt>
<pdfrwt beam="1">  1       -1 0.53303699E-02 0.13980582E+03</pdfrwt>
<totfact> 0.78950448E+03</totfact>
</mgrwt>
</event>
<event>
 6    1  0.5818426E-006  0.1454579E+03  0.7546771E-02  0.1224449E+00
         -2   -1    0    0    0  501 -0.00000000000E+00  0.00000000000E+00  0.30035500115E+02  0.30035500115E+02  0.00000000000E+00 0.  1.
          2   -1    0    0  501    0  0.00000000000E+00 -0.00000000000E+00 -0.54478313072E+03  0.54478313072E+03  0.00000000000E+00 0. -1.
          5    1    1    2  502    0 -0.61465800601E+02 -0.56581651898E+02 -0.19039634716E+03  0.20797208223E+03  0.47000000000E+01 0. -1.
         -5    1    1    2    0  502  0.43616979262E+02 -0.15629252563E+02 -0.27716178385E+02  0.54194012215E+02  0.47000000000E+01 0. -1.
        -11    1    1    2    0    0  0.26681743379E+02  0.22793854807E+01 -0.10822695363E+03  0.11149073737E+03  0.00000000000E+00 0. -1.
         11    1    1    2    0    0 -0.88329220397E+01  0.69931518980E+02 -0.18840815142E+03  0.20116179901E+03  0.00000000000E+00 0.  1.
<mgrwt>
<rscale>  0 0.13204738E+03</rscale>
<asrwt>0</asrwt>
<pdfrwt beam="2">  1        2 0.83812790E-01 0.14545785E+03</pdfrwt>
<pdfrwt beam="1">  1       -2 0.46208461E-02 0.14545785E+03</pdfrwt>
<totfact> 0.11907922E+04</totfact>
</mgrwt>
</event>
<event>
 6    1  0.5818426E-006  0.1720354E+03  0.7546771E-02  0.1182073E+00
          2   -1    0    0  501    0  0.00000000000E+00  0.00000000000E+00  0.76161633448E+03  0.76161633448E+03  0.00000000000E+00 0. -1.
         -2   -1    0    0    0  501 -0.00000000000E+00 -0.00000000000E+00 -0.37373846823E+02  0.37373846823E+02  0.00000000000E+00 0.  1.
          5    1    1    2  502    0  0.13565654933E+03 -0.27704094895E+02  0.20102942853E+03  0.24414163386E+03  0.47000000000E+01 0. -1.
         -5    1    1    2    0  502 -0.26781311413E+02 -0.18320744619E+02  0.62355096511E+02  0.70449530767E+02  0.47000000000E+01 0. -1.
        -11    1    1    2    0    0 -0.10530090759E+03  0.35732145735E+02  0.46024337120E+03  0.47348603792E+03  0.00000000000E+00 0. -1.
         11    1    1    2    0    0 -0.35743303290E+01  0.10292693779E+02  0.61459141515E+00  0.10912978747E+02  0.00000000000E+00 0.  1.
<mgrwt>
<rscale>  0 0.16601045E+03</rscale>
<asrwt>0</asrwt>
<pdfrwt beam="1">  1        2 0.11717173E+00 0.17203544E+03</pdfrwt>
<pdfrwt beam="2">  1       -2 0.57498232E-02 0.17203544E+03</pdfrwt>
<totfact> 0.58420077E+03</totfact>
</mgrwt>
</event>
<event>
 6    1  0.5818426E-006  0.1285423E+03  0.7546771E-02  0.1243358E+00
          1   -1    0    0  501    0  0.00000000000E+00  0.00000000000E+00  0.66743322993E+02  0.66743322993E+02  0.00000000000E+00 0. -1.
         -1   -1    0    0    0  501 -0.00000000000E+00 -0.00000000000E+00 -0.22171590957E+03  0.22171590957E+03  0.00000000000E+00 0.  1.
          5    1    1    2  502    0 -0.74500232030E+02 -0.16404137110E+02 -0.11078686062E+03  0.13459271441E+03  0.47000000000E+01 0. -1.
         -5    1    1    2    0  502  0.44579560671E+02  0.14803351125E+02 -0.29439884113E+02  0.55635179615E+02  0.47000000000E+01 0. -1.
        -11    1    1    2    0    0  0.22066091712E+02  0.28833260261E+02 -0.44303533703E+02  0.57280645940E+02  0.00000000000E+00 0.  1.
         11    1    1    2    0    0  0.78545796469E+01 -0.27232474275E+02  0.29557691855E+02  0.40950692600E+02  0.00000000000E+00 0. -1.
<mgrwt>
<rscale>  0 0.11984217E+03</rscale>
<asrwt>0</asrwt>
<pdfrwt beam="1">  1        1 0.10268204E-01 0.12854226E+03</pdfrwt>
<pdfrwt beam="2">  1       -1 0.34110139E-01 0.12854226E+03</pdfrwt>
<totfact> 0.48170629E+03</totfact>
</mgrwt>
</event>
<event>
 6    1  0.5818426E-006  0.2120975E+03  0.7546771E-02  0.1142329E+00
          1   -1    0    0  501    0  0.00000000000E+00  0.00000000000E+00  0.33434684834E+03  0.33434684834E+03  0.00000000000E+00 0. -1.
         -1   -1    0    0    0  501 -0.00000000000E+00 -0.00000000000E+00 -0.13767589759E+03  0.13767589759E+03  0.00000000000E+00 0.  1.
          5    1    1    2  502    0 -0.17291864430E+02  0.20060141287E+02  0.16859972884E+02  0.31745338706E+02  0.47000000000E+01 0.  1.
         -5    1    1    2    0  502 -0.11020648782E+03 -0.14520310095E+03  0.18602923757E+02  0.18329639728E+03  0.47000000000E+01 0. -1.
        -11    1    1    2    0    0  0.56422859534E+02  0.11202464438E+03  0.82546181171E+02  0.15015635868E+03  0.00000000000E+00 0.  1.
         11    1    1    2    0    0  0.71075492717E+02  0.13118315281E+02  0.78661872942E+02  0.10682465125E+03  0.00000000000E+00 0. -1.
<mgrwt>
<rscale>  0 0.20903959E+03</rscale>
<asrwt>0</asrwt>
<pdfrwt beam="1">  1        1 0.51437976E-01 0.21209746E+03</pdfrwt>
<pdfrwt beam="2">  1       -1 0.21180907E-01 0.21209746E+03</pdfrwt>
<totfact> 0.13942572E+03</totfact>
</mgrwt>
</event>
<event>
 6    1  0.5818426E-006  0.1277421E+03  0.7546771E-02  0.1246027E+00
          1   -1    0    0  501    0  0.00000000000E+00  0.00000000000E+00  0.22695964233E+02  0.22695964233E+02  0.00000000000E+00 0. -1.
         -1   -1    0    0    0  501 -0.00000000000E+00 -0.00000000000E+00 -0.55247332653E+03  0.55247332653E+03  0.00000000000E+00 0.  1.
          5    1    1    2  502    0  0.94578009733E+01 -0.63547455110E+02 -0.15309405934E+03  0.16609518372E+03  0.47000000000E+01 0. -1.
         -5    1    1    2    0  502 -0.33347381219E+02  0.52450948333E+02 -0.19338592037E+03  0.20318305543E+03  0.47000000000E+01 0. -1.
        -11    1    1    2    0    0 -0.10333990865E+02  0.41616619030E+02 -0.12216316502E+03  0.12947035658E+03  0.00000000000E+00 0.  1.
         11    1    1    2    0    0  0.34223571111E+02 -0.30520112253E+02 -0.61134217579E+02  0.76420695041E+02  0.00000000000E+00 0. -1.
<mgrwt>
<rscale>  0 0.11824121E+03</rscale>
<asrwt>0</asrwt>
<pdfrwt beam="1">  1        1 0.34916868E-02 0.12774209E+03</pdfrwt>
<pdfrwt beam="2">  1       -1 0.84995897E-01 0.12774209E+03</pdfrwt>
<totfact> 0.37771379E+03</totfact>
</mgrwt>
</event>
<event>
 6    1  0.5818426E-006  0.1657165E+03  0.7546771E-02  0.1189095E+00
          1   -1    0    0  501    0  0.00000000000E+00  0.00000000000E+00  0.52918470264E+02  0.52918470264E+02  0.00000000000E+00 0. -1.
         -1   -1    0    0    0  501 -0.00000000000E+00 -0.00000000000E+00 -0.45033645325E+03  0.45033645325E+03  0.00000000000E+00 0.  1.
          5    1    1    2  502    0  0.16935740052E+02  0.10264377423E+03 -0.19785664320E+03  0.22358869590E+03  0.47000000000E+01 0. -1.
         -5    1    1    2    0  502  0.36752989528E+02 -0.80307977195E+01 -0.48284192191E+01  0.38218838070E+02  0.47000000000E+01 0. -1.
        -11    1    1    2    0    0 -0.74918984758E+02 -0.69984524390E+02 -0.17664153234E+03  0.20423740813E+03  0.00000000000E+00 0.  1.
         11    1    1    2    0    0  0.21230255178E+02 -0.24628452116E+02 -0.18091388228E+02  0.37209981411E+02  0.00000000000E+00 0. -1.
<mgrwt>
<rscale>  0 0.15964817E+03</rscale>
<asrwt>0</asrwt>
<pdfrwt beam="1">  1        1 0.81413031E-02 0.16571648E+03</pdfrwt>
<pdfrwt beam="2">  1       -1 0.69282531E-01 0.16571648E+03</pdfrwt>
<totfact> 0.18236474E+03</totfact>
</mgrwt>
</event>
<event>
 6    1  0.5818426E-006  0.1330342E+03  0.7546771E-02  0.1237537E+00
          1   -1    0    0  501    0  0.00000000000E+00  0.00000000000E+00  0.27334007036E+03  0.27334007036E+03  0.00000000000E+00 0. -1.
         -1   -1    0    0    0  501 -0.00000000000E+00 -0.00000000000E+00 -0.52810404605E+02  0.52810404605E+02  0.00000000000E+00 0.  1.
          5    1    1    2  502    0 -0.61754609524E+02 -0.16278286495E+02  0.37790242931E+02  0.74355947102E+02  0.47000000000E+01 0.  1.
         -5    1    1    2    0  502  0.39796714524E+02  0.56116196374E+02  0.44757802032E+02  0.82208009495E+02  0.47000000000E+01 0.  1.
        -11    1    1    2    0    0 -0.16152569735E+01 -0.45621066693E+02  0.13795783673E+03  0.14531433341E+03  0.00000000000E+00 0. -1.
         11    1    1    2    0    0  0.23573151973E+02  0.57831568149E+01  0.23784064232E-01  0.24272184953E+02  0.00000000000E+00 0.  1.
<mgrwt>
<rscale>  0 0.12343388E+03</rscale>
<asrwt>0</asrwt>
<pdfrwt beam="1">  1        1 0.42052318E-01 0.13303418E+03</pdfrwt>
<pdfrwt beam="2">  1       -1 0.81246778E-02 0.13303418E+03</pdfrwt>
<totfact> 0.78604763E+03</totfact>
</mgrwt>
</event>
<event>
 6    1  0.6886317E-006  0.2686483E+03  0.7546771E-02  0.1104097E+00
         -3   -1    0    0    0  501 -0.00000000000E+00  0.00000000000E+00  0.10176857824E+03  0.10176857824E+03  0.00000000000E+00 0.  1.
          3   -1    0    0  501    0  0.00000000000E+00 -0.00000000000E+00 -0.82047073845E+03  0.82047073845E+03  0.00000000000E+00 0. -1.
          5    1    1    2  502    0 -0.16954644224E+03 -0.74386673859E+02 -0.12914984044E+03  0.22579004541E+03  0.47000000000E+01 0.  1.
         -5    1    1    2    0  502 -0.66841581252E+02  0.48562783502E+02 -0.42699207039E+02  0.93120637924E+02  0.47000000000E+01 0.  1.
        -11    1    1    2    0    0  0.14832625341E+03  0.22993272557E+02 -0.23152366862E+03  0.27592132423E+03  0.00000000000E+00 0.  1.
         11    1    1    2    0    0  0.88061770081E+02  0.28306178004E+01 -0.31532944411E+03  0.32740730912E+03  0.00000000000E+00 0. -1.
<mgrwt>
<rscale>  0 0.26513463E+03</rscale>
<asrwt>0</asrwt>
<pdfrwt beam="2">  1        3 0.12622627E+00 0.26864834E+03</pdfrwt>
<pdfrwt beam="1">  1       -3 0.15656704E-01 0.26864834E+03</pdfrwt>
<totfact> 0.45087881E+01</totfact>
</mgrwt>
</event>
<event>
 6    1  0.5818426E-006  0.3132883E+03  0.7546771E-02  0.1078780E+00
          2   -1    0    0  501    0  0.00000000000E+00  0.00000000000E+00  0.41121039358E+03  0.41121039358E+03  0.00000000000E+00 0. -1.
         -2   -1    0    0    0  501 -0.00000000000E+00 -0.00000000000E+00 -0.59671144898E+02  0.59671144898E+02  0.00000000000E+00 0.  1.
          5    1    1    2  502    0  0.30592592235E+02  0.63538906198E+01  0.53095047993E+02  0.61785538333E+02  0.47000000000E+01 0. -1.
         -5    1    1    2    0  502 -0.90295039545E+02 -0.99926267472E+02  0.16678556487E+03  0.21442473678E+03  0.47000000000E+01 0. -1.
        -11    1    1    2    0    0 -0.12521199054E+02  0.56366767223E+02  0.79010704167E+02  0.97860534670E+02  0.00000000000E+00 0. -1.
         11    1    1    2    0    0  0.72223646364E+02  0.37205609629E+02  0.52647931655E+02  0.96810728691E+02  0.00000000000E+00 0.  1.
<mgrwt>
<rscale>  0 0.31328833E+03</rscale>
<asrwt>0</asrwt>
<pdfrwt beam="1">  1        2 0.63263136E-01 0.31328833E+03</pdfrwt>
<pdfrwt beam="2">  1       -2 0.91801764E-02 0.31328833E+03</pdfrwt>
<totfact> 0.58886327E+03</totfact>
</mgrwt>
</event>
<event>
 6    1  0.5818426E-006  0.3693569E+03  0.7546771E-02  0.1054939E+00
          2   -1    0    0  501    0  0.00000000000E+00  0.00000000000E+00  0.14254421882E+04  0.14254421882E+04  0.00000000000E+00 0. -1.
         -2   -1    0    0    0  501 -0.00000000000E+00 -0.00000000000E+00 -0.23926705934E+02  0.23926705934E+02  0.00000000000E+00 0.  1.
          5    1    1    2  502    0  0.51279301968E+01 -0.24573444926E+02  0.12165262286E+02  0.28288398154E+02  0.47000000000E+01 0. -1.
         -5    1    1    2    0  502  0.55281485127E+02 -0.11018173609E+03  0.64827731476E+03  0.65991031542E+03  0.47000000000E+01 0. -1.
        -11    1    1    2    0    0 -0.71453999304E+02  0.49436686470E+02  0.33506136009E+03  0.34614415351E+03  0.00000000000E+00 0. -1.
         11    1    1    2    0    0  0.11044583981E+02  0.85318494546E+02  0.40601154512E+03  0.41502602704E+03  0.00000000000E+00 0.  1.
<mgrwt>
<rscale>  0 0.36935693E+03</rscale>
<asrwt>0</asrwt>
<pdfrwt beam="1">  1        2 0.21929873E+00 0.36935693E+03</pdfrwt>
<pdfrwt beam="2">  1       -2 0.36810328E-02 0.36935693E+03</pdfrwt>
<totfact> 0.46772655E+03</totfact>
</mgrwt>
</event>
<event>
 6    1  0.5818426E-006  0.1483958E+03  0.7546771E-02  0.1211320E+00
          1   -1    0    0  501    0  0.00000000000E+00  0.00000000000E+00  0.15130189458E+03  0.15130189458E+03  0.00000000000E+00 0.  1.
         -1   -1    0    0    0  501 -0.00000000000E+00 -0.00000000000E+00 -0.15360779948E+03  0.15360779948E+03  0.00000000000E+00 0. -1.
          5    1    1    2  502    0  0.18529682337E+02  0.57397209316E+02 -0.64973235987E+02  0.88777250236E+02  0.47000000000E+01 0. -1.
         -5    1    1    2    0  502 -0.75255378552E+02 -0.10076175103E+01 -0.58004930899E+01  0.75631494856E+02  0.47000000000E+01 0. -1.
        -11    1    1    2    0    0  0.18985218021E+02 -0.67122302339E+01 -0.22500164325E+02  0.30195197179E+02  0.00000000000E+00 0. -1.
         11    1    1    2    0    0  0.37740478194E+02 -0.49677361572E+02  0.90967988499E+02  0.11030575179E+03  0.00000000000E+00 0.  1.
<mgrwt>
<rscale>  0 0.14150374E+03</rscale>
<asrwt>0</asrwt>
<pdfrwt beam="1">  1        1 0.23277214E-01 0.14839580E+03</pdfrwt>
<pdfrwt beam="2">  1       -1 0.23631969E-01 0.14839580E+03</pdfrwt>
<totfact> 0.31119579E+03</totfact>
</mgrwt>
</event>
<event>
 6    1  0.5818426E-006  0.1307228E+03  0.7546771E-02  0.1238922E+00
         -3   -1    0    0    0  501 -0.00000000000E+00  0.00000000000E+00  0.75128882408E+02  0.75128882408E+02  0.00000000000E+00 0.  1.
          3   -1    0    0  501    0  0.00000000000E+00 -0.00000000000E+00 -0.17904710704E+03  0.17904710704E+03  0.00000000000E+00 0. -1.
          5    1    1    2  502    0 -0.70212432597E+02  0.15095072483E+02 -0.33039545774E+02  0.79191846104E+02  0.47000000000E+01 0. -1.
         -5    1    1    2    0  502  0.41926509356E+02 -0.40801579834E+02 -0.30959716603E+02  0.66356575829E+02  0.47000000000E+01 0. -1.
        -11    1    1    2    0    0  0.37583001034E+02  0.12534487329E+02  0.21535828931E+02  0.45093095559E+02  0.00000000000E+00 0.  1.
         11    1    1    2    0    0 -0.92970777920E+01  0.13172020021E+02 -0.61454791184E+02  0.63534471953E+02  0.00000000000E+00 0. -1.
<mgrwt>
<rscale>  0 0.12256673E+03</rscale>
<asrwt>0</asrwt>
<pdfrwt beam="2">  1        3 0.27545708E-01 0.13072275E+03</pdfrwt>
<pdfrwt beam="1">  1       -3 0.11558290E-01 0.13072275E+03</pdfrwt>
<totfact> 0.16610333E+03</totfact>
</mgrwt>
</event>
<event>
 6    1  0.5818426E-006  0.1280398E+03  0.7546771E-02  0.1246280E+00
         -4   -1    0    0    0  501 -0.00000000000E+00  0.00000000000E+00  0.26564471098E+03  0.26564471098E+03  0.00000000000E+00 0. -1.
          4   -1    0    0  501    0  0.00000000000E+00 -0.00000000000E+00 -0.48816872729E+02  0.48816872729E+02  0.00000000000E+00 0.  1.
          5    1    1    2  502    0 -0.44846748075E+02 -0.20268970033E+02  0.31324737070E+02  0.58526840950E+02  0.47000000000E+01 0. -1.
         -5    1    1    2    0  502  0.68739208276E+02  0.60717838088E+01  0.13180424509E+03  0.14885024130E+03  0.47000000000E+01 0. -1.
        -11    1    1    2    0    0 -0.12202576433E+01 -0.22481437221E+02 -0.14223336307E+02  0.26630947109E+02  0.00000000000E+00 0.  1.
         11    1    1    2    0    0 -0.22672202558E+02  0.36678623445E+02  0.67922192406E+02  0.80453554352E+02  0.00000000000E+00 0. -1.
<mgrwt>
<rscale>  0 0.11809104E+03</rscale>
<asrwt>0</asrwt>
<pdfrwt beam="2">  1        4 0.75102883E-02 0.12803980E+03</pdfrwt>
<pdfrwt beam="1">  1       -4 0.40868416E-01 0.12803980E+03</pdfrwt>
<totfact> 0.11647599E+03</totfact>
</mgrwt>
</event>
<event>
 6    1  0.5818426E-006  0.1281611E+03  0.7546771E-02  0.1244122E+00
          2   -1    0    0  501    0  0.00000000000E+00  0.00000000000E+00  0.92239604818E+03  0.92239604818E+03  0.00000000000E+00 0. -1.
         -2   -1    0    0    0  501 -0.00000000000E+00 -0.00000000000E+00 -0.13894757194E+02  0.13894757194E+02  0.00000000000E+00 0.  1.
          5    1    1    2  502    0 -0.44424460506E+02  0.90085220998E+01  0.80573687013E+02  0.92568327200E+02  0.47000000000E+01 0.  1.
         -5    1    1    2    0  502  0.41246328709E+02  0.19226298014E+02  0.49457869088E+03  0.49669012638E+03  0.47000000000E+01 0.  1.
        -11    1    1    2    0    0  0.47155120104E+02 -0.22061752358E+02  0.18334003275E+03  0.19058828369E+03  0.00000000000E+00 0. -1.
         11    1    1    2    0    0 -0.43976988306E+02 -0.61730677566E+01  0.15000888034E+03  0.15644406811E+03  0.00000000000E+00 0.  1.
<mgrwt>
<rscale>  0 0.11938111E+03</rscale>
<asrwt>0</asrwt>
<pdfrwt beam="1">  1        2 0.14190704E+00 0.12816110E+03</pdfrwt>
<pdfrwt beam="2">  1       -2 0.21376557E-02 0.12816110E+03</pdfrwt>
<totfact> 0.19519094E+04</totfact>
</mgrwt>
</event>
<event>
 6    1  0.5818426E-006  0.2533603E+03  0.7546771E-02  0.1111199E+00
          2   -1    0    0  501    0  0.00000000000E+00  0.00000000000E+00  0.40364099391E+03  0.40364099391E+03  0.00000000000E+00 0.  1.
         -2   -1    0    0    0  501 -0.00000000000E+00 -0.00000000000E+00 -0.39757768585E+02  0.39757768585E+02  0.00000000000E+00 0. -1.
          5    1    1    2  502    0  0.17570697249E+02 -0.88079944121E+02  0.13368316240E+03  0.16112133275E+03  0.47000000000E+01 0. -1.
         -5    1    1    2    0  502 -0.13138618731E+02  0.33710630707E+02  0.11919202079E+02  0.38382122179E+02  0.47000000000E+01 0. -1.
        -11    1    1    2    0    0  0.25099752227E+02  0.38784813491E+02  0.35965364474E+02  0.58547132817E+02  0.00000000000E+00 0. -1.
         11    1    1    2    0    0 -0.29531830745E+02  0.15584499923E+02  0.18231549637E+03  0.18534817475E+03  0.00000000000E+00 0.  1.
<mgrwt>
<rscale>  0 0.25336034E+03</rscale>
<asrwt>0</asrwt>
<pdfrwt beam="1">  1        2 0.62098612E-01 0.25336034E+03</pdfrwt>
<pdfrwt beam="2">  1       -2 0.61165801E-02 0.25336034E+03</pdfrwt>
<totfact> 0.11221630E+04</totfact>
</mgrwt>
</event>
<event>
 6    1  0.5818426E-006  0.1520275E+03  0.7546771E-02  0.1207077E+00
         -2   -1    0    0    0  501 -0.00000000000E+00  0.00000000000E+00  0.78629355243E+03  0.78629355243E+03  0.00000000000E+00 0.  1.
          2   -1    0    0  501    0  0.00000000000E+00 -0.00000000000E+00 -0.38081190797E+02  0.38081190797E+02  0.00000000000E+00 0. -1.
          5    1    1    2  502    0 -0.40231225989E+02  0.32342186886E+02  0.61035604110E+03  0.61255298179E+03  0.47000000000E+01 0.  1.
         -5    1    1    2    0  502 -0.21957281055E+02  0.27879811699E+02  0.33569063365E+02  0.49075229056E+02  0.47000000000E+01 0.  1.
        -11    1    1    2    0    0  0.13983436249E+02  0.17150262671E+02 -0.25820584726E+01  0.22278577714E+02  0.00000000000E+00 0. -1.
         11    1    1    2    0    0  0.48205070795E+02 -0.77372261255E+02  0.10686931565E+03  0.14046795467E+03  0.00000000000E+00 0.  1.
<mgrwt>
<rscale>  0 0.14475014E+03</rscale>
<asrwt>0</asrwt>
<pdfrwt beam="2">  1        2 0.58586453E-02 0.15202746E+03</pdfrwt>
<pdfrwt beam="1">  1       -2 0.12096823E+00 0.15202746E+03</pdfrwt>
<totfact> 0.68098908E+02</totfact>
</mgrwt>
</event>
<event>
 6    1  0.5818426E-006  0.3204866E+03  0.7546771E-02  0.1076214E+00
         -1   -1    0    0    0  501 -0.00000000000E+00  0.00000000000E+00  0.39367959620E+03  0.39367959620E+03  0.00000000000E+00 0.  1.
          1   -1    0    0  501    0  0.00000000000E+00 -0.00000000000E+00 -0.26276284432E+03  0.26276284432E+03  0.00000000000E+00 0. -1.
          5    1    1    2  502    0  0.24105800219E+02 -0.32493121474E+02  0.15617575716E+02  0.43622141379E+02  0.47000000000E+01 0. -1.
         -5    1    1    2    0  502  0.27617430209E+03  0.44370202032E+02  0.10543478170E+03  0.29896411684E+03  0.47000000000E+01 0.  1.
        -11    1    1    2    0    0 -0.15555153809E+03 -0.26646553432E+02  0.45167777198E+02  0.16415373254E+03  0.00000000000E+00 0.  1.
         11    1    1    2    0    0 -0.14472856422E+03  0.14769472874E+02 -0.35303382737E+02  0.14970244976E+03  0.00000000000E+00 0. -1.
<mgrwt>
<rscale>  0 0.31877661E+03</rscale>
<asrwt>0</asrwt>
<pdfrwt beam="2">  1        1 0.40425053E-01 0.32048662E+03</pdfrwt>
<pdfrwt beam="1">  1       -1 0.60566092E-01 0.32048662E+03</pdfrwt>
<totfact> 0.29682118E+02</totfact>
</mgrwt>
</event>
<event>
 6    1  0.5818426E-006  0.1349919E+03  0.7546771E-02  0.1232357E+00
          3   -1    0    0  501    0  0.00000000000E+00  0.00000000000E+00  0.14001354434E+03  0.14001354434E+03  0.00000000000E+00 0. -1.
         -3   -1    0    0    0  501 -0.00000000000E+00 -0.00000000000E+00 -0.11489048807E+03  0.11489048807E+03  0.00000000000E+00 0.  1.
          5    1    1    2  502    0 -0.48086115258E+02 -0.51841153775E+02  0.28602991519E+02  0.76419898123E+02  0.47000000000E+01 0.  1.
         -5    1    1    2    0  502  0.24071105026E+02  0.68723415952E+01 -0.55724553215E+02  0.61269592843E+02  0.47000000000E+01 0.  1.
        -11    1    1    2    0    0 -0.11499495893E+02 -0.10190039891E+01 -0.20853808828E+02  0.23836067578E+02  0.00000000000E+00 0.  1.
         11    1    1    2    0    0  0.35514506125E+02  0.45987816168E+02  0.73098426792E+02  0.93378473862E+02  0.00000000000E+00 0. -1.
<mgrwt>
<rscale>  0 0.12675147E+03</rscale>
<asrwt>0</asrwt>
<pdfrwt beam="1">  1        3 0.21540545E-01 0.13499191E+03</pdfrwt>
<pdfrwt beam="2">  1       -3 0.17675460E-01 0.13499191E+03</pdfrwt>
<totfact> 0.12615513E+03</totfact>
</mgrwt>
</event>
<event>
 6    1  0.5818426E-006  0.1264699E+03  0.7546771E-02  0.1249982E+00
         -2   -1    0    0    0  501 -0.00000000000E+00  0.00000000000E+00  0.36703448672E+03  0.36703448672E+03  0.00000000000E+00 0.  1.
          2   -1    0    0  501    0  0.00000000000E+00 -0.00000000000E+00 -0.42840155639E+02  0.42840155639E+02  0.00000000000E+00 0. -1.
          5    1    1    2  502    0 -0.19544838703E+02  0.34138332274E+02  0.23330968441E+02  0.45976630355E+02  0.47000000000E+01 0.  1.
         -5    1    1    2    0  502  0.43330023319E+01 -0.45920636519E+02  0.26279534065E+03  0.26685381923E+03  0.47000000000E+01 0.  1.
        -11    1    1    2    0    0  0.36412273773E+02 -0.26460967754E+02  0.14037788875E+02  0.47149719111E+02  0.00000000000E+00 0.  1.
         11    1    1    2    0    0 -0.21200437401E+02  0.38243271998E+02  0.24030233117E+02  0.49894473670E+02  0.00000000000E+00 0. -1.
<mgrwt>
<rscale>  0 0.11592088E+03</rscale>
<asrwt>0</asrwt>
<pdfrwt beam="2">  1        2 0.65907934E-02 0.12646986E+03</pdfrwt>
<pdfrwt beam="1">  1       -2 0.56466842E-01 0.12646986E+03</pdfrwt>
<totfact> 0.31193342E+03</totfact>
</mgrwt>
</event>
<event>
 6    1  0.5818426E-006  0.1257146E+03  0.7546771E-02  0.1248779E+00
          1   -1    0    0  501    0  0.00000000000E+00  0.00000000000E+00  0.37564909013E+03  0.37564909013E+03  0.00000000000E+00 0. -1.
         -1   -1    0    0    0  501 -0.00000000000E+00 -0.00000000000E+00 -0.34139321673E+02  0.34139321673E+02  0.00000000000E+00 0.  1.
          5    1    1    2  502    0 -0.25851322987E+02 -0.58570129400E+02  0.10435255725E+03  0.12251651792E+03  0.47000000000E+01 0. -1.
         -5    1    1    2    0  502  0.30726766885E+02  0.46129862337E+02  0.37815941279E+02  0.67262425002E+02  0.47000000000E+01 0. -1.
        -11    1    1    2    0    0  0.25593982468E+01 -0.30833547993E+02  0.23729014431E+02  0.38991336565E+02  0.00000000000E+00 0.  1.
         11    1    1    2    0    0 -0.74348421445E+01  0.43273815057E+02  0.17561225550E+03  0.18101813232E+03  0.00000000000E+00 0. -1.
<mgrwt>
<rscale>  0 0.11662035E+03</rscale>
<asrwt>0</asrwt>
<pdfrwt beam="1">  1        1 0.57792165E-01 0.12571462E+03</pdfrwt>
<pdfrwt beam="2">  1       -1 0.52522036E-02 0.12571462E+03</pdfrwt>
<totfact> 0.10122476E+04</totfact>
</mgrwt>
</event>
<event>
 6    1  0.5818426E-006  0.1383949E+03  0.7546771E-02  0.1229783E+00
          2   -1    0    0  501    0  0.00000000000E+00  0.00000000000E+00  0.97926574023E+02  0.97926574023E+02  0.00000000000E+00 0. -1.
         -2   -1    0    0    0  501 -0.00000000000E+00 -0.00000000000E+00 -0.15505512559E+03  0.15505512559E+03  0.00000000000E+00 0.  1.
          5    1    1    2  502    0 -0.84300727500E+02 -0.23647616269E+02 -0.32062504023E+02  0.93359073348E+02  0.47000000000E+01 0. -1.
         -5    1    1    2    0  502  0.45425876266E+02 -0.21244555602E+02 -0.26534040171E+02  0.56929664192E+02  0.47000000000E+01 0. -1.
        -11    1    1    2    0    0  0.60518571111E+02  0.39717516377E+02 -0.16318899856E+02  0.74204346564E+02  0.00000000000E+00 0.  1.
         11    1    1    2    0    0 -0.21643719877E+02  0.51746554943E+01  0.17786892481E+02  0.28488615511E+02  0.00000000000E+00 0. -1.
<mgrwt>
<rscale>  0 0.12844410E+03</rscale>
<asrwt>0</asrwt>
<pdfrwt beam="1">  1        2 0.15065627E-01 0.13839490E+03</pdfrwt>
<pdfrwt beam="2">  1       -2 0.23854635E-01 0.13839490E+03</pdfrwt>
<totfact> 0.56986105E+03</totfact>
</mgrwt>
</event>
<event>
 6    1  0.5818426E-006  0.2796717E+03  0.7546771E-02  0.1095868E+00
          1   -1    0    0  501    0  0.00000000000E+00  0.00000000000E+00  0.32520694835E+03  0.32520694835E+03  0.00000000000E+00 0. -1.
         -1   -1    0    0    0  501 -0.00000000000E+00 -0.00000000000E+00 -0.60128064659E+02  0.60128064659E+02  0.00000000000E+00 0.  1.
          5    1    1    2  502    0  0.27465626300E+02 -0.46579806517E+02  0.60077504710E+01  0.54609725040E+02  0.47000000000E+01 0.  1.
         -5    1    1    2    0  502 -0.69927623349E+02  0.84578075930E+01  0.83680459654E+02  0.10948020983E+03  0.47000000000E+01 0.  1.
        -11    1    1    2    0    0  0.42420254505E+02 -0.47872608437E+01  0.21219237338E+01  0.42742232265E+02  0.00000000000E+00 0.  1.
         11    1    1    2    0    0  0.41742544426E-01  0.42909259768E+02  0.17326874983E+03  0.17850284587E+03  0.00000000000E+00 0. -1.
<mgrwt>
<rscale>  0 0.27967170E+03</rscale>
<asrwt>0</asrwt>
<pdfrwt beam="1">  1        1 0.50031837E-01 0.27967170E+03</pdfrwt>
<pdfrwt beam="2">  1       -1 0.92504717E-02 0.27967170E+03</pdfrwt>
<totfact> 0.54094894E+03</totfact>
</mgrwt>
</event>
<event>
 6    1  0.5818426E-006  0.1324712E+03  0.7546771E-02  0.1237307E+00
          1   -1    0    0  501    0  0.00000000000E+00  0.00000000000E+00  0.32242298521E+02  0.32242298521E+02  0.00000000000E+00 0. -1.
         -1   -1    0    0    0  501 -0.00000000000E+00 -0.00000000000E+00 -0.55720269648E+03  0.55720269648E+03  0.00000000000E+00 0.  1.
          5    1    1    2  502    0  0.55808837058E+02  0.17810223094E+02 -0.10551242364E+03  0.12077579179E+03  0.47000000000E+01 0. -1.
         -5    1    1    2    0  502 -0.47929666224E+02  0.25335495167E+02 -0.32938215082E+03  0.33384701811E+03  0.47000000000E+01 0. -1.
        -11    1    1    2    0    0 -0.10444453938E+00 -0.25259268398E+02 -0.10641566090E+03  0.10937245738E+03  0.00000000000E+00 0.  1.
         11    1    1    2    0    0 -0.77747262940E+01 -0.17886449864E+02  0.16349837406E+02  0.25449727717E+02  0.00000000000E+00 0. -1.
<mgrwt>
<rscale>  0 0.12357871E+03</rscale>
<asrwt>0</asrwt>
<pdfrwt beam="1">  1        1 0.49603537E-02 0.13247116E+03</pdfrwt>
<pdfrwt beam="2">  1       -1 0.85723490E-01 0.13247116E+03</pdfrwt>
<totfact> 0.22965512E+03</totfact>
</mgrwt>
</event>
<event>
 6    1  0.5818426E-006  0.1269376E+03  0.7546771E-02  0.1275001E+00
         -2   -1    0    0    0  501 -0.00000000000E+00  0.00000000000E+00  0.91745062291E+02  0.91745062291E+02  0.00000000000E+00 0.  1.
          2   -1    0    0  501    0  0.00000000000E+00 -0.00000000000E+00 -0.99614768348E+02  0.99614768348E+02  0.00000000000E+00 0. -1.
          5    1    1    2  502    0  0.10286572594E+02  0.39434937829E+02  0.67473049642E+02  0.78966007403E+02  0.47000000000E+01 0. -1.
         -5    1    1    2    0  502 -0.14246661334E+02 -0.17674792590E+02 -0.44365646805E+02  0.50057629475E+02  0.47000000000E+01 0. -1.
        -11    1    1    2    0    0  0.24953542113E+02 -0.19018722321E+02 -0.25596123352E+02  0.40491389126E+02  0.00000000000E+00 0.  1.
         11    1    1    2    0    0 -0.20993453373E+02 -0.27414229184E+01 -0.53809855408E+01  0.21844804635E+02  0.00000000000E+00 0. -1.
<mgrwt>
<rscale>  0 0.10256071E+03</rscale>
<asrwt>0</asrwt>
<pdfrwt beam="2">  1        2 0.15325349E-01 0.12693757E+03</pdfrwt>
<pdfrwt beam="1">  1       -2 0.14114625E-01 0.12693757E+03</pdfrwt>
<totfact> 0.13354678E+04</totfact>
</mgrwt>
</event>
<event>
 6    1  0.5818426E-006  0.1569195E+03  0.7546771E-02  0.1201504E+00
         -2   -1    0    0    0  501 -0.00000000000E+00  0.00000000000E+00  0.43437251848E+02  0.43437251848E+02  0.00000000000E+00 0. -1.
          2   -1    0    0  501    0  0.00000000000E+00 -0.00000000000E+00 -0.46776168326E+03  0.46776168326E+03  0.00000000000E+00 0.  1.
          5    1    1    2  502    0 -0.42087845139E+02  0.12115506134E+02 -0.92468330434E+02  0.10242389531E+03  0.47000000000E+01 0. -1.
         -5    1    1    2    0  502  0.28269285551E+02 -0.10596790682E+03 -0.13670740644E+03  0.17532642344E+03  0.47000000000E+01 0. -1.
        -11    1    1    2    0    0  0.29636280430E+02  0.10528523031E+02 -0.16107971841E+02  0.35335897778E+02  0.00000000000E+00 0. -1.
         11    1    1    2    0    0 -0.15817720842E+02  0.83323877650E+02 -0.17904072270E+03  0.19811271858E+03  0.00000000000E+00 0.  1.
<mgrwt>
<rscale>  0 0.14916384E+03</rscale>
<asrwt>0</asrwt>
<pdfrwt beam="2">  1        2 0.71963333E-01 0.15691947E+03</pdfrwt>
<pdfrwt beam="1">  1       -2 0.66826544E-02 0.15691947E+03</pdfrwt>
<totfact> 0.81008286E+03</totfact>
</mgrwt>
</event>
<event>
 6    1  0.5818426E-006  0.1980426E+03  0.7546771E-02  0.1169232E+00
          1   -1    0    0  501    0  0.00000000000E+00  0.00000000000E+00  0.47212485703E+03  0.47212485703E+03  0.00000000000E+00 0. -1.
         -1   -1    0    0    0  501 -0.00000000000E+00 -0.00000000000E+00 -0.69205022575E+02  0.69205022575E+02  0.00000000000E+00 0.  1.
          5    1    1    2  502    0  0.11940716030E+03  0.52993028076E+02  0.63411460196E+02  0.14529086083E+03  0.47000000000E+01 0. -1.
         -5    1    1    2    0  502 -0.60816569248E+02  0.19696625685E+02  0.61643450540E+02  0.88930406234E+02  0.47000000000E+01 0.  1.
        -11    1    1    2    0    0 -0.65212891678E+02 -0.80692012292E+01  0.13305067759E+03  0.14839243935E+03  0.00000000000E+00 0.  1.
         11    1    1    2    0    0  0.66223006264E+01 -0.64620452532E+02  0.14481424613E+03  0.15871617319E+03  0.00000000000E+00 0. -1.
<mgrwt>
<rscale>  0 0.17853156E+03</rscale>
<asrwt>0</asrwt>
<pdfrwt beam="1">  1        1 0.72634591E-01 0.19804260E+03</pdfrwt>
<pdfrwt beam="2">  1       -1 0.10646927E-01 0.19804260E+03</pdfrwt>
<totfact> 0.26630338E+03</totfact>
</mgrwt>
</event>
<event>
 6    1  0.5818426E-006  0.1320432E+03  0.7546771E-02  0.1237992E+00
          2   -1    0    0  501    0  0.00000000000E+00  0.00000000000E+00  0.45246436492E+03  0.45246436492E+03  0.00000000000E+00 0. -1.
         -2   -1    0    0    0  501 -0.00000000000E+00 -0.00000000000E+00 -0.92660066272E+02  0.92660066272E+02  0.00000000000E+00 0.  1.
          5    1    1    2  502    0 -0.53494746568E+02 -0.25627904157E+02  0.26545385247E+02  0.65155390105E+02  0.47000000000E+01 0.  1.
         -5    1    1    2    0  502  0.32732473917E+02 -0.11547345435E+02 -0.62581656077E+02  0.71716871883E+02  0.47000000000E+01 0.  1.
        -11    1    1    2    0    0  0.50676204568E+02  0.33192963849E+01  0.26524346897E+03  0.27006146202E+03  0.00000000000E+00 0. -1.
         11    1    1    2    0    0 -0.29913931917E+02  0.33855953207E+02  0.13059710051E+03  0.13819070718E+03  0.00000000000E+00 0.  1.
<mgrwt>
<rscale>  0 0.12314839E+03</rscale>
<asrwt>0</asrwt>
<pdfrwt beam="1">  1        2 0.69609901E-01 0.13204319E+03</pdfrwt>
<pdfrwt beam="2">  1       -2 0.14255395E-01 0.13204319E+03</pdfrwt>
<totfact> 0.25298616E+03</totfact>
</mgrwt>
</event>
<event>
 6    1  0.5818426E-006  0.4620016E+03  0.7546771E-02  0.1024202E+00
         -2   -1    0    0    0  501 -0.00000000000E+00  0.00000000000E+00  0.45721941495E+02  0.45721941495E+02  0.00000000000E+00 0.  1.
          2   -1    0    0  501    0  0.00000000000E+00 -0.00000000000E+00 -0.11670847556E+04  0.11670847556E+04  0.00000000000E+00 0. -1.
          5    1    1    2  502    0  0.13075911757E+03  0.13865049449E+03 -0.36429576624E+03  0.41116347327E+03  0.47000000000E+01 0.  1.
         -5    1    1    2    0  502 -0.83580342032E+01 -0.88711446147E+00  0.55199896337E+01  0.11099729428E+02  0.47000000000E+01 0.  1.
        -11    1    1    2    0    0 -0.20790783060E+02 -0.32924737736E+01 -0.19883792710E+02  0.28956212741E+02  0.00000000000E+00 0.  1.
         11    1    1    2    0    0 -0.10161030031E+03 -0.13447090626E+03 -0.74270324474E+03  0.76158728161E+03  0.00000000000E+00 0. -1.
<mgrwt>
<rscale>  0 0.46200165E+03</rscale>
<asrwt>0</asrwt>
<pdfrwt beam="2">  1        2 0.17955151E+00 0.46200165E+03</pdfrwt>
<pdfrwt beam="1">  1       -2 0.70341444E-02 0.46200165E+03</pdfrwt>
<totfact> 0.24147790E+03</totfact>
</mgrwt>
</event>
<event>
 6    1  0.5818426E-006  0.1488237E+03  0.7546771E-02  0.1208361E+00
          3   -1    0    0  501    0  0.00000000000E+00  0.00000000000E+00  0.81035008860E+02  0.81035008860E+02  0.00000000000E+00 0. -1.
         -3   -1    0    0    0  501 -0.00000000000E+00 -0.00000000000E+00 -0.25297598494E+03  0.25297598494E+03  0.00000000000E+00 0.  1.
          5    1    1    2  502    0 -0.28386307993E+02  0.35389326492E+02 -0.65826431815E+02  0.80083681462E+02  0.47000000000E+01 0. -1.
         -5    1    1    2    0  502 -0.26222946797E+02 -0.94866964815E+02 -0.64785984503E+02  0.11792666255E+03  0.47000000000E+01 0. -1.
        -11    1    1    2    0    0  0.33058201772E+02  0.76807904390E+02 -0.59748913722E+02  0.10277271803E+03  0.00000000000E+00 0.  1.
         11    1    1    2    0    0  0.21551053019E+02 -0.17330266068E+02  0.18420353965E+02  0.33227931750E+02  0.00000000000E+00 0. -1.
<mgrwt>
<rscale>  0 0.14375712E+03</rscale>
<asrwt>0</asrwt>
<pdfrwt beam="1">  1        3 0.12466925E-01 0.14882370E+03</pdfrwt>
<pdfrwt beam="2">  1       -3 0.38919381E-01 0.14882370E+03</pdfrwt>
<totfact> 0.78147065E+02</totfact>
</mgrwt>
</event>
<event>
 6    1  0.5818426E-006  0.2706899E+03  0.7546771E-02  0.1107299E+00
         -1   -1    0    0    0  501 -0.00000000000E+00  0.00000000000E+00  0.23038477371E+03  0.23038477371E+03  0.00000000000E+00 0.  1.
          1   -1    0    0  501    0  0.00000000000E+00 -0.00000000000E+00 -0.10773970048E+04  0.10773970048E+04  0.00000000000E+00 0. -1.
          5    1    1    2  502    0 -0.10642732139E+03 -0.18043473880E+03  0.73747858958E+02  0.22213578371E+03  0.47000000000E+01 0. -1.
         -5    1    1    2    0  502  0.48313055297E+02 -0.21422039561E+02  0.59012997962E+02  0.79357917182E+02  0.47000000000E+01 0.  1.
        -11    1    1    2    0    0  0.19259911821E+02  0.18664779519E+03 -0.78895001249E+03  0.81095651293E+03  0.00000000000E+00 0. -1.
         11    1    1    2    0    0  0.38854354271E+02  0.15208983171E+02 -0.19082307552E+03  0.19533156470E+03  0.00000000000E+00 0.  1.
<mgrwt>
<rscale>  0 0.25974041E+03</rscale>
<asrwt>0</asrwt>
<pdfrwt beam="2">  1        1 0.16575338E+00 0.27068987E+03</pdfrwt>
<pdfrwt beam="1">  1       -1 0.35443811E-01 0.27068987E+03</pdfrwt>
<totfact> 0.10854058E+02</totfact>
</mgrwt>
</event>
<event>
 6    1  0.5818426E-006  0.3926185E+03  0.7546771E-02  0.1046366E+00
         -2   -1    0    0    0  501 -0.00000000000E+00  0.00000000000E+00  0.70507621165E+02  0.70507621165E+02  0.00000000000E+00 0.  1.
          2   -1    0    0  501    0  0.00000000000E+00 -0.00000000000E+00 -0.54656963535E+03  0.54656963535E+03  0.00000000000E+00 0. -1.
          5    1    1    2  502    0 -0.67916304368E+01 -0.32790827184E+02 -0.33329012722E+02  0.47479234202E+02  0.47000000000E+01 0. -1.
         -5    1    1    2    0  502 -0.15674118158E+02  0.85261963066E+02  0.24478639531E+02  0.90202960701E+02  0.47000000000E+01 0. -1.
        -11    1    1    2    0    0 -0.30074718831E+02 -0.41410213734E+02 -0.27987695904E+03  0.28451784956E+03  0.00000000000E+00 0. -1.
         11    1    1    2    0    0  0.52540467426E+02 -0.11060922148E+02 -0.18733468195E+03  0.19487721205E+03  0.00000000000E+00 0.  1.
<mgrwt>
<rscale>  0 0.39261852E+03</rscale>
<asrwt>0</asrwt>
<pdfrwt beam="2">  1        2 0.84087637E-01 0.39261852E+03</pdfrwt>
<pdfrwt beam="1">  1       -2 0.10847326E-01 0.39261852E+03</pdfrwt>
<totfact> 0.32929647E+03</totfact>
</mgrwt>
</event>
<event>
 6    1  0.5818426E-006  0.1389158E+03  0.7546771E-02  0.1234682E+00
         -2   -1    0    0    0  501 -0.00000000000E+00  0.00000000000E+00  0.27010842069E+02  0.27010842069E+02  0.00000000000E+00 0.  1.
          2   -1    0    0  501    0  0.00000000000E+00 -0.00000000000E+00 -0.51154620417E+03  0.51154620417E+03  0.00000000000E+00 0. -1.
          5    1    1    2  502    0  0.13930390254E+02  0.46278383844E+02 -0.20466756813E+03  0.21034887218E+03  0.47000000000E+01 0. -1.
         -5    1    1    2    0  502 -0.52720652572E+01 -0.56123104998E+02 -0.34562363178E+02  0.66289098162E+02  0.47000000000E+01 0.  1.
        -11    1    1    2    0    0  0.33230329795E+02  0.19854227010E+02 -0.58036600896E+02  0.69761681402E+02  0.00000000000E+00 0.  1.
         11    1    1    2    0    0 -0.41888654792E+02 -0.10009505857E+02 -0.18726882989E+03  0.19215739449E+03  0.00000000000E+00 0. -1.
<mgrwt>
<rscale>  0 0.12524833E+03</rscale>
<asrwt>0</asrwt>
<pdfrwt beam="2">  1        2 0.78699414E-01 0.13891583E+03</pdfrwt>
<pdfrwt beam="1">  1       -2 0.41555143E-02 0.13891583E+03</pdfrwt>
<totfact> 0.14913461E+04</totfact>
</mgrwt>
</event>
<event>
 6    1  0.5818426E-006  0.1369562E+03  0.7546771E-02  0.1230591E+00
          1   -1    0    0  501    0  0.00000000000E+00  0.00000000000E+00  0.21293571575E+02  0.21293571575E+02  0.00000000000E+00 0. -1.
         -1   -1    0    0    0  501 -0.00000000000E+00 -0.00000000000E+00 -0.68280213557E+03  0.68280213557E+03  0.00000000000E+00 0.  1.
          5    1    1    2  502    0 -0.75413158182E+02  0.45804626262E+02 -0.17247255758E+03  0.19378875440E+03  0.47000000000E+01 0.  1.
         -5    1    1    2    0  502  0.23335103195E+02 -0.25285610750E+02 -0.20155281976E+03  0.20452265963E+03  0.47000000000E+01 0.  1.
        -11    1    1    2    0    0  0.69732316737E+02 -0.37876138712E+02 -0.21368936059E+03  0.22794810969E+03  0.00000000000E+00 0. -1.
         11    1    1    2    0    0 -0.17654261751E+02  0.17357123200E+02 -0.73793826066E+02  0.77836183418E+02  0.00000000000E+00 0.  1.
<mgrwt>
<rscale>  0 0.12790934E+03</rscale>
<asrwt>0</asrwt>
<pdfrwt beam="1">  1        1 0.32759342E-02 0.13695620E+03</pdfrwt>
<pdfrwt beam="2">  1       -1 0.10504648E+00 0.13695620E+03</pdfrwt>
<totfact> 0.26234961E+03</totfact>
</mgrwt>
</event>
<event>
 6    1  0.5818426E-006  0.2521814E+03  0.7546771E-02  0.1114323E+00
         -4   -1    0    0    0  501 -0.00000000000E+00  0.00000000000E+00  0.13462753582E+03  0.13462753582E+03  0.00000000000E+00 0.  1.
          4   -1    0    0  501    0  0.00000000000E+00 -0.00000000000E+00 -0.65937713258E+03  0.65937713258E+03  0.00000000000E+00 0. -1.
          5    1    1    2  502    0  0.16294311048E+03 -0.11643621344E+03 -0.66824889368E+02  0.21117647808E+03  0.47000000000E+01 0. -1.
         -5    1    1    2    0  502  0.32045254238E+02  0.16679840879E+02  0.25363651403E+02  0.44390542050E+02  0.47000000000E+01 0. -1.
        -11    1    1    2    0    0 -0.14997661956E+03  0.10264139380E+03 -0.43941865072E+03  0.47551760507E+03  0.00000000000E+00 0. -1.
         11    1    1    2    0    0 -0.45011745159E+02 -0.28850212318E+01 -0.43869708081E+02  0.62920043205E+02  0.00000000000E+00 0.  1.
<mgrwt>
<rscale>  0 0.24839572E+03</rscale>
<asrwt>0</asrwt>
<pdfrwt beam="2">  1        4 0.10144264E+00 0.25218142E+03</pdfrwt>
<pdfrwt beam="1">  1       -4 0.20711928E-01 0.25218142E+03</pdfrwt>
<totfact> 0.31842287E+01</totfact>
</mgrwt>
</event>
<event>
 6    1  0.5818426E-006  0.1442556E+03  0.7546771E-02  0.1214656E+00
         -4   -1    0    0    0  501 -0.00000000000E+00  0.00000000000E+00  0.99463178311E+02  0.99463178311E+02  0.00000000000E+00 0.  1.
          4   -1    0    0  501    0  0.00000000000E+00 -0.00000000000E+00 -0.18345358678E+03  0.18345358678E+03  0.00000000000E+00 0. -1.
          5    1    1    2  502    0  0.57652264128E+02  0.74528000482E+02 -0.13995573516E+02  0.95373856444E+02  0.47000000000E+01 0. -1.
         -5    1    1    2    0  502 -0.39359086945E+02 -0.48957322363E+01 -0.45840491056E+02  0.60799231405E+02  0.47000000000E+01 0. -1.
        -11    1    1    2    0    0 -0.51358562251E+01 -0.73399784866E+02 -0.55747834405E+02  0.92313197747E+02  0.00000000000E+00 0. -1.
         11    1    1    2    0    0 -0.13157320959E+02  0.37675166198E+01  0.31593490504E+02  0.34430479499E+02  0.00000000000E+00 0.  1.
<mgrwt>
<rscale>  0 0.13901854E+03</rscale>
<asrwt>0</asrwt>
<pdfrwt beam="2">  1        4 0.28223629E-01 0.14425560E+03</pdfrwt>
<pdfrwt beam="1">  1       -4 0.15302028E-01 0.14425560E+03</pdfrwt>
<totfact> 0.72752720E+02</totfact>
</mgrwt>
</event>
<event>
 6    1  0.5818426E-006  0.1250162E+03  0.7546771E-02  0.1251756E+00
          1   -1    0    0  501    0  0.00000000000E+00  0.00000000000E+00  0.11197703146E+03  0.11197703146E+03  0.00000000000E+00 0. -1.
         -1   -1    0    0    0  501 -0.00000000000E+00 -0.00000000000E+00 -0.10245922681E+03  0.10245922681E+03  0.00000000000E+00 0.  1.
          5    1    1    2  502    0  0.35054983796E+02 -0.43805444578E+02 -0.25052233879E+02  0.61623642264E+02  0.47000000000E+01 0. -1.
         -5    1    1    2    0  502 -0.36231765274E+02  0.41449629585E+02  0.31403618313E+02  0.63553834273E+02  0.47000000000E+01 0. -1.
        -11    1    1    2    0    0  0.26429156862E+02 -0.34616674750E+02  0.78034976162E+01  0.44246006353E+02  0.00000000000E+00 0.  1.
         11    1    1    2    0    0 -0.25252375384E+02  0.36972489743E+02 -0.46370774036E+01  0.45012775377E+02  0.00000000000E+00 0. -1.
<mgrwt>
<rscale>  0 0.11489978E+03</rscale>
<asrwt>0</asrwt>
<pdfrwt beam="1">  1        1 0.17227236E-01 0.12501624E+03</pdfrwt>
<pdfrwt beam="2">  1       -1 0.15762958E-01 0.12501624E+03</pdfrwt>
<totfact> 0.86313906E+03</totfact>
</mgrwt>
</event>
<event>
 6    1  0.5818426E-006  0.2871816E+03  0.7546771E-02  0.1091830E+00
         -2   -1    0    0    0  501 -0.00000000000E+00  0.00000000000E+00  0.66075325968E+02  0.66075325968E+02  0.00000000000E+00 0.  1.
          2   -1    0    0  501    0  0.00000000000E+00 -0.00000000000E+00 -0.31204264392E+03  0.31204264392E+03  0.00000000000E+00 0. -1.
          5    1    1    2  502    0 -0.86144813266E+01 -0.33927274797E+02 -0.52122270111E+02  0.62961022111E+02  0.47000000000E+01 0. -1.
         -5    1    1    2    0  502 -0.56925697850E+02  0.86624418107E+02 -0.27043268548E+02  0.10722757697E+03  0.47000000000E+01 0. -1.
        -11    1    1    2    0    0  0.44032704371E+02  0.69766546258E+01 -0.12303740175E+03  0.13086540793E+03  0.00000000000E+00 0. -1.
         11    1    1    2    0    0  0.21507474806E+02 -0.59673797936E+02 -0.43764377540E+02  0.77063962876E+02  0.00000000000E+00 0.  1.
<mgrwt>
<rscale>  0 0.28718161E+03</rscale>
<asrwt>0</asrwt>
<pdfrwt beam="2">  1        2 0.48006559E-01 0.28718161E+03</pdfrwt>
<pdfrwt beam="1">  1       -2 0.10165435E-01 0.28718161E+03</pdfrwt>
<totfact> 0.67372325E+03</totfact>
</mgrwt>
</event>
<event>
 6    1  0.5818426E-006  0.1367876E+03  0.7546771E-02  0.1229287E+00
         -2   -1    0    0    0  501 -0.00000000000E+00  0.00000000000E+00  0.10441428045E+03  0.10441428045E+03  0.00000000000E+00 0. -1.
          2   -1    0    0  501    0  0.00000000000E+00 -0.00000000000E+00 -0.14282374029E+03  0.14282374029E+03  0.00000000000E+00 0.  1.
          5    1    1    2  502    0  0.13497526224E+02  0.38525517806E+02  0.12922146382E+02  0.43075173865E+02  0.47000000000E+01 0.  1.
         -5    1    1    2    0  502  0.12252713873E+02 -0.87749591450E+02 -0.35496900347E+02  0.95562752845E+02  0.47000000000E+01 0.  1.
        -11    1    1    2    0    0 -0.23022799072E+02  0.34012400338E+02  0.35934919853E+02  0.54572988912E+02  0.00000000000E+00 0. -1.
         11    1    1    2    0    0 -0.27274410251E+01  0.15211673306E+02 -0.51769625729E+02  0.54027105118E+02  0.00000000000E+00 0.  1.
<mgrwt>
<rscale>  0 0.12877338E+03</rscale>
<asrwt>0</asrwt>
<pdfrwt beam="2">  1        2 0.21972883E-01 0.13678763E+03</pdfrwt>
<pdfrwt beam="1">  1       -2 0.16063736E-01 0.13678763E+03</pdfrwt>
<totfact> 0.72089549E+03</totfact>
</mgrwt>
</event>
<event>
 6    1  0.5818426E-006  0.1677321E+03  0.7546771E-02  0.1186425E+00
         -1   -1    0    0    0  501 -0.00000000000E+00  0.00000000000E+00  0.66227750789E+02  0.66227750789E+02  0.00000000000E+00 0.  1.
          1   -1    0    0  501    0  0.00000000000E+00 -0.00000000000E+00 -0.37170205907E+03  0.37170205907E+03  0.00000000000E+00 0. -1.
          5    1    1    2  502    0 -0.59877331086E+02 -0.59527517730E+02 -0.35093047467E+02  0.91555623124E+02  0.47000000000E+01 0. -1.
         -5    1    1    2    0  502 -0.49919586875E+02  0.38217320544E+02 -0.12656620238E+03  0.14139880596E+03  0.47000000000E+01 0. -1.
        -11    1    1    2    0    0  0.65064954944E+02  0.21379437240E+02 -0.14485689297E+03  0.16023123335E+03  0.00000000000E+00 0. -1.
         11    1    1    2    0    0  0.44731963016E+02 -0.69240054874E-01  0.10418345381E+01  0.44744147424E+02  0.00000000000E+00 0.  1.
<mgrwt>
<rscale>  0 0.16202850E+03</rscale>
<asrwt>0</asrwt>
<pdfrwt beam="2">  1        1 0.57184932E-01 0.16773209E+03</pdfrwt>
<pdfrwt beam="1">  1       -1 0.10188885E-01 0.16773209E+03</pdfrwt>
<totfact> 0.38478499E+03</totfact>
</mgrwt>
</event>
<event>
 6    1  0.5818426E-006  0.1529781E+03  0.7546771E-02  0.1216984E+00
         -2   -1    0    0    0  501 -0.00000000000E+00  0.00000000000E+00  0.27738971381E+02  0.27738971381E+02  0.00000000000E+00 0.  1.
          2   -1    0    0  501    0  0.00000000000E+00 -0.00000000000E+00 -0.59082948250E+03  0.59082948250E+03  0.00000000000E+00 0. -1.
          5    1    1    2  502    0 -0.33596691575E+02 -0.56244772176E+02 -0.19098017526E+03  0.20195972228E+03  0.47000000000E+01 0. -1.
         -5    1    1    2    0  502  0.73767995643E+02  0.23238655536E+02 -0.97176245591E+02  0.12428622208E+03  0.47000000000E+01 0.  1.
        -11    1    1    2    0    0  0.23541849302E+02  0.41135979512E+01 -0.34876713464E+02  0.42279137867E+02  0.00000000000E+00 0. -1.
         11    1    1    2    0    0 -0.63713153370E+02  0.28892518689E+02 -0.24005737680E+03  0.25004337164E+03  0.00000000000E+00 0.  1.
<mgrwt>
<rscale>  0 0.13731781E+03</rscale>
<asrwt>0</asrwt>
<pdfrwt beam="2">  1        2 0.90896835E-01 0.15297808E+03</pdfrwt>
<pdfrwt beam="1">  1       -2 0.42675345E-02 0.15297808E+03</pdfrwt>
<totfact> 0.12283443E+04</totfact>
</mgrwt>
</event>
<event>
 6    1  0.5818426E-006  0.1379249E+03  0.7546771E-02  0.1225002E+00
          3   -1    0    0  501    0  0.00000000000E+00  0.00000000000E+00  0.24313418529E+03  0.24313418529E+03  0.00000000000E+00 0. -1.
         -3   -1    0    0    0  501 -0.00000000000E+00 -0.00000000000E+00 -0.66111319274E+02  0.66111319274E+02  0.00000000000E+00 0.  1.
          5    1    1    2  502    0  0.38919065337E+02 -0.59452954064E+02 -0.22612639000E+01  0.71249917250E+02  0.47000000000E+01 0. -1.
         -5    1    1    2    0  502  0.94129437547E+01  0.26836126393E+02  0.84616763384E+02  0.89391654171E+02  0.47000000000E+01 0. -1.
        -11    1    1    2    0    0 -0.69672703143E+02  0.34259338995E+02  0.34907211133E+02  0.85126384046E+02  0.00000000000E+00 0.  1.
         11    1    1    2    0    0  0.21340694051E+02 -0.16425113239E+01  0.59760155396E+02  0.63477549094E+02  0.00000000000E+00 0. -1.
<mgrwt>
<rscale>  0 0.13166758E+03</rscale>
<asrwt>0</asrwt>
<pdfrwt beam="1">  1        3 0.37405259E-01 0.13792493E+03</pdfrwt>
<pdfrwt beam="2">  1       -3 0.10170972E-01 0.13792493E+03</pdfrwt>
<totfact> 0.11711170E+03</totfact>
</mgrwt>
</event>
<event>
 6    1  0.5818426E-006  0.1300854E+03  0.7546771E-02  0.1241943E+00
         -2   -1    0    0    0  501 -0.00000000000E+00  0.00000000000E+00  0.54226107880E+02  0.54226107880E+02  0.00000000000E+00 0.  1.
          2   -1    0    0  501    0  0.00000000000E+00 -0.00000000000E+00 -0.27525489629E+03  0.27525489629E+03  0.00000000000E+00 0. -1.
          5    1    1    2  502    0 -0.11092304899E+02  0.46702282849E+02 -0.81881721004E+02  0.95030777572E+02  0.47000000000E+01 0. -1.
         -5    1    1    2    0  502  0.39094535634E+02 -0.24058729873E+02  0.18449724252E+02  0.49695950786E+02  0.47000000000E+01 0. -1.
        -11    1    1    2    0    0 -0.31510510662E+02 -0.55262817683E+02 -0.10423571851E+03  0.12211460319E+03  0.00000000000E+00 0.  1.
         11    1    1    2    0    0  0.35082799265E+01  0.32619264706E+02 -0.53361073155E+02  0.62639672623E+02  0.00000000000E+00 0. -1.
<mgrwt>
<rscale>  0 0.12070258E+03</rscale>
<asrwt>0</asrwt>
<pdfrwt beam="2">  1        2 0.42346906E-01 0.13008539E+03</pdfrwt>
<pdfrwt beam="1">  1       -2 0.83424783E-02 0.13008539E+03</pdfrwt>
<totfact> 0.10015357E+04</totfact>
</mgrwt>
</event>
<event>
 6    1  0.5818426E-006  0.1365466E+03  0.7546771E-02  0.1236638E+00
          2   -1    0    0  501    0  0.00000000000E+00  0.00000000000E+00  0.86731884284E+03  0.86731884284E+03  0.00000000000E+00 0. -1.
         -2   -1    0    0    0  501 -0.00000000000E+00 -0.00000000000E+00 -0.15849899560E+02  0.15849899560E+02  0.00000000000E+00 0.  1.
          5    1    1    2  502    0 -0.35646375577E+02  0.14834048011E+01  0.31906674734E+02  0.48093559591E+02  0.47000000000E+01 0. -1.
         -5    1    1    2    0  502  0.35127131805E+02 -0.56436584348E+02  0.38158684915E+03  0.38736238445E+03  0.47000000000E+01 0. -1.
        -11    1    1    2    0    0  0.23890861516E+02  0.62932263305E+02  0.34550677291E+03  0.35200308685E+03  0.00000000000E+00 0. -1.
         11    1    1    2    0    0 -0.23371617744E+02 -0.79790837577E+01  0.92468646489E+02  0.95709711508E+02  0.00000000000E+00 0.  1.
<mgrwt>
<rscale>  0 0.12400127E+03</rscale>
<asrwt>0</asrwt>
<pdfrwt beam="1">  1        2 0.13343363E+00 0.13654664E+03</pdfrwt>
<pdfrwt beam="2">  1       -2 0.24384468E-02 0.13654664E+03</pdfrwt>
<totfact> 0.17540966E+04</totfact>
</mgrwt>
</event>
<event>
 6    1  0.5818426E-006  0.1537366E+03  0.7546771E-02  0.1203459E+00
          1   -1    0    0  501    0  0.00000000000E+00  0.00000000000E+00  0.23458061211E+03  0.23458061211E+03  0.00000000000E+00 0. -1.
         -1   -1    0    0    0  501 -0.00000000000E+00 -0.00000000000E+00 -0.86266852108E+02  0.86266852108E+02  0.00000000000E+00 0.  1.
          5    1    1    2  502    0  0.50844287499E+02  0.21968688721E+02  0.88644910366E+02  0.10463161563E+03  0.47000000000E+01 0. -1.
         -5    1    1    2    0  502 -0.19153357149E+02  0.61730704214E+02 -0.13952002205E+02  0.66289360371E+02  0.47000000000E+01 0. -1.
        -11    1    1    2    0    0 -0.47521413501E+02 -0.21889393848E+01  0.27052575825E+02  0.54725844494E+02  0.00000000000E+00 0.  1.
         11    1    1    2    0    0  0.15830483150E+02 -0.81510453551E+02  0.46568276019E+02  0.95200643728E+02  0.00000000000E+00 0. -1.
<mgrwt>
<rscale>  0 0.14759572E+03</rscale>
<asrwt>0</asrwt>
<pdfrwt beam="1">  1        1 0.36089325E-01 0.15373662E+03</pdfrwt>
<pdfrwt beam="2">  1       -1 0.13271824E-01 0.15373662E+03</pdfrwt>
<totfact> 0.45188245E+03</totfact>
</mgrwt>
</event>
<event>
 6    1  0.5870160E-006  0.3230277E+03  0.7546771E-02  0.1075621E+00
         -2   -1    0    0    0  501 -0.00000000000E+00  0.00000000000E+00  0.11611322197E+03  0.11611322197E+03  0.00000000000E+00 0.  1.
          2   -1    0    0  501    0  0.00000000000E+00 -0.00000000000E+00 -0.90001722128E+03  0.90001722128E+03  0.00000000000E+00 0. -1.
          5    1    1    2  502    0  0.49076909507E+02 -0.14471751089E+03 -0.68701487723E+02  0.16761171027E+03  0.47000000000E+01 0. -1.
         -5    1    1    2    0  502  0.39266086447E+02 -0.13974120475E+03 -0.23204148189E+03  0.27374215819E+03  0.47000000000E+01 0. -1.
        -11    1    1    2    0    0 -0.85689840516E+02  0.12607212930E+03 -0.22100396998E+03  0.26847660103E+03  0.00000000000E+00 0.  1.
         11    1    1    2    0    0 -0.26531554382E+01  0.15838658634E+03 -0.26215705971E+03  0.30629997376E+03  0.00000000000E+00 0. -1.
<mgrwt>
<rscale>  0 0.32006154E+03</rscale>
<asrwt>0</asrwt>
<pdfrwt beam="2">  1        2 0.13846418E+00 0.32302771E+03</pdfrwt>
<pdfrwt beam="1">  1       -2 0.17863573E-01 0.32302771E+03</pdfrwt>
<totfact> 0.77559756E+02</totfact>
</mgrwt>
</event>
<event>
 6    1  0.5818426E-006  0.2119046E+03  0.7546771E-02  0.1143932E+00
         -1   -1    0    0    0  501 -0.00000000000E+00  0.00000000000E+00  0.29362055329E+03  0.29362055329E+03  0.00000000000E+00 0.  1.
          1   -1    0    0  501    0  0.00000000000E+00 -0.00000000000E+00 -0.25034318268E+03  0.25034318268E+03  0.00000000000E+00 0. -1.
          5    1    1    2  502    0 -0.54031070501E+02  0.90027634900E+02  0.31739667244E+02  0.10978992714E+03  0.47000000000E+01 0.  1.
         -5    1    1    2    0  502 -0.38005677925E+02  0.54221311479E+02  0.17119522670E+03  0.18361448150E+03  0.47000000000E+01 0.  1.
        -11    1    1    2    0    0  0.10413822215E+03 -0.12077218612E+03 -0.10817819614E+03  0.19269979858E+03  0.00000000000E+00 0. -1.
         11    1    1    2    0    0 -0.12101473728E+02 -0.23476760261E+02 -0.51479327193E+02  0.57859528748E+02  0.00000000000E+00 0.  1.
<mgrwt>
<rscale>  0 0.20703968E+03</rscale>
<asrwt>0</asrwt>
<pdfrwt beam="2">  1        1 0.38514336E-01 0.21190464E+03</pdfrwt>
<pdfrwt beam="1">  1       -1 0.45172393E-01 0.21190464E+03</pdfrwt>
<totfact> 0.54890093E+02</totfact>
</mgrwt>
</event>
<event>
 6    1  0.5818426E-006  0.2280534E+03  0.7546771E-02  0.1130863E+00
          1   -1    0    0  501    0  0.00000000000E+00  0.00000000000E+00  0.92705337599E+03  0.92705337599E+03  0.00000000000E+00 0. -1.
         -1   -1    0    0    0  501 -0.00000000000E+00 -0.00000000000E+00 -0.81418444461E+02  0.81418444461E+02  0.00000000000E+00 0.  1.
          5    1    1    2  502    0  0.10774863420E+03  0.63857036220E+02  0.20535162367E+02  0.12700894512E+03  0.47000000000E+01 0. -1.
         -5    1    1    2    0  502  0.22102397256E+02  0.75871755284E+02  0.11074687244E+03  0.13613228481E+03  0.47000000000E+01 0. -1.
        -11    1    1    2    0    0 -0.77935544137E+02 -0.86950015334E+02  0.58275325218E+03  0.59433627446E+03  0.00000000000E+00 0. -1.
         11    1    1    2    0    0 -0.51915487323E+02 -0.52778776170E+02  0.13159964455E+03  0.15099431606E+03  0.00000000000E+00 0.  1.
<mgrwt>
<rscale>  0 0.22409947E+03</rscale>
<asrwt>0</asrwt>
<pdfrwt beam="1">  1        1 0.14262359E+00 0.22805336E+03</pdfrwt>
<pdfrwt beam="2">  1       -1 0.12525915E-01 0.22805336E+03</pdfrwt>
<totfact> 0.78238113E+02</totfact>
</mgrwt>
</event>
<event>
 6    1  0.5818426E-006  0.1262794E+03  0.7546771E-02  0.1248726E+00
          1   -1    0    0  501    0  0.00000000000E+00  0.00000000000E+00  0.33869582083E+03  0.33869582083E+03  0.00000000000E+00 0. -1.
         -1   -1    0    0    0  501 -0.00000000000E+00 -0.00000000000E+00 -0.35441576385E+02  0.35441576385E+02  0.00000000000E+00 0.  1.
          5    1    1    2  502    0 -0.37212276791E+02  0.42171873560E+02  0.28654627437E+02  0.63296114707E+02  0.47000000000E+01 0.  1.
         -5    1    1    2    0  502  0.43475109485E+02 -0.25371378086E+02  0.12996462357E+03  0.13945137271E+03  0.47000000000E+01 0.  1.
        -11    1    1    2    0    0 -0.35927914391E+02  0.22118905184E+02  0.55634379033E+02  0.69822955605E+02  0.00000000000E+00 0. -1.
         11    1    1    2    0    0  0.29665081697E+02 -0.38919400658E+02  0.89000614415E+02  0.10156695420E+03  0.00000000000E+00 0.  1.
<mgrwt>
<rscale>  0 0.11665138E+03</rscale>
<asrwt>0</asrwt>
<pdfrwt beam="1">  1        1 0.52107047E-01 0.12627936E+03</pdfrwt>
<pdfrwt beam="2">  1       -1 0.54525504E-02 0.12627936E+03</pdfrwt>
<totfact> 0.10899589E+04</totfact>
</mgrwt>
</event>
<event>
 6    1  0.5818426E-006  0.1255337E+03  0.7546771E-02  0.1249704E+00
          1   -1    0    0  501    0  0.00000000000E+00  0.00000000000E+00  0.44702871514E+02  0.44702871514E+02  0.00000000000E+00 0.  1.
         -1   -1    0    0    0  501 -0.00000000000E+00 -0.00000000000E+00 -0.29085311458E+03  0.29085311458E+03  0.00000000000E+00 0. -1.
          5    1    1    2  502    0 -0.64404323237E+02  0.42079482209E+01 -0.13213027544E+03  0.14712621578E+03  0.47000000000E+01 0. -1.
         -5    1    1    2    0  502  0.54967170322E+02 -0.10838628112E+02 -0.58605234826E+02  0.81212863646E+02  0.47000000000E+01 0. -1.
        -11    1    1    2    0    0 -0.32861592637E+02  0.71289114911E+01  0.44452792092E+01  0.33918522328E+02  0.00000000000E+00 0.  1.
         11    1    1    2    0    0  0.42298745551E+02 -0.49823160015E+00 -0.59860012002E+02  0.73298384340E+02  0.00000000000E+00 0. -1.
<mgrwt>
<rscale>  0 0.11608184E+03</rscale>
<asrwt>0</asrwt>
<pdfrwt beam="1">  1        1 0.68773649E-02 0.12553366E+03</pdfrwt>
<pdfrwt beam="2">  1       -1 0.44746633E-01 0.12553366E+03</pdfrwt>
<totfact> 0.51156832E+03</totfact>
</mgrwt>
</event>
<event>
 6    1  0.5818426E-006  0.3360829E+03  0.7546771E-02  0.1068477E+00
         -2   -1    0    0    0  501 -0.00000000000E+00  0.00000000000E+00  0.79213585942E+03  0.79213585942E+03  0.00000000000E+00 0. -1.
          2   -1    0    0  501    0  0.00000000000E+00 -0.00000000000E+00 -0.35647845065E+02  0.35647845065E+02  0.00000000000E+00 0.  1.
          5    1    1    2  502    0 -0.13540022112E+02 -0.35915830189E+02  0.66948956553E+02  0.77314499549E+02  0.47000000000E+01 0.  1.
         -5    1    1    2    0  502  0.13499869735E+03  0.40930437475E+01  0.39232457504E+03  0.41494826602E+03  0.47000000000E+01 0.  1.
        -11    1    1    2    0    0 -0.49313898600E+02 -0.75847521494E+01  0.35593295450E+02  0.61288430730E+02  0.00000000000E+00 0.  1.
         11    1    1    2    0    0 -0.72144776642E+02  0.39407538591E+02  0.26162118731E+03  0.27423250819E+03  0.00000000000E+00 0. -1.
<mgrwt>
<rscale>  0 0.33608294E+03</rscale>
<asrwt>0</asrwt>
<pdfrwt beam="2">  1        2 0.54842844E-02 0.33608294E+03</pdfrwt>
<pdfrwt beam="1">  1       -2 0.12186704E+00 0.33608294E+03</pdfrwt>
<totfact> 0.74716982E+02</totfact>
</mgrwt>
</event>
<event>
 6    1  0.5818426E-006  0.1312932E+03  0.7546771E-02  0.1239080E+00
         -2   -1    0    0    0  501 -0.00000000000E+00  0.00000000000E+00  0.13069462761E+03  0.13069462761E+03  0.00000000000E+00 0.  1.
          2   -1    0    0  501    0  0.00000000000E+00 -0.00000000000E+00 -0.10300437681E+03  0.10300437681E+03  0.00000000000E+00 0. -1.
          5    1    1    2  502    0  0.27099240870E+01 -0.23634850790E+02  0.68685924818E+02  0.72840895989E+02  0.47000000000E+01 0.  1.
         -5    1    1    2    0  502  0.37309165944E+02  0.27008365740E+02 -0.40420989571E+02  0.61460329330E+02  0.47000000000E+01 0.  1.
        -11    1    1    2    0    0 -0.59670746155E+02 -0.10363258622E+02  0.25750684110E+02  0.65811038649E+02  0.00000000000E+00 0.  1.
         11    1    1    2    0    0  0.19651656123E+02  0.69897436709E+01 -0.26325368556E+02  0.33586740458E+02  0.00000000000E+00 0. -1.
<mgrwt>
<rscale>  0 0.12246842E+03</rscale>
<asrwt>0</asrwt>
<pdfrwt beam="2">  1        2 0.15846827E-01 0.13129323E+03</pdfrwt>
<pdfrwt beam="1">  1       -2 0.20106866E-01 0.13129323E+03</pdfrwt>
<totfact> 0.71729824E+03</totfact>
</mgrwt>
</event>
<event>
 6    1  0.5818426E-006  0.2039999E+03  0.7546771E-02  0.1154386E+00
          2   -1    0    0  501    0  0.00000000000E+00  0.00000000000E+00  0.41244339956E+03  0.41244339956E+03  0.00000000000E+00 0. -1.
         -2   -1    0    0    0  501 -0.00000000000E+00 -0.00000000000E+00 -0.10470893024E+03  0.10470893024E+03  0.00000000000E+00 0.  1.
          5    1    1    2  502    0  0.12476294712E+02 -0.15326102790E+03  0.85021975570E+02  0.17577095019E+03  0.47000000000E+01 0. -1.
         -5    1    1    2    0  502  0.47636933680E+01 -0.70363388571E+01 -0.33297244478E+02  0.34684280717E+02  0.47000000000E+01 0. -1.
        -11    1    1    2    0    0  0.45181674324E-01  0.21177240432E+02  0.97149582810E+01  0.23299312610E+02  0.00000000000E+00 0. -1.
         11    1    1    2    0    0 -0.17285169754E+02  0.13912012632E+03  0.24629477995E+03  0.28339778629E+03  0.00000000000E+00 0.  1.
<mgrwt>
<rscale>  0 0.19458985E+03</rscale>
<asrwt>0</asrwt>
<pdfrwt beam="1">  1        2 0.63452830E-01 0.20399989E+03</pdfrwt>
<pdfrwt beam="2">  1       -2 0.16109066E-01 0.20399989E+03</pdfrwt>
<totfact> 0.23206782E+03</totfact>
</mgrwt>
</event>
<event>
 6    1  0.5818426E-006  0.1357358E+03  0.7546771E-02  0.1231079E+00
          3   -1    0    0  501    0  0.00000000000E+00  0.00000000000E+00  0.96791916785E+02  0.96791916785E+02  0.00000000000E+00 0. -1.
         -3   -1    0    0    0  501 -0.00000000000E+00 -0.00000000000E+00 -0.15587938273E+03  0.15587938273E+03  0.00000000000E+00 0.  1.
          5    1    1    2  502    0 -0.22820266299E+02  0.10394224481E+02 -0.87046124799E+02  0.90707895462E+02  0.47000000000E+01 0. -1.
         -5    1    1    2    0  502 -0.20050597704E+02 -0.41355107596E+02  0.31539708759E+02  0.55938489621E+02  0.47000000000E+01 0. -1.
        -11    1    1    2    0    0  0.17655492297E+02  0.44855898626E+02 -0.37833994187E+02  0.61279516692E+02  0.00000000000E+00 0.  1.
         11    1    1    2    0    0  0.25215371706E+02 -0.13895015512E+02  0.34252944286E+02  0.44745397736E+02  0.00000000000E+00 0. -1.
<mgrwt>
<rscale>  0 0.12758827E+03</rscale>
<asrwt>0</asrwt>
<pdfrwt beam="1">  1        3 0.14891064E-01 0.13573577E+03</pdfrwt>
<pdfrwt beam="2">  1       -3 0.23981443E-01 0.13573577E+03</pdfrwt>
<totfact> 0.14004479E+03</totfact>
</mgrwt>
</event>
<event>
 6    1  0.5818426E-006  0.2967032E+03  0.7546771E-02  0.1086900E+00
         -2   -1    0    0    0  501 -0.00000000000E+00  0.00000000000E+00  0.31652537914E+02  0.31652537914E+02  0.00000000000E+00 0.  1.
          2   -1    0    0  501    0  0.00000000000E+00 -0.00000000000E+00 -0.69530572343E+03  0.69530572343E+03  0.00000000000E+00 0. -1.
          5    1    1    2  502    0 -0.17299291648E+02  0.29634282150E+02 -0.10532832255E+03  0.11087651555E+03  0.47000000000E+01 0. -1.
         -5    1    1    2    0  502 -0.29081870259E+02 -0.11299665705E+03 -0.17122763384E+03  0.20725586186E+03  0.47000000000E+01 0. -1.
        -11    1    1    2    0    0  0.30985600101E+02  0.27270964475E+02 -0.42099331694E+02  0.58959025145E+02  0.00000000000E+00 0.  1.
         11    1    1    2    0    0  0.15395561806E+02  0.56091410428E+02 -0.34499789743E+03  0.34986685879E+03  0.00000000000E+00 0. -1.
<mgrwt>
<rscale>  0 0.29670316E+03</rscale>
<asrwt>0</asrwt>
<pdfrwt beam="2">  1        2 0.10697011E+00 0.29670316E+03</pdfrwt>
<pdfrwt beam="1">  1       -2 0.48696211E-02 0.29670316E+03</pdfrwt>
<totfact> 0.86158385E+03</totfact>
</mgrwt>
</event>
<event>
 6    1  0.5818426E-006  0.1364193E+03  0.7546771E-02  0.1230441E+00
         -1   -1    0    0    0  501 -0.00000000000E+00  0.00000000000E+00  0.93982466851E+03  0.93982466851E+03  0.00000000000E+00 0.  1.
          1   -1    0    0  501    0  0.00000000000E+00 -0.00000000000E+00 -0.16148467056E+02  0.16148467056E+02  0.00000000000E+00 0. -1.
          5    1    1    2  502    0  0.40905056348E+02 -0.92492935846E+01  0.25703719276E+03  0.26047837055E+03  0.47000000000E+01 0.  1.
         -5    1    1    2    0  502 -0.74581189750E+02  0.52279879592E+02  0.34856407238E+03  0.36029785210E+03  0.47000000000E+01 0.  1.
        -11    1    1    2    0    0  0.59689906590E+02 -0.14851152844E+02  0.24577565876E+03  0.25335571067E+03  0.00000000000E+00 0. -1.
         11    1    1    2    0    0 -0.26013773188E+02 -0.28179433163E+02  0.72299277547E+02  0.81841202232E+02  0.00000000000E+00 0.  1.
<mgrwt>
<rscale>  0 0.12800822E+03</rscale>
<asrwt>0</asrwt>
<pdfrwt beam="2">  1        1 0.24843803E-02 0.13641930E+03</pdfrwt>
<pdfrwt beam="1">  1       -1 0.14458837E+00 0.13641930E+03</pdfrwt>
<totfact> 0.17990588E+03</totfact>
</mgrwt>
</event>
<event>
 6    1  0.5818426E-006  0.1344021E+03  0.7546771E-02  0.1234576E+00
          3   -1    0    0  501    0  0.00000000000E+00  0.00000000000E+00  0.11892016296E+03  0.11892016296E+03  0.00000000000E+00 0. -1.
         -3   -1    0    0    0  501 -0.00000000000E+00 -0.00000000000E+00 -0.11898076701E+03  0.11898076701E+03  0.00000000000E+00 0.  1.
          5    1    1    2  502    0 -0.75492712702E+02  0.10099501545E+02 -0.25157124419E+02  0.80349987627E+02  0.47000000000E+01 0.  1.
         -5    1    1    2    0  502  0.28191249705E+02 -0.24288266753E+02  0.40056969413E+02  0.54875470479E+02  0.47000000000E+01 0.  1.
        -11    1    1    2    0    0  0.23521677009E+02  0.34322363808E+02  0.27598613632E+02  0.49929724825E+02  0.00000000000E+00 0.  1.
         11    1    1    2    0    0  0.23779785989E+02 -0.20133598600E+02 -0.42559062685E+02  0.52745747040E+02  0.00000000000E+00 0. -1.
<mgrwt>
<rscale>  0 0.12531592E+03</rscale>
<asrwt>0</asrwt>
<pdfrwt beam="1">  1        3 0.18295410E-01 0.13440208E+03</pdfrwt>
<pdfrwt beam="2">  1       -3 0.18304733E-01 0.13440208E+03</pdfrwt>
<totfact> 0.15808884E+03</totfact>
</mgrwt>
</event>
<event>
 6    1  0.5818426E-006  0.1373470E+03  0.7546771E-02  0.1228488E+00
          1   -1    0    0  501    0  0.00000000000E+00  0.00000000000E+00  0.49951791366E+03  0.49951791366E+03  0.00000000000E+00 0. -1.
         -1   -1    0    0    0  501 -0.00000000000E+00 -0.00000000000E+00 -0.30377999724E+02  0.30377999724E+02  0.00000000000E+00 0.  1.
          5    1    1    2  502    0 -0.29169766818E+02 -0.39410716548E+02  0.87003361016E+02  0.99978771262E+02  0.47000000000E+01 0. -1.
         -5    1    1    2    0  502  0.84269088043E+02  0.25184201696E+02  0.15041295203E+03  0.17430338308E+03  0.47000000000E+01 0. -1.
        -11    1    1    2    0    0 -0.73352408964E+02  0.28930982466E+02  0.13736852681E+03  0.15839093978E+03  0.00000000000E+00 0.  1.
         11    1    1    2    0    0  0.18253087739E+02 -0.14704467614E+02  0.94355074081E+02  0.97222819259E+02  0.00000000000E+00 0. -1.
<mgrwt>
<rscale>  0 0.12930653E+03</rscale>
<asrwt>0</asrwt>
<pdfrwt beam="1">  1        1 0.76848904E-01 0.13734699E+03</pdfrwt>
<pdfrwt beam="2">  1       -1 0.46735388E-02 0.13734699E+03</pdfrwt>
<totfact> 0.84196050E+03</totfact>
</mgrwt>
</event>
<event>
 6    1  0.5818426E-006  0.1312461E+03  0.7546771E-02  0.1238995E+00
          1   -1    0    0  501    0  0.00000000000E+00  0.00000000000E+00  0.21358343486E+03  0.21358343486E+03  0.00000000000E+00 0. -1.
         -1   -1    0    0    0  501 -0.00000000000E+00 -0.00000000000E+00 -0.64901460131E+02  0.64901460131E+02  0.00000000000E+00 0.  1.
          5    1    1    2  502    0 -0.27947802169E+02 -0.59848273158E+02  0.60863759125E+02  0.89940995218E+02  0.47000000000E+01 0.  1.
         -5    1    1    2    0  502  0.46795024954E+02  0.24569547227E+02 -0.37493861751E+01  0.53193842765E+02  0.47000000000E+01 0.  1.
        -11    1    1    2    0    0 -0.11299348551E+02 -0.21102119747E+02  0.70893870636E+02  0.74825902128E+02  0.00000000000E+00 0. -1.
         11    1    1    2    0    0 -0.75478742339E+01  0.56380845678E+02  0.20673731146E+02  0.60524154883E+02  0.00000000000E+00 0.  1.
<mgrwt>
<rscale>  0 0.12252107E+03</rscale>
<asrwt>0</asrwt>
<pdfrwt beam="1">  1        1 0.32858990E-01 0.13124607E+03</pdfrwt>
<pdfrwt beam="2">  1       -1 0.99848401E-02 0.13124607E+03</pdfrwt>
<totfact> 0.77925715E+03</totfact>
</mgrwt>
</event>
<event>
 6    1  0.5818426E-006  0.1337940E+03  0.7546771E-02  0.1234601E+00
         -2   -1    0    0    0  501 -0.00000000000E+00  0.00000000000E+00  0.13558027803E+03  0.13558027803E+03  0.00000000000E+00 0. -1.
          2   -1    0    0  501    0  0.00000000000E+00 -0.00000000000E+00 -0.13528815297E+03  0.13528815297E+03  0.00000000000E+00 0.  1.
          5    1    1    2  502    0  0.61762735669E+02  0.51532111316E+02  0.34377837141E+02  0.87602053061E+02  0.47000000000E+01 0. -1.
         -5    1    1    2    0  502 -0.52459234705E+02 -0.47357932680E+01  0.31187126242E+02  0.61393207172E+02  0.47000000000E+01 0. -1.
        -11    1    1    2    0    0 -0.26841203846E+01  0.25563198214E+02 -0.24523903532E+01  0.25820453591E+02  0.00000000000E+00 0. -1.
         11    1    1    2    0    0 -0.66193805800E+01 -0.72359516262E+02 -0.62820447975E+02  0.96052717175E+02  0.00000000000E+00 0.  1.
<mgrwt>
<rscale>  0 0.12530036E+03</rscale>
<asrwt>0</asrwt>
<pdfrwt beam="2">  1        2 0.20813562E-01 0.13379396E+03</pdfrwt>
<pdfrwt beam="1">  1       -2 0.20858504E-01 0.13379396E+03</pdfrwt>
<totfact> 0.49415686E+03</totfact>
</mgrwt>
</event>
<event>
 6    1  0.5818426E-006  0.1263201E+03  0.7546771E-02  0.1248168E+00
          1   -1    0    0  501    0  0.00000000000E+00  0.00000000000E+00  0.23807289793E+03  0.23807289793E+03  0.00000000000E+00 0. -1.
         -1   -1    0    0    0  501 -0.00000000000E+00 -0.00000000000E+00 -0.51077291263E+02  0.51077291263E+02  0.00000000000E+00 0.  1.
          5    1    1    2  502    0  0.81889135609E+00  0.36311084855E+02 -0.20686404203E+02  0.42061654571E+02  0.47000000000E+01 0. -1.
         -5    1    1    2    0  502 -0.82651403405E+00 -0.18205137046E+02  0.11259228282E+03  0.11415437920E+03  0.47000000000E+01 0. -1.
        -11    1    1    2    0    0  0.35937698276E+02  0.14765857335E+02  0.20702955956E+02  0.44024550941E+02  0.00000000000E+00 0.  1.
         11    1    1    2    0    0 -0.35930075598E+02 -0.32871805145E+02  0.74386772089E+02  0.88909604474E+02  0.00000000000E+00 0. -1.
<mgrwt>
<rscale>  0 0.11697742E+03</rscale>
<asrwt>0</asrwt>
<pdfrwt beam="1">  1        1 0.36626599E-01 0.12632006E+03</pdfrwt>
<pdfrwt beam="2">  1       -1 0.78580449E-02 0.12632006E+03</pdfrwt>
<totfact> 0.97642343E+03</totfact>
</mgrwt>
</event>
<event>
 6    1  0.5818426E-006  0.1410729E+03  0.7546771E-02  0.1225563E+00
         -2   -1    0    0    0  501 -0.00000000000E+00  0.00000000000E+00  0.12780213279E+03  0.12780213279E+03  0.00000000000E+00 0. -1.
          2   -1    0    0  501    0  0.00000000000E+00 -0.00000000000E+00 -0.12580806577E+03  0.12580806577E+03  0.00000000000E+00 0.  1.
          5    1    1    2  502    0 -0.10352876359E+02  0.41913534013E+02  0.77687189826E+02  0.89001774395E+02  0.47000000000E+01 0.  1.
         -5    1    1    2    0  502 -0.23071710525E+02  0.14284078825E+02 -0.47833911891E+02  0.55195215927E+02  0.47000000000E+01 0.  1.
        -11    1    1    2    0    0  0.47513619922E+01 -0.19726880451E+02 -0.52925551010E+02  0.56681912483E+02  0.00000000000E+00 0.  1.
         11    1    1    2    0    0  0.28673224892E+02 -0.36470732388E+02  0.25066340093E+02  0.52731295758E+02  0.00000000000E+00 0. -1.
<mgrwt>
<rscale>  0 0.13128381E+03</rscale>
<asrwt>0</asrwt>
<pdfrwt beam="2">  1        2 0.19355087E-01 0.14107287E+03</pdfrwt>
<pdfrwt beam="1">  1       -2 0.19661867E-01 0.14107287E+03</pdfrwt>
<totfact> 0.59500951E+03</totfact>
</mgrwt>
</event>
<event>
 6    1  0.5818426E-006  0.1257500E+03  0.7546771E-02  0.1253469E+00
         -2   -1    0    0    0  501 -0.00000000000E+00  0.00000000000E+00  0.21484522475E+03  0.21484522475E+03  0.00000000000E+00 0.  1.
          2   -1    0    0  501    0  0.00000000000E+00 -0.00000000000E+00 -0.52037367756E+02  0.52037367756E+02  0.00000000000E+00 0. -1.
          5    1    1    2  502    0 -0.18087805838E+02 -0.52136725968E+02  0.72948362624E+02  0.91591268821E+02  0.47000000000E+01 0.  1.
         -5    1    1    2    0  502  0.12059941642E+02  0.64452360828E+02  0.36938037482E+02  0.75405952164E+02  0.47000000000E+01 0.  1.
        -11    1    1    2    0    0  0.29899903350E+02 -0.13639665165E+02 -0.85246798019E+01  0.33951654626E+02  0.00000000000E+00 0. -1.
         11    1    1    2    0    0 -0.23872039154E+02  0.13240303054E+01  0.61446136690E+02  0.65933716896E+02  0.00000000000E+00 0.  1.
<mgrwt>
<rscale>  0 0.11392506E+03</rscale>
<asrwt>0</asrwt>
<pdfrwt beam="2">  1        2 0.80057490E-02 0.12574995E+03</pdfrwt>
<pdfrwt beam="1">  1       -2 0.33053111E-01 0.12574995E+03</pdfrwt>
<totfact> 0.68192965E+03</totfact>
</mgrwt>
</event>
<event>
 6    1  0.5818426E-006  0.1271277E+03  0.7546771E-02  0.1246351E+00
          1   -1    0    0  501    0  0.00000000000E+00  0.00000000000E+00  0.36747663788E+03  0.36747663788E+03  0.00000000000E+00 0. -1.
         -1   -1    0    0    0  501 -0.00000000000E+00 -0.00000000000E+00 -0.43955901635E+02  0.43955901635E+02  0.00000000000E+00 0.  1.
          5    1    1    2  502    0 -0.51674763586E+02  0.29196839985E+02  0.93860435894E+02  0.11115128467E+03  0.47000000000E+01 0. -1.
         -5    1    1    2    0  502  0.31610459284E+02 -0.17624392522E+02 -0.13876652283E+02  0.39044741342E+02  0.47000000000E+01 0. -1.
        -11    1    1    2    0    0  0.49866086819E+02 -0.18161101296E+02  0.88247666024E+02  0.10297622431E+03  0.00000000000E+00 0.  1.
         11    1    1    2    0    0 -0.29801782517E+02  0.65886538320E+01  0.15528928661E+03  0.15826028920E+03  0.00000000000E+00 0. -1.
<mgrwt>
<rscale>  0 0.11804902E+03</rscale>
<asrwt>0</asrwt>
<pdfrwt beam="1">  1        1 0.56534865E-01 0.12712765E+03</pdfrwt>
<pdfrwt beam="2">  1       -1 0.67624467E-02 0.12712765E+03</pdfrwt>
<totfact> 0.71517146E+03</totfact>
</mgrwt>
</event>
<event>
 6    1  0.5818426E-006  0.1177222E+03  0.7546771E-02  0.1258891E+00
          1   -1    0    0  501    0  0.00000000000E+00  0.00000000000E+00  0.61217459502E+03  0.61217459502E+03  0.00000000000E+00 0. -1.
         -1   -1    0    0    0  501 -0.00000000000E+00 -0.00000000000E+00 -0.39435280152E+02  0.39435280152E+02  0.00000000000E+00 0.  1.
          5    1    1    2  502    0  0.34547806276E+01 -0.54417646404E+02  0.21844220428E+02  0.58927716021E+02  0.47000000000E+01 0. -1.
         -5    1    1    2    0  502  0.21187379542E+02  0.58298507464E+02  0.41193917601E+02  0.74609985068E+02  0.47000000000E+01 0.  1.
        -11    1    1    2    0    0 -0.53455609700E+02 -0.22980348185E+02  0.31916640917E+03  0.32442687212E+03  0.00000000000E+00 0. -1.
         11    1    1    2    0    0  0.28813449531E+02  0.19099487124E+02  0.19053476766E+03  0.19364530196E+03  0.00000000000E+00 0.  1.
<mgrwt>
<rscale>  0 0.11091187E+03</rscale>
<asrwt>0</asrwt>
<pdfrwt beam="1">  1        1 0.94180700E-01 0.11772218E+03</pdfrwt>
<pdfrwt beam="2">  1       -1 0.60669666E-02 0.11772218E+03</pdfrwt>
<totfact> 0.43269364E+03</totfact>
</mgrwt>
</event>
<event>
 6    1  0.5818426E-006  0.2605410E+03  0.7546771E-02  0.1106819E+00
          2   -1    0    0  501    0  0.00000000000E+00  0.00000000000E+00  0.55650111847E+03  0.55650111847E+03  0.00000000000E+00 0. -1.
         -2   -1    0    0    0  501 -0.00000000000E+00 -0.00000000000E+00 -0.30494833061E+02  0.30494833061E+02  0.00000000000E+00 0.  1.
          5    1    1    2  502    0  0.16609505979E+02 -0.23232049107E+02  0.17957508547E+03  0.18189256476E+03  0.47000000000E+01 0. -1.
         -5    1    1    2    0  502 -0.13036897375E+02  0.87049134360E+02  0.91582258723E+02  0.12710984462E+03  0.47000000000E+01 0.  1.
        -11    1    1    2    0    0 -0.32944643413E+02 -0.38652901435E+02  0.22047420561E+03  0.22624825227E+03  0.00000000000E+00 0.  1.
         11    1    1    2    0    0  0.29372034809E+02 -0.25164183818E+02  0.34374735606E+02  0.51745289873E+02  0.00000000000E+00 0. -1.
<mgrwt>
<rscale>  0 0.26054104E+03</rscale>
<asrwt>0</asrwt>
<pdfrwt beam="1">  1        2 0.85615550E-01 0.26054104E+03</pdfrwt>
<pdfrwt beam="2">  1       -2 0.46915132E-02 0.26054104E+03</pdfrwt>
<totfact> 0.11786198E+04</totfact>
</mgrwt>
</event>
<event>
 6    1  0.5818426E-006  0.1636859E+03  0.7546771E-02  0.1191996E+00
         -2   -1    0    0    0  501 -0.00000000000E+00  0.00000000000E+00  0.20314848888E+03  0.20314848888E+03  0.00000000000E+00 0.  1.
          2   -1    0    0  501    0  0.00000000000E+00 -0.00000000000E+00 -0.12239714705E+03  0.12239714705E+03  0.00000000000E+00 0. -1.
          5    1    1    2  502    0 -0.10509563241E+02  0.21851880737E+02  0.54791376528E+02  0.60101086122E+02  0.47000000000E+01 0. -1.
         -5    1    1    2    0  502  0.23855739387E+02  0.82986116311E+02 -0.57054162666E+02  0.10360047915E+03  0.47000000000E+01 0. -1.
        -11    1    1    2    0    0 -0.23274022912E+02 -0.11575073659E+03  0.55144525736E+02  0.13031052099E+03  0.00000000000E+00 0. -1.
         11    1    1    2    0    0  0.99278467658E+01  0.10912739540E+02  0.27869602239E+02  0.31533549667E+02  0.00000000000E+00 0.  1.
<mgrwt>
<rscale>  0 0.15711196E+03</rscale>
<asrwt>0</asrwt>
<pdfrwt beam="2">  1        2 0.18830330E-01 0.16368593E+03</pdfrwt>
<pdfrwt beam="1">  1       -2 0.31253614E-01 0.16368593E+03</pdfrwt>
<totfact> 0.27515601E+03</totfact>
</mgrwt>
</event>
<event>
 6    1  0.5818426E-006  0.2268596E+03  0.7546771E-02  0.1131942E+00
          1   -1    0    0  501    0  0.00000000000E+00  0.00000000000E+00  0.27265602776E+03  0.27265602776E+03  0.00000000000E+00 0. -1.
         -1   -1    0    0    0  501 -0.00000000000E+00 -0.00000000000E+00 -0.24342433534E+03  0.24342433534E+03  0.00000000000E+00 0.  1.
          5    1    1    2  502    0 -0.10028319375E+03  0.43215845507E+01 -0.12423721941E+03  0.15978852189E+03  0.47000000000E+01 0. -1.
         -5    1    1    2    0  502 -0.78723659710E+02  0.57303388645E+02  0.28088523386E+01  0.97524728145E+02  0.47000000000E+01 0. -1.
        -11    1    1    2    0    0  0.16690063773E+03 -0.22349711502E+02  0.11121578323E+03  0.20180258403E+03  0.00000000000E+00 0.  1.
         11    1    1    2    0    0  0.12106215725E+02 -0.39275261694E+02  0.39444276258E+02  0.56964529049E+02  0.00000000000E+00 0. -1.
<mgrwt>
<rscale>  0 0.22262383E+03</rscale>
<asrwt>0</asrwt>
<pdfrwt beam="1">  1        1 0.41947081E-01 0.22685956E+03</pdfrwt>
<pdfrwt beam="2">  1       -1 0.37449898E-01 0.22685956E+03</pdfrwt>
<totfact> 0.68880876E+02</totfact>
</mgrwt>
</event>
<event>
 6    1  0.5818426E-006  0.1311525E+03  0.7546771E-02  0.1240757E+00
          1   -1    0    0  501    0  0.00000000000E+00  0.00000000000E+00  0.30633771362E+03  0.30633771362E+03  0.00000000000E+00 0.  1.
         -1   -1    0    0    0  501 -0.00000000000E+00 -0.00000000000E+00 -0.46807487500E+02  0.46807487500E+02  0.00000000000E+00 0. -1.
          5    1    1    2  502    0  0.11723242673E+02  0.52043699336E+02  0.10352932239E+02  0.54545891370E+02  0.47000000000E+01 0. -1.
         -5    1    1    2    0  502 -0.50392494687E+02 -0.43442951502E+02  0.82793568527E+02  0.10631819480E+03  0.47000000000E+01 0. -1.
        -11    1    1    2    0    0 -0.98025745287E+01 -0.25563726380E+02  0.11998987479E+03  0.12307381780E+03  0.00000000000E+00 0.  1.
         11    1    1    2    0    0  0.48471826542E+02  0.16962978545E+02  0.46393850556E+02  0.69207297150E+02  0.00000000000E+00 0. -1.
<mgrwt>
<rscale>  0 0.12142988E+03</rscale>
<asrwt>0</asrwt>
<pdfrwt beam="1">  1        1 0.47128878E-01 0.13115252E+03</pdfrwt>
<pdfrwt beam="2">  1       -1 0.72011521E-02 0.13115252E+03</pdfrwt>
<totfact> 0.81785108E+03</totfact>
</mgrwt>
</event>
<event>
 6    1  0.5818426E-006  0.8947321E+03  0.7546771E-02  0.9432191E-01
         -2   -1    0    0    0  501 -0.00000000000E+00  0.00000000000E+00  0.47158151991E+03  0.47158151991E+03  0.00000000000E+00 0.  1.
          2   -1    0    0  501    0  0.00000000000E+00 -0.00000000000E+00 -0.42439406407E+03  0.42439406407E+03  0.00000000000E+00 0. -1.
          5    1    1    2  502    0 -0.21391488048E+03 -0.53040459996E+02  0.57211313224E+02  0.22774567141E+03  0.47000000000E+01 0. -1.
         -5    1    1    2    0  502 -0.39511505726E+02 -0.19989871478E+02  0.18481607792E+03  0.19010477823E+03  0.47000000000E+01 0.  1.
        -11    1    1    2    0    0 -0.61005740906E+02  0.75664634948E+02  0.17422837689E+02  0.98744076675E+02  0.00000000000E+00 0.  1.
         11    1    1    2    0    0  0.31443212711E+03 -0.26343034752E+01 -0.21226277300E+03  0.37938105766E+03  0.00000000000E+00 0. -1.
<mgrwt>
<rscale>  0 0.89473213E+03</rscale>
<asrwt>0</asrwt>
<pdfrwt beam="2">  1        2 0.65291395E-01 0.89473213E+03</pdfrwt>
<pdfrwt beam="1">  1       -2 0.72551003E-01 0.89473213E+03</pdfrwt>
<totfact> 0.12832550E+02</totfact>
</mgrwt>
</event>
<event>
 6    1  0.5818426E-006  0.4138177E+03  0.7546771E-02  0.1039097E+00
          1   -1    0    0  501    0  0.00000000000E+00  0.00000000000E+00  0.44549066057E+03  0.44549066057E+03  0.00000000000E+00 0. -1.
         -1   -1    0    0    0  501 -0.00000000000E+00 -0.00000000000E+00 -0.96099161369E+02  0.96099161369E+02  0.00000000000E+00 0.  1.
          5    1    1    2  502    0  0.60552113170E+01 -0.19151272434E+02  0.24525271341E+02  0.32047086518E+02  0.47000000000E+01 0.  1.
         -5    1    1    2    0  502 -0.92250319573E+02  0.13460981846E+03  0.26338441021E+02  0.16536543824E+03  0.47000000000E+01 0.  1.
        -11    1    1    2    0    0  0.58024812692E+02 -0.80852620253E+02  0.10145796928E+03  0.14211876941E+03  0.00000000000E+00 0.  1.
         11    1    1    2    0    0  0.28170295564E+02 -0.34605925776E+02  0.19706981756E+03  0.20205852777E+03  0.00000000000E+00 0. -1.
<mgrwt>
<rscale>  0 0.41381773E+03</rscale>
<asrwt>0</asrwt>
<pdfrwt beam="1">  1        1 0.68537023E-01 0.41381773E+03</pdfrwt>
<pdfrwt beam="2">  1       -1 0.14784487E-01 0.41381773E+03</pdfrwt>
<totfact> 0.17390172E+03</totfact>
</mgrwt>
</event>
<event>
 6    1  0.5818426E-006  0.2367444E+03  0.7546771E-02  0.1121981E+00
          1   -1    0    0  501    0  0.00000000000E+00  0.00000000000E+00  0.26137200851E+03  0.26137200851E+03  0.00000000000E+00 0. -1.
         -1   -1    0    0    0  501 -0.00000000000E+00 -0.00000000000E+00 -0.53609328507E+02  0.53609328507E+02  0.00000000000E+00 0.  1.
          5    1    1    2  502    0  0.25705914427E+02 -0.67479378254E+01  0.86521857101E+02  0.90633605565E+02  0.47000000000E+01 0.  1.
         -5    1    1    2    0  502 -0.71117987090E+02  0.10917029449E+02  0.79229561493E+01  0.72538354364E+02  0.47000000000E+01 0.  1.
        -11    1    1    2    0    0  0.35840592850E+02  0.40878550398E+02  0.53048350850E+02  0.75958748715E+02  0.00000000000E+00 0. -1.
         11    1    1    2    0    0  0.95714798124E+01 -0.45047642022E+02  0.60269515907E+02  0.75850628377E+02  0.00000000000E+00 0.  1.
<mgrwt>
<rscale>  0 0.23674440E+03</rscale>
<asrwt>0</asrwt>
<pdfrwt beam="1">  1        1 0.40211077E-01 0.23674440E+03</pdfrwt>
<pdfrwt beam="2">  1       -1 0.82475892E-02 0.23674440E+03</pdfrwt>
<totfact> 0.84306284E+03</totfact>
</mgrwt>
</event>
<event>
 6    1  0.5818426E-006  0.1985223E+03  0.7546771E-02  0.1155454E+00
         -1   -1    0    0    0  501 -0.00000000000E+00  0.00000000000E+00  0.99882615797E+03  0.99882615797E+03  0.00000000000E+00 0.  1.
          1   -1    0    0  501    0  0.00000000000E+00 -0.00000000000E+00 -0.36060961909E+02  0.36060961909E+02  0.00000000000E+00 0. -1.
          5    1    1    2  502    0  0.11185180734E+03 -0.40767012790E+02  0.49408689584E+03  0.50824868596E+03  0.47000000000E+01 0.  1.
         -5    1    1    2    0  502  0.89346894917E+01 -0.55131593391E+02  0.69521407681E+02  0.89300825260E+02  0.47000000000E+01 0.  1.
        -11    1    1    2    0    0 -0.66853597490E+02  0.12846203700E+02  0.24361009861E+03  0.25294329126E+03  0.00000000000E+00 0.  1.
         11    1    1    2    0    0 -0.53932899341E+02  0.83052402482E+02  0.15554679393E+03  0.18439431741E+03  0.00000000000E+00 0. -1.
<mgrwt>
<rscale>  0 0.19337278E+03</rscale>
<asrwt>0</asrwt>
<pdfrwt beam="2">  1        1 0.55478411E-02 0.19852229E+03</pdfrwt>
<pdfrwt beam="1">  1       -1 0.15366554E+00 0.19852229E+03</pdfrwt>
<totfact> 0.51009453E+02</totfact>
</mgrwt>
</event>
<event>
 6    1  0.5818426E-006  0.2184956E+03  0.7546771E-02  0.1137870E+00
         -2   -1    0    0    0  501 -0.00000000000E+00  0.00000000000E+00  0.58875034443E+02  0.58875034443E+02  0.00000000000E+00 0.  1.
          2   -1    0    0  501    0  0.00000000000E+00 -0.00000000000E+00 -0.78471716661E+03  0.78471716661E+03  0.00000000000E+00 0. -1.
          5    1    1    2  502    0 -0.12872717495E+03  0.64595303526E+02 -0.20339168748E+03  0.24926593699E+03  0.47000000000E+01 0.  1.
         -5    1    1    2    0  502 -0.50187059741E+02 -0.54416550294E+02 -0.93027392256E+02  0.11897935796E+03  0.47000000000E+01 0.  1.
        -11    1    1    2    0    0  0.12468407124E+03 -0.42662183569E+02 -0.34901522593E+03  0.37306541981E+03  0.00000000000E+00 0. -1.
         11    1    1    2    0    0  0.54230163450E+02  0.32483430337E+02 -0.80407826501E+02  0.10228148629E+03  0.00000000000E+00 0.  1.
<mgrwt>
<rscale>  0 0.21473562E+03</rscale>
<asrwt>0</asrwt>
<pdfrwt beam="2">  1        2 0.12072571E+00 0.21849560E+03</pdfrwt>
<pdfrwt beam="1">  1       -2 0.90576980E-02 0.21849560E+03</pdfrwt>
<totfact> 0.28074199E+03</totfact>
</mgrwt>
</event>
<event>
 6    1  0.5818426E-006  0.1285359E+03  0.7546771E-02  0.1245067E+00
         -1   -1    0    0    0  501 -0.00000000000E+00  0.00000000000E+00  0.30937002135E+02  0.30937002135E+02  0.00000000000E+00 0.  1.
          1   -1    0    0  501    0  0.00000000000E+00 -0.00000000000E+00 -0.40203491034E+03  0.40203491034E+03  0.00000000000E+00 0. -1.
          5    1    1    2  502    0  0.24254329894E+02  0.17564119726E+02 -0.20759250824E+03  0.20979397107E+03  0.47000000000E+01 0. -1.
         -5    1    1    2    0  502 -0.20316508455E+02  0.12099881517E+02  0.98571715942E+01  0.26046525303E+02  0.47000000000E+01 0. -1.
        -11    1    1    2    0    0 -0.32118782881E+02  0.17467091605E+02 -0.48584659621E+02  0.60804478892E+02  0.00000000000E+00 0.  1.
         11    1    1    2    0    0  0.28180961442E+02 -0.47131092847E+02 -0.12477791194E+03  0.13632693721E+03  0.00000000000E+00 0. -1.
<mgrwt>
<rscale>  0 0.11881382E+03</rscale>
<asrwt>0</asrwt>
<pdfrwt beam="2">  1        1 0.61851516E-01 0.12853590E+03</pdfrwt>
<pdfrwt beam="1">  1       -1 0.47595395E-02 0.12853590E+03</pdfrwt>
<totfact> 0.10770259E+04</totfact>
</mgrwt>
</event>
<event>
 6    1  0.5818426E-006  0.3233331E+03  0.7546771E-02  0.1074125E+00
         -1   -1    0    0    0  501 -0.00000000000E+00  0.00000000000E+00  0.18403877612E+03  0.18403877612E+03  0.00000000000E+00 0.  1.
          1   -1    0    0  501    0  0.00000000000E+00 -0.00000000000E+00 -0.14201395299E+03  0.14201395299E+03  0.00000000000E+00 0. -1.
          5    1    1    2  502    0 -0.22123058361E+02 -0.12302632097E+03  0.27168566629E+02  0.12800439983E+03  0.47000000000E+01 0.  1.
         -5    1    1    2    0  502  0.12416951229E+02  0.16194535533E+02  0.49370413058E+02  0.53628083543E+02  0.47000000000E+01 0.  1.
        -11    1    1    2    0    0  0.38638177042E+02  0.27125989734E+02 -0.36387559651E+02  0.59605222435E+02  0.00000000000E+00 0. -1.
         11    1    1    2    0    0 -0.28932069911E+02  0.79705795706E+02  0.18734030974E+01  0.84815023301E+02  0.00000000000E+00 0.  1.
<mgrwt>
<rscale>  0 0.32333310E+03</rscale>
<asrwt>0</asrwt>
<pdfrwt beam="2">  1        1 0.21848301E-01 0.32333310E+03</pdfrwt>
<pdfrwt beam="1">  1       -1 0.28313658E-01 0.32333310E+03</pdfrwt>
<totfact> 0.25716644E+03</totfact>
</mgrwt>
</event>
<event>
 6    1  0.5818426E-006  0.1259683E+03  0.7546771E-02  0.1248469E+00
          2   -1    0    0  501    0  0.00000000000E+00  0.00000000000E+00  0.68706655412E+03  0.68706655412E+03  0.00000000000E+00 0. -1.
         -2   -1    0    0    0  501 -0.00000000000E+00 -0.00000000000E+00 -0.17534592071E+02  0.17534592071E+02  0.00000000000E+00 0.  1.
          5    1    1    2  502    0  0.40776129916E+02  0.39987765526E+02  0.35300880286E+03  0.35762972340E+03  0.47000000000E+01 0. -1.
         -5    1    1    2    0  502 -0.28339645032E+02 -0.30608343917E+02  0.53818355843E+02  0.68253290203E+02  0.47000000000E+01 0. -1.
        -11    1    1    2    0    0 -0.42528208347E+02 -0.18823744136E+02  0.22406539673E+03  0.22884117606E+03  0.00000000000E+00 0. -1.
         11    1    1    2    0    0  0.30091723463E+02  0.94443225267E+01  0.38639406621E+02  0.49876956533E+02  0.00000000000E+00 0.  1.
<mgrwt>
<rscale>  0 0.11680143E+03</rscale>
<asrwt>0</asrwt>
<pdfrwt beam="1">  1        2 0.10570253E+00 0.12596827E+03</pdfrwt>
<pdfrwt beam="2">  1       -2 0.26976301E-02 0.12596827E+03</pdfrwt>
<totfact> 0.20016832E+04</totfact>
</mgrwt>
</event>
<event>
 6    1  0.5818426E-006  0.1336211E+03  0.7546771E-02  0.1234682E+00
          1   -1    0    0  501    0  0.00000000000E+00  0.00000000000E+00  0.30067042750E+02  0.30067042750E+02  0.00000000000E+00 0. -1.
         -1   -1    0    0    0  501 -0.00000000000E+00 -0.00000000000E+00 -0.53958798307E+03  0.53958798307E+03  0.00000000000E+00 0.  1.
          5    1    1    2  502    0  0.20781413909E+02  0.81924128059E+02 -0.21657938837E+03  0.23253419402E+03  0.47000000000E+01 0.  1.
         -5    1    1    2    0  502 -0.30668258764E+02 -0.35770012306E+02 -0.17085192511E+03  0.17729214926E+03  0.47000000000E+01 0.  1.
        -11    1    1    2    0    0 -0.17585454658E+01 -0.37173475403E+02 -0.13513786647E+03  0.14016847973E+03  0.00000000000E+00 0.  1.
         11    1    1    2    0    0  0.11645390321E+02 -0.89806403499E+01  0.13048239632E+02  0.19660202805E+02  0.00000000000E+00 0. -1.
<mgrwt>
<rscale>  0 0.12524796E+03</rscale>
<asrwt>0</asrwt>
<pdfrwt beam="1">  1        1 0.46256991E-02 0.13362114E+03</pdfrwt>
<pdfrwt beam="2">  1       -1 0.83013532E-01 0.13362114E+03</pdfrwt>
<totfact> 0.27024869E+03</totfact>
</mgrwt>
</event>
<event>
 6    1  0.5818426E-006  0.1416502E+03  0.7546771E-02  0.1220761E+00
         -1   -1    0    0    0  501 -0.00000000000E+00  0.00000000000E+00  0.27717339183E+02  0.27717339183E+02  0.00000000000E+00 0.  1.
          1   -1    0    0  501    0  0.00000000000E+00 -0.00000000000E+00 -0.60980698580E+03  0.60980698580E+03  0.00000000000E+00 0. -1.
          5    1    1    2  502    0 -0.95505119560E+02  0.37140219385E+01 -0.30689632049E+03  0.32146922614E+03  0.47000000000E+01 0.  1.
         -5    1    1    2    0  502  0.31695601287E+02 -0.22949070883E+02 -0.59644851238E+02  0.71490343925E+02  0.47000000000E+01 0.  1.
        -11    1    1    2    0    0  0.78394950880E+02  0.30543407088E+02 -0.20845357816E+03  0.22479226475E+03  0.00000000000E+00 0. -1.
         11    1    1    2    0    0 -0.14585432607E+02 -0.11308358143E+02 -0.70948967215E+01  0.19772490175E+02  0.00000000000E+00 0.  1.
<mgrwt>
<rscale>  0 0.13461744E+03</rscale>
<asrwt>0</asrwt>
<pdfrwt beam="2">  1        1 0.93816462E-01 0.14165025E+03</pdfrwt>
<pdfrwt beam="1">  1       -1 0.42642059E-02 0.14165025E+03</pdfrwt>
<totfact> 0.73989704E+03</totfact>
</mgrwt>
</event>
<event>
 6    1  0.5818426E-006  0.3233579E+03  0.7546771E-02  0.1121149E+00
         -2   -1    0    0    0  501 -0.00000000000E+00  0.00000000000E+00  0.13804252618E+03  0.13804252618E+03  0.00000000000E+00 0.  1.
          2   -1    0    0  501    0  0.00000000000E+00 -0.00000000000E+00 -0.35597705402E+03  0.35597705402E+03  0.00000000000E+00 0. -1.
          5    1    1    2  502    0 -0.11325390625E+03 -0.97687885033E+02 -0.91436215548E+02  0.17536260057E+03  0.47000000000E+01 0. -1.
         -5    1    1    2    0  502  0.13134771669E+03  0.92540742497E+02 -0.24973467209E+00  0.16074253970E+03  0.47000000000E+01 0.  1.
        -11    1    1    2    0    0  0.16411712801E+02  0.28024438496E+02 -0.91917907540E+01  0.33752073822E+02  0.00000000000E+00 0.  1.
         11    1    1    2    0    0 -0.34505523239E+02 -0.22877295959E+02 -0.11705678687E+03  0.12416236610E+03  0.00000000000E+00 0. -1.
<mgrwt>
<rscale>  0 0.23797564E+03</rscale>
<asrwt>0</asrwt>
<pdfrwt beam="2">  1        2 0.54765700E-01 0.32335793E+03</pdfrwt>
<pdfrwt beam="1">  1       -2 0.21237312E-01 0.32335793E+03</pdfrwt>
<totfact> 0.17216833E+03</totfact>
</mgrwt>
</event>
<event>
 6    1  0.5818426E-006  0.1246052E+03  0.7546771E-02  0.1287303E+00
          1   -1    0    0  501    0  0.00000000000E+00  0.00000000000E+00  0.93286618352E+02  0.93286618352E+02  0.00000000000E+00 0. -1.
         -1   -1    0    0    0  501 -0.00000000000E+00 -0.00000000000E+00 -0.10159304900E+03  0.10159304900E+03  0.00000000000E+00 0.  1.
          5    1    1    2  502    0 -0.38341284319E+02 -0.35597764244E+02  0.26404163798E+01  0.52595785963E+02  0.47000000000E+01 0. -1.
         -5    1    1    2    0  502  0.43262069595E+02  0.45211672056E+02 -0.51749759243E+02  0.81337749769E+02  0.47000000000E+01 0.  1.
        -11    1    1    2    0    0 -0.13936222529E+02  0.84555062548E+01  0.36953297981E+02  0.40388861287E+02  0.00000000000E+00 0. -1.
         11    1    1    2    0    0  0.90154372533E+01 -0.18069414067E+02  0.38496142372E+01  0.20557270329E+02  0.00000000000E+00 0.  1.
<mgrwt>
<rscale>  0 0.96740787E+02</rscale>
<asrwt>0</asrwt>
<pdfrwt beam="1">  1        1 0.14351788E-01 0.12460523E+03</pdfrwt>
<pdfrwt beam="2">  1       -1 0.15629700E-01 0.12460523E+03</pdfrwt>
<totfact> 0.11062338E+04</totfact>
</mgrwt>
</event>
<event>
 6    1  0.5818426E-006  0.1430249E+03  0.7546771E-02  0.1222148E+00
         -1   -1    0    0    0  501 -0.00000000000E+00  0.00000000000E+00  0.84664488312E+02  0.84664488312E+02  0.00000000000E+00 0.  1.
          1   -1    0    0  501    0  0.00000000000E+00 -0.00000000000E+00 -0.20984112102E+03  0.20984112102E+03  0.00000000000E+00 0. -1.
          5    1    1    2  502    0  0.34096116900E+02  0.17304671696E+02 -0.50494794541E+02  0.63512291140E+02  0.47000000000E+01 0.  1.
         -5    1    1    2    0  502 -0.59746120679E+02  0.47293400982E+02  0.27908625778E+02  0.81284968509E+02  0.47000000000E+01 0.  1.
        -11    1    1    2    0    0  0.32598010915E+02 -0.83004893363E+02 -0.87253547507E+02  0.12476227070E+03  0.00000000000E+00 0.  1.
         11    1    1    2    0    0 -0.69480071359E+01  0.18406820684E+02 -0.15336916443E+02  0.24946078988E+02  0.00000000000E+00 0. -1.
<mgrwt>
<rscale>  0 0.13364302E+03</rscale>
<asrwt>0</asrwt>
<pdfrwt beam="2">  1        1 0.32283249E-01 0.14302486E+03</pdfrwt>
<pdfrwt beam="1">  1       -1 0.13025306E-01 0.14302486E+03</pdfrwt>
<totfact> 0.53214306E+03</totfact>
</mgrwt>
</event>
<event>
 6    1  0.5818426E-006  0.1250613E+03  0.7546771E-02  0.1250348E+00
         -2   -1    0    0    0  501 -0.00000000000E+00  0.00000000000E+00  0.15426482235E+03  0.15426482235E+03  0.00000000000E+00 0.  1.
          2   -1    0    0  501    0  0.00000000000E+00 -0.00000000000E+00 -0.78067989678E+02  0.78067989678E+02  0.00000000000E+00 0. -1.
          5    1    1    2  502    0  0.62125725267E+02  0.31434565931E+01  0.46834725265E+02  0.78006849378E+02  0.47000000000E+01 0. -1.
         -5    1    1    2    0  502 -0.59504431884E+02 -0.14393633999E+00  0.15200077688E+02  0.61594890155E+02  0.47000000000E+01 0. -1.
        -11    1    1    2    0    0 -0.37332874131E+02 -0.18944499428E+02 -0.15213743741E+02  0.44543187449E+02  0.00000000000E+00 0. -1.
         11    1    1    2    0    0  0.34711580748E+02  0.15944979175E+02  0.29375773462E+02  0.48187885048E+02  0.00000000000E+00 0.  1.
<mgrwt>
<rscale>  0 0.11570906E+03</rscale>
<asrwt>0</asrwt>
<pdfrwt beam="2">  1        2 0.12010460E-01 0.12506130E+03</pdfrwt>
<pdfrwt beam="1">  1       -2 0.23733049E-01 0.12506130E+03</pdfrwt>
<totfact> 0.74639018E+03</totfact>
</mgrwt>
</event>
<event>
 6    1  0.5818426E-006  0.2737260E+03  0.7546771E-02  0.1101020E+00
          4   -1    0    0  501    0  0.00000000000E+00  0.00000000000E+00  0.17768774765E+03  0.17768774765E+03  0.00000000000E+00 0. -1.
         -4   -1    0    0    0  501 -0.00000000000E+00 -0.00000000000E+00 -0.40489773445E+03  0.40489773445E+03  0.00000000000E+00 0.  1.
          5    1    1    2  502    0 -0.10941659012E+02  0.82829032073E+01 -0.18948166526E+02  0.23863138984E+02  0.47000000000E+01 0.  1.
         -5    1    1    2    0  502  0.77121050283E+02 -0.24263811944E+03 -0.73151008630E+02  0.26494164162E+03  0.47000000000E+01 0.  1.
        -11    1    1    2    0    0 -0.39071573097E+02  0.45618129142E+02 -0.70136807665E+02  0.92340529131E+02  0.00000000000E+00 0. -1.
         11    1    1    2    0    0 -0.27107818175E+02  0.18873708709E+03 -0.64974003977E+02  0.20144017236E+03  0.00000000000E+00 0.  1.
<mgrwt>
<rscale>  0 0.27045333E+03</rscale>
<asrwt>0</asrwt>
<pdfrwt beam="1">  1        4 0.27336577E-01 0.27372604E+03</pdfrwt>
<pdfrwt beam="2">  1       -4 0.62291959E-01 0.27372604E+03</pdfrwt>
<totfact> 0.57198313E+01</totfact>
</mgrwt>
</event>
<event>
 6    1  0.5818426E-006  0.1282114E+03  0.7546771E-02  0.1244044E+00
          2   -1    0    0  501    0  0.00000000000E+00  0.00000000000E+00  0.40089408284E+03  0.40089408284E+03  0.00000000000E+00 0. -1.
         -2   -1    0    0    0  501 -0.00000000000E+00 -0.00000000000E+00 -0.31719152102E+02  0.31719152102E+02  0.00000000000E+00 0.  1.
          5    1    1    2  502    0 -0.30205753756E+02 -0.20251962660E+02  0.17705916474E+03  0.18081639132E+03  0.47000000000E+01 0. -1.
         -5    1    1    2    0  502  0.42341917780E+02  0.46125447516E+02  0.51334578070E+02  0.81103167728E+02  0.47000000000E+01 0. -1.
        -11    1    1    2    0    0  0.81893997323E+01 -0.49282206704E+02  0.36417121852E+02  0.61822398284E+02  0.00000000000E+00 0.  1.
         11    1    1    2    0    0 -0.20325563756E+02  0.23408721848E+02  0.10436406607E+03  0.10887127761E+03  0.00000000000E+00 0. -1.
<mgrwt>
<rscale>  0 0.11942750E+03</rscale>
<asrwt>0</asrwt>
<pdfrwt beam="1">  1        2 0.61676009E-01 0.12821136E+03</pdfrwt>
<pdfrwt beam="2">  1       -2 0.48798699E-02 0.12821136E+03</pdfrwt>
<totfact> 0.15176955E+04</totfact>
</mgrwt>
</event>
<event>
 6    1  0.5818426E-006  0.1965585E+03  0.7546771E-02  0.1157162E+00
         -2   -1    0    0    0  501 -0.00000000000E+00  0.00000000000E+00  0.15913036419E+03  0.15913036419E+03  0.00000000000E+00 0.  1.
          2   -1    0    0  501    0  0.00000000000E+00 -0.00000000000E+00 -0.24309854489E+03  0.24309854489E+03  0.00000000000E+00 0. -1.
          5    1    1    2  502    0 -0.10089799270E+03  0.58067174470E+02  0.24129575811E+02  0.11898120906E+03  0.47000000000E+01 0.  1.
         -5    1    1    2    0  502 -0.50784859349E+02 -0.59469908761E+02 -0.50130404740E+01  0.78504729551E+02  0.47000000000E+01 0.  1.
        -11    1    1    2    0    0 -0.83273093048E+01 -0.12410801612E+02 -0.22677883895E+01  0.15116710657E+02  0.00000000000E+00 0.  1.
         11    1    1    2    0    0  0.16001016135E+03  0.13813535903E+02 -0.10081692764E+03  0.18962625981E+03  0.00000000000E+00 0. -1.
<mgrwt>
<rscale>  0 0.19144772E+03</rscale>
<asrwt>0</asrwt>
<pdfrwt beam="2">  1        2 0.37399776E-01 0.19655853E+03</pdfrwt>
<pdfrwt beam="1">  1       -2 0.24481595E-01 0.19655853E+03</pdfrwt>
<totfact> 0.20049259E+03</totfact>
</mgrwt>
</event>
<event>
 6    1  0.5818426E-006  0.1264681E+03  0.7546771E-02  0.1249837E+00
         -2   -1    0    0    0  501 -0.00000000000E+00  0.00000000000E+00  0.22212949896E+03  0.22212949896E+03  0.00000000000E+00 0.  1.
          2   -1    0    0  501    0  0.00000000000E+00 -0.00000000000E+00 -0.52741812763E+02  0.52741812763E+02  0.00000000000E+00 0. -1.
          5    1    1    2  502    0 -0.24402332303E+02 -0.49989359089E+02  0.98567191693E+02  0.11327837888E+03  0.47000000000E+01 0. -1.
         -5    1    1    2    0  502  0.79839045397E+01  0.40088530131E+02 -0.84612011850E+01  0.42006129377E+02  0.47000000000E+01 0. -1.
        -11    1    1    2    0    0  0.15164632321E+02 -0.67355475653E+01  0.95135629071E+02  0.96571846794E+02  0.00000000000E+00 0.  1.
         11    1    1    2    0    0  0.12537954418E+01  0.16636376524E+02 -0.15853933382E+02  0.23014956670E+02  0.00000000000E+00 0. -1.
<mgrwt>
<rscale>  0 0.11600497E+03</rscale>
<asrwt>0</asrwt>
<pdfrwt beam="2">  1        2 0.81141251E-02 0.12646813E+03</pdfrwt>
<pdfrwt beam="1">  1       -2 0.34173769E-01 0.12646813E+03</pdfrwt>
<totfact> 0.63114065E+03</totfact>
</mgrwt>
</event>
<event>
 6    1  0.5818426E-006  0.2538480E+03  0.7546771E-02  0.1110897E+00
         -3   -1    0    0    0  501 -0.00000000000E+00  0.00000000000E+00  0.32659975093E+02  0.32659975093E+02  0.00000000000E+00 0.  1.
          3   -1    0    0  501    0  0.00000000000E+00 -0.00000000000E+00 -0.49325526837E+03  0.49325526837E+03  0.00000000000E+00 0. -1.
          5    1    1    2  502    0 -0.51862179550E+02  0.36979743531E+02 -0.29467784192E+02  0.70339373074E+02  0.47000000000E+01 0. -1.
         -5    1    1    2    0  502  0.19408690247E+01  0.19435234532E+01 -0.18976796358E+03  0.18984602777E+03  0.47000000000E+01 0. -1.
        -11    1    1    2    0    0  0.12280425959E+02 -0.12158466852E+02  0.25656322531E+01  0.17470536534E+02  0.00000000000E+00 0.  1.
         11    1    1    2    0    0  0.37640884566E+02 -0.26764800133E+02 -0.24392517775E+03  0.24825930608E+03  0.00000000000E+00 0. -1.
<mgrwt>
<rscale>  0 0.25384802E+03</rscale>
<asrwt>0</asrwt>
<pdfrwt beam="2">  1        3 0.75885421E-01 0.25384802E+03</pdfrwt>
<pdfrwt beam="1">  1       -3 0.50246119E-02 0.25384802E+03</pdfrwt>
<totfact> 0.95443031E+02</totfact>
</mgrwt>
</event>
<event>
 6    1  0.5818426E-006  0.2623245E+03  0.7546771E-02  0.1107888E+00
          2   -1    0    0  501    0  0.00000000000E+00  0.00000000000E+00  0.11416764125E+04  0.11416764125E+04  0.00000000000E+00 0.  1.
         -2   -1    0    0    0  501 -0.00000000000E+00 -0.00000000000E+00 -0.57267400929E+02  0.57267400929E+02  0.00000000000E+00 0. -1.
          5    1    1    2  502    0 -0.41518574945E+01  0.13312416302E+01 -0.44218482350E+01  0.77879950402E+01  0.47000000000E+01 0.  1.
         -5    1    1    2    0  502  0.17364602517E+03 -0.15773285874E+03  0.53013464955E+03  0.57973910808E+03  0.47000000000E+01 0.  1.
        -11    1    1    2    0    0 -0.47126415869E+02  0.41758503596E+02  0.67132901732E+02  0.92040742012E+02  0.00000000000E+00 0. -1.
         11    1    1    2    0    0 -0.12236775180E+03  0.11464311351E+03  0.49156330849E+03  0.51937596826E+03  0.00000000000E+00 0.  1.
<mgrwt>
<rscale>  0 0.25876472E+03</rscale>
<asrwt>0</asrwt>
<pdfrwt beam="1">  1        2 0.17564251E+00 0.26232451E+03</pdfrwt>
<pdfrwt beam="2">  1       -2 0.88103702E-02 0.26232451E+03</pdfrwt>
<totfact> 0.17532061E+03</totfact>
</mgrwt>
</event>
<event>
 6    1  0.5818426E-006  0.3000972E+03  0.7546771E-02  0.1085192E+00
         -2   -1    0    0    0  501 -0.00000000000E+00  0.00000000000E+00  0.83784204709E+02  0.83784204709E+02  0.00000000000E+00 0. -1.
          2   -1    0    0  501    0  0.00000000000E+00 -0.00000000000E+00 -0.26872112900E+03  0.26872112900E+03  0.00000000000E+00 0.  1.
          5    1    1    2  502    0 -0.93662061596E+01 -0.15438964424E+02  0.47976495229E+02  0.51477388577E+02  0.47000000000E+01 0. -1.
         -5    1    1    2    0  502 -0.99526215515E+01 -0.65910911189E+02 -0.76522243909E+02  0.10159255240E+03  0.47000000000E+01 0. -1.
        -11    1    1    2    0    0  0.95789733815E+01  0.45319861309E+02 -0.87380732335E+01  0.47138100131E+02  0.00000000000E+00 0. -1.
         11    1    1    2    0    0  0.97398543296E+01  0.36030014304E+02 -0.14765310238E+03  0.15229729260E+03  0.00000000000E+00 0.  1.
<mgrwt>
<rscale>  0 0.30009722E+03</rscale>
<asrwt>0</asrwt>
<pdfrwt beam="2">  1        2 0.41341713E-01 0.30009722E+03</pdfrwt>
<pdfrwt beam="1">  1       -2 0.12889877E-01 0.30009722E+03</pdfrwt>
<totfact> 0.54069762E+03</totfact>
</mgrwt>
</event>
<event>
 6    1  0.5818426E-006  0.1257856E+03  0.7546771E-02  0.1249237E+00
         -1   -1    0    0    0  501 -0.00000000000E+00  0.00000000000E+00  0.50088257594E+03  0.50088257594E+03  0.00000000000E+00 0.  1.
          1   -1    0    0  501    0  0.00000000000E+00 -0.00000000000E+00 -0.24089430844E+02  0.24089430844E+02  0.00000000000E+00 0. -1.
          5    1    1    2  502    0  0.29338326952E+02  0.46493681992E+02  0.92973379661E+02  0.10811354781E+03  0.47000000000E+01 0.  1.
         -5    1    1    2    0  502 -0.24693472918E+02 -0.59748952080E+02  0.21492941487E+03  0.22449153270E+03  0.47000000000E+01 0.  1.
        -11    1    1    2    0    0 -0.42869054302E+02 -0.23334486301E+01  0.12475171697E+03  0.13193252702E+03  0.00000000000E+00 0.  1.
         11    1    1    2    0    0  0.38224200268E+02  0.15588718718E+02  0.44138633594E+02  0.60434399252E+02  0.00000000000E+00 0. -1.
<mgrwt>
<rscale>  0 0.11635352E+03</rscale>
<asrwt>0</asrwt>
<pdfrwt beam="2">  1        1 0.37060667E-02 0.12578557E+03</pdfrwt>
<pdfrwt beam="1">  1       -1 0.77058850E-01 0.12578557E+03</pdfrwt>
<totfact> 0.42497678E+03</totfact>
</mgrwt>
</event>
<event>
 6    1  0.5818426E-006  0.1250422E+03  0.7546771E-02  0.1254008E+00
          2   -1    0    0  501    0  0.00000000000E+00  0.00000000000E+00  0.30359684125E+03  0.30359684125E+03  0.00000000000E+00 0. -1.
         -2   -1    0    0    0  501 -0.00000000000E+00 -0.00000000000E+00 -0.36421089598E+02  0.36421089598E+02  0.00000000000E+00 0.  1.
          5    1    1    2  502    0 -0.55559847044E+02 -0.57215478647E+01  0.37031772124E+02  0.67179422893E+02  0.47000000000E+01 0.  1.
         -5    1    1    2    0  502  0.57203610131E+02  0.28384685517E+01  0.12426406424E+03  0.13690857379E+03  0.47000000000E+01 0.  1.
        -11    1    1    2    0    0 -0.29533541841E+01 -0.40807146458E+02  0.43042208757E+02  0.59384991687E+02  0.00000000000E+00 0.  1.
         11    1    1    2    0    0  0.13095910974E+01  0.43690225771E+02  0.62837706532E+02  0.76544942478E+02  0.00000000000E+00 0. -1.
<mgrwt>
<rscale>  0 0.11362069E+03</rscale>
<asrwt>0</asrwt>
<pdfrwt beam="1">  1        2 0.46707205E-01 0.12504225E+03</pdfrwt>
<pdfrwt beam="2">  1       -2 0.56032448E-02 0.12504225E+03</pdfrwt>
<totfact> 0.16521267E+04</totfact>
</mgrwt>
</event>
<event>
 6    1  0.5818426E-006  0.3597504E+03  0.7546771E-02  0.1058683E+00
         -2   -1    0    0    0  501 -0.00000000000E+00  0.00000000000E+00  0.49940304664E+02  0.49940304664E+02  0.00000000000E+00 0.  1.
          2   -1    0    0  501    0  0.00000000000E+00 -0.00000000000E+00 -0.64787531081E+03  0.64787531081E+03  0.00000000000E+00 0. -1.
          5    1    1    2  502    0  0.15554931446E+03 -0.53927971323E+02 -0.25452211947E+03  0.30316235686E+03  0.47000000000E+01 0. -1.
         -5    1    1    2    0  502 -0.20552265370E+02  0.67208453905E+01 -0.63704530273E+02  0.67438286988E+02  0.47000000000E+01 0. -1.
        -11    1    1    2    0    0 -0.82277521883E+02  0.52861846713E+02 -0.10009566342E+03  0.13993965585E+03  0.00000000000E+00 0.  1.
         11    1    1    2    0    0 -0.52719527204E+02 -0.56547207807E+01 -0.17961269299E+03  0.18727531577E+03  0.00000000000E+00 0. -1.
<mgrwt>
<rscale>  0 0.35975042E+03</rscale>
<asrwt>0</asrwt>
<pdfrwt beam="2">  1        2 0.99673122E-01 0.35975042E+03</pdfrwt>
<pdfrwt beam="1">  1       -2 0.76831240E-02 0.35975042E+03</pdfrwt>
<totfact> 0.46621435E+03</totfact>
</mgrwt>
</event>
<event>
 6    1  0.5818426E-006  0.1305323E+03  0.7546771E-02  0.1239668E+00
          2   -1    0    0  501    0  0.00000000000E+00  0.00000000000E+00  0.53435075467E+03  0.53435075467E+03  0.00000000000E+00 0. -1.
         -2   -1    0    0    0  501 -0.00000000000E+00 -0.00000000000E+00 -0.24985215814E+02  0.24985215814E+02  0.00000000000E+00 0.  1.
          5    1    1    2  502    0 -0.46370661249E+02  0.27029141622E+02  0.21603123666E+03  0.22264859743E+03  0.47000000000E+01 0.  1.
         -5    1    1    2    0  502  0.63271223521E+02  0.65838497606E+01  0.92516186066E+02  0.11237406056E+03  0.47000000000E+01 0.  1.
        -11    1    1    2    0    0 -0.20617298057E+02  0.19126487730E+02  0.16595952554E+02  0.32654573236E+02  0.00000000000E+00 0.  1.
         11    1    1    2    0    0  0.37167357839E+01 -0.52739479113E+02  0.18422216357E+03  0.19165873925E+03  0.00000000000E+00 0. -1.
<mgrwt>
<rscale>  0 0.12210295E+03</rscale>
<asrwt>0</asrwt>
<pdfrwt beam="1">  1        2 0.82207800E-01 0.13053225E+03</pdfrwt>
<pdfrwt beam="2">  1       -2 0.38438798E-02 0.13053225E+03</pdfrwt>
<totfact> 0.15877787E+04</totfact>
</mgrwt>
</event>
<event>
 6    1  0.5818426E-006  0.1413848E+03  0.7546771E-02  0.1221984E+00
          1   -1    0    0  501    0  0.00000000000E+00  0.00000000000E+00  0.20069482751E+03  0.20069482751E+03  0.00000000000E+00 0. -1.
         -1   -1    0    0    0  501 -0.00000000000E+00 -0.00000000000E+00 -0.87074794175E+02  0.87074794175E+02  0.00000000000E+00 0.  1.
          5    1    1    2  502    0  0.17074987319E+02 -0.52922559981E+02 -0.31130422517E+02  0.63902627121E+02  0.47000000000E+01 0.  1.
         -5    1    1    2    0  502 -0.56988367043E+02  0.27893082262E+00  0.55271267140E+02  0.79528326726E+02  0.47000000000E+01 0.  1.
        -11    1    1    2    0    0 -0.59045843866E+01  0.18199801301E+02  0.84682989789E+02  0.86817657443E+02  0.00000000000E+00 0. -1.
         11    1    1    2    0    0  0.45817964111E+02  0.34443827857E+02  0.47961989241E+01  0.57521010395E+02  0.00000000000E+00 0.  1.
<mgrwt>
<rscale>  0 0.13375751E+03</rscale>
<asrwt>0</asrwt>
<pdfrwt beam="1">  1        1 0.30876127E-01 0.14138479E+03</pdfrwt>
<pdfrwt beam="2">  1       -1 0.13396122E-01 0.14138479E+03</pdfrwt>
<totfact> 0.53806779E+03</totfact>
</mgrwt>
</event>
<event>
 6    1  0.5818426E-006  0.1335945E+03  0.7546771E-02  0.1234825E+00
          1   -1    0    0  501    0  0.00000000000E+00  0.00000000000E+00  0.76697339526E+03  0.76697339526E+03  0.00000000000E+00 0. -1.
         -1   -1    0    0    0  501 -0.00000000000E+00 -0.00000000000E+00 -0.19749756643E+02  0.19749756643E+02  0.00000000000E+00 0.  1.
          5    1    1    2  502    0 -0.50665515640E+02 -0.13517321765E+01  0.49622774571E+02  0.71086787879E+02  0.47000000000E+01 0.  1.
         -5    1    1    2    0  502  0.36025135664E+02 -0.43444877366E+02  0.26053330195E+03  0.26661762731E+03  0.47000000000E+01 0.  1.
        -11    1    1    2    0    0  0.52201799066E+02  0.15950367527E+02  0.26428910301E+03  0.26986695244E+03  0.00000000000E+00 0. -1.
         11    1    1    2    0    0 -0.37561419090E+02  0.28846242016E+02  0.17277845910E+03  0.17915178428E+03  0.00000000000E+00 0.  1.
<mgrwt>
<rscale>  0 0.12515614E+03</rscale>
<asrwt>0</asrwt>
<pdfrwt beam="1">  1        1 0.11799588E+00 0.13359446E+03</pdfrwt>
<pdfrwt beam="2">  1       -1 0.30384247E-02 0.13359446E+03</pdfrwt>
<totfact> 0.87448401E+03</totfact>
</mgrwt>
</event>
<event>
 6    1  0.5818426E-006  0.3242667E+03  0.7546771E-02  0.1073702E+00
          1   -1    0    0  501    0  0.00000000000E+00  0.00000000000E+00  0.13552346881E+03  0.13552346881E+03  0.00000000000E+00 0. -1.
         -1   -1    0    0    0  501 -0.00000000000E+00 -0.00000000000E+00 -0.19396804224E+03  0.19396804224E+03  0.00000000000E+00 0.  1.
          5    1    1    2  502    0 -0.78683385513E+00 -0.27949673104E+02 -0.22074561804E+01  0.28438814971E+02  0.47000000000E+01 0.  1.
         -5    1    1    2    0  502 -0.21647955809E+02  0.12381853343E+03 -0.99805896957E+02  0.16057076409E+03  0.47000000000E+01 0.  1.
        -11    1    1    2    0    0 -0.30163387441E+02 -0.28893860809E+02  0.35721840383E+02  0.54961213730E+02  0.00000000000E+00 0. -1.
         11    1    1    2    0    0  0.52598177105E+02 -0.66974999519E+02  0.78469393336E+01  0.85520718264E+02  0.00000000000E+00 0.  1.
<mgrwt>
<rscale>  0 0.32426669E+03</rscale>
<asrwt>0</asrwt>
<pdfrwt beam="1">  1        1 0.20849765E-01 0.32426669E+03</pdfrwt>
<pdfrwt beam="2">  1       -1 0.29841237E-01 0.32426669E+03</pdfrwt>
<totfact> 0.24981435E+03</totfact>
</mgrwt>
</event>
<event>
 6    1  0.5818426E-006  0.1699726E+03  0.7546771E-02  0.1184225E+00
         -1   -1    0    0    0  501 -0.00000000000E+00  0.00000000000E+00  0.53866479171E+02  0.53866479171E+02  0.00000000000E+00 0.  1.
          1   -1    0    0  501    0  0.00000000000E+00 -0.00000000000E+00 -0.63246428577E+03  0.63246428577E+03  0.00000000000E+00 0. -1.
          5    1    1    2  502    0 -0.15952761654E+02 -0.81171595326E+02 -0.11738310515E+03  0.14368090293E+03  0.47000000000E+01 0. -1.
         -5    1    1    2    0  502  0.64812968520E+02 -0.23131547177E+02 -0.12186771711E+02  0.70045676297E+02  0.47000000000E+01 0. -1.
        -11    1    1    2    0    0  0.22264909463E+02  0.57906778015E+02 -0.20793019517E+03  0.21698821903E+03  0.00000000000E+00 0.  1.
         11    1    1    2    0    0 -0.71125116329E+02  0.46396364489E+02 -0.24109773457E+03  0.25561596668E+03  0.00000000000E+00 0. -1.
<mgrwt>
<rscale>  0 0.16402623E+03</rscale>
<asrwt>0</asrwt>
<pdfrwt beam="2">  1        1 0.97302199E-01 0.16997264E+03</pdfrwt>
<pdfrwt beam="1">  1       -1 0.82871506E-02 0.16997264E+03</pdfrwt>
<totfact> 0.26261649E+03</totfact>
</mgrwt>
</event>
<event>
 6    1  0.5818426E-006  0.1627089E+03  0.7546771E-02  0.1193306E+00
         -2   -1    0    0    0  501 -0.00000000000E+00  0.00000000000E+00  0.86365378375E+02  0.86365378375E+02  0.00000000000E+00 0.  1.
          2   -1    0    0  501    0  0.00000000000E+00 -0.00000000000E+00 -0.29179920544E+03  0.29179920544E+03  0.00000000000E+00 0. -1.
          5    1    1    2  502    0 -0.29100545633E+02  0.31848585023E+02 -0.87405247187E+02  0.97585559178E+02  0.47000000000E+01 0.  1.
         -5    1    1    2    0  502 -0.51907405811E+02  0.32245612769E+02  0.38422738345E+02  0.72336402611E+02  0.47000000000E+01 0.  1.
        -11    1    1    2    0    0  0.14254872460E+02 -0.66576254133E+02 -0.98903975615E+02  0.12007329177E+03  0.00000000000E+00 0. -1.
         11    1    1    2    0    0  0.66753078983E+02  0.24820563413E+01 -0.57547342612E+02  0.88169330264E+02  0.00000000000E+00 0.  1.
<mgrwt>
<rscale>  0 0.15598458E+03</rscale>
<asrwt>0</asrwt>
<pdfrwt beam="2">  1        2 0.44892185E-01 0.16270890E+03</pdfrwt>
<pdfrwt beam="1">  1       -2 0.13286981E-01 0.16270890E+03</pdfrwt>
<totfact> 0.45735941E+03</totfact>
</mgrwt>
</event>
<event>
 6    1  0.5818426E-006  0.2754506E+03  0.7546771E-02  0.1100218E+00
          2   -1    0    0  501    0  0.00000000000E+00  0.00000000000E+00  0.52226612686E+03  0.52226612686E+03  0.00000000000E+00 0. -1.
         -2   -1    0    0    0  501 -0.00000000000E+00 -0.00000000000E+00 -0.16166590954E+03  0.16166590954E+03  0.00000000000E+00 0.  1.
          5    1    1    2  502    0  0.67851009371E+01 -0.54759824118E+01 -0.28192875158E+02  0.29882305597E+02  0.47000000000E+01 0. -1.
         -5    1    1    2    0  502  0.21572027193E+03 -0.98154532519E+02  0.81589844772E+02  0.25069611234E+03  0.47000000000E+01 0. -1.
        -11    1    1    2    0    0 -0.60749866523E+02  0.74986771781E+02  0.12709056549E+03  0.15957936602E+03  0.00000000000E+00 0.  1.
         11    1    1    2    0    0 -0.16175550634E+03  0.28643743149E+02  0.18011268222E+03  0.24377425243E+03  0.00000000000E+00 0. -1.
<mgrwt>
<rscale>  0 0.27186386E+03</rscale>
<asrwt>0</asrwt>
<pdfrwt beam="1">  1        2 0.80348634E-01 0.27545056E+03</pdfrwt>
<pdfrwt beam="2">  1       -2 0.24871679E-01 0.27545056E+03</pdfrwt>
<totfact> 0.85213334E+02</totfact>
</mgrwt>
</event>
<event>
 6    1  0.5818426E-006  0.1260253E+03  0.7546771E-02  0.1249031E+00
          1   -1    0    0  501    0  0.00000000000E+00  0.00000000000E+00  0.83452080104E+01  0.83452080104E+01  0.00000000000E+00 0. -1.
         -1   -1    0    0    0  501 -0.00000000000E+00 -0.00000000000E+00 -0.14431867103E+04  0.14431867103E+04  0.00000000000E+00 0.  1.
          5    1    1    2  502    0  0.10132283204E+02 -0.66728843610E+02 -0.44521476713E+03  0.45032619355E+03  0.47000000000E+01 0. -1.
         -5    1    1    2    0  502 -0.19836723262E+02  0.53995066251E+02 -0.46694141586E+03  0.47049478064E+03  0.47000000000E+01 0. -1.
        -11    1    1    2    0    0  0.36139853269E+02 -0.26369518289E+02 -0.25074841185E+03  0.25470808102E+03  0.00000000000E+00 0. -1.
         11    1    1    2    0    0 -0.26435413212E+02  0.39103295648E+02 -0.27193690741E+03  0.27600286306E+03  0.00000000000E+00 0.  1.
<mgrwt>
<rscale>  0 0.11647347E+03</rscale>
<asrwt>0</asrwt>
<pdfrwt beam="1">  1        1 0.12838771E-02 0.12602525E+03</pdfrwt>
<pdfrwt beam="2">  1       -1 0.22202890E+00 0.12602525E+03</pdfrwt>
<totfact> 0.13222682E+03</totfact>
</mgrwt>
</event>
<event>
 6    1  0.5818426E-006  0.1297094E+03  0.7546771E-02  0.1241830E+00
          2   -1    0    0  501    0  0.00000000000E+00  0.00000000000E+00  0.85987552226E+02  0.85987552226E+02  0.00000000000E+00 0. -1.
         -2   -1    0    0    0  501 -0.00000000000E+00 -0.00000000000E+00 -0.15092910602E+03  0.15092910602E+03  0.00000000000E+00 0.  1.
          5    1    1    2  502    0  0.49340917818E+02  0.32159693084E+02 -0.66666853636E+02  0.89080477121E+02  0.47000000000E+01 0. -1.
         -5    1    1    2    0  502 -0.15732011670E+02 -0.40634815599E+02  0.20783852696E+02  0.48505081825E+02  0.47000000000E+01 0. -1.
        -11    1    1    2    0    0 -0.12084813423E+02 -0.32069035609E+02  0.19458016446E+02  0.39409138082E+02  0.00000000000E+00 0.  1.
         11    1    1    2    0    0 -0.21524092725E+02  0.40544158124E+02 -0.38516569300E+02  0.59921961218E+02  0.00000000000E+00 0. -1.
<mgrwt>
<rscale>  0 0.12077131E+03</rscale>
<asrwt>0</asrwt>
<pdfrwt beam="1">  1        2 0.13228854E-01 0.12970943E+03</pdfrwt>
<pdfrwt beam="2">  1       -2 0.23219862E-01 0.12970943E+03</pdfrwt>
<totfact> 0.69272270E+03</totfact>
</mgrwt>
</event>
<event>
 6    1  0.5818426E-006  0.1453729E+03  0.7546771E-02  0.1215856E+00
          1   -1    0    0  501    0  0.00000000000E+00  0.00000000000E+00  0.59315759354E+03  0.59315759354E+03  0.00000000000E+00 0. -1.
         -1   -1    0    0    0  501 -0.00000000000E+00 -0.00000000000E+00 -0.29805658133E+02  0.29805658133E+02  0.00000000000E+00 0.  1.
          5    1    1    2  502    0 -0.17269478832E+02  0.73581959539E+02  0.15499780570E+03  0.17250782429E+03  0.47000000000E+01 0. -1.
         -5    1    1    2    0  502 -0.51554209274E+02 -0.45807698841E+02  0.11667844742E+03  0.13561759421E+03  0.47000000000E+01 0. -1.
        -11    1    1    2    0    0  0.11788620500E+02  0.61563033097E+01 -0.22717082646E+01  0.13491934708E+02  0.00000000000E+00 0.  1.
         11    1    1    2    0    0  0.57035067606E+02 -0.33930564007E+02  0.29394739056E+03  0.30134589847E+03  0.00000000000E+00 0. -1.
<mgrwt>
<rscale>  0 0.13813860E+03</rscale>
<asrwt>0</asrwt>
<pdfrwt beam="1">  1        1 0.91255006E-01 0.14537292E+03</pdfrwt>
<pdfrwt beam="2">  1       -1 0.45854863E-02 0.14537292E+03</pdfrwt>
<totfact> 0.69132846E+03</totfact>
</mgrwt>
</event>
<event>
 6    1  0.5818426E-006  0.1299175E+03  0.7546771E-02  0.1239976E+00
         -4   -1    0    0    0  501 -0.00000000000E+00  0.00000000000E+00  0.13170598993E+03  0.13170598993E+03  0.00000000000E+00 0.  1.
          4   -1    0    0  501    0  0.00000000000E+00 -0.00000000000E+00 -0.16379919431E+03  0.16379919431E+03  0.00000000000E+00 0. -1.
          5    1    1    2  502    0  0.29352909023E+02 -0.13431086708E+02 -0.16597749077E+02  0.36600035966E+02  0.47000000000E+01 0. -1.
         -5    1    1    2    0  502 -0.63980374558E+02  0.21063045747E+02  0.90345170345E+02  0.11278953865E+03  0.47000000000E+01 0. -1.
        -11    1    1    2    0    0 -0.94215209530E+01 -0.38651117571E+02 -0.72673188568E+02  0.82849660731E+02  0.00000000000E+00 0. -1.
         11    1    1    2    0    0  0.44048986488E+02  0.31019158532E+02 -0.33167437076E+02  0.63265948889E+02  0.00000000000E+00 0.  1.
<mgrwt>
<rscale>  0 0.12191183E+03</rscale>
<asrwt>0</asrwt>
<pdfrwt beam="2">  1        4 0.25199876E-01 0.12991752E+03</pdfrwt>
<pdfrwt beam="1">  1       -4 0.20262460E-01 0.12991752E+03</pdfrwt>
<totfact> 0.53461758E+02</totfact>
</mgrwt>
</event>
<event>
 6    1  0.5818426E-006  0.1307379E+03  0.7546771E-02  0.1239998E+00
         -2   -1    0    0    0  501 -0.00000000000E+00  0.00000000000E+00  0.10239989629E+03  0.10239989629E+03  0.00000000000E+00 0.  1.
          2   -1    0    0  501    0  0.00000000000E+00 -0.00000000000E+00 -0.13086159698E+03  0.13086159698E+03  0.00000000000E+00 0. -1.
          5    1    1    2  502    0  0.30192198758E+02 -0.62166501572E+02 -0.10017966757E+02  0.69990659673E+02  0.47000000000E+01 0. -1.
         -5    1    1    2    0  502 -0.51631983658E+02  0.30394069318E+02  0.88919434302E+01  0.60752101561E+02  0.47000000000E+01 0. -1.
        -11    1    1    2    0    0  0.69117833296E+01  0.26918639280E+02  0.31333568499E+02  0.41882913035E+02  0.00000000000E+00 0.  1.
         11    1    1    2    0    0  0.14528001570E+02  0.48537929745E+01 -0.58669245857E+02  0.60635818996E+02  0.00000000000E+00 0. -1.
<mgrwt>
<rscale>  0 0.12189847E+03</rscale>
<asrwt>0</asrwt>
<pdfrwt beam="2">  1        2 0.20132553E-01 0.13073791E+03</pdfrwt>
<pdfrwt beam="1">  1       -2 0.15753830E-01 0.13073791E+03</pdfrwt>
<totfact> 0.81849219E+03</totfact>
</mgrwt>
</event>
<event>
 6    1  0.5818426E-006  0.1239091E+03  0.7546771E-02  0.1246221E+00
         -2   -1    0    0    0  501 -0.00000000000E+00  0.00000000000E+00  0.23867593029E+03  0.23867593029E+03  0.00000000000E+00 0.  1.
          2   -1    0    0  501    0  0.00000000000E+00 -0.00000000000E+00 -0.59912457890E+02  0.59912457890E+02  0.00000000000E+00 0. -1.
          5    1    1    2  502    0 -0.30098851612E+02  0.16518706170E+02 -0.57149881302E+01  0.35122067297E+02  0.47000000000E+01 0. -1.
         -5    1    1    2    0  502 -0.73135036654E+01 -0.37567064133E+02  0.15090601593E+03  0.15575457389E+03  0.47000000000E+01 0.  1.
        -11    1    1    2    0    0  0.34455941329E+02  0.52152517129E+01  0.64233400335E+02  0.73077633116E+02  0.00000000000E+00 0.  1.
         11    1    1    2    0    0  0.29564139484E+01  0.15833106250E+02 -0.30660955739E+02  0.34634113873E+02  0.00000000000E+00 0. -1.
<mgrwt>
<rscale>  0 0.11812589E+03</rscale>
<asrwt>0</asrwt>
<pdfrwt beam="2">  1        2 0.92173014E-02 0.12390907E+03</pdfrwt>
<pdfrwt beam="1">  1       -2 0.36719373E-01 0.12390907E+03</pdfrwt>
<totfact> 0.47099338E+03</totfact>
</mgrwt>
</event>
<event>
 6    1  0.5818426E-006  0.2916177E+03  0.7546771E-02  0.1089508E+00
         -3   -1    0    0    0  501 -0.00000000000E+00  0.00000000000E+00  0.82587000068E+02  0.82587000068E+02  0.00000000000E+00 0.  1.
          3   -1    0    0  501    0  0.00000000000E+00 -0.00000000000E+00 -0.25742820785E+03  0.25742820785E+03  0.00000000000E+00 0. -1.
          5    1    1    2  502    0 -0.87840930922E-01  0.86958411961E+02  0.21604976745E+02  0.89725348408E+02  0.47000000000E+01 0.  1.
         -5    1    1    2    0  502  0.26045889636E+02 -0.30636715834E+02 -0.29404524488E+02  0.50037114069E+02  0.47000000000E+01 0.  1.
        -11    1    1    2    0    0  0.20167350824E+02 -0.47432966785E+02 -0.41378229754E+02  0.66096643447E+02  0.00000000000E+00 0. -1.
         11    1    1    2    0    0 -0.46125399529E+02 -0.88887293420E+01 -0.12566343029E+03  0.13415610200E+03  0.00000000000E+00 0.  1.
<mgrwt>
<rscale>  0 0.29161772E+03</rscale>
<asrwt>0</asrwt>
<pdfrwt beam="2">  1        3 0.39604340E-01 0.29161772E+03</pdfrwt>
<pdfrwt beam="1">  1       -3 0.12705692E-01 0.29161772E+03</pdfrwt>
<totfact> 0.79854318E+02</totfact>
</mgrwt>
</event>
<event>
 6    1  0.5818426E-006  0.2835080E+03  0.7546771E-02  0.1093788E+00
          2   -1    0    0  501    0  0.00000000000E+00  0.00000000000E+00  0.47389402749E+02  0.47389402749E+02  0.00000000000E+00 0. -1.
         -2   -1    0    0    0  501 -0.00000000000E+00 -0.00000000000E+00 -0.42402284813E+03  0.42402284813E+03  0.00000000000E+00 0.  1.
          5    1    1    2  502    0 -0.14924928864E+02  0.16435382095E+02 -0.24761210593E+03  0.24864979447E+03  0.47000000000E+01 0. -1.
         -5    1    1    2    0  502  0.56836175067E+01  0.61181853520E+02 -0.37000920194E+02  0.71879627178E+02  0.47000000000E+01 0. -1.
        -11    1    1    2    0    0  0.40027964041E+02 -0.30920627052E+02 -0.99244631455E+01  0.51544330932E+02  0.00000000000E+00 0. -1.
         11    1    1    2    0    0 -0.30786652684E+02 -0.46696608563E+02 -0.82095956112E+02  0.99338498301E+02  0.00000000000E+00 0.  1.
<mgrwt>
<rscale>  0 0.28350795E+03</rscale>
<asrwt>0</asrwt>
<pdfrwt beam="1">  1        2 0.72906775E-02 0.28350795E+03</pdfrwt>
<pdfrwt beam="2">  1       -2 0.65234283E-01 0.28350795E+03</pdfrwt>
<totfact> 0.21229692E+03</totfact>
</mgrwt>
</event>
<event>
 6    1  0.5818426E-006  0.3187454E+03  0.7546771E-02  0.1119991E+00
          1   -1    0    0  501    0  0.00000000000E+00  0.00000000000E+00  0.15293594385E+03  0.15293594385E+03  0.00000000000E+00 0. -1.
         -1   -1    0    0    0  501 -0.00000000000E+00 -0.00000000000E+00 -0.32573701546E+03  0.32573701546E+03  0.00000000000E+00 0.  1.
          5    1    1    2  502    0 -0.14380993953E+03 -0.69004250925E+01 -0.18869140196E+03  0.23739302800E+03  0.47000000000E+01 0. -1.
         -5    1    1    2    0  502  0.13026267567E+03 -0.40714106978E+02 -0.72261964282E+01  0.13674908078E+03  0.47000000000E+01 0.  1.
        -11    1    1    2    0    0  0.42709243007E+02  0.95585176840E+00 -0.45190691936E+01  0.42958294627E+02  0.00000000000E+00 0.  1.
         11    1    1    2    0    0 -0.29161979153E+02  0.46658680302E+02  0.27635595971E+02  0.61572555902E+02  0.00000000000E+00 0. -1.
<mgrwt>
<rscale>  0 0.23970219E+03</rscale>
<asrwt>0</asrwt>
<pdfrwt beam="1">  1        1 0.23528607E-01 0.31874537E+03</pdfrwt>
<pdfrwt beam="2">  1       -1 0.50113387E-01 0.31874537E+03</pdfrwt>
<totfact> 0.84816305E+02</totfact>
</mgrwt>
</event>
<event>
 6    1  0.5818426E-006  0.1319499E+03  0.7546771E-02  0.1240992E+00
         -1   -1    0    0    0  501 -0.00000000000E+00  0.00000000000E+00  0.65759147997E+02  0.65759147997E+02  0.00000000000E+00 0.  1.
          1   -1    0    0  501    0  0.00000000000E+00 -0.00000000000E+00 -0.20632779594E+03  0.20632779594E+03  0.00000000000E+00 0. -1.
          5    1    1    2  502    0  0.63091750763E+02 -0.38711220672E+02 -0.60799537447E+01  0.74418972432E+02  0.47000000000E+01 0. -1.
         -5    1    1    2    0  502 -0.36755226428E+02  0.34374805503E+02 -0.43010172814E+02  0.66366700148E+02  0.47000000000E+01 0.  1.
        -11    1    1    2    0    0 -0.19032765721E+01  0.16688251352E+02  0.14286333455E+02  0.22050385903E+02  0.00000000000E+00 0.  1.
         11    1    1    2    0    0 -0.24433247764E+02 -0.12351836183E+02 -0.10576485484E+03  0.10925088546E+03  0.00000000000E+00 0. -1.
<mgrwt>
<rscale>  0 0.12128514E+03</rscale>
<asrwt>0</asrwt>
<pdfrwt beam="2">  1        1 0.31742737E-01 0.13194986E+03</pdfrwt>
<pdfrwt beam="1">  1       -1 0.10116792E-01 0.13194986E+03</pdfrwt>
<totfact> 0.79755662E+03</totfact>
</mgrwt>
</event>
<event>
 6    1  0.5818426E-006  0.2934163E+03  0.7546771E-02  0.1088579E+00
         -1   -1    0    0    0  501 -0.00000000000E+00  0.00000000000E+00  0.96028101148E+02  0.96028101148E+02  0.00000000000E+00 0.  1.
          1   -1    0    0  501    0  0.00000000000E+00 -0.00000000000E+00 -0.22413529167E+03  0.22413529167E+03  0.00000000000E+00 0. -1.
          5    1    1    2  502    0 -0.18487222908E+02 -0.30768874099E+01 -0.95619000628E+02  0.97551667992E+02  0.47000000000E+01 0.  1.
         -5    1    1    2    0  502 -0.78634679576E+02 -0.17814756822E+02  0.13680940817E+02  0.81914812667E+02  0.47000000000E+01 0.  1.
        -11    1    1    2    0    0  0.18865743626E+02  0.36005762183E+02 -0.45471243228E+02  0.60991517062E+02  0.00000000000E+00 0. -1.
         11    1    1    2    0    0  0.78256158859E+02 -0.15114117951E+02 -0.69788748551E+00  0.79705395098E+02  0.00000000000E+00 0.  1.
<mgrwt>
<rscale>  0 0.29341634E+03</rscale>
<asrwt>0</asrwt>
<pdfrwt beam="2">  1        1 0.34482352E-01 0.29341634E+03</pdfrwt>
<pdfrwt beam="1">  1       -1 0.14773554E-01 0.29341634E+03</pdfrwt>
<totfact> 0.41639629E+03</totfact>
</mgrwt>
</event>
<event>
 6    1  0.5818426E-006  0.1451779E+03  0.7546771E-02  0.1216864E+00
         -2   -1    0    0    0  501 -0.00000000000E+00  0.00000000000E+00  0.67432974630E+02  0.67432974630E+02  0.00000000000E+00 0. -1.
          2   -1    0    0  501    0  0.00000000000E+00 -0.00000000000E+00 -0.25404617498E+03  0.25404617498E+03  0.00000000000E+00 0.  1.
          5    1    1    2  502    0 -0.58945332298E+02  0.29261250320E+01 -0.12464348761E+03  0.13798986706E+03  0.47000000000E+01 0.  1.
         -5    1    1    2    0  502 -0.89680977283E+01  0.26052845184E+02  0.25480515716E+02  0.37822271220E+02  0.47000000000E+01 0.  1.
        -11    1    1    2    0    0  0.41474138038E+02 -0.10432791680E+02 -0.10173129011E+03  0.11035489412E+03  0.00000000000E+00 0.  1.
         11    1    1    2    0    0  0.26439291988E+02 -0.18546178536E+02  0.14281061664E+02  0.35312117203E+02  0.00000000000E+00 0. -1.
<mgrwt>
<rscale>  0 0.13740519E+03</rscale>
<asrwt>0</asrwt>
<pdfrwt beam="2">  1        2 0.39084028E-01 0.14517787E+03</pdfrwt>
<pdfrwt beam="1">  1       -2 0.10374304E-01 0.14517787E+03</pdfrwt>
<totfact> 0.78190717E+03</totfact>
</mgrwt>
</event>
<event>
 6    1  0.5818426E-006  0.2131885E+03  0.7546771E-02  0.1142743E+00
         -2   -1    0    0    0  501 -0.00000000000E+00  0.00000000000E+00  0.59813228207E+03  0.59813228207E+03  0.00000000000E+00 0.  1.
          2   -1    0    0  501    0  0.00000000000E+00 -0.00000000000E+00 -0.70240462945E+02  0.70240462945E+02  0.00000000000E+00 0. -1.
          5    1    1    2  502    0 -0.94128086228E+02 -0.30621296717E+02  0.12123587446E+03  0.15658220744E+03  0.47000000000E+01 0. -1.
         -5    1    1    2    0  502 -0.25280707488E+01 -0.11249457716E+03  0.18407096587E+03  0.21579071229E+03  0.47000000000E+01 0. -1.
        -11    1    1    2    0    0  0.38886778300E+02  0.40776982284E+02  0.14398883694E+03  0.15462124360E+03  0.00000000000E+00 0.  1.
         11    1    1    2    0    0  0.57769378677E+02  0.10233889159E+03  0.78596141859E+02  0.14137858169E+03  0.00000000000E+00 0. -1.
<mgrwt>
<rscale>  0 0.20852026E+03</rscale>
<asrwt>0</asrwt>
<pdfrwt beam="2">  1        2 0.10806225E-01 0.21318847E+03</pdfrwt>
<pdfrwt beam="1">  1       -2 0.92020348E-01 0.21318847E+03</pdfrwt>
<totfact> 0.60169791E+02</totfact>
</mgrwt>
</event>
<event>
 6    1  0.5818426E-006  0.1718965E+03  0.7546771E-02  0.1182410E+00
          2   -1    0    0  501    0  0.00000000000E+00  0.00000000000E+00  0.37014505426E+03  0.37014505426E+03  0.00000000000E+00 0. -1.
         -2   -1    0    0    0  501 -0.00000000000E+00 -0.00000000000E+00 -0.79574453032E+02  0.79574453032E+02  0.00000000000E+00 0.  1.
          5    1    1    2  502    0 -0.14951377306E+02  0.47269571717E+02 -0.21401068789E+01  0.49846024426E+02  0.47000000000E+01 0.  1.
         -5    1    1    2    0  502  0.11257801833E+03  0.19013110974E+02  0.76074629588E+02  0.13727617370E+03  0.47000000000E+01 0.  1.
        -11    1    1    2    0    0 -0.51713859968E+02 -0.71185061406E+02  0.18977260264E+03  0.20917762068E+03  0.00000000000E+00 0.  1.
         11    1    1    2    0    0 -0.45912781055E+02  0.49023787154E+01  0.26863475881E+02  0.53419688484E+02  0.00000000000E+00 0. -1.
<mgrwt>
<rscale>  0 0.16569813E+03</rscale>
<asrwt>0</asrwt>
<pdfrwt beam="1">  1        2 0.56945392E-01 0.17189649E+03</pdfrwt>
<pdfrwt beam="2">  1       -2 0.12242224E-01 0.17189649E+03</pdfrwt>
<totfact> 0.40592990E+03</totfact>
</mgrwt>
</event>
<event>
 6    1  0.5818426E-006  0.4026126E+03  0.7546771E-02  0.1042879E+00
          2   -1    0    0  501    0  0.00000000000E+00  0.00000000000E+00  0.67106587215E+03  0.67106587215E+03  0.00000000000E+00 0. -1.
         -2   -1    0    0    0  501 -0.00000000000E+00 -0.00000000000E+00 -0.60387842360E+02  0.60387842360E+02  0.00000000000E+00 0.  1.
          5    1    1    2  502    0  0.14533373009E+03  0.22092836522E+02  0.10466142280E+03  0.18051617643E+03  0.47000000000E+01 0.  1.
         -5    1    1    2    0  502  0.16629255100E+02 -0.15744723072E+02  0.12480604755E+03  0.12697664326E+03  0.47000000000E+01 0.  1.
        -11    1    1    2    0    0 -0.75062795410E+02  0.13325893072E+02  0.82884968982E+02  0.11261403449E+03  0.00000000000E+00 0.  1.
         11    1    1    2    0    0 -0.86900189783E+02 -0.19674006522E+02  0.29832559046E+03  0.31134686033E+03  0.00000000000E+00 0. -1.
<mgrwt>
<rscale>  0 0.40261257E+03</rscale>
<asrwt>0</asrwt>
<pdfrwt beam="1">  1        2 0.10324090E+00 0.40261257E+03</pdfrwt>
<pdfrwt beam="2">  1       -2 0.92904377E-02 0.40261257E+03</pdfrwt>
<totfact> 0.33137558E+03</totfact>
</mgrwt>
</event>
<event>
 6    1  0.5818426E-006  0.2460152E+03  0.7546771E-02  0.1118354E+00
          1   -1    0    0  501    0  0.00000000000E+00  0.00000000000E+00  0.86205192734E+03  0.86205192734E+03  0.00000000000E+00 0. -1.
         -1   -1    0    0    0  501 -0.00000000000E+00 -0.00000000000E+00 -0.71768688488E+02  0.71768688488E+02  0.00000000000E+00 0.  1.
          5    1    1    2  502    0 -0.17673496233E+03  0.14039517974E+03  0.52620326067E+03  0.57258887078E+03  0.47000000000E+01 0. -1.
         -5    1    1    2    0  502  0.13510784247E+02 -0.52677584062E+01  0.12804177768E+02  0.19907976740E+02  0.47000000000E+01 0. -1.
        -11    1    1    2    0    0  0.11265478911E+03 -0.92411110148E+02  0.22910324348E+03  0.27151281914E+03  0.00000000000E+00 0. -1.
         11    1    1    2    0    0  0.50569388977E+02 -0.42716311181E+02  0.22172556943E+02  0.69810949168E+02  0.00000000000E+00 0.  1.
<mgrwt>
<rscale>  0 0.24217310E+03</rscale>
<asrwt>0</asrwt>
<pdfrwt beam="1">  1        1 0.13262337E+00 0.24601523E+03</pdfrwt>
<pdfrwt beam="2">  1       -1 0.11041337E-01 0.24601523E+03</pdfrwt>
<totfact> 0.10712424E+03</totfact>
</mgrwt>
</event>
<event>
 6    1  0.5818426E-006  0.1614234E+03  0.7546771E-02  0.1194752E+00
          3   -1    0    0  501    0  0.00000000000E+00  0.00000000000E+00  0.46559358976E+03  0.46559358976E+03  0.00000000000E+00 0. -1.
         -3   -1    0    0    0  501 -0.00000000000E+00 -0.00000000000E+00 -0.49445032475E+02  0.49445032475E+02  0.00000000000E+00 0.  1.
          5    1    1    2  502    0 -0.34204329370E+02 -0.10438302041E+03  0.16673723699E+03  0.19972267597E+03  0.47000000000E+01 0.  1.
         -5    1    1    2    0  502  0.37356726130E+02  0.23236079987E+01  0.87652807472E+01  0.38727823175E+02  0.47000000000E+01 0.  1.
        -11    1    1    2    0    0 -0.27737987320E+02  0.84331995419E+02  0.10454575266E+03  0.13715354823E+03  0.00000000000E+00 0.  1.
         11    1    1    2    0    0  0.24585590560E+02  0.17727416994E+02  0.13610028688E+03  0.13943457486E+03  0.00000000000E+00 0. -1.
<mgrwt>
<rscale>  0 0.15475195E+03</rscale>
<asrwt>0</asrwt>
<pdfrwt beam="1">  1        3 0.71629780E-01 0.16142338E+03</pdfrwt>
<pdfrwt beam="2">  1       -3 0.76069284E-02 0.16142338E+03</pdfrwt>
<totfact> 0.52195327E+02</totfact>
</mgrwt>
</event>
<event>
 6    1  0.5818426E-006  0.1801219E+03  0.7546771E-02  0.1173494E+00
          1   -1    0    0  501    0  0.00000000000E+00  0.00000000000E+00  0.57463436463E+02  0.57463436463E+02  0.00000000000E+00 0. -1.
         -1   -1    0    0    0  501 -0.00000000000E+00 -0.00000000000E+00 -0.56307115237E+03  0.56307115237E+03  0.00000000000E+00 0.  1.
          5    1    1    2  502    0  0.22448069922E+02  0.46668019044E+02 -0.26735576931E+02  0.58469658101E+02  0.47000000000E+01 0. -1.
         -5    1    1    2    0  502  0.63609347268E+02  0.50355269262E+02 -0.34724404389E+03  0.35662630051E+03  0.47000000000E+01 0. -1.
        -11    1    1    2    0    0 -0.87213249754E+02 -0.46251591204E+02 -0.11596489872E+03  0.15229319866E+03  0.00000000000E+00 0.  1.
         11    1    1    2    0    0  0.11558325648E+01 -0.50771697102E+02 -0.15663196368E+02  0.53145431563E+02  0.00000000000E+00 0. -1.
<mgrwt>
<rscale>  0 0.17424253E+03</rscale>
<asrwt>0</asrwt>
<pdfrwt beam="1">  1        1 0.88405290E-02 0.18012190E+03</pdfrwt>
<pdfrwt beam="2">  1       -1 0.86626328E-01 0.18012190E+03</pdfrwt>
<totfact> 0.10370852E+03</totfact>
</mgrwt>
</event>
<event>
 6    1  0.5818426E-006  0.1634776E+03  0.7546771E-02  0.1198342E+00
         -1   -1    0    0    0  501 -0.00000000000E+00  0.00000000000E+00  0.10688731704E+03  0.10688731704E+03  0.00000000000E+00 0.  1.
          1   -1    0    0  501    0  0.00000000000E+00 -0.00000000000E+00 -0.38458489052E+03  0.38458489052E+03  0.00000000000E+00 0. -1.
          5    1    1    2  502    0  0.50598609094E+02  0.47876144854E+02  0.40898440343E+02  0.80914256536E+02  0.47000000000E+01 0.  1.
         -5    1    1    2    0  502  0.22265832622E+02 -0.79762108598E+02 -0.15925263795E+02  0.84459844288E+02  0.47000000000E+01 0. -1.
        -11    1    1    2    0    0 -0.20475349153E+02  0.33168881054E+02 -0.32090331800E+02  0.50489642387E+02  0.00000000000E+00 0.  1.
         11    1    1    2    0    0 -0.52389092563E+02 -0.12829173099E+01 -0.27058041822E+03  0.27560846435E+03  0.00000000000E+00 0. -1.
<mgrwt>
<rscale>  0 0.15174714E+03</rscale>
<asrwt>0</asrwt>
<pdfrwt beam="2">  1        1 0.59166906E-01 0.16347762E+03</pdfrwt>
<pdfrwt beam="1">  1       -1 0.16444203E-01 0.16347762E+03</pdfrwt>
<totfact> 0.17459481E+03</totfact>
</mgrwt>
</event>
<event>
 6    1  0.5818426E-006  0.2880816E+03  0.7546771E-02  0.1134610E+00
          2   -1    0    0  501    0  0.00000000000E+00  0.00000000000E+00  0.60729278004E+03  0.60729278004E+03  0.00000000000E+00 0. -1.
         -2   -1    0    0    0  501 -0.00000000000E+00 -0.00000000000E+00 -0.64890741730E+02  0.64890741730E+02  0.00000000000E+00 0.  1.
          5    1    1    2  502    0 -0.64788871445E+02  0.87450525571E+02  0.24624723891E+03  0.26926749703E+03  0.47000000000E+01 0. -1.
         -5    1    1    2    0  502  0.78121118557E+02 -0.12182742646E+03  0.78009851998E+02  0.16447631444E+03  0.47000000000E+01 0.  1.
        -11    1    1    2    0    0 -0.48875879384E+02  0.16352092058E+02  0.84480555771E+02  0.98960632596E+02  0.00000000000E+00 0.  1.
         11    1    1    2    0    0  0.35543632273E+02  0.18024808828E+02  0.13366439163E+03  0.13947907771E+03  0.00000000000E+00 0. -1.
<mgrwt>
<rscale>  0 0.21902811E+03</rscale>
<asrwt>0</asrwt>
<pdfrwt beam="1">  1        2 0.93429655E-01 0.28808164E+03</pdfrwt>
<pdfrwt beam="2">  1       -2 0.99831914E-02 0.28808164E+03</pdfrwt>
<totfact> 0.33041304E+03</totfact>
</mgrwt>
</event>
<event>
 6    1  0.5818426E-006  0.3109341E+03  0.7546771E-02  0.1079899E+00
          1   -1    0    0  501    0  0.00000000000E+00  0.00000000000E+00  0.22706567408E+03  0.22706567408E+03  0.00000000000E+00 0. -1.
         -1   -1    0    0    0  501 -0.00000000000E+00 -0.00000000000E+00 -0.10644501041E+03  0.10644501041E+03  0.00000000000E+00 0.  1.
          5    1    1    2  502    0 -0.84468552898E+02  0.75749964431E+02  0.61960288550E+02  0.12936058479E+03  0.47000000000E+01 0. -1.
         -5    1    1    2    0  502  0.92389982485E+01 -0.23233633102E+01 -0.34644225133E+02  0.36236300042E+02  0.47000000000E+01 0. -1.
        -11    1    1    2    0    0  0.76234101711E+02 -0.43226580362E+02  0.10387177928E+03  0.13590261971E+03  0.00000000000E+00 0. -1.
         11    1    1    2    0    0 -0.10045470618E+01 -0.30200020759E+02 -0.10567179027E+02  0.32011179941E+02  0.00000000000E+00 0.  1.
<mgrwt>
<rscale>  0 0.31093413E+03</rscale>
<asrwt>0</asrwt>
<pdfrwt beam="1">  1        1 0.34933181E-01 0.31093413E+03</pdfrwt>
<pdfrwt beam="2">  1       -1 0.16376155E-01 0.31093413E+03</pdfrwt>
<totfact> 0.34806074E+03</totfact>
</mgrwt>
</event>
<event>
 6    1  0.5818426E-006  0.1250744E+03  0.7546771E-02  0.1249922E+00
          4   -1    0    0  501    0  0.00000000000E+00  0.00000000000E+00  0.90764297748E+02  0.90764297748E+02  0.00000000000E+00 0. -1.
         -4   -1    0    0    0  501 -0.00000000000E+00 -0.00000000000E+00 -0.15792939687E+03  0.15792939687E+03  0.00000000000E+00 0.  1.
          5    1    1    2  502    0  0.56112366266E+02 -0.67847092687E+01 -0.88055358230E+01  0.57395621688E+02  0.47000000000E+01 0. -1.
         -5    1    1    2    0  502 -0.52008443944E+02  0.80475050629E+01 -0.80493116880E+02  0.96285369835E+02  0.47000000000E+01 0. -1.
        -11    1    1    2    0    0 -0.14020087857E+02  0.72516010232E+01 -0.33942749615E+02  0.37433391943E+02  0.00000000000E+00 0.  1.
         11    1    1    2    0    0  0.99161655346E+01 -0.85143968174E+01  0.56076303198E+02  0.57579311150E+02  0.00000000000E+00 0. -1.
<mgrwt>
<rscale>  0 0.11595586E+03</rscale>
<asrwt>0</asrwt>
<pdfrwt beam="1">  1        4 0.13963738E-01 0.12507437E+03</pdfrwt>
<pdfrwt beam="2">  1       -4 0.24296830E-01 0.12507437E+03</pdfrwt>
<totfact> 0.10939192E+03</totfact>
</mgrwt>
</event>
<event>
 6    1  0.5818426E-006  0.1453155E+03  0.7546771E-02  0.1225433E+00
          1   -1    0    0  501    0  0.00000000000E+00  0.00000000000E+00  0.69102552057E+02  0.69102552057E+02  0.00000000000E+00 0. -1.
         -1   -1    0    0    0  501 -0.00000000000E+00 -0.00000000000E+00 -0.21257843548E+03  0.21257843548E+03  0.00000000000E+00 0.  1.
          5    1    1    2  502    0  0.46681458367E+02  0.93484480485E+01  0.81558771810E+01  0.48529994527E+02  0.47000000000E+01 0. -1.
         -5    1    1    2    0  502 -0.75035012474E+02  0.82179889976E+01 -0.92524464560E+02  0.11950169447E+03  0.47000000000E+01 0.  1.
        -11    1    1    2    0    0  0.13808084182E+02 -0.54574411352E+02 -0.26471256829E+02  0.62207370956E+02  0.00000000000E+00 0.  1.
         11    1    1    2    0    0  0.14545469926E+02  0.37007974306E+02 -0.32636039216E+02  0.51441927582E+02  0.00000000000E+00 0. -1.
<mgrwt>
<rscale>  0 0.13137255E+03</rscale>
<asrwt>0</asrwt>
<pdfrwt beam="1">  1        1 0.10631162E-01 0.14531548E+03</pdfrwt>
<pdfrwt beam="2">  1       -1 0.32704374E-01 0.14531548E+03</pdfrwt>
<totfact> 0.49822152E+03</totfact>
</mgrwt>
</event>
<event>
 6    1  0.5818426E-006  0.2586820E+03  0.7546771E-02  0.1107938E+00
          2   -1    0    0  501    0  0.00000000000E+00  0.00000000000E+00  0.35272417085E+03  0.35272417085E+03  0.00000000000E+00 0. -1.
         -2   -1    0    0    0  501 -0.00000000000E+00 -0.00000000000E+00 -0.47428251204E+02  0.47428251204E+02  0.00000000000E+00 0.  1.
          5    1    1    2  502    0  0.42926035791E+02  0.34691780563E+02  0.14380457646E+03  0.15410389482E+03  0.47000000000E+01 0.  1.
         -5    1    1    2    0  502  0.84863806379E+01  0.79064885776E+00 -0.26572164176E+02  0.28298651751E+02  0.47000000000E+01 0.  1.
        -11    1    1    2    0    0 -0.81912719823E+01 -0.48209334237E+02  0.15309854897E+03  0.16071839515E+03  0.00000000000E+00 0. -1.
         11    1    1    2    0    0 -0.43221144447E+02  0.12726904817E+02  0.34964958397E+02  0.57031480335E+02  0.00000000000E+00 0.  1.
<mgrwt>
<rscale>  0 0.25868197E+03</rscale>
<asrwt>0</asrwt>
<pdfrwt beam="1">  1        2 0.54265255E-01 0.25868197E+03</pdfrwt>
<pdfrwt beam="2">  1       -2 0.72966543E-02 0.25868197E+03</pdfrwt>
<totfact> 0.98995601E+03</totfact>
</mgrwt>
</event>
<event>
 6    1  0.5818426E-006  0.2876313E+03  0.7546771E-02  0.1091592E+00
          1   -1    0    0  501    0  0.00000000000E+00  0.00000000000E+00  0.41044564721E+03  0.41044564721E+03  0.00000000000E+00 0. -1.
         -1   -1    0    0    0  501 -0.00000000000E+00 -0.00000000000E+00 -0.50391409032E+02  0.50391409032E+02  0.00000000000E+00 0.  1.
          5    1    1    2  502    0  0.38747272997E+02  0.90187289442E+01  0.89823030796E+02  0.98351184527E+02  0.47000000000E+01 0. -1.
         -5    1    1    2    0  502 -0.80909487875E+02  0.74629320076E+02  0.11550979590E+03  0.15962607428E+03  0.47000000000E+01 0. -1.
        -11    1    1    2    0    0  0.44610292002E+02 -0.41549079933E+02  0.14812184877E+03  0.16017642235E+03  0.00000000000E+00 0. -1.
         11    1    1    2    0    0 -0.24480771246E+01 -0.42098969087E+02  0.65995627165E+01  0.42683375076E+02  0.00000000000E+00 0.  1.
<mgrwt>
<rscale>  0 0.28763125E+03</rscale>
<asrwt>0</asrwt>
<pdfrwt beam="1">  1        1 0.63145482E-01 0.28763125E+03</pdfrwt>
<pdfrwt beam="2">  1       -1 0.77525247E-02 0.28763125E+03</pdfrwt>
<totfact> 0.52759537E+03</totfact>
</mgrwt>
</event>
<event>
 6    1  0.5818426E-006  0.3143092E+03  0.7546771E-02  0.1078299E+00
          2   -1    0    0  501    0  0.00000000000E+00  0.00000000000E+00  0.38139561069E+03  0.38139561069E+03  0.00000000000E+00 0. -1.
         -2   -1    0    0    0  501 -0.00000000000E+00 -0.00000000000E+00 -0.64755757102E+02  0.64755757102E+02  0.00000000000E+00 0.  1.
          5    1    1    2  502    0 -0.26173493988E+02  0.93691297771E+01  0.10884498306E+02  0.30222420216E+02  0.47000000000E+01 0.  1.
         -5    1    1    2    0  502  0.13637336986E+03  0.43369509819E+01  0.12790446382E+03  0.18707791697E+03  0.47000000000E+01 0.  1.
        -11    1    1    2    0    0 -0.53308742195E+02  0.18723726563E+01  0.14648708171E+02  0.55316475167E+02  0.00000000000E+00 0.  1.
         11    1    1    2    0    0 -0.56891133679E+02 -0.15578453415E+02  0.16320218329E+03  0.17353455544E+03  0.00000000000E+00 0. -1.
<mgrwt>
<rscale>  0 0.31430916E+03</rscale>
<asrwt>0</asrwt>
<pdfrwt beam="1">  1        2 0.58676246E-01 0.31430916E+03</pdfrwt>
<pdfrwt beam="2">  1       -2 0.99624244E-02 0.31430916E+03</pdfrwt>
<totfact> 0.56143335E+03</totfact>
</mgrwt>
</event>
<event>
 6    1  0.5818426E-006  0.2647908E+03  0.7546771E-02  0.1104299E+00
         -2   -1    0    0    0  501 -0.00000000000E+00  0.00000000000E+00  0.11429157180E+03  0.11429157180E+03  0.00000000000E+00 0.  1.
          2   -1    0    0  501    0  0.00000000000E+00 -0.00000000000E+00 -0.15336689200E+03  0.15336689200E+03  0.00000000000E+00 0. -1.
          5    1    1    2  502    0  0.18000012221E+01  0.12958768610E+02  0.48776810220E+02  0.50719196598E+02  0.47000000000E+01 0. -1.
         -5    1    1    2    0  502  0.73593580450E+02 -0.63656832699E+01 -0.61002603301E+02  0.95916341759E+02  0.47000000000E+01 0. -1.
        -11    1    1    2    0    0 -0.23126304096E+02 -0.46256392798E+02 -0.18288649759E+02  0.54853938106E+02  0.00000000000E+00 0.  1.
         11    1    1    2    0    0 -0.52267277576E+02  0.39663307457E+02 -0.85608773545E+01  0.66168987333E+02  0.00000000000E+00 0. -1.
<mgrwt>
<rscale>  0 0.26479081E+03</rscale>
<asrwt>0</asrwt>
<pdfrwt beam="2">  1        2 0.23594907E-01 0.26479081E+03</pdfrwt>
<pdfrwt beam="1">  1       -2 0.17583319E-01 0.26479081E+03</pdfrwt>
<totfact> 0.59611118E+03</totfact>
</mgrwt>
</event>
<event>
 6    1  0.5818426E-006  0.1282991E+03  0.7546771E-02  0.1244656E+00
          1   -1    0    0  501    0  0.00000000000E+00  0.00000000000E+00  0.32233040744E+03  0.32233040744E+03  0.00000000000E+00 0. -1.
         -1   -1    0    0    0  501 -0.00000000000E+00 -0.00000000000E+00 -0.44546167631E+02  0.44546167631E+02  0.00000000000E+00 0.  1.
          5    1    1    2  502    0 -0.60421637444E+02  0.11336568441E+02  0.40511547704E+01  0.61788299138E+02  0.47000000000E+01 0.  1.
         -5    1    1    2    0  502  0.33102931548E+02 -0.20868472364E+02  0.87074991758E+02  0.95579503062E+02  0.47000000000E+01 0.  1.
        -11    1    1    2    0    0  0.22189948718E+02  0.49785093484E+02  0.10328555099E+03  0.11678550595E+03  0.00000000000E+00 0. -1.
         11    1    1    2    0    0  0.51287571782E+01 -0.40253189561E+02  0.83372542292E+02  0.92723266920E+02  0.00000000000E+00 0.  1.
<mgrwt>
<rscale>  0 0.11905970E+03</rscale>
<asrwt>0</asrwt>
<pdfrwt beam="1">  1        1 0.49589292E-01 0.12829907E+03</pdfrwt>
<pdfrwt beam="2">  1       -1 0.68532568E-02 0.12829907E+03</pdfrwt>
<totfact> 0.82571260E+03</totfact>
</mgrwt>
</event>
<event>
 6    1  0.5818426E-006  0.1467817E+03  0.7546771E-02  0.1215628E+00
          2   -1    0    0  501    0  0.00000000000E+00  0.00000000000E+00  0.38626565127E+03  0.38626565127E+03  0.00000000000E+00 0. -1.
         -2   -1    0    0    0  501 -0.00000000000E+00 -0.00000000000E+00 -0.44794668263E+02  0.44794668263E+02  0.00000000000E+00 0.  1.
          5    1    1    2  502    0 -0.10208765967E+02  0.40532726739E+02  0.28797178019E+02  0.50975369555E+02  0.47000000000E+01 0.  1.
         -5    1    1    2    0  502  0.87119689533E+02 -0.42395464692E+02  0.17646798953E+03  0.20137094393E+03  0.47000000000E+01 0.  1.
        -11    1    1    2    0    0 -0.18974168049E+02  0.10159678427E+02  0.11416101354E+03  0.11617217882E+03  0.00000000000E+00 0. -1.
         11    1    1    2    0    0 -0.57936755518E+02 -0.82969404745E+01  0.22044801914E+02  0.62541827224E+02  0.00000000000E+00 0.  1.
<mgrwt>
<rscale>  0 0.13830505E+03</rscale>
<asrwt>0</asrwt>
<pdfrwt beam="1">  1        2 0.59425483E-01 0.14678172E+03</pdfrwt>
<pdfrwt beam="2">  1       -2 0.68914877E-02 0.14678172E+03</pdfrwt>
<totfact> 0.94607016E+03</totfact>
</mgrwt>
</event>
<event>
 6    1  0.5818426E-006  0.1266711E+03  0.7546771E-02  0.1248260E+00
          2   -1    0    0  501    0  0.00000000000E+00  0.00000000000E+00  0.37348751211E+03  0.37348751211E+03  0.00000000000E+00 0. -1.
         -2   -1    0    0    0  501 -0.00000000000E+00 -0.00000000000E+00 -0.32814694651E+02  0.32814694651E+02  0.00000000000E+00 0.  1.
          5    1    1    2  502    0  0.55472938739E+02  0.70401053919E+01  0.89526250938E+02  0.10565911992E+03  0.47000000000E+01 0.  1.
         -5    1    1    2    0  502 -0.68405805236E+02  0.88831955110E+01  0.75452413886E+02  0.10233973868E+03  0.47000000000E+01 0.  1.
        -11    1    1    2    0    0  0.31236622994E+01 -0.39344757073E+02  0.27876299827E+02  0.48320340100E+02  0.00000000000E+00 0.  1.
         11    1    1    2    0    0  0.98092041976E+01  0.23421456170E+02  0.14781785281E+03  0.14998300805E+03  0.00000000000E+00 0. -1.
<mgrwt>
<rscale>  0 0.11692365E+03</rscale>
<asrwt>0</asrwt>
<pdfrwt beam="1">  1        2 0.57459614E-01 0.12667109E+03</pdfrwt>
<pdfrwt beam="2">  1       -2 0.50484148E-02 0.12667109E+03</pdfrwt>
<totfact> 0.15536421E+04</totfact>
</mgrwt>
</event>
<event>
 6    1  0.5818426E-006  0.1257093E+03  0.7546771E-02  0.1249898E+00
         -2   -1    0    0    0  501 -0.00000000000E+00  0.00000000000E+00  0.28353879826E+02  0.28353879826E+02  0.00000000000E+00 0. -1.
          2   -1    0    0  501    0  0.00000000000E+00 -0.00000000000E+00 -0.41903363372E+03  0.41903363372E+03  0.00000000000E+00 0.  1.
          5    1    1    2  502    0  0.44088933608E+02 -0.52351552016E+02 -0.11857159262E+03  0.13698843616E+03  0.47000000000E+01 0. -1.
         -5    1    1    2    0  502 -0.38671818641E+02  0.40166295720E+02 -0.13120958142E+03  0.14264250813E+03  0.47000000000E+01 0. -1.
        -11    1    1    2    0    0 -0.25872586520E+01  0.39505053883E+02 -0.21123226833E+02  0.44872418047E+02  0.00000000000E+00 0. -1.
         11    1    1    2    0    0 -0.28298563156E+01 -0.27319797586E+02 -0.11977535302E+03  0.12288415121E+03  0.00000000000E+00 0.  1.
<mgrwt>
<rscale>  0 0.11596955E+03</rscale>
<asrwt>0</asrwt>
<pdfrwt beam="2">  1        2 0.64466710E-01 0.12570931E+03</pdfrwt>
<pdfrwt beam="1">  1       -2 0.43621356E-02 0.12570931E+03</pdfrwt>
<totfact> 0.17086058E+04</totfact>
</mgrwt>
</event>
<event>
 6    1  0.5818426E-006  0.1421022E+03  0.7546771E-02  0.1222659E+00
          1   -1    0    0  501    0  0.00000000000E+00  0.00000000000E+00  0.52172210180E+02  0.52172210180E+02  0.00000000000E+00 0. -1.
         -1   -1    0    0    0  501 -0.00000000000E+00 -0.00000000000E+00 -0.31451286868E+03  0.31451286868E+03  0.00000000000E+00 0.  1.
          5    1    1    2  502    0  0.10038988982E+03  0.29363559740E+02 -0.13594774826E+03  0.17159320754E+03  0.47000000000E+01 0.  1.
         -5    1    1    2    0  502 -0.35286536539E+02 -0.11194784384E+02 -0.43828038422E+02  0.57562572998E+02  0.47000000000E+01 0.  1.
        -11    1    1    2    0    0 -0.67227646991E+02 -0.44853105399E+02 -0.73574388881E+02  0.10929111713E+03  0.00000000000E+00 0. -1.
         11    1    1    2    0    0  0.21242937109E+01  0.26684330042E+02 -0.89904829403E+01  0.28238181193E+02  0.00000000000E+00 0.  1.
<mgrwt>
<rscale>  0 0.13328673E+03</rscale>
<asrwt>0</asrwt>
<pdfrwt beam="1">  1        1 0.80264940E-02 0.14210221E+03</pdfrwt>
<pdfrwt beam="2">  1       -1 0.48386595E-01 0.14210221E+03</pdfrwt>
<totfact> 0.36388291E+03</totfact>
</mgrwt>
</event>
<event>
 6    1  0.5818426E-006  0.1656038E+03  0.7546771E-02  0.1188939E+00
         -1   -1    0    0    0  501 -0.00000000000E+00  0.00000000000E+00  0.23900698124E+03  0.23900698124E+03  0.00000000000E+00 0.  1.
          1   -1    0    0  501    0  0.00000000000E+00 -0.00000000000E+00 -0.14083079227E+03  0.14083079227E+03  0.00000000000E+00 0. -1.
          5    1    1    2  502    0  0.44606454934E+02  0.97432060646E+02  0.82975413700E+02  0.13560881808E+03  0.47000000000E+01 0. -1.
         -5    1    1    2    0  502 -0.54962050453E+02  0.10700479723E+02  0.70730092258E+02  0.90333621687E+02  0.47000000000E+01 0. -1.
        -11    1    1    2    0    0  0.42881510349E+01 -0.12325299399E+03 -0.59787627018E+02  0.13705564239E+03  0.00000000000E+00 0. -1.
         11    1    1    2    0    0  0.60674444842E+01  0.15120453618E+02  0.42583100283E+01  0.16839691342E+02  0.00000000000E+00 0.  1.
<mgrwt>
<rscale>  0 0.15978527E+03</rscale>
<asrwt>0</asrwt>
<pdfrwt beam="2">  1        1 0.21666276E-01 0.16560375E+03</pdfrwt>
<pdfrwt beam="1">  1       -1 0.36770305E-01 0.16560375E+03</pdfrwt>
<totfact> 0.16261104E+03</totfact>
</mgrwt>
</event>
<event>
 6    1  0.5818426E-006  0.1261235E+03  0.7546771E-02  0.1246019E+00
         -2   -1    0    0    0  501 -0.00000000000E+00  0.00000000000E+00  0.58967862285E+02  0.58967862285E+02  0.00000000000E+00 0.  1.
          2   -1    0    0  501    0  0.00000000000E+00 -0.00000000000E+00 -0.22058141994E+03  0.22058141994E+03  0.00000000000E+00 0. -1.
          5    1    1    2  502    0 -0.13096738037E+01  0.28872907383E+02  0.32521236597E+02  0.43761636807E+02  0.47000000000E+01 0.  1.
         -5    1    1    2    0  502  0.90077975557E+01 -0.14031448314E+02 -0.95785351130E+02  0.97339331463E+02  0.47000000000E+01 0.  1.
        -11    1    1    2    0    0  0.13907554324E+02 -0.47668770667E+02 -0.25848107979E+02  0.55980857891E+02  0.00000000000E+00 0.  1.
         11    1    1    2    0    0 -0.21605678076E+02  0.32827311597E+02 -0.72501335146E+02  0.82467456065E+02  0.00000000000E+00 0. -1.
<mgrwt>
<rscale>  0 0.11824579E+03</rscale>
<asrwt>0</asrwt>
<pdfrwt beam="2">  1        2 0.33935603E-01 0.12612349E+03</pdfrwt>
<pdfrwt beam="1">  1       -2 0.90719789E-02 0.12612349E+03</pdfrwt>
<totfact> 0.11103404E+04</totfact>
</mgrwt>
</event>
<event>
 6    1  0.5818426E-006  0.4043768E+03  0.7546771E-02  0.1043132E+00
          2   -1    0    0  501    0  0.00000000000E+00  0.00000000000E+00  0.33497846526E+03  0.33497846526E+03  0.00000000000E+00 0. -1.
         -2   -1    0    0    0  501 -0.00000000000E+00 -0.00000000000E+00 -0.47976775164E+03  0.47976775164E+03  0.00000000000E+00 0.  1.
          5    1    1    2  502    0 -0.12922487007E+03 -0.14651938713E+03 -0.35718396685E+02  0.19865772502E+03  0.47000000000E+01 0.  1.
         -5    1    1    2    0  502 -0.24400345969E+02 -0.20603202964E+03 -0.27332343652E+01  0.20754309117E+03  0.47000000000E+01 0.  1.
        -11    1    1    2    0    0  0.12418446808E+01  0.95977589495E+02 -0.22723404186E+02  0.98638699105E+02  0.00000000000E+00 0.  1.
         11    1    1    2    0    0  0.15238337135E+03  0.25657382728E+03 -0.83614251146E+02  0.30990670161E+03  0.00000000000E+00 0. -1.
<mgrwt>
<rscale>  0 0.40187540E+03</rscale>
<asrwt>0</asrwt>
<pdfrwt beam="1">  1        2 0.51535149E-01 0.40437677E+03</pdfrwt>
<pdfrwt beam="2">  1       -2 0.73810423E-01 0.40437677E+03</pdfrwt>
<totfact> 0.16471590E+02</totfact>
</mgrwt>
</event>
<event>
 6    1  0.5818426E-006  0.2055661E+03  0.7546771E-02  0.1156154E+00
          1   -1    0    0  501    0  0.00000000000E+00  0.00000000000E+00  0.45741012964E+03  0.45741012964E+03  0.00000000000E+00 0. -1.
         -1   -1    0    0    0  501 -0.00000000000E+00 -0.00000000000E+00 -0.72550343133E+02  0.72550343133E+02  0.00000000000E+00 0.  1.
          5    1    1    2  502    0 -0.39308238840E+02  0.37460775614E+02  0.14549382116E+03  0.15536727244E+03  0.47000000000E+01 0. -1.
         -5    1    1    2    0  502 -0.42352079976E+02 -0.12036645102E+03  0.84555001835E+02  0.15314509311E+03  0.47000000000E+01 0.  1.
        -11    1    1    2    0    0  0.79736658494E+02  0.68657359415E+02  0.17038206489E+03  0.20025437759E+03  0.00000000000E+00 0.  1.
         11    1    1    2    0    0  0.19236603221E+01  0.14248315986E+02 -0.15571101377E+02  0.21193729628E+02  0.00000000000E+00 0. -1.
<mgrwt>
<rscale>  0 0.19258126E+03</rscale>
<asrwt>0</asrwt>
<pdfrwt beam="1">  1        1 0.70370788E-01 0.20556609E+03</pdfrwt>
<pdfrwt beam="2">  1       -1 0.11161591E-01 0.20556609E+03</pdfrwt>
<totfact> 0.25824045E+03</totfact>
</mgrwt>
</event>
<event>
 6    1  0.5818426E-006  0.1699728E+03  0.7546771E-02  0.1183744E+00
          1   -1    0    0  501    0  0.00000000000E+00  0.00000000000E+00  0.11449195694E+04  0.11449195694E+04  0.00000000000E+00 0. -1.
         -1   -1    0    0    0  501 -0.00000000000E+00 -0.00000000000E+00 -0.24464475430E+02  0.24464475430E+02  0.00000000000E+00 0.  1.
          5    1    1    2  502    0  0.36737699492E+02  0.88761204815E+01  0.62972459896E+02  0.73593918119E+02  0.47000000000E+01 0. -1.
         -5    1    1    2    0  502 -0.34378746530E+02 -0.12400985517E+03  0.35379872400E+03  0.37650493954E+03  0.47000000000E+01 0. -1.
        -11    1    1    2    0    0 -0.41643091348E+02  0.20271070891E+02  0.21548496306E+03  0.22040606316E+03  0.00000000000E+00 0. -1.
         11    1    1    2    0    0  0.39284138386E+02  0.94862663801E+02  0.48819894701E+03  0.49887912401E+03  0.00000000000E+00 0.  1.
<mgrwt>
<rscale>  0 0.16446712E+03</rscale>
<asrwt>0</asrwt>
<pdfrwt beam="1">  1        1 0.17614143E+00 0.16997283E+03</pdfrwt>
<pdfrwt beam="2">  1       -1 0.37637663E-02 0.16997283E+03</pdfrwt>
<totfact> 0.33422652E+03</totfact>
</mgrwt>
</event>
<event>
 6    1  0.5818426E-006  0.1340673E+03  0.7546771E-02  0.1234313E+00
          3   -1    0    0  501    0  0.00000000000E+00  0.00000000000E+00  0.65381267564E+02  0.65381267564E+02  0.00000000000E+00 0. -1.
         -3   -1    0    0    0  501 -0.00000000000E+00 -0.00000000000E+00 -0.21825902497E+03  0.21825902497E+03  0.00000000000E+00 0.  1.
          5    1    1    2  502    0  0.40465929573E+02  0.52134987502E+02 -0.72873156012E+01  0.66563829117E+02  0.47000000000E+01 0.  1.
         -5    1    1    2    0  502  0.48199221305E+01 -0.34868116681E+02 -0.96976846549E+02  0.10327446914E+03  0.47000000000E+01 0.  1.
        -11    1    1    2    0    0 -0.17249353322E+02  0.21981024187E+01 -0.70924928499E+02  0.73025456705E+02  0.00000000000E+00 0.  1.
         11    1    1    2    0    0 -0.28036498382E+02 -0.19464973239E+02  0.22311333247E+02  0.40776537567E+02  0.00000000000E+00 0. -1.
<mgrwt>
<rscale>  0 0.12548500E+03</rscale>
<asrwt>0</asrwt>
<pdfrwt beam="1">  1        3 0.10058656E-01 0.13406727E+03</pdfrwt>
<pdfrwt beam="2">  1       -3 0.33578312E-01 0.13406727E+03</pdfrwt>
<totfact> 0.14560723E+03</totfact>
</mgrwt>
</event>
<event>
 6    1  0.5818426E-006  0.1263434E+03  0.7546771E-02  0.1249278E+00
         -2   -1    0    0    0  501 -0.00000000000E+00  0.00000000000E+00  0.20798815462E+02  0.20798815462E+02  0.00000000000E+00 0.  1.
          2   -1    0    0  501    0  0.00000000000E+00 -0.00000000000E+00 -0.57972106171E+03  0.57972106171E+03  0.00000000000E+00 0. -1.
          5    1    1    2  502    0 -0.39724294440E+02  0.33745350353E+02 -0.18179591670E+03  0.18917878731E+03  0.47000000000E+01 0. -1.
         -5    1    1    2    0  502  0.57763992725E+02 -0.30340975671E+02 -0.98092443395E+02  0.11790449996E+03  0.47000000000E+01 0. -1.
        -11    1    1    2    0    0 -0.50283716457E+02  0.70790313968E+01 -0.21571697888E+03  0.22161313093E+03  0.00000000000E+00 0.  1.
         11    1    1    2    0    0  0.32244018172E+02 -0.10483406078E+02 -0.63316907279E+02  0.71823458969E+02  0.00000000000E+00 0. -1.
<mgrwt>
<rscale>  0 0.11632928E+03</rscale>
<asrwt>0</asrwt>
<pdfrwt beam="2">  1        2 0.89187865E-01 0.12634339E+03</pdfrwt>
<pdfrwt beam="1">  1       -2 0.31998174E-02 0.12634339E+03</pdfrwt>
<totfact> 0.18951428E+04</totfact>
</mgrwt>
</event>
<event>
 6    1  0.5818426E-006  0.1521560E+03  0.7546771E-02  0.1220420E+00
         -1   -1    0    0    0  501 -0.00000000000E+00  0.00000000000E+00  0.77451059049E+03  0.77451059049E+03  0.00000000000E+00 0.  1.
          1   -1    0    0  501    0  0.00000000000E+00 -0.00000000000E+00 -0.21075850217E+02  0.21075850217E+02  0.00000000000E+00 0. -1.
          5    1    1    2  502    0  0.42754868722E+02 -0.49762786928E+02  0.11586753369E+03  0.13323546497E+03  0.47000000000E+01 0. -1.
         -5    1    1    2    0  502 -0.37280652921E+02  0.33222302379E+02  0.44805740761E+03  0.45085596255E+03  0.47000000000E+01 0.  1.
        -11    1    1    2    0    0 -0.15311809513E+02  0.42110259773E+02  0.17469341229E+03  0.18034831240E+03  0.00000000000E+00 0.  1.
         11    1    1    2    0    0  0.98375937119E+01 -0.25569775223E+02  0.14816386679E+02  0.31146700776E+02  0.00000000000E+00 0. -1.
<mgrwt>
<rscale>  0 0.13485806E+03</rscale>
<asrwt>0</asrwt>
<pdfrwt beam="2">  1        1 0.32424391E-02 0.15215603E+03</pdfrwt>
<pdfrwt beam="1">  1       -1 0.11915545E+00 0.15215603E+03</pdfrwt>
<totfact> 0.20045107E+03</totfact>
</mgrwt>
</event>
<event>
 6    1  0.5818426E-006  0.4067856E+03  0.7546771E-02  0.1041455E+00
          1   -1    0    0  501    0  0.00000000000E+00  0.00000000000E+00  0.84011077803E+03  0.84011077803E+03  0.00000000000E+00 0. -1.
         -1   -1    0    0    0  501 -0.00000000000E+00 -0.00000000000E+00 -0.49241880407E+02  0.49241880407E+02  0.00000000000E+00 0.  1.
          5    1    1    2  502    0 -0.22397351283E+02 -0.79617045753E+01 -0.76713426766E+01  0.25415931671E+02  0.47000000000E+01 0. -1.
         -5    1    1    2    0  502 -0.97619822900E+02  0.10126248278E+03  0.24868335720E+03  0.28574328057E+03  0.47000000000E+01 0. -1.
        -11    1    1    2    0    0  0.19742531362E+02 -0.61422946404E+02  0.12707857931E+03  0.14251845919E+03  0.00000000000E+00 0.  1.
         11    1    1    2    0    0  0.10027464282E+03 -0.31877831797E+02  0.42277830378E+03  0.43567498700E+03  0.00000000000E+00 0. -1.
<mgrwt>
<rscale>  0 0.40678562E+03</rscale>
<asrwt>0</asrwt>
<pdfrwt beam="1">  1        1 0.12924780E+00 0.40678562E+03</pdfrwt>
<pdfrwt beam="2">  1       -1 0.75756745E-02 0.40678562E+03</pdfrwt>
<totfact> 0.20020094E+03</totfact>
</mgrwt>
</event>
<event>
 6    1  0.5818426E-006  0.8552918E+03  0.7546771E-02  0.9483262E-01
         -2   -1    0    0    0  501 -0.00000000000E+00  0.00000000000E+00  0.60146115756E+03  0.60146115756E+03  0.00000000000E+00 0.  1.
          2   -1    0    0  501    0  0.00000000000E+00 -0.00000000000E+00 -0.30406121689E+03  0.30406121689E+03  0.00000000000E+00 0. -1.
          5    1    1    2  502    0  0.43640973165E+02 -0.23526128572E+02  0.18270632638E+03  0.18937186951E+03  0.47000000000E+01 0. -1.
         -5    1    1    2    0  502 -0.82551881967E+02  0.73460503733E+02  0.39438499449E+03  0.40960087000E+03  0.47000000000E+01 0.  1.
        -11    1    1    2    0    0  0.54268758717E+02  0.31664944110E+01 -0.64405312989E+02  0.84280301380E+02  0.00000000000E+00 0.  1.
         11    1    1    2    0    0 -0.15357849915E+02 -0.53100869572E+02 -0.21528606721E+03  0.22226933355E+03  0.00000000000E+00 0. -1.
<mgrwt>
<rscale>  0 0.85529179E+03</rscale>
<asrwt>0</asrwt>
<pdfrwt beam="2">  1        2 0.46778649E-01 0.85529179E+03</pdfrwt>
<pdfrwt beam="1">  1       -2 0.92532486E-01 0.85529179E+03</pdfrwt>
<totfact> 0.10776202E+02</totfact>
</mgrwt>
</event>
<event>
 6    1  0.5818426E-006  0.2259669E+03  0.7546771E-02  0.1161688E+00
          2   -1    0    0  501    0  0.00000000000E+00  0.00000000000E+00  0.47099672114E+03  0.47099672114E+03  0.00000000000E+00 0. -1.
         -2   -1    0    0    0  501 -0.00000000000E+00 -0.00000000000E+00 -0.15378632001E+03  0.15378632001E+03  0.00000000000E+00 0.  1.
          5    1    1    2  502    0 -0.28922357130E+02  0.35031217161E+02  0.62049666634E+02  0.77045052062E+02  0.47000000000E+01 0. -1.
         -5    1    1    2    0  502  0.63947316119E+02 -0.75043387383E+02 -0.12163492495E+03  0.15664582406E+03  0.47000000000E+01 0.  1.
        -11    1    1    2    0    0  0.20981813957E+02 -0.96328200472E+01  0.40964987319E+02  0.47022951046E+02  0.00000000000E+00 0.  1.
         11    1    1    2    0    0 -0.56006772947E+02  0.49644990269E+02  0.33583067212E+03  0.34406921399E+03  0.00000000000E+00 0. -1.
<mgrwt>
<rscale>  0 0.18646594E+03</rscale>
<asrwt>0</asrwt>
<pdfrwt beam="1">  1        2 0.72461034E-01 0.22596686E+03</pdfrwt>
<pdfrwt beam="2">  1       -2 0.23659434E-01 0.22596686E+03</pdfrwt>
<totfact> 0.10438418E+03</totfact>
</mgrwt>
</event>
<event>
 6    1  0.5818426E-006  0.1379305E+03  0.7546771E-02  0.1227872E+00
         -1   -1    0    0    0  501 -0.00000000000E+00  0.00000000000E+00  0.50861035382E+02  0.50861035382E+02  0.00000000000E+00 0.  1.
          1   -1    0    0  501    0  0.00000000000E+00 -0.00000000000E+00 -0.30544987692E+03  0.30544987692E+03  0.00000000000E+00 0. -1.
          5    1    1    2  502    0 -0.40495948563E+01  0.45393089707E+02 -0.13713972133E+03  0.14459019669E+03  0.47000000000E+01 0. -1.
         -5    1    1    2    0  502  0.60205434837E+02 -0.29709553814E+02 -0.34579522773E+02  0.75664954682E+02  0.47000000000E+01 0. -1.
        -11    1    1    2    0    0 -0.29711716455E+02 -0.50101963053E+02 -0.69408860836E+02  0.90612266052E+02  0.00000000000E+00 0. -1.
         11    1    1    2    0    0 -0.26444123526E+02  0.34418427160E+02 -0.13460736598E+02  0.45443494881E+02  0.00000000000E+00 0.  1.
<mgrwt>
<rscale>  0 0.12972007E+03</rscale>
<asrwt>0</asrwt>
<pdfrwt beam="2">  1        1 0.46992288E-01 0.13793054E+03</pdfrwt>
<pdfrwt beam="1">  1       -1 0.78247748E-02 0.13793054E+03</pdfrwt>
<totfact> 0.72691656E+03</totfact>
</mgrwt>
</event>
<event>
 6    1  0.5818426E-006  0.2264961E+03  0.7546771E-02  0.1132624E+00
         -2   -1    0    0    0  501 -0.00000000000E+00  0.00000000000E+00  0.39863497508E+03  0.39863497508E+03  0.00000000000E+00 0.  1.
          2   -1    0    0  501    0  0.00000000000E+00 -0.00000000000E+00 -0.16598106846E+03  0.16598106846E+03  0.00000000000E+00 0. -1.
          5    1    1    2  502    0 -0.35294483525E+02  0.18286510683E+02  0.78383219448E+02  0.88012022652E+02  0.47000000000E+01 0.  1.
         -5    1    1    2    0  502  0.73603220040E+02  0.16666665908E+03  0.19263671134E+03  0.26519087806E+03  0.47000000000E+01 0.  1.
        -11    1    1    2    0    0 -0.62047007614E+02 -0.86925646786E+02 -0.14616962484E+02  0.10779403887E+03  0.00000000000E+00 0. -1.
         11    1    1    2    0    0  0.23738271099E+02 -0.98027522976E+02 -0.23749061691E+02  0.10361910397E+03  0.00000000000E+00 0.  1.
<mgrwt>
<rscale>  0 0.22169741E+03</rscale>
<asrwt>0</asrwt>
<pdfrwt beam="2">  1        2 0.25535549E-01 0.22649611E+03</pdfrwt>
<pdfrwt beam="1">  1       -2 0.61328457E-01 0.22649611E+03</pdfrwt>
<totfact> 0.53128300E+02</totfact>
</mgrwt>
</event>
<event>
 6    1  0.5818426E-006  0.1441237E+03  0.7546771E-02  0.1217710E+00
         -2   -1    0    0    0  501 -0.00000000000E+00  0.00000000000E+00  0.81064577127E+03  0.81064577127E+03  0.00000000000E+00 0.  1.
          2   -1    0    0  501    0  0.00000000000E+00 -0.00000000000E+00 -0.21285136583E+02  0.21285136583E+02  0.00000000000E+00 0. -1.
          5    1    1    2  502    0  0.84434108268E+01  0.31227556949E+02  0.35602132921E+03  0.35751885034E+03  0.47000000000E+01 0. -1.
         -5    1    1    2    0  502  0.42697970116E+02  0.19081709193E+02  0.33247006586E+02  0.57573272659E+02  0.47000000000E+01 0. -1.
        -11    1    1    2    0    0 -0.56691872447E+02 -0.11068346130E+02  0.33988586407E+03  0.34475915837E+03  0.00000000000E+00 0.  1.
         11    1    1    2    0    0  0.55504915044E+01 -0.39240920012E+02  0.60206434829E+02  0.72079626485E+02  0.00000000000E+00 0. -1.
<mgrwt>
<rscale>  0 0.13679340E+03</rscale>
<asrwt>0</asrwt>
<pdfrwt beam="2">  1        2 0.32746370E-02 0.14412367E+03</pdfrwt>
<pdfrwt beam="1">  1       -2 0.12471471E+00 0.14412367E+03</pdfrwt>
<totfact> 0.13589776E+03</totfact>
</mgrwt>
</event>
<event>
 6    1  0.5818426E-006  0.1429259E+03  0.7546771E-02  0.1219126E+00
         -1   -1    0    0    0  501 -0.00000000000E+00  0.00000000000E+00  0.47107807380E+02  0.47107807380E+02  0.00000000000E+00 0.  1.
          1   -1    0    0  501    0  0.00000000000E+00 -0.00000000000E+00 -0.40829658413E+03  0.40829658413E+03  0.00000000000E+00 0. -1.
          5    1    1    2  502    0  0.48022716824E+02  0.54417429365E+02 -0.13156499355E+03  0.15032922363E+03  0.47000000000E+01 0. -1.
         -5    1    1    2    0  502  0.15153376996E+02 -0.25867400793E+02  0.15234536425E+02  0.33954798751E+02  0.47000000000E+01 0. -1.
        -11    1    1    2    0    0 -0.72444941403E+02  0.52417594401E+01 -0.20775704002E+03  0.22008801252E+03  0.00000000000E+00 0. -1.
         11    1    1    2    0    0  0.92688475824E+01 -0.33791788012E+02 -0.37101279609E+02  0.51032356610E+02  0.00000000000E+00 0.  1.
<mgrwt>
<rscale>  0 0.13577767E+03</rscale>
<asrwt>0</asrwt>
<pdfrwt beam="2">  1        1 0.62814860E-01 0.14292594E+03</pdfrwt>
<pdfrwt beam="1">  1       -1 0.72473549E-02 0.14292594E+03</pdfrwt>
<totfact> 0.56880672E+03</totfact>
</mgrwt>
</event>
<event>
 6    1  0.5818426E-006  0.1441275E+03  0.7546771E-02  0.1217123E+00
         -1   -1    0    0    0  501 -0.00000000000E+00  0.00000000000E+00  0.28984988830E+02  0.28984988830E+02  0.00000000000E+00 0.  1.
          1   -1    0    0  501    0  0.00000000000E+00 -0.00000000000E+00 -0.61238105605E+03  0.61238105605E+03  0.00000000000E+00 0. -1.
          5    1    1    2  502    0  0.81896839736E+02 -0.19861052851E+02 -0.14212626013E+03  0.16529826859E+03  0.47000000000E+01 0.  1.
         -5    1    1    2    0  502 -0.19660650221E+02  0.55570510519E+02 -0.12277439526E+03  0.13627275934E+03  0.47000000000E+01 0.  1.
        -11    1    1    2    0    0  0.11465134083E+02 -0.29386839952E+02 -0.36419397748E+02  0.48180994119E+02  0.00000000000E+00 0.  1.
         11    1    1    2    0    0 -0.73701323598E+02 -0.63226177157E+01 -0.28207601408E+03  0.29161402284E+03  0.00000000000E+00 0. -1.
<mgrwt>
<rscale>  0 0.13721725E+03</rscale>
<asrwt>0</asrwt>
<pdfrwt beam="2">  1        1 0.94212462E-01 0.14412747E+03</pdfrwt>
<pdfrwt beam="1">  1       -1 0.44592294E-02 0.14412747E+03</pdfrwt>
<totfact> 0.68937658E+03</totfact>
</mgrwt>
</event>
<event>
 6    1  0.5818426E-006  0.1274498E+03  0.7546771E-02  0.1245921E+00
         -3   -1    0    0    0  501 -0.00000000000E+00  0.00000000000E+00  0.68559509856E+02  0.68559509856E+02  0.00000000000E+00 0.  1.
          3   -1    0    0  501    0  0.00000000000E+00 -0.00000000000E+00 -0.21236793204E+03  0.21236793204E+03  0.00000000000E+00 0. -1.
          5    1    1    2  502    0 -0.39640582532E+02  0.35585574929E+01  0.35137472229E+02  0.53298884318E+02  0.47000000000E+01 0. -1.
         -5    1    1    2    0  502  0.36075379018E+02 -0.28172990746E+02 -0.61568119793E+02  0.76862694161E+02  0.47000000000E+01 0. -1.
        -11    1    1    2    0    0  0.12616886276E+02  0.46773430456E+02 -0.11721182549E+03  0.12682882815E+03  0.00000000000E+00 0. -1.
         11    1    1    2    0    0 -0.90516827629E+01 -0.22158997203E+02 -0.16594912405E+00  0.23937035259E+02  0.00000000000E+00 0.  1.
<mgrwt>
<rscale>  0 0.11830397E+03</rscale>
<asrwt>0</asrwt>
<pdfrwt beam="2">  1        3 0.32671989E-01 0.12744982E+03</pdfrwt>
<pdfrwt beam="1">  1       -3 0.10547617E-01 0.12744982E+03</pdfrwt>
<totfact> 0.14049586E+03</totfact>
</mgrwt>
</event>
<event>
 6    1  0.5818426E-006  0.2803675E+03  0.7546771E-02  0.1097161E+00
          2   -1    0    0  501    0  0.00000000000E+00  0.00000000000E+00  0.12796557201E+04  0.12796557201E+04  0.00000000000E+00 0. -1.
         -2   -1    0    0    0  501 -0.00000000000E+00 -0.00000000000E+00 -0.64461171658E+02  0.64461171658E+02  0.00000000000E+00 0.  1.
          5    1    1    2  502    0 -0.51270895936E+02  0.14456634342E+03  0.30120354329E+03  0.33804407539E+03  0.47000000000E+01 0.  1.
         -5    1    1    2    0  502 -0.10548353821E+03  0.51479326149E+02  0.11989040185E+03  0.16784724100E+03  0.47000000000E+01 0.  1.
        -11    1    1    2    0    0  0.91183692633E+02 -0.17847661640E+03  0.60158314111E+03  0.63409040686E+03  0.00000000000E+00 0.  1.
         11    1    1    2    0    0  0.65570741516E+02 -0.17569053172E+02  0.19251746219E+03  0.20413516850E+03  0.00000000000E+00 0. -1.
<mgrwt>
<rscale>  0 0.27732060E+03</rscale>
<asrwt>0</asrwt>
<pdfrwt beam="1">  1        2 0.19687009E+00 0.28036746E+03</pdfrwt>
<pdfrwt beam="2">  1       -2 0.99171043E-02 0.28036746E+03</pdfrwt>
<totfact> 0.12122253E+03</totfact>
</mgrwt>
</event>
<event>
 6    1  0.5818426E-006  0.1253964E+03  0.7546771E-02  0.1249941E+00
         -1   -1    0    0    0  501 -0.00000000000E+00  0.00000000000E+00  0.15426246217E+04  0.15426246217E+04  0.00000000000E+00 0.  1.
          1   -1    0    0  501    0  0.00000000000E+00 -0.00000000000E+00 -0.12697839744E+02  0.12697839744E+02  0.00000000000E+00 0. -1.
          5    1    1    2  502    0 -0.38220167078E+02 -0.23209298702E+02  0.21227443384E+03  0.21698381963E+03  0.47000000000E+01 0. -1.
         -5    1    1    2    0  502  0.47728775876E+02  0.20110685386E+02  0.11116663081E+04  0.11128820901E+04  0.47000000000E+01 0. -1.
        -11    1    1    2    0    0  0.94404209910E+01  0.39570298512E+02  0.51679190977E+02  0.65769817187E+02  0.00000000000E+00 0. -1.
         11    1    1    2    0    0 -0.18949029789E+02 -0.36471685196E+02  0.15430684899E+03  0.15968673456E+03  0.00000000000E+00 0.  1.
<mgrwt>
<rscale>  0 0.11594480E+03</rscale>
<asrwt>0</asrwt>
<pdfrwt beam="2">  1        1 0.19535150E-02 0.12539637E+03</pdfrwt>
<pdfrwt beam="1">  1       -1 0.23732672E+00 0.12539637E+03</pdfrwt>
<totfact> 0.58994585E+02</totfact>
</mgrwt>
</event>
<event>
 6    1  0.5818426E-006  0.5407803E+03  0.7546771E-02  0.1003651E+00
         -1   -1    0    0    0  501 -0.00000000000E+00  0.00000000000E+00  0.25508681442E+03  0.25508681442E+03  0.00000000000E+00 0.  1.
          1   -1    0    0  501    0  0.00000000000E+00 -0.00000000000E+00 -0.28661156381E+03  0.28661156381E+03  0.00000000000E+00 0. -1.
          5    1    1    2  502    0  0.58439923879E+02  0.11811298066E+02  0.22341187540E+02  0.63843168199E+02  0.47000000000E+01 0. -1.
         -5    1    1    2    0  502  0.31167959709E+01  0.13396650967E+03  0.15222956750E+03  0.20286121205E+03  0.47000000000E+01 0. -1.
        -11    1    1    2    0    0  0.65945965164E+01 -0.90923570882E+02 -0.78592611850E+02  0.12036354549E+03  0.00000000000E+00 0.  1.
         11    1    1    2    0    0 -0.68151316366E+02 -0.54854236852E+02 -0.12750289258E+03  0.15463045250E+03  0.00000000000E+00 0. -1.
<mgrwt>
<rscale>  0 0.54078029E+03</rscale>
<asrwt>0</asrwt>
<pdfrwt beam="2">  1        1 0.44094087E-01 0.54078029E+03</pdfrwt>
<pdfrwt beam="1">  1       -1 0.39244125E-01 0.54078029E+03</pdfrwt>
<totfact> 0.59250986E+02</totfact>
</mgrwt>
</event>
<event>
 6    1  0.5818426E-006  0.1434769E+03  0.7546771E-02  0.1220250E+00
          1   -1    0    0  501    0  0.00000000000E+00  0.00000000000E+00  0.14212786717E+03  0.14212786717E+03  0.00000000000E+00 0. -1.
         -1   -1    0    0    0  501 -0.00000000000E+00 -0.00000000000E+00 -0.16238953256E+03  0.16238953256E+03  0.00000000000E+00 0.  1.
          5    1    1    2  502    0 -0.26081398965E+02 -0.61705112863E+02 -0.11365631186E+03  0.13201366426E+03  0.47000000000E+01 0. -1.
         -5    1    1    2    0  502 -0.27839268411E+02  0.16395424141E+02  0.20964764978E+02  0.38800079498E+02  0.47000000000E+01 0. -1.
        -11    1    1    2    0    0  0.72329379539E+02  0.13642094146E+02  0.35607384573E+02  0.81765100827E+02  0.00000000000E+00 0.  1.
         11    1    1    2    0    0 -0.18408712163E+02  0.31667594575E+02  0.36822496929E+02  0.51938555137E+02  0.00000000000E+00 0. -1.
<mgrwt>
<rscale>  0 0.13497842E+03</rscale>
<asrwt>0</asrwt>
<pdfrwt beam="1">  1        1 0.21865826E-01 0.14347687E+03</pdfrwt>
<pdfrwt beam="2">  1       -1 0.24983005E-01 0.14347687E+03</pdfrwt>
<totfact> 0.30695735E+03</totfact>
</mgrwt>
</event>
<event>
 6    1  0.5818426E-006  0.1406460E+03  0.7546771E-02  0.1223441E+00
         -4   -1    0    0    0  501 -0.00000000000E+00  0.00000000000E+00  0.42996389388E+02  0.42996389388E+02  0.00000000000E+00 0. -1.
          4   -1    0    0  501    0  0.00000000000E+00 -0.00000000000E+00 -0.37834707656E+03  0.37834707656E+03  0.00000000000E+00 0.  1.
          5    1    1    2  502    0  0.28175349114E+02  0.44485071997E+02 -0.17738219944E+03  0.18509269734E+03  0.47000000000E+01 0. -1.
         -5    1    1    2    0  502 -0.60994505670E+02  0.11024537917E+02 -0.40328537477E+02  0.74096903399E+02  0.47000000000E+01 0. -1.
        -11    1    1    2    0    0  0.46712663399E+02 -0.58169377001E+02 -0.42842228813E+02  0.86030261607E+02  0.00000000000E+00 0. -1.
         11    1    1    2    0    0 -0.13893506843E+02  0.26597670872E+01 -0.74797721436E+02  0.76123603602E+02  0.00000000000E+00 0.  1.
<mgrwt>
<rscale>  0 0.13274317E+03</rscale>
<asrwt>0</asrwt>
<pdfrwt beam="2">  1        4 0.58207244E-01 0.14064595E+03</pdfrwt>
<pdfrwt beam="1">  1       -4 0.66148290E-02 0.14064595E+03</pdfrwt>
<totfact> 0.71379052E+02</totfact>
</mgrwt>
</event>
<event>
 6    1  0.5818426E-006  0.1771875E+03  0.7546771E-02  0.1192799E+00
         -1   -1    0    0    0  501 -0.00000000000E+00  0.00000000000E+00  0.18107291360E+03  0.18107291360E+03  0.00000000000E+00 0.  1.
          1   -1    0    0  501    0  0.00000000000E+00 -0.00000000000E+00 -0.14293178011E+03  0.14293178011E+03  0.00000000000E+00 0. -1.
          5    1    1    2  502    0  0.13794312488E+01  0.44465403626E+02 -0.24492480601E+02  0.51000456431E+02  0.47000000000E+01 0. -1.
         -5    1    1    2    0  502  0.50725391303E+02 -0.74247291583E+02  0.12080694885E+03  0.15067227522E+03  0.47000000000E+01 0.  1.
        -11    1    1    2    0    0 -0.50617453255E+02  0.14647714352E+02 -0.79960795601E+02  0.95762262624E+02  0.00000000000E+00 0. -1.
         11    1    1    2    0    0 -0.14873692967E+01  0.15134173604E+02  0.21787460843E+02  0.26569699435E+02  0.00000000000E+00 0.  1.
<mgrwt>
<rscale>  0 0.15642024E+03</rscale>
<asrwt>0</asrwt>
<pdfrwt beam="2">  1        1 0.21989505E-01 0.17718751E+03</pdfrwt>
<pdfrwt beam="1">  1       -1 0.27857371E-01 0.17718751E+03</pdfrwt>
<totfact> 0.25675011E+03</totfact>
</mgrwt>
</event>
<event>
 6    1  0.5818426E-006  0.2290713E+03  0.7546771E-02  0.1127295E+00
          2   -1    0    0  501    0  0.00000000000E+00  0.00000000000E+00  0.43922174736E+03  0.43922174736E+03  0.00000000000E+00 0. -1.
         -2   -1    0    0    0  501 -0.00000000000E+00 -0.00000000000E+00 -0.29867407482E+02  0.29867407482E+02  0.00000000000E+00 0.  1.
          5    1    1    2  502    0  0.20237931675E+01  0.37273466245E+01  0.18672068312E+03  0.18682797530E+03  0.47000000000E+01 0.  1.
         -5    1    1    2    0  502  0.11552597892E+02 -0.21785423735E+02 -0.13090999033E+02  0.28311330966E+02  0.47000000000E+01 0.  1.
        -11    1    1    2    0    0  0.33629157100E+02  0.25905117937E+02  0.14864776255E+03  0.15459027348E+03  0.00000000000E+00 0. -1.
         11    1    1    2    0    0 -0.47205548159E+02 -0.78470408256E+01  0.87076893246E+02  0.99359575100E+02  0.00000000000E+00 0.  1.
<mgrwt>
<rscale>  0 0.22907130E+03</rscale>
<asrwt>0</asrwt>
<pdfrwt beam="1">  1        2 0.67572572E-01 0.22907130E+03</pdfrwt>
<pdfrwt beam="2">  1       -2 0.45949861E-02 0.22907130E+03</pdfrwt>
<totfact> 0.15731295E+04</totfact>
</mgrwt>
</event>
<event>
 6    1  0.5818426E-006  0.3797365E+03  0.7546771E-02  0.1051031E+00
         -3   -1    0    0    0  501 -0.00000000000E+00  0.00000000000E+00  0.51992629980E+02  0.51992629980E+02  0.00000000000E+00 0.  1.
          3   -1    0    0  501    0  0.00000000000E+00 -0.00000000000E+00 -0.69336676384E+03  0.69336676384E+03  0.00000000000E+00 0. -1.
          5    1    1    2  502    0 -0.26202142843E+02 -0.31138709748E+02 -0.21470476392E+02  0.46251950130E+02  0.47000000000E+01 0.  1.
         -5    1    1    2    0  502  0.30698766604E+02  0.93379282233E+02 -0.69189953669E+02  0.12029731630E+03  0.47000000000E+01 0.  1.
        -11    1    1    2    0    0  0.72538501688E+02 -0.16884286794E+02 -0.36724550621E+03  0.37472146349E+03  0.00000000000E+00 0. -1.
         11    1    1    2    0    0 -0.77035125450E+02 -0.45356285690E+02 -0.18346819759E+03  0.20408866390E+03  0.00000000000E+00 0.  1.
<mgrwt>
<rscale>  0 0.37973655E+03</rscale>
<asrwt>0</asrwt>
<pdfrwt beam="2">  1        3 0.10667181E+00 0.37973655E+03</pdfrwt>
<pdfrwt beam="1">  1       -3 0.79988664E-02 0.37973655E+03</pdfrwt>
<totfact> 0.21578027E+02</totfact>
</mgrwt>
</event>
<event>
 6    1  0.5818426E-006  0.1368120E+03  0.7546771E-02  0.1230854E+00
          1   -1    0    0  501    0  0.00000000000E+00  0.00000000000E+00  0.21822879625E+02  0.21822879625E+02  0.00000000000E+00 0. -1.
         -1   -1    0    0    0  501 -0.00000000000E+00 -0.00000000000E+00 -0.10174088627E+04  0.10174088627E+04  0.00000000000E+00 0.  1.
          5    1    1    2  502    0 -0.30049116625E+02 -0.30374057569E+02 -0.20074745290E+03  0.20529774142E+03  0.47000000000E+01 0.  1.
         -5    1    1    2    0  502  0.30620101308E+02  0.85975686691E+02 -0.64570092253E+03  0.65213586059E+03  0.47000000000E+01 0.  1.
        -11    1    1    2    0    0  0.39204534903E+02 -0.33790351257E+02 -0.11122669736E+03  0.12267910010E+03  0.00000000000E+00 0.  1.
         11    1    1    2    0    0 -0.39775519586E+02 -0.21811277865E+02 -0.37910910317E+02  0.59119040262E+02  0.00000000000E+00 0. -1.
<mgrwt>
<rscale>  0 0.12773622E+03</rscale>
<asrwt>0</asrwt>
<pdfrwt beam="1">  1        1 0.33573650E-02 0.13681202E+03</pdfrwt>
<pdfrwt beam="2">  1       -1 0.15652449E+00 0.13681202E+03</pdfrwt>
<totfact> 0.96485907E+02</totfact>
</mgrwt>
</event>
<event>
 6    1  0.5818426E-006  0.1279811E+03  0.7546771E-02  0.1242251E+00
         -2   -1    0    0    0  501 -0.00000000000E+00  0.00000000000E+00  0.42906619997E+02  0.42906619997E+02  0.00000000000E+00 0.  1.
          2   -1    0    0  501    0  0.00000000000E+00 -0.00000000000E+00 -0.31843154436E+03  0.31843154436E+03  0.00000000000E+00 0. -1.
          5    1    1    2  502    0 -0.72204022803E+02 -0.19223827450E+02 -0.70075670378E+02  0.10254592156E+03  0.47000000000E+01 0. -1.
         -5    1    1    2    0  502  0.52861923212E+02 -0.31828869100E+00 -0.45930283990E+02  0.70186645601E+02  0.47000000000E+01 0. -1.
        -11    1    1    2    0    0  0.33683739541E+02  0.14170931533E+02 -0.16742788042E+03  0.17136949773E+03  0.00000000000E+00 0. -1.
         11    1    1    2    0    0 -0.14341639950E+02  0.53711846077E+01  0.79089104244E+01  0.17236099462E+02  0.00000000000E+00 0.  1.
<mgrwt>
<rscale>  0 0.12051410E+03</rscale>
<asrwt>0</asrwt>
<pdfrwt beam="2">  1        2 0.48989467E-01 0.12798109E+03</pdfrwt>
<pdfrwt beam="1">  1       -2 0.66010186E-02 0.12798109E+03</pdfrwt>
<totfact> 0.12280170E+04</totfact>
</mgrwt>
</event>
<event>
 6    1  0.5818426E-006  0.1440603E+03  0.7546771E-02  0.1217485E+00
          1   -1    0    0  501    0  0.00000000000E+00  0.00000000000E+00  0.20179722074E+03  0.20179722074E+03  0.00000000000E+00 0. -1.
         -1   -1    0    0    0  501 -0.00000000000E+00 -0.00000000000E+00 -0.85760850247E+02  0.85760850247E+02  0.00000000000E+00 0.  1.
          5    1    1    2  502    0  0.86707474990E+02  0.41728234980E+02  0.39691512189E+02  0.10419663120E+03  0.47000000000E+01 0. -1.
         -5    1    1    2    0  502 -0.44097135633E+02  0.15825472347E+02  0.95323897482E+01  0.48041226050E+02  0.47000000000E+01 0. -1.
        -11    1    1    2    0    0  0.21825318286E+02 -0.45531884538E+02  0.40342317786E+02  0.64629711683E+02  0.00000000000E+00 0. -1.
         11    1    1    2    0    0 -0.64435657643E+02 -0.12021822790E+02  0.26470150773E+02  0.70690502056E+02  0.00000000000E+00 0.  1.
<mgrwt>
<rscale>  0 0.13695575E+03</rscale>
<asrwt>0</asrwt>
<pdfrwt beam="1">  1        1 0.31045726E-01 0.14406031E+03</pdfrwt>
<pdfrwt beam="2">  1       -1 0.13193977E-01 0.14406031E+03</pdfrwt>
<totfact> 0.54782645E+03</totfact>
</mgrwt>
</event>
<event>
 6    1  0.5818426E-006  0.1315707E+03  0.7546771E-02  0.1238591E+00
         -2   -1    0    0    0  501 -0.00000000000E+00  0.00000000000E+00  0.14361105214E+03  0.14361105214E+03  0.00000000000E+00 0.  1.
          2   -1    0    0  501    0  0.00000000000E+00 -0.00000000000E+00 -0.96766358676E+02  0.96766358676E+02  0.00000000000E+00 0. -1.
          5    1    1    2  502    0 -0.39041262227E+02  0.12936443802E+02 -0.52126869611E+01  0.41723300922E+02  0.47000000000E+01 0. -1.
         -5    1    1    2    0  502  0.78200063249E+02 -0.25286770589E+02  0.54744032385E+02  0.98861872027E+02  0.47000000000E+01 0. -1.
        -11    1    1    2    0    0 -0.21036937013E+02 -0.15909737206E+02  0.38492872285E+02  0.46662336778E+02  0.00000000000E+00 0.  1.
         11    1    1    2    0    0 -0.18121864010E+02  0.28260063993E+02 -0.41179524247E+02  0.53129901085E+02  0.00000000000E+00 0. -1.
<mgrwt>
<rscale>  0 0.12277335E+03</rscale>
<asrwt>0</asrwt>
<pdfrwt beam="2">  1        2 0.14887132E-01 0.13157065E+03</pdfrwt>
<pdfrwt beam="1">  1       -2 0.22094008E-01 0.13157065E+03</pdfrwt>
<totfact> 0.65721309E+03</totfact>
</mgrwt>
</event>
<event>
 6    1  0.5818426E-006  0.1715626E+03  0.7546771E-02  0.1204529E+00
          2   -1    0    0  501    0  0.00000000000E+00  0.00000000000E+00  0.11800197911E+03  0.11800197911E+03  0.00000000000E+00 0. -1.
         -2   -1    0    0    0  501 -0.00000000000E+00 -0.00000000000E+00 -0.15147307238E+03  0.15147307238E+03  0.00000000000E+00 0.  1.
          5    1    1    2  502    0  0.39938401170E+02  0.21114673572E+02  0.49293273021E+02  0.67028517014E+02  0.47000000000E+01 0. -1.
         -5    1    1    2    0  502 -0.56130466899E+02 -0.16433526485E+02 -0.93085619785E+02  0.11003505222E+03  0.47000000000E+01 0.  1.
        -11    1    1    2    0    0  0.51056854205E+02 -0.83638183908E+01 -0.87951736795E+01  0.52479623659E+02  0.00000000000E+00 0.  1.
         11    1    1    2    0    0 -0.34864788476E+02  0.36826713037E+01  0.19116427170E+02  0.39931858598E+02  0.00000000000E+00 0. -1.
<mgrwt>
<rscale>  0 0.14674627E+03</rscale>
<asrwt>0</asrwt>
<pdfrwt beam="1">  1        2 0.18154151E-01 0.17156264E+03</pdfrwt>
<pdfrwt beam="2">  1       -2 0.23303550E-01 0.17156264E+03</pdfrwt>
<totfact> 0.48449219E+03</totfact>
</mgrwt>
</event>
<event>
 6    1  0.5818426E-006  0.1430712E+03  0.7546771E-02  0.1220041E+00
         -2   -1    0    0    0  501 -0.00000000000E+00  0.00000000000E+00  0.30218053355E+02  0.30218053355E+02  0.00000000000E+00 0.  1.
          2   -1    0    0  501    0  0.00000000000E+00 -0.00000000000E+00 -0.55044469976E+03  0.55044469976E+03  0.00000000000E+00 0. -1.
          5    1    1    2  502    0 -0.57677709652E+02  0.73437298645E+02 -0.16463715468E+03  0.18933366770E+03  0.47000000000E+01 0.  1.
         -5    1    1    2    0  502 -0.50554945390E+01 -0.43305564331E+02 -0.15052646592E+03  0.15678404533E+03  0.47000000000E+01 0.  1.
        -11    1    1    2    0    0  0.51036799570E+02 -0.59723493583E+02 -0.16952742105E+03  0.18684538283E+03  0.00000000000E+00 0.  1.
         11    1    1    2    0    0  0.11696404621E+02  0.29591759269E+02 -0.35535604761E+02  0.47699657267E+02  0.00000000000E+00 0. -1.
<mgrwt>
<rscale>  0 0.13512695E+03</rscale>
<asrwt>0</asrwt>
<pdfrwt beam="2">  1        2 0.84683800E-01 0.14307118E+03</pdfrwt>
<pdfrwt beam="1">  1       -2 0.46489313E-02 0.14307118E+03</pdfrwt>
<totfact> 0.11651220E+04</totfact>
</mgrwt>
</event>
<event>
 6    1  0.5818426E-006  0.1606388E+03  0.7546771E-02  0.1195852E+00
          2   -1    0    0  501    0  0.00000000000E+00  0.00000000000E+00  0.31999398628E+03  0.31999398628E+03  0.00000000000E+00 0. -1.
         -2   -1    0    0    0  501 -0.00000000000E+00 -0.00000000000E+00 -0.68579372329E+02  0.68579372329E+02  0.00000000000E+00 0.  1.
          5    1    1    2  502    0  0.15596690261E+02  0.64569465893E+02  0.66462222652E+00  0.66595828664E+02  0.47000000000E+01 0.  1.
         -5    1    1    2    0  502  0.57348340785E+02  0.51306051258E+01  0.12381324474E+03  0.13662710153E+03  0.47000000000E+01 0.  1.
        -11    1    1    2    0    0 -0.17475333803E+02 -0.17288368881E+02 -0.11602668648E+02  0.27182658256E+02  0.00000000000E+00 0.  1.
         11    1    1    2    0    0 -0.55469697243E+02 -0.52411702137E+02  0.13853941563E+03  0.15816777016E+03  0.00000000000E+00 0. -1.
<mgrwt>
<rscale>  0 0.15382304E+03</rscale>
<asrwt>0</asrwt>
<pdfrwt beam="1">  1        2 0.49229843E-01 0.16063879E+03</pdfrwt>
<pdfrwt beam="2">  1       -2 0.10550673E-01 0.16063879E+03</pdfrwt>
<totfact> 0.59934289E+03</totfact>
</mgrwt>
</event>
<event>
 6    1  0.5818426E-006  0.3539634E+03  0.7546771E-02  0.1089741E+00
         -2   -1    0    0    0  501 -0.00000000000E+00  0.00000000000E+00  0.72700264257E+02  0.72700264257E+02  0.00000000000E+00 0.  1.
          2   -1    0    0  501    0  0.00000000000E+00 -0.00000000000E+00 -0.10789874020E+04  0.10789874020E+04  0.00000000000E+00 0. -1.
          5    1    1    2  502    0  0.34658107714E+02  0.85390566276E+01 -0.39276485366E+03  0.39441148587E+03  0.47000000000E+01 0. -1.
         -5    1    1    2    0  502 -0.16045785329E+03 -0.54092656159E+02 -0.58716625570E+02  0.17928321241E+03  0.47000000000E+01 0.  1.
        -11    1    1    2    0    0  0.28522698198E+02 -0.26178752291E+02 -0.18244752392E+03  0.18650997391E+03  0.00000000000E+00 0.  1.
         11    1    1    2    0    0  0.97277047377E+02  0.71732351823E+02 -0.37235813457E+03  0.39148299404E+03  0.00000000000E+00 0. -1.
<mgrwt>
<rscale>  0 0.29116833E+03</rscale>
<asrwt>0</asrwt>
<pdfrwt beam="2">  1        2 0.16599806E+00 0.35396339E+03</pdfrwt>
<pdfrwt beam="1">  1       -2 0.11184656E-01 0.35396339E+03</pdfrwt>
<totfact> 0.13014332E+03</totfact>
</mgrwt>
</event>
<event>
 6    1  0.5818426E-006  0.2565735E+03  0.7546771E-02  0.1109220E+00
         -2   -1    0    0    0  501 -0.00000000000E+00  0.00000000000E+00  0.27106139605E+02  0.27106139605E+02  0.00000000000E+00 0.  1.
          2   -1    0    0  501    0  0.00000000000E+00 -0.00000000000E+00 -0.60715007834E+03  0.60715007834E+03  0.00000000000E+00 0. -1.
          5    1    1    2  502    0  0.37201746294E+01 -0.87002131113E+02 -0.21595146488E+03  0.23289554676E+03  0.47000000000E+01 0. -1.
         -5    1    1    2    0  502  0.15930123811E+02  0.42542384608E+02 -0.82167296257E+02  0.94006265253E+02  0.47000000000E+01 0. -1.
        -11    1    1    2    0    0  0.24919887987E+02  0.67703734720E+02 -0.16690839221E+03  0.18183291204E+03  0.00000000000E+00 0.  1.
         11    1    1    2    0    0 -0.44570186427E+02 -0.23243988214E+02 -0.11501678540E+03  0.12552149389E+03  0.00000000000E+00 0. -1.
<mgrwt>
<rscale>  0 0.25657354E+03</rscale>
<asrwt>0</asrwt>
<pdfrwt beam="2">  1        2 0.93407694E-01 0.25657354E+03</pdfrwt>
<pdfrwt beam="1">  1       -2 0.41701758E-02 0.25657354E+03</pdfrwt>
<totfact> 0.12728058E+04</totfact>
</mgrwt>
</event>
<event>
 6    1  0.5818426E-006  0.1303453E+03  0.7546771E-02  0.1242343E+00
         -2   -1    0    0    0  501 -0.00000000000E+00  0.00000000000E+00  0.47039035604E+03  0.47039035604E+03  0.00000000000E+00 0.  1.
          2   -1    0    0  501    0  0.00000000000E+00 -0.00000000000E+00 -0.27187473024E+02  0.27187473024E+02  0.00000000000E+00 0. -1.
          5    1    1    2  502    0 -0.11041388702E+02 -0.64286958787E+02  0.64890828950E+02  0.92128361629E+02  0.47000000000E+01 0.  1.
         -5    1    1    2    0  502  0.15149899058E+01  0.28589258274E+02  0.21121452491E+03  0.21319781054E+03  0.47000000000E+01 0.  1.
        -11    1    1    2    0    0 -0.17912530613E+02 -0.18668421713E+02  0.91983113449E+02  0.95552403852E+02  0.00000000000E+00 0.  1.
         11    1    1    2    0    0  0.27438929410E+02  0.54366122226E+02  0.75114415701E+02  0.96699253043E+02  0.00000000000E+00 0. -1.
<mgrwt>
<rscale>  0 0.12045847E+03</rscale>
<asrwt>0</asrwt>
<pdfrwt beam="2">  1        2 0.41826885E-02 0.13034533E+03</pdfrwt>
<pdfrwt beam="1">  1       -2 0.72367741E-01 0.13034533E+03</pdfrwt>
<totfact> 0.33667853E+03</totfact>
</mgrwt>
</event>
<event>
 6    1  0.5818426E-006  0.1318755E+03  0.7546771E-02  0.1249423E+00
         -1   -1    0    0    0  501 -0.00000000000E+00  0.00000000000E+00  0.49643988665E+02  0.49643988665E+02  0.00000000000E+00 0.  1.
          1   -1    0    0  501    0  0.00000000000E+00 -0.00000000000E+00 -0.39017568493E+03  0.39017568493E+03  0.00000000000E+00 0. -1.
          5    1    1    2  502    0  0.40395754934E+01  0.49028344079E+01  0.40376893960E+02  0.41142915809E+02  0.47000000000E+01 0.  1.
         -5    1    1    2    0  502  0.49615571715E+01  0.36146186508E+02 -0.94498735755E+02  0.10140643425E+03  0.47000000000E+01 0.  1.
        -11    1    1    2    0    0 -0.25360026625E+01  0.18718775871E+02 -0.85356551757E+02  0.87421763923E+02  0.00000000000E+00 0.  1.
         11    1    1    2    0    0 -0.64651300024E+01 -0.59767796787E+02 -0.20105330271E+03  0.20984855961E+03  0.00000000000E+00 0. -1.
<mgrwt>
<rscale>  0 0.11624546E+03</rscale>
<asrwt>0</asrwt>
<pdfrwt beam="2">  1        1 0.60027026E-01 0.13187548E+03</pdfrwt>
<pdfrwt beam="1">  1       -1 0.76375370E-02 0.13187548E+03</pdfrwt>
<totfact> 0.55410970E+03</totfact>
</mgrwt>
</event>
<event>
 6    1  0.5818426E-006  0.1434222E+03  0.7546771E-02  0.1219269E+00
          3   -1    0    0  501    0  0.00000000000E+00  0.00000000000E+00  0.70845620296E+02  0.70845620296E+02  0.00000000000E+00 0. -1.
         -3   -1    0    0    0  501 -0.00000000000E+00 -0.00000000000E+00 -0.26263497634E+03  0.26263497634E+03  0.00000000000E+00 0.  1.
          5    1    1    2  502    0  0.10753368624E+02 -0.81895613627E+02 -0.43315807964E+02  0.93385628914E+02  0.47000000000E+01 0.  1.
         -5    1    1    2    0  502 -0.31143790018E+02  0.14637482918E+02 -0.11548586854E+03  0.12059547004E+03  0.47000000000E+01 0.  1.
        -11    1    1    2    0    0 -0.91718783772E+01  0.67090717188E+02 -0.51097558688E+02  0.84830703107E+02  0.00000000000E+00 0.  1.
         11    1    1    2    0    0  0.29562299771E+02  0.16741352153E+00  0.18109879140E+02  0.34668794578E+02  0.00000000000E+00 0. -1.
<mgrwt>
<rscale>  0 0.13567535E+03</rscale>
<asrwt>0</asrwt>
<pdfrwt beam="1">  1        3 0.10899326E-01 0.14342224E+03</pdfrwt>
<pdfrwt beam="2">  1       -3 0.40405380E-01 0.14342224E+03</pdfrwt>
<totfact> 0.90556333E+02</totfact>
</mgrwt>
</event>
<event>
 6    1  0.5818426E-006  0.2640307E+03  0.7546771E-02  0.1104745E+00
         -1   -1    0    0    0  501 -0.00000000000E+00  0.00000000000E+00  0.11166649186E+03  0.11166649186E+03  0.00000000000E+00 0.  1.
          1   -1    0    0  501    0  0.00000000000E+00 -0.00000000000E+00 -0.15607236885E+03  0.15607236885E+03  0.00000000000E+00 0. -1.
          5    1    1    2  502    0 -0.49081986886E+01 -0.89497073453E+02 -0.20410450520E+02  0.92046146369E+02  0.47000000000E+01 0.  1.
         -5    1    1    2    0  502 -0.37749626731E+01  0.28153862664E+02  0.39331791485E+02  0.48743924212E+02  0.47000000000E+01 0.  1.
        -11    1    1    2    0    0  0.19071009388E+02  0.28862640157E+02  0.17829629394E+02  0.38918518474E+02  0.00000000000E+00 0.  1.
         11    1    1    2    0    0 -0.10387848026E+02  0.32480570631E+02 -0.81156847352E+02  0.88030271653E+02  0.00000000000E+00 0. -1.
<mgrwt>
<rscale>  0 0.26403071E+03</rscale>
<asrwt>0</asrwt>
<pdfrwt beam="2">  1        1 0.24011133E-01 0.26403071E+03</pdfrwt>
<pdfrwt beam="1">  1       -1 0.17179460E-01 0.26403071E+03</pdfrwt>
<totfact> 0.51585062E+03</totfact>
</mgrwt>
</event>
<event>
 6    1  0.5818426E-006  0.1393590E+03  0.7546771E-02  0.1225993E+00
          2   -1    0    0  501    0  0.00000000000E+00  0.00000000000E+00  0.75233247158E+03  0.75233247158E+03  0.00000000000E+00 0. -1.
         -2   -1    0    0    0  501 -0.00000000000E+00 -0.00000000000E+00 -0.20626032630E+02  0.20626032630E+02  0.00000000000E+00 0.  1.
          5    1    1    2  502    0 -0.62119020561E+02 -0.75133050916E+02  0.24616872828E+03  0.26481102854E+03  0.47000000000E+01 0. -1.
         -5    1    1    2    0  502  0.35941627536E+02  0.19361937554E+02  0.13009138210E+03  0.13642779377E+03  0.47000000000E+01 0. -1.
        -11    1    1    2    0    0  0.47910430421E+01  0.75224473271E+02  0.20269664458E+03  0.21625819105E+03  0.00000000000E+00 0.  1.
         11    1    1    2    0    0  0.21386349983E+02 -0.19453359910E+02  0.15274968400E+03  0.15546149086E+03  0.00000000000E+00 0. -1.
<mgrwt>
<rscale>  0 0.13099057E+03</rscale>
<asrwt>0</asrwt>
<pdfrwt beam="1">  1        2 0.11574344E+00 0.13935897E+03</pdfrwt>
<pdfrwt beam="2">  1       -2 0.31732364E-02 0.13935897E+03</pdfrwt>
<totfact> 0.14260092E+04</totfact>
</mgrwt>
</event>
<event>
 6    1  0.5818426E-006  0.2917261E+03  0.7546771E-02  0.1089451E+00
         -2   -1    0    0    0  501 -0.00000000000E+00  0.00000000000E+00  0.93000631036E+02  0.93000631036E+02  0.00000000000E+00 0.  1.
          2   -1    0    0  501    0  0.00000000000E+00 -0.00000000000E+00 -0.22877290197E+03  0.22877290197E+03  0.00000000000E+00 0. -1.
          5    1    1    2  502    0 -0.47868035642E+02  0.56023740996E+02 -0.56830406557E+02  0.93176142337E+02  0.47000000000E+01 0. -1.
         -5    1    1    2    0  502  0.29661297576E+02  0.41340575414E+00  0.35835445301E+02  0.46757166490E+02  0.47000000000E+01 0. -1.
        -11    1    1    2    0    0 -0.48042306805E+02  0.78698881430E+01 -0.37874183046E+02  0.61680240953E+02  0.00000000000E+00 0.  1.
         11    1    1    2    0    0  0.66249044871E+02 -0.64307034894E+02 -0.76903126637E+02  0.12015998323E+03  0.00000000000E+00 0. -1.
<mgrwt>
<rscale>  0 0.29172606E+03</rscale>
<asrwt>0</asrwt>
<pdfrwt beam="2">  1        2 0.35195830E-01 0.29172606E+03</pdfrwt>
<pdfrwt beam="1">  1       -2 0.14307790E-01 0.29172606E+03</pdfrwt>
<totfact> 0.54210514E+03</totfact>
</mgrwt>
</event>
<event>
 6    1  0.5818426E-006  0.1253009E+03  0.7546771E-02  0.1242936E+00
         -1   -1    0    0    0  501 -0.00000000000E+00  0.00000000000E+00  0.49371522565E+03  0.49371522565E+03  0.00000000000E+00 0.  1.
          1   -1    0    0  501    0  0.00000000000E+00 -0.00000000000E+00 -0.75883856766E+02  0.75883856766E+02  0.00000000000E+00 0. -1.
          5    1    1    2  502    0  0.37070209704E+02  0.85124133062E+01  0.84924565552E+02  0.93171527099E+02  0.47000000000E+01 0. -1.
         -5    1    1    2    0  502 -0.53621023644E+02 -0.61010732968E+02  0.35850741528E+03  0.36762369418E+03  0.47000000000E+01 0.  1.
        -11    1    1    2    0    0  0.61353496316E+01  0.14217709630E+02  0.33912013577E+02  0.37280161576E+02  0.00000000000E+00 0.  1.
         11    1    1    2    0    0  0.10415464308E+02  0.38280610032E+02 -0.59512625527E+02  0.71523699557E+02  0.00000000000E+00 0. -1.
<mgrwt>
<rscale>  0 0.12009775E+03</rscale>
<asrwt>0</asrwt>
<pdfrwt beam="2">  1        1 0.11674440E-01 0.12530090E+03</pdfrwt>
<pdfrwt beam="1">  1       -1 0.75956187E-01 0.12530090E+03</pdfrwt>
<totfact> 0.93187722E+02</totfact>
</mgrwt>
</event>
<event>
 6    1  0.5818426E-006  0.1463946E+03  0.7546771E-02  0.1219983E+00
          1   -1    0    0  501    0  0.00000000000E+00  0.00000000000E+00  0.15871595024E+03  0.15871595024E+03  0.00000000000E+00 0. -1.
         -1   -1    0    0    0  501 -0.00000000000E+00 -0.00000000000E+00 -0.15555798177E+03  0.15555798177E+03  0.00000000000E+00 0.  1.
          5    1    1    2  502    0  0.40197560268E+02 -0.76874877630E+02 -0.21860487134E+02  0.89585498602E+02  0.47000000000E+01 0. -1.
         -5    1    1    2    0  502 -0.39531873471E+02  0.22272257469E+02 -0.68992786991E+02  0.82709836958E+02  0.47000000000E+01 0.  1.
        -11    1    1    2    0    0 -0.29582813548E+02  0.68080578820E+02  0.61103713097E+02  0.96144536111E+02  0.00000000000E+00 0.  1.
         11    1    1    2    0    0  0.28917126751E+02 -0.13477958659E+02  0.32907529498E+02  0.45834060335E+02  0.00000000000E+00 0. -1.
<mgrwt>
<rscale>  0 0.13516790E+03</rscale>
<asrwt>0</asrwt>
<pdfrwt beam="1">  1        1 0.24417839E-01 0.14639455E+03</pdfrwt>
<pdfrwt beam="2">  1       -1 0.23931997E-01 0.14639455E+03</pdfrwt>
<totfact> 0.28680140E+03</totfact>
</mgrwt>
</event>
<event>
 6    1  0.5818426E-006  0.1409799E+03  0.7546771E-02  0.1222404E+00
         -1   -1    0    0    0  501 -0.00000000000E+00  0.00000000000E+00  0.92163091203E+02  0.92163091203E+02  0.00000000000E+00 0.  1.
          1   -1    0    0  501    0  0.00000000000E+00 -0.00000000000E+00 -0.41477033788E+03  0.41477033788E+03  0.00000000000E+00 0. -1.
          5    1    1    2  502    0  0.28312667421E+02 -0.24433170074E+02  0.71387943926E+02  0.80727414639E+02  0.47000000000E+01 0. -1.
         -5    1    1    2    0  502 -0.95914869949E+01 -0.38017857083E+02 -0.48024255253E+02  0.62175342159E+02  0.47000000000E+01 0. -1.
        -11    1    1    2    0    0  0.36124084302E+02  0.10902957548E+02 -0.12682491927E+03  0.13231925067E+03  0.00000000000E+00 0. -1.
         11    1    1    2    0    0 -0.54845264729E+02  0.51548069609E+02 -0.21914601608E+03  0.23171142162E+03  0.00000000000E+00 0.  1.
<mgrwt>
<rscale>  0 0.13346404E+03</rscale>
<asrwt>0</asrwt>
<pdfrwt beam="2">  1        1 0.63810821E-01 0.14097991E+03</pdfrwt>
<pdfrwt beam="1">  1       -1 0.14178937E-01 0.14097991E+03</pdfrwt>
<totfact> 0.19953706E+03</totfact>
</mgrwt>
</event>
<event>
 6    1  0.5818426E-006  0.1256024E+03  0.7546771E-02  0.1250527E+00
          2   -1    0    0  501    0  0.00000000000E+00  0.00000000000E+00  0.42951804216E+03  0.42951804216E+03  0.00000000000E+00 0. -1.
         -2   -1    0    0    0  501 -0.00000000000E+00 -0.00000000000E+00 -0.31982971108E+02  0.31982971108E+02  0.00000000000E+00 0.  1.
          5    1    1    2  502    0 -0.34563363124E+02  0.39292996882E+02  0.24640186911E+02  0.58032701862E+02  0.47000000000E+01 0.  1.
         -5    1    1    2    0  502  0.32311131229E+02 -0.51390050292E+02  0.11260117559E+03  0.12800805137E+03  0.47000000000E+01 0.  1.
        -11    1    1    2    0    0 -0.33022126489E+02  0.34874790491E+02  0.13164287438E+03  0.14013050426E+03  0.00000000000E+00 0.  1.
         11    1    1    2    0    0  0.35274358385E+02 -0.22777737081E+02  0.12865083417E+03  0.13532975578E+03  0.00000000000E+00 0. -1.
<mgrwt>
<rscale>  0 0.11560592E+03</rscale>
<asrwt>0</asrwt>
<pdfrwt beam="1">  1        2 0.66079694E-01 0.12560243E+03</pdfrwt>
<pdfrwt beam="2">  1       -2 0.49204574E-02 0.12560243E+03</pdfrwt>
<totfact> 0.13899989E+04</totfact>
</mgrwt>
</event>
<event>
 6    1  0.5818426E-006  0.1324040E+03  0.7546771E-02  0.1238740E+00
          1   -1    0    0  501    0  0.00000000000E+00  0.00000000000E+00  0.30923838249E+02  0.30923838249E+02  0.00000000000E+00 0. -1.
         -1   -1    0    0    0  501 -0.00000000000E+00 -0.00000000000E+00 -0.48574381424E+03  0.48574381424E+03  0.00000000000E+00 0.  1.
          5    1    1    2  502    0 -0.48085806950E+02  0.15441975515E+02 -0.93003464726E+02  0.10593598958E+03  0.47000000000E+01 0. -1.
         -5    1    1    2    0  502  0.73029735925E+02 -0.24754467760E+02 -0.25315877240E+03  0.26468392480E+03  0.47000000000E+01 0.  1.
        -11    1    1    2    0    0 -0.29002181619E+02 -0.73702715614E+01 -0.12116527868E+03  0.12480573785E+03  0.00000000000E+00 0.  1.
         11    1    1    2    0    0  0.40582526445E+01  0.16682763807E+02  0.12507539817E+02  0.21242000260E+02  0.00000000000E+00 0. -1.
<mgrwt>
<rscale>  0 0.12268038E+03</rscale>
<asrwt>0</asrwt>
<pdfrwt beam="1">  1        1 0.47575137E-02 0.13240403E+03</pdfrwt>
<pdfrwt beam="2">  1       -1 0.74729815E-01 0.13240403E+03</pdfrwt>
<totfact> 0.32197389E+03</totfact>
</mgrwt>
</event>
<event>
 6    1  0.5818426E-006  0.1333095E+03  0.7546771E-02  0.1235183E+00
         -2   -1    0    0    0  501 -0.00000000000E+00  0.00000000000E+00  0.13107036453E+04  0.13107036453E+04  0.00000000000E+00 0. -1.
          2   -1    0    0  501    0  0.00000000000E+00 -0.00000000000E+00 -0.11380699349E+02  0.11380699349E+02  0.00000000000E+00 0.  1.
          5    1    1    2  502    0 -0.21183037310E+01  0.48844349215E+02  0.14717573448E+03  0.15515490479E+03  0.47000000000E+01 0.  1.
         -5    1    1    2    0  502 -0.41414723735E+02 -0.32969469341E+02  0.74884934173E+03  0.75073270334E+03  0.47000000000E+01 0.  1.
        -11    1    1    2    0    0  0.69674049707E+02 -0.25618693543E+02  0.27058969993E+03  0.28058791201E+03  0.00000000000E+00 0.  1.
         11    1    1    2    0    0 -0.26141022241E+02  0.97438136688E+01  0.13270816977E+03  0.13560882446E+03  0.00000000000E+00 0. -1.
<mgrwt>
<rscale>  0 0.12492749E+03</rscale>
<asrwt>0</asrwt>
<pdfrwt beam="2">  1        2 0.17508779E-02 0.13330949E+03</pdfrwt>
<pdfrwt beam="1">  1       -2 0.20164660E+00 0.13330949E+03</pdfrwt>
<totfact> 0.89844635E+02</totfact>
</mgrwt>
</event>
<event>
 6    1  0.5818426E-006  0.2935579E+03  0.7546771E-02  0.1090241E+00
          1   -1    0    0  501    0  0.00000000000E+00  0.00000000000E+00  0.13775504239E+04  0.13775504239E+04  0.00000000000E+00 0. -1.
         -1   -1    0    0    0  501 -0.00000000000E+00 -0.00000000000E+00 -0.16115293614E+03  0.16115293614E+03  0.00000000000E+00 0.  1.
          5    1    1    2  502    0  0.10744296400E+02  0.16566315715E+01  0.12137363553E+02  0.16958476562E+02  0.47000000000E+01 0. -1.
         -5    1    1    2    0  502 -0.26803816145E+03 -0.67613698686E+02 -0.88885311383E+01  0.27661736068E+03  0.47000000000E+01 0. -1.
        -11    1    1    2    0    0  0.13281025357E+03 -0.68957462732E+01  0.48944922757E+03  0.50719489464E+03  0.00000000000E+00 0.  1.
         11    1    1    2    0    0  0.12448361147E+03  0.72852813388E+02  0.72369942782E+03  0.73793262820E+03  0.00000000000E+00 0. -1.
<mgrwt>
<rscale>  0 0.29020641E+03</rscale>
<asrwt>0</asrwt>
<pdfrwt beam="1">  1        1 0.21193083E+00 0.29355786E+03</pdfrwt>
<pdfrwt beam="2">  1       -1 0.24792760E-01 0.29355786E+03</pdfrwt>
<totfact> 0.12262809E+02</totfact>
</mgrwt>
</event>
<event>
 6    1  0.5818426E-006  0.5945800E+03  0.7546771E-02  0.1037110E+00
          2   -1    0    0  501    0  0.00000000000E+00  0.00000000000E+00  0.64999852221E+03  0.64999852221E+03  0.00000000000E+00 0. -1.
         -2   -1    0    0    0  501 -0.00000000000E+00 -0.00000000000E+00 -0.24582094649E+03  0.24582094649E+03  0.00000000000E+00 0.  1.
          5    1    1    2  502    0 -0.17748896612E+03 -0.30608006796E+03  0.47605692457E+02  0.35703743928E+03  0.47000000000E+01 0. -1.
         -5    1    1    2    0  502  0.76271179614E+02  0.21811986465E+03  0.12157229526E+03  0.26114264525E+03  0.47000000000E+01 0.  1.
        -11    1    1    2    0    0  0.35551752662E+02  0.58265013086E+02  0.15832984059E+03  0.17241542068E+03  0.00000000000E+00 0. -1.
         11    1    1    2    0    0  0.65666033847E+02  0.29695190218E+02  0.76669747408E+02  0.10522396348E+03  0.00000000000E+00 0.  1.
<mgrwt>
<rscale>  0 0.41986637E+03</rscale>
<asrwt>0</asrwt>
<pdfrwt beam="1">  1        2 0.99999772E-01 0.59458004E+03</pdfrwt>
<pdfrwt beam="2">  1       -2 0.37818607E-01 0.59458004E+03</pdfrwt>
<totfact> 0.30081746E+02</totfact>
</mgrwt>
</event>
<event>
 6    1  0.5818426E-006  0.1273051E+03  0.7546771E-02  0.1248397E+00
         -2   -1    0    0    0  501 -0.00000000000E+00  0.00000000000E+00  0.11489911819E+02  0.11489911819E+02  0.00000000000E+00 0.  1.
          2   -1    0    0  501    0  0.00000000000E+00 -0.00000000000E+00 -0.10309114761E+04  0.10309114761E+04  0.00000000000E+00 0. -1.
          5    1    1    2  502    0  0.60338654912E+02 -0.13357104262E+02 -0.17998707067E+03  0.19035913721E+03  0.47000000000E+01 0. -1.
         -5    1    1    2    0  502 -0.42192562204E+02  0.29236522940E+02 -0.40855587717E+03  0.41179482919E+03  0.47000000000E+01 0. -1.
        -11    1    1    2    0    0 -0.15531502490E+01  0.35691862848E+02 -0.15041618704E+03  0.15460061666E+03  0.00000000000E+00 0.  1.
         11    1    1    2    0    0 -0.16592942460E+02 -0.51571281526E+02 -0.28046242942E+03  0.28564680487E+03  0.00000000000E+00 0. -1.
<mgrwt>
<rscale>  0 0.11684364E+03</rscale>
<asrwt>0</asrwt>
<pdfrwt beam="2">  1        2 0.15860181E+00 0.12730514E+03</pdfrwt>
<pdfrwt beam="1">  1       -2 0.17676782E-02 0.12730514E+03</pdfrwt>
<totfact> 0.22097812E+04</totfact>
</mgrwt>
</event>
<event>
 6    1  0.5818426E-006  0.1272959E+03  0.7546771E-02  0.1242926E+00
         -1   -1    0    0    0  501 -0.00000000000E+00  0.00000000000E+00  0.31623521863E+02  0.31623521863E+02  0.00000000000E+00 0.  1.
          1   -1    0    0  501    0  0.00000000000E+00 -0.00000000000E+00 -0.47251207227E+03  0.47251207227E+03  0.00000000000E+00 0. -1.
          5    1    1    2  502    0 -0.21513938783E+02  0.27484617876E+02 -0.16367327103E+03  0.16741948343E+03  0.47000000000E+01 0.  1.
         -5    1    1    2    0  502  0.28639260782E+02 -0.45985045530E+01  0.10986043598E+02  0.31370952427E+02  0.47000000000E+01 0.  1.
        -11    1    1    2    0    0 -0.17571042098E+02 -0.53829367914E+02 -0.10538094582E+03  0.11963062364E+03  0.00000000000E+00 0. -1.
         11    1    1    2    0    0  0.10445720100E+02  0.30943254591E+02 -0.18282037715E+03  0.18571453464E+03  0.00000000000E+00 0.  1.
<mgrwt>
<rscale>  0 0.12010364E+03</rscale>
<asrwt>0</asrwt>
<pdfrwt beam="2">  1        1 0.72694166E-01 0.12729591E+03</pdfrwt>
<pdfrwt beam="1">  1       -1 0.48651572E-02 0.12729591E+03</pdfrwt>
<totfact> 0.84842290E+03</totfact>
</mgrwt>
</event>
<event>
 6    1  0.5818426E-006  0.3579425E+03  0.7546771E-02  0.1060549E+00
          1   -1    0    0  501    0  0.00000000000E+00  0.00000000000E+00  0.23985073327E+03  0.23985073327E+03  0.00000000000E+00 0. -1.
         -1   -1    0    0    0  501 -0.00000000000E+00 -0.00000000000E+00 -0.54738386745E+03  0.54738386745E+03  0.00000000000E+00 0.  1.
          5    1    1    2  502    0  0.12736875143E+03  0.12350341461E+02 -0.31367160560E+02  0.13183822866E+03  0.47000000000E+01 0.  1.
         -5    1    1    2    0  502  0.15423565517E+03  0.16984447479E+03 -0.32657528347E+02  0.23178521761E+03  0.47000000000E+01 0.  1.
        -11    1    1    2    0    0 -0.23029762872E+03 -0.11073041322E+03 -0.20489005610E+03  0.32753344454E+03  0.00000000000E+00 0.  1.
         11    1    1    2    0    0 -0.51306777886E+02 -0.71464403035E+02 -0.38618389178E+02  0.96077709907E+02  0.00000000000E+00 0. -1.
<mgrwt>
<rscale>  0 0.35507939E+03</rscale>
<asrwt>0</asrwt>
<pdfrwt beam="1">  1        1 0.36900113E-01 0.35794252E+03</pdfrwt>
<pdfrwt beam="2">  1       -1 0.84212902E-01 0.35794252E+03</pdfrwt>
<totfact> 0.17033343E+02</totfact>
</mgrwt>
</event>
<event>
 6    1  0.5818426E-006  0.2079535E+03  0.7546771E-02  0.1147285E+00
          2   -1    0    0  501    0  0.00000000000E+00  0.00000000000E+00  0.85856152417E+03  0.85856152417E+03  0.00000000000E+00 0. -1.
         -2   -1    0    0    0  501 -0.00000000000E+00 -0.00000000000E+00 -0.48938288727E+02  0.48938288727E+02  0.00000000000E+00 0.  1.
          5    1    1    2  502    0  0.11099722551E+03 -0.10952473704E+03  0.25610054471E+03  0.29987602621E+03  0.47000000000E+01 0. -1.
         -5    1    1    2    0  502  0.36599424361E+02  0.33143024585E+02  0.52233356745E+02  0.72030490066E+02  0.47000000000E+01 0. -1.
        -11    1    1    2    0    0 -0.67111328983E+02  0.77735176870E+02  0.21609812514E+03  0.23925945727E+03  0.00000000000E+00 0.  1.
         11    1    1    2    0    0 -0.80485320887E+02 -0.13534644126E+01  0.28519120885E+03  0.29633383936E+03  0.00000000000E+00 0. -1.
<mgrwt>
<rscale>  0 0.20293592E+03</rscale>
<asrwt>0</asrwt>
<pdfrwt beam="1">  1        2 0.13208638E+00 0.20795351E+03</pdfrwt>
<pdfrwt beam="2">  1       -2 0.75289681E-02 0.20795351E+03</pdfrwt>
<totfact> 0.33375108E+03</totfact>
</mgrwt>
</event>
<event>
 6    1  0.5818426E-006  0.1323092E+03  0.7546771E-02  0.1237002E+00
         -2   -1    0    0    0  501 -0.00000000000E+00  0.00000000000E+00  0.12513112282E+03  0.12513112282E+03  0.00000000000E+00 0.  1.
          2   -1    0    0  501    0  0.00000000000E+00 -0.00000000000E+00 -0.11596843644E+03  0.11596843644E+03  0.00000000000E+00 0. -1.
          5    1    1    2  502    0 -0.38728997898E+02 -0.24876019911E+02 -0.17245388075E+02  0.49378589030E+02  0.47000000000E+01 0. -1.
         -5    1    1    2    0  502  0.70105222890E+02 -0.50685011434E+01  0.51589130053E+02  0.87315292589E+02  0.47000000000E+01 0. -1.
        -11    1    1    2    0    0 -0.60210575384E+02  0.35011226018E+02 -0.27842798841E+02  0.75008804700E+02  0.00000000000E+00 0.  1.
         11    1    1    2    0    0  0.28834350391E+02 -0.50667049637E+01  0.26617432388E+01  0.29396872941E+02  0.00000000000E+00 0. -1.
<mgrwt>
<rscale>  0 0.12377135E+03</rscale>
<asrwt>0</asrwt>
<pdfrwt beam="2">  1        2 0.17841298E-01 0.13230920E+03</pdfrwt>
<pdfrwt beam="1">  1       -2 0.19250942E-01 0.13230920E+03</pdfrwt>
<totfact> 0.67364707E+03</totfact>
</mgrwt>
</event>
<event>
 6    1  0.5818426E-006  0.1434185E+03  0.7546771E-02  0.1219590E+00
          1   -1    0    0  501    0  0.00000000000E+00  0.00000000000E+00  0.91977220450E+02  0.91977220450E+02  0.00000000000E+00 0. -1.
         -1   -1    0    0    0  501 -0.00000000000E+00 -0.00000000000E+00 -0.18039147722E+03  0.18039147722E+03  0.00000000000E+00 0.  1.
          5    1    1    2  502    0  0.31547394383E+02 -0.96024588551E+02 -0.14712925445E+02  0.10224734654E+03  0.47000000000E+01 0. -1.
         -5    1    1    2    0  502 -0.92249415413E+00  0.32725754928E+02 -0.38424079375E+02  0.50698381699E+02  0.47000000000E+01 0. -1.
        -11    1    1    2    0    0 -0.24103646631E+02  0.13141532010E+02  0.27464376260E+02  0.38832687363E+02  0.00000000000E+00 0. -1.
         11    1    1    2    0    0 -0.65212535980E+01  0.50157301613E+02 -0.62741628207E+02  0.80590282067E+02  0.00000000000E+00 0.  1.
<mgrwt>
<rscale>  0 0.13544693E+03</rscale>
<asrwt>0</asrwt>
<pdfrwt beam="1">  1        1 0.14150342E-01 0.14341846E+03</pdfrwt>
<pdfrwt beam="2">  1       -1 0.27752535E-01 0.14341846E+03</pdfrwt>
<totfact> 0.45092218E+03</totfact>
</mgrwt>
</event>
<event>
 6    1  0.5818426E-006  0.1377991E+03  0.7546771E-02  0.1227977E+00
         -3   -1    0    0    0  501 -0.00000000000E+00  0.00000000000E+00  0.33088503125E+03  0.33088503125E+03  0.00000000000E+00 0.  1.
          3   -1    0    0  501    0  0.00000000000E+00 -0.00000000000E+00 -0.61108721387E+02  0.61108721387E+02  0.00000000000E+00 0. -1.
          5    1    1    2  502    0 -0.30639573026E+02  0.81732278456E+01  0.20643675673E+03  0.20891100885E+03  0.47000000000E+01 0. -1.
         -5    1    1    2    0  502  0.35299310084E+02  0.49636099517E+02  0.38741462947E+02  0.72337919647E+02  0.47000000000E+01 0. -1.
        -11    1    1    2    0    0 -0.41877438382E+02 -0.56544656084E+02  0.20452140471E+02  0.73275562277E+02  0.00000000000E+00 0.  1.
         11    1    1    2    0    0  0.37217701324E+02 -0.12646712784E+01  0.41459497078E+01  0.37469261859E+02  0.00000000000E+00 0. -1.
<mgrwt>
<rscale>  0 0.12964899E+03</rscale>
<asrwt>0</asrwt>
<pdfrwt beam="2">  1        3 0.94013420E-02 0.13779913E+03</pdfrwt>
<pdfrwt beam="1">  1       -3 0.50905388E-01 0.13779913E+03</pdfrwt>
<totfact> 0.73004428E+02</totfact>
</mgrwt>
</event>
<event>
 6    1  0.5818426E-006  0.1384331E+03  0.7546771E-02  0.1227111E+00
          2   -1    0    0  501    0  0.00000000000E+00  0.00000000000E+00  0.31557837500E+03  0.31557837500E+03  0.00000000000E+00 0. -1.
         -2   -1    0    0    0  501 -0.00000000000E+00 -0.00000000000E+00 -0.52026998931E+02  0.52026998931E+02  0.00000000000E+00 0.  1.
          5    1    1    2  502    0 -0.30587926108E+02  0.47218385159E+02  0.28455271647E+02  0.63221749462E+02  0.47000000000E+01 0. -1.
         -5    1    1    2    0  502 -0.20482987435E+02 -0.77757667398E+02  0.69183768345E+02  0.10618046626E+03  0.47000000000E+01 0. -1.
        -11    1    1    2    0    0 -0.54980154059E+01  0.43404100917E+02  0.10663505494E+03  0.11526135125E+03  0.00000000000E+00 0. -1.
         11    1    1    2    0    0  0.56568928948E+02 -0.12864818678E+02  0.59277281135E+02  0.82941806954E+02  0.00000000000E+00 0.  1.
<mgrwt>
<rscale>  0 0.13023262E+03</rscale>
<asrwt>0</asrwt>
<pdfrwt beam="1">  1        2 0.48550518E-01 0.13843312E+03</pdfrwt>
<pdfrwt beam="2">  1       -2 0.80041539E-02 0.13843312E+03</pdfrwt>
<totfact> 0.92803975E+03</totfact>
</mgrwt>
</event>
<event>
 6    1  0.5818426E-006  0.4282488E+03  0.7546771E-02  0.1034415E+00
         -1   -1    0    0    0  501 -0.00000000000E+00  0.00000000000E+00  0.24771271629E+03  0.24771271629E+03  0.00000000000E+00 0.  1.
          1   -1    0    0  501    0  0.00000000000E+00 -0.00000000000E+00 -0.18509042969E+03  0.18509042969E+03  0.00000000000E+00 0. -1.
          5    1    1    2  502    0  0.40254200182E+02  0.69979682756E+01  0.22928336855E+03  0.23294275110E+03  0.47000000000E+01 0.  1.
         -5    1    1    2    0  502 -0.40253129736E+01  0.11956169002E+02 -0.13944311240E+02  0.19382645271E+02  0.47000000000E+01 0.  1.
        -11    1    1    2    0    0 -0.23061439422E+02  0.23872369990E+02 -0.16471602864E+02  0.37054469880E+02  0.00000000000E+00 0.  1.
         11    1    1    2    0    0 -0.13167447786E+02 -0.42826507268E+02 -0.13624516785E+03  0.14342327973E+03  0.00000000000E+00 0. -1.
<mgrwt>
<rscale>  0 0.42824877E+03</rscale>
<asrwt>0</asrwt>
<pdfrwt beam="2">  1        1 0.28475451E-01 0.42824877E+03</pdfrwt>
<pdfrwt beam="1">  1       -1 0.38109649E-01 0.42824877E+03</pdfrwt>
<totfact> 0.10947339E+03</totfact>
</mgrwt>
</event>
<event>
 6    1  0.5818426E-006  0.1541354E+03  0.7546771E-02  0.1203280E+00
         -1   -1    0    0    0  501 -0.00000000000E+00  0.00000000000E+00  0.53512531917E+03  0.53512531917E+03  0.00000000000E+00 0.  1.
          1   -1    0    0  501    0  0.00000000000E+00 -0.00000000000E+00 -0.45332719817E+02  0.45332719817E+02  0.00000000000E+00 0. -1.
          5    1    1    2  502    0  0.16475216960E+02  0.52705153852E+02  0.19746677129E+03  0.20509627442E+03  0.47000000000E+01 0.  1.
         -5    1    1    2    0  502 -0.93040297088E+02 -0.50532149219E+01  0.18308176542E+03  0.20548249242E+03  0.47000000000E+01 0.  1.
        -11    1    1    2    0    0  0.47951922519E+02 -0.90103085421E+01 -0.18503198846E+01  0.48826183723E+02  0.00000000000E+00 0. -1.
         11    1    1    2    0    0  0.28613157609E+02 -0.38641630388E+02  0.11109438253E+03  0.12105308843E+03  0.00000000000E+00 0.  1.
<mgrwt>
<rscale>  0 0.14773793E+03</rscale>
<asrwt>0</asrwt>
<pdfrwt beam="2">  1        1 0.69742649E-02 0.15413544E+03</pdfrwt>
<pdfrwt beam="1">  1       -1 0.82326968E-01 0.15413544E+03</pdfrwt>
<totfact> 0.15814651E+03</totfact>
</mgrwt>
</event>
<event>
 6    1  0.5818426E-006  0.1273010E+03  0.7546771E-02  0.1245476E+00
          3   -1    0    0  501    0  0.00000000000E+00  0.00000000000E+00  0.11901095061E+02  0.11901095061E+02  0.00000000000E+00 0. -1.
         -3   -1    0    0    0  501 -0.00000000000E+00 -0.00000000000E+00 -0.10502062369E+04  0.10502062369E+04  0.00000000000E+00 0.  1.
          5    1    1    2  502    0  0.45308925474E+02 -0.41870903073E+02 -0.16476983063E+03  0.17600357479E+03  0.47000000000E+01 0.  1.
         -5    1    1    2    0  502 -0.29040833526E+02  0.24112524843E+02 -0.46201257710E+03  0.46357577079E+03  0.47000000000E+01 0.  1.
        -11    1    1    2    0    0 -0.14610238766E+02 -0.36279405337E+02 -0.22311463091E+03  0.22651665028E+03  0.00000000000E+00 0.  1.
         11    1    1    2    0    0 -0.16578531814E+01  0.54037783568E+02 -0.18840810321E+03  0.19601133612E+03  0.00000000000E+00 0. -1.
<mgrwt>
<rscale>  0 0.11856950E+03</rscale>
<asrwt>0</asrwt>
<pdfrwt beam="1">  1        3 0.18309376E-02 0.12730103E+03</pdfrwt>
<pdfrwt beam="2">  1       -3 0.16157020E+00 0.12730103E+03</pdfrwt>
<totfact> 0.71136039E+02</totfact>
</mgrwt>
</event>
<event>
 6    1  0.5818426E-006  0.1246120E+03  0.7546771E-02  0.1250598E+00
          3   -1    0    0  501    0  0.00000000000E+00  0.00000000000E+00  0.24821332136E+03  0.24821332136E+03  0.00000000000E+00 0. -1.
         -3   -1    0    0    0  501 -0.00000000000E+00 -0.00000000000E+00 -0.49635830618E+02  0.49635830618E+02  0.00000000000E+00 0.  1.
          5    1    1    2  502    0 -0.71548294969E+01 -0.65768191346E+02  0.39837829637E+02  0.77367882537E+02  0.47000000000E+01 0. -1.
         -5    1    1    2    0  502  0.10792269964E+02  0.56928958570E+02  0.41907725023E+02  0.71663985596E+02  0.47000000000E+01 0.  1.
        -11    1    1    2    0    0  0.43669739928E+02  0.38972746205E+01  0.46483794230E+02  0.63898185114E+02  0.00000000000E+00 0.  1.
         11    1    1    2    0    0 -0.47307180395E+02  0.49419581560E+01  0.70348141848E+02  0.84919098728E+02  0.00000000000E+00 0. -1.
<mgrwt>
<rscale>  0 0.11556531E+03</rscale>
<asrwt>0</asrwt>
<pdfrwt beam="1">  1        3 0.38186664E-01 0.12461205E+03</pdfrwt>
<pdfrwt beam="2">  1       -3 0.76362818E-02 0.12461205E+03</pdfrwt>
<totfact> 0.17689339E+03</totfact>
</mgrwt>
</event>
<event>
 6    1  0.6104442E-006  0.3520421E+03  0.7546771E-02  0.1062875E+00
         -2   -1    0    0    0  501 -0.00000000000E+00  0.00000000000E+00  0.22606930568E+03  0.22606930568E+03  0.00000000000E+00 0.  1.
          2   -1    0    0  501    0  0.00000000000E+00 -0.00000000000E+00 -0.59470768470E+03  0.59470768470E+03  0.00000000000E+00 0. -1.
          5    1    1    2  502    0  0.12748142464E+03 -0.16840369883E+03 -0.90523331992E+02  0.22984317054E+03  0.47000000000E+01 0. -1.
         -5    1    1    2    0  502  0.45092516455E+02 -0.11182205008E+03  0.37080808429E+02  0.12623225530E+03  0.47000000000E+01 0. -1.
        -11    1    1    2    0    0 -0.98080194799E+02  0.23417015611E+03 -0.23331374829E+03  0.34480529544E+03  0.00000000000E+00 0.  1.
         11    1    1    2    0    0 -0.74493746300E+02  0.46055592807E+02 -0.81882107171E+02  0.11989626909E+03  0.00000000000E+00 0. -1.
<mgrwt>
<rscale>  0 0.34936775E+03</rscale>
<asrwt>0</asrwt>
<pdfrwt beam="2">  1        2 0.91493488E-01 0.35204205E+03</pdfrwt>
<pdfrwt beam="1">  1       -2 0.34779894E-01 0.35204205E+03</pdfrwt>
<totfact> 0.39717227E+02</totfact>
</mgrwt>
</event>
<event>
 6    1  0.5818426E-006  0.1297014E+03  0.7546771E-02  0.1241282E+00
         -1   -1    0    0    0  501 -0.00000000000E+00  0.00000000000E+00  0.21776415746E+02  0.21776415746E+02  0.00000000000E+00 0.  1.
          1   -1    0    0  501    0  0.00000000000E+00 -0.00000000000E+00 -0.60645492313E+03  0.60645492313E+03  0.00000000000E+00 0. -1.
          5    1    1    2  502    0  0.70586759787E+02 -0.30750191607E+02 -0.22105896576E+03  0.23413077816E+03  0.47000000000E+01 0. -1.
         -5    1    1    2    0  502 -0.35990638813E+02  0.31452473329E+02 -0.74561310868E+02  0.88690829509E+02  0.47000000000E+01 0. -1.
        -11    1    1    2    0    0 -0.55611821620E+02 -0.20410205707E+02 -0.11901382327E+03  0.13294187200E+03  0.00000000000E+00 0.  1.
         11    1    1    2    0    0  0.21015700645E+02  0.19707923985E+02 -0.17004440749E+03  0.17246785921E+03  0.00000000000E+00 0. -1.
<mgrwt>
<rscale>  0 0.12110697E+03</rscale>
<asrwt>0</asrwt>
<pdfrwt beam="2">  1        1 0.93300751E-01 0.12970136E+03</pdfrwt>
<pdfrwt beam="1">  1       -1 0.33502180E-02 0.12970136E+03</pdfrwt>
<totfact> 0.10557314E+04</totfact>
</mgrwt>
</event>
<event>
 6    1  0.5852587E-006  0.3901261E+03  0.7546771E-02  0.1048159E+00
         -2   -1    0    0    0  501 -0.00000000000E+00  0.00000000000E+00  0.11343053372E+03  0.11343053372E+03  0.00000000000E+00 0.  1.
          2   -1    0    0  501    0  0.00000000000E+00 -0.00000000000E+00 -0.14093266393E+04  0.14093266393E+04  0.00000000000E+00 0. -1.
          5    1    1    2  502    0  0.10231452400E+03 -0.59779014982E+02 -0.63909385393E+02  0.13471559670E+03  0.47000000000E+01 0. -1.
         -5    1    1    2    0  502  0.22782604840E+03 -0.10628964072E+03 -0.38730892425E+03  0.46177103510E+03  0.47000000000E+01 0. -1.
        -11    1    1    2    0    0 -0.12789810185E+03  0.57459448262E+02 -0.43012449836E+03  0.45240092477E+03  0.00000000000E+00 0.  1.
         11    1    1    2    0    0 -0.20224247055E+03  0.10860920744E+03 -0.41455329754E+03  0.47386961639E+03  0.00000000000E+00 0. -1.
<mgrwt>
<rscale>  0 0.38760190E+03</rscale>
<asrwt>0</asrwt>
<pdfrwt beam="2">  1        2 0.21681949E+00 0.39012606E+03</pdfrwt>
<pdfrwt beam="1">  1       -2 0.17450851E-01 0.39012606E+03</pdfrwt>
<totfact> 0.40186441E+02</totfact>
</mgrwt>
</event>
<event>
 6    1  0.5818426E-006  0.1772116E+03  0.7546771E-02  0.1176385E+00
          2   -1    0    0  501    0  0.00000000000E+00  0.00000000000E+00  0.60223963265E+03  0.60223963265E+03  0.00000000000E+00 0. -1.
         -2   -1    0    0    0  501 -0.00000000000E+00 -0.00000000000E+00 -0.46388153470E+02  0.46388153470E+02  0.00000000000E+00 0.  1.
          5    1    1    2  502    0 -0.11364237408E+03  0.24391524754E+02  0.23991894297E+03  0.26663219023E+03  0.47000000000E+01 0.  1.
         -5    1    1    2    0  502  0.77822194380E+01  0.43232049513E+02  0.21350074675E+02  0.49066166888E+02  0.47000000000E+01 0.  1.
        -11    1    1    2    0    0  0.78332475682E+02 -0.52472345821E+02  0.28482974865E+03  0.30002884784E+03  0.00000000000E+00 0. -1.
         11    1    1    2    0    0  0.27527678961E+02 -0.15151228446E+02  0.97527128828E+01  0.32900581164E+02  0.00000000000E+00 0.  1.
<mgrwt>
<rscale>  0 0.17141082E+03</rscale>
<asrwt>0</asrwt>
<pdfrwt beam="1">  1        2 0.92652246E-01 0.17721161E+03</pdfrwt>
<pdfrwt beam="2">  1       -2 0.71366394E-02 0.17721161E+03</pdfrwt>
<totfact> 0.55543096E+03</totfact>
</mgrwt>
</event>
<event>
 6    1  0.5818426E-006  0.1267475E+03  0.7546771E-02  0.1246891E+00
         -2   -1    0    0    0  501 -0.00000000000E+00  0.00000000000E+00  0.43777958178E+02  0.43777958178E+02  0.00000000000E+00 0.  1.
          2   -1    0    0  501    0  0.00000000000E+00 -0.00000000000E+00 -0.29524776449E+03  0.29524776449E+03  0.00000000000E+00 0. -1.
          5    1    1    2  502    0  0.20779286597E+02 -0.43406684690E+02 -0.10164151568E+03  0.11255668233E+03  0.47000000000E+01 0. -1.
         -5    1    1    2    0  502 -0.12671614171E+01  0.51095607734E+02 -0.23308678891E+01  0.51379857657E+02  0.47000000000E+01 0. -1.
        -11    1    1    2    0    0  0.72736294392E+00  0.32333875735E+02 -0.15860361471E+02  0.36021655194E+02  0.00000000000E+00 0.  1.
         11    1    1    2    0    0 -0.20239488123E+02 -0.40022798778E+02 -0.13163706127E+03  0.13906752749E+03  0.00000000000E+00 0. -1.
<mgrwt>
<rscale>  0 0.11772882E+03</rscale>
<asrwt>0</asrwt>
<pdfrwt beam="2">  1        2 0.45422732E-01 0.12674752E+03</pdfrwt>
<pdfrwt beam="1">  1       -2 0.67350706E-02 0.12674752E+03</pdfrwt>
<totfact> 0.12890213E+04</totfact>
</mgrwt>
</event>
<event>
 6    1  0.5818426E-006  0.1477206E+03  0.7546771E-02  0.1212616E+00
          1   -1    0    0  501    0  0.00000000000E+00  0.00000000000E+00  0.15161737359E+03  0.15161737359E+03  0.00000000000E+00 0. -1.
         -1   -1    0    0    0  501 -0.00000000000E+00 -0.00000000000E+00 -0.15653247396E+03  0.15653247396E+03  0.00000000000E+00 0.  1.
          5    1    1    2  502    0  0.25594208210E+02  0.34097196749E+02 -0.16602864004E+02  0.45993775809E+02  0.47000000000E+01 0. -1.
         -5    1    1    2    0  502  0.11327375057E+02 -0.10361891123E+03 -0.61137952371E+02  0.12093439300E+03  0.47000000000E+01 0. -1.
        -11    1    1    2    0    0 -0.56239302213E+02  0.31382837753E+02  0.74447609124E+02  0.98438753157E+02  0.00000000000E+00 0. -1.
         11    1    1    2    0    0  0.19317718946E+02  0.38138876733E+02 -0.16218931199E+01  0.42782925578E+02  0.00000000000E+00 0.  1.
<mgrwt>
<rscale>  0 0.14053140E+03</rscale>
<asrwt>0</asrwt>
<pdfrwt beam="1">  1        1 0.23325750E-01 0.14772061E+03</pdfrwt>
<pdfrwt beam="2">  1       -1 0.24081919E-01 0.14772061E+03</pdfrwt>
<totfact> 0.30087143E+03</totfact>
</mgrwt>
</event>
<event>
 6    1  0.5818426E-006  0.1437717E+03  0.7546771E-02  0.1218381E+00
         -3   -1    0    0    0  501 -0.00000000000E+00  0.00000000000E+00  0.20175810712E+02  0.20175810712E+02  0.00000000000E+00 0.  1.
          3   -1    0    0  501    0  0.00000000000E+00 -0.00000000000E+00 -0.83769942261E+03  0.83769942261E+03  0.00000000000E+00 0. -1.
          5    1    1    2  502    0 -0.66751850135E+02  0.18760057204E+02 -0.15046433051E+03  0.16573881259E+03  0.47000000000E+01 0. -1.
         -5    1    1    2    0  502  0.42601721068E+02  0.48051525971E+02 -0.31131710055E+03  0.31790609130E+03  0.47000000000E+01 0. -1.
        -11    1    1    2    0    0  0.42370886094E+02 -0.13186220935E+02 -0.69643071298E+02  0.82579209192E+02  0.00000000000E+00 0.  1.
         11    1    1    2    0    0 -0.18220757028E+02 -0.53625362240E+02 -0.28609910954E+03  0.29165112025E+03  0.00000000000E+00 0. -1.
<mgrwt>
<rscale>  0 0.13631073E+03</rscale>
<asrwt>0</asrwt>
<pdfrwt beam="2">  1        3 0.12887685E+00 0.14377170E+03</pdfrwt>
<pdfrwt beam="1">  1       -3 0.31039704E-02 0.14377170E+03</pdfrwt>
<totfact> 0.56502191E+02</totfact>
</mgrwt>
</event>
<event>
 6    1  0.5818426E-006  0.1480107E+03  0.7546771E-02  0.1212359E+00
         -1   -1    0    0    0  501 -0.00000000000E+00  0.00000000000E+00  0.15790965866E+02  0.15790965866E+02  0.00000000000E+00 0.  1.
          1   -1    0    0  501    0  0.00000000000E+00 -0.00000000000E+00 -0.13130428622E+04  0.13130428622E+04  0.00000000000E+00 0. -1.
          5    1    1    2  502    0  0.14108399222E+02  0.50114408154E+02 -0.56922788585E+03  0.57162310735E+03  0.47000000000E+01 0.  1.
         -5    1    1    2    0  502  0.65148377220E+02 -0.51462692473E+02 -0.37280283438E+03  0.38196434794E+03  0.47000000000E+01 0.  1.
        -11    1    1    2    0    0 -0.16843384789E+02 -0.14528696623E+02 -0.10565521698E+02  0.24625451985E+02  0.00000000000E+00 0.  1.
         11    1    1    2    0    0 -0.62413391653E+02  0.15876980943E+02 -0.34465565438E+03  0.35062092076E+03  0.00000000000E+00 0. -1.
<mgrwt>
<rscale>  0 0.14072361E+03</rscale>
<asrwt>0</asrwt>
<pdfrwt beam="2">  1        1 0.20200661E+00 0.14801067E+03</pdfrwt>
<pdfrwt beam="1">  1       -1 0.24293792E-02 0.14801067E+03</pdfrwt>
<totfact> 0.48482589E+03</totfact>
</mgrwt>
</event>
<event>
 6    1  0.5818426E-006  0.1314931E+03  0.7546771E-02  0.1238963E+00
         -2   -1    0    0    0  501 -0.00000000000E+00  0.00000000000E+00  0.44592810549E+02  0.44592810549E+02  0.00000000000E+00 0.  1.
          2   -1    0    0  501    0  0.00000000000E+00 -0.00000000000E+00 -0.39557998841E+03  0.39557998841E+03  0.00000000000E+00 0. -1.
          5    1    1    2  502    0  0.15651767544E+02 -0.58161430750E+01 -0.10893806121E+03  0.11031045521E+03  0.47000000000E+01 0. -1.
         -5    1    1    2    0  502 -0.20165808063E+02 -0.34751317802E+02  0.23231076069E+02  0.46648545520E+02  0.47000000000E+01 0. -1.
        -11    1    1    2    0    0  0.12743603017E+02  0.60878709441E+02 -0.24689205906E+03  0.25460617728E+03  0.00000000000E+00 0. -1.
         11    1    1    2    0    0 -0.82295624985E+01 -0.20311248564E+02 -0.18388133658E+02  0.28607620952E+02  0.00000000000E+00 0.  1.
<mgrwt>
<rscale>  0 0.12254122E+03</rscale>
<asrwt>0</asrwt>
<pdfrwt beam="2">  1        2 0.60858458E-01 0.13149312E+03</pdfrwt>
<pdfrwt beam="1">  1       -2 0.68604326E-02 0.13149312E+03</pdfrwt>
<totfact> 0.92167479E+03</totfact>
</mgrwt>
</event>
<event>
 6    1  0.5818426E-006  0.3909006E+03  0.7546771E-02  0.1046977E+00
         -2   -1    0    0    0  501 -0.00000000000E+00  0.00000000000E+00  0.56903597277E+02  0.56903597277E+02  0.00000000000E+00 0.  1.
          2   -1    0    0  501    0  0.00000000000E+00 -0.00000000000E+00 -0.67132529809E+03  0.67132529809E+03  0.00000000000E+00 0. -1.
          5    1    1    2  502    0  0.35567554856E+02 -0.12714413608E+03 -0.62497702443E+02  0.14614627983E+03  0.47000000000E+01 0. -1.
         -5    1    1    2    0  502  0.21764198332E+02  0.10382658310E+02 -0.80180110643E+02  0.83859525787E+02  0.47000000000E+01 0. -1.
        -11    1    1    2    0    0 -0.37061329359E+02  0.37759936038E+02 -0.67146527622E+02  0.85486905869E+02  0.00000000000E+00 0.  1.
         11    1    1    2    0    0 -0.20270423830E+02  0.79001541731E+02 -0.40459736011E+03  0.41273618388E+03  0.00000000000E+00 0. -1.
<mgrwt>
<rscale>  0 0.39090062E+03</rscale>
<asrwt>0</asrwt>
<pdfrwt beam="2">  1        2 0.10328081E+00 0.39090062E+03</pdfrwt>
<pdfrwt beam="1">  1       -2 0.87543998E-02 0.39090062E+03</pdfrwt>
<totfact> 0.36394885E+03</totfact>
</mgrwt>
</event>
<event>
 6    1  0.5818426E-006  0.1311452E+03  0.7546771E-02  0.1239031E+00
          1   -1    0    0  501    0  0.00000000000E+00  0.00000000000E+00  0.89399579067E+02  0.89399579067E+02  0.00000000000E+00 0. -1.
         -1   -1    0    0    0  501 -0.00000000000E+00 -0.00000000000E+00 -0.19438691606E+03  0.19438691606E+03  0.00000000000E+00 0.  1.
          5    1    1    2  502    0 -0.46152215372E+02 -0.58047000744E+02 -0.33077694066E+02  0.81336984970E+02  0.47000000000E+01 0. -1.
         -5    1    1    2    0  502  0.31795758714E+02  0.21059469344E+02 -0.92811969503E+02  0.10045209408E+03  0.47000000000E+01 0. -1.
        -11    1    1    2    0    0 -0.10940958038E+02  0.58912375363E+02  0.30413335787E+02  0.67196305905E+02  0.00000000000E+00 0.  1.
         11    1    1    2    0    0  0.25297414697E+02 -0.21924843962E+02 -0.95110092057E+01  0.34801110172E+02  0.00000000000E+00 0. -1.
<mgrwt>
<rscale>  0 0.12249898E+03</rscale>
<asrwt>0</asrwt>
<pdfrwt beam="1">  1        1 0.13753781E-01 0.13114519E+03</pdfrwt>
<pdfrwt beam="2">  1       -1 0.29905679E-01 0.13114519E+03</pdfrwt>
<totfact> 0.41077329E+03</totfact>
</mgrwt>
</event>
<event>
 6    1  0.5818426E-006  0.1305590E+03  0.7546771E-02  0.1238791E+00
         -2   -1    0    0    0  501 -0.00000000000E+00  0.00000000000E+00  0.47990845678E+02  0.47990845678E+02  0.00000000000E+00 0.  1.
          2   -1    0    0  501    0  0.00000000000E+00 -0.00000000000E+00 -0.28127772938E+03  0.28127772938E+03  0.00000000000E+00 0. -1.
          5    1    1    2  502    0  0.42227251443E+02 -0.68629862593E+02 -0.10735122182E+03  0.13431147989E+03  0.47000000000E+01 0.  1.
         -5    1    1    2    0  502 -0.22401141807E+02  0.36596864770E+02 -0.18281471186E+02  0.46876901070E+02  0.47000000000E+01 0.  1.
        -11    1    1    2    0    0 -0.11237937281E+02 -0.75468691084E+01  0.14231723850E+02  0.19641497688E+02  0.00000000000E+00 0.  1.
         11    1    1    2    0    0 -0.85881723555E+01  0.39579866932E+02 -0.12188591454E+03  0.12843869641E+03  0.00000000000E+00 0. -1.
<mgrwt>
<rscale>  0 0.12264826E+03</rscale>
<asrwt>0</asrwt>
<pdfrwt beam="2">  1        2 0.43273496E-01 0.13055901E+03</pdfrwt>
<pdfrwt beam="1">  1       -2 0.73832071E-02 0.13055901E+03</pdfrwt>
<totfact> 0.11818794E+04</totfact>
</mgrwt>
</event>
<event>
 6    1  0.5818426E-006  0.1307300E+03  0.7546771E-02  0.1236988E+00
          1   -1    0    0  501    0  0.00000000000E+00  0.00000000000E+00  0.32385564632E+03  0.32385564632E+03  0.00000000000E+00 0. -1.
         -1   -1    0    0    0  501 -0.00000000000E+00 -0.00000000000E+00 -0.42942041874E+02  0.42942041874E+02  0.00000000000E+00 0.  1.
          5    1    1    2  502    0 -0.20558184597E+02 -0.13905313773E+02  0.15374178902E+03  0.15580315913E+03  0.47000000000E+01 0. -1.
         -5    1    1    2    0  502  0.39832383208E+02 -0.19136592885E+02 -0.20016677564E+01  0.44485105520E+02  0.47000000000E+01 0. -1.
        -11    1    1    2    0    0 -0.43368994175E+02  0.34594425469E+01  0.14824144704E+02  0.45962948825E+02  0.00000000000E+00 0.  1.
         11    1    1    2    0    0  0.24094795563E+02  0.29582464111E+02  0.11434933848E+03  0.12054647472E+03  0.00000000000E+00 0. -1.
<mgrwt>
<rscale>  0 0.12378001E+03</rscale>
<asrwt>0</asrwt>
<pdfrwt beam="1">  1        1 0.49823944E-01 0.13072997E+03</pdfrwt>
<pdfrwt beam="2">  1       -1 0.66064682E-02 0.13072997E+03</pdfrwt>
<totfact> 0.86834589E+03</totfact>
</mgrwt>
</event>
<event>
 6    1  0.5818426E-006  0.1893026E+03  0.7546771E-02  0.1163908E+00
          1   -1    0    0  501    0  0.00000000000E+00  0.00000000000E+00  0.98578467218E+03  0.98578467218E+03  0.00000000000E+00 0.  1.
         -1   -1    0    0    0  501 -0.00000000000E+00 -0.00000000000E+00 -0.32640599591E+02  0.32640599591E+02  0.00000000000E+00 0. -1.
          5    1    1    2  502    0 -0.27834004116E+02  0.54399875592E+02  0.32143661777E+03  0.32722724136E+03  0.47000000000E+01 0.  1.
         -5    1    1    2    0  502  0.71686965678E+02  0.80835925010E+02  0.19768465430E+03  0.22533259943E+03  0.47000000000E+01 0.  1.
        -11    1    1    2    0    0 -0.65088280125E+01 -0.26378600648E+02  0.14405167196E+02  0.30752304892E+02  0.00000000000E+00 0. -1.
         11    1    1    2    0    0 -0.37344133550E+02 -0.10885719995E+03  0.41961763332E+03  0.43511312608E+03  0.00000000000E+00 0.  1.
<mgrwt>
<rscale>  0 0.18408447E+03</rscale>
<asrwt>0</asrwt>
<pdfrwt beam="1">  1        1 0.15165916E+00 0.18930262E+03</pdfrwt>
<pdfrwt beam="2">  1       -1 0.50216315E-02 0.18930262E+03</pdfrwt>
<totfact> 0.28456853E+03</totfact>
</mgrwt>
</event>
<event>
 6    1  0.5818426E-006  0.1272045E+03  0.7546771E-02  0.1245924E+00
          1   -1    0    0  501    0  0.00000000000E+00  0.00000000000E+00  0.11750552113E+03  0.11750552113E+03  0.00000000000E+00 0. -1.
         -1   -1    0    0    0  501 -0.00000000000E+00 -0.00000000000E+00 -0.18305745496E+03  0.18305745496E+03  0.00000000000E+00 0.  1.
          5    1    1    2  502    0 -0.36549636240E+02  0.62228204874E+02 -0.71038100120E+02  0.10137419326E+03  0.47000000000E+01 0.  1.
         -5    1    1    2    0  502  0.15119924351E+02 -0.52380542108E+02 -0.61872397731E+02  0.82599133802E+02  0.47000000000E+01 0.  1.
        -11    1    1    2    0    0 -0.34994278689E+02  0.76278542622E+01  0.29796591144E+02  0.46589918925E+02  0.00000000000E+00 0.  1.
         11    1    1    2    0    0  0.56423990578E+02 -0.17475517028E+02  0.37561972877E+02  0.69999730104E+02  0.00000000000E+00 0. -1.
<mgrwt>
<rscale>  0 0.11830245E+03</rscale>
<asrwt>0</asrwt>
<pdfrwt beam="1">  1        1 0.18077773E-01 0.12720450E+03</pdfrwt>
<pdfrwt beam="2">  1       -1 0.28162685E-01 0.12720450E+03</pdfrwt>
<totfact> 0.31873753E+03</totfact>
</mgrwt>
</event>
<event>
 6    1  0.5818426E-006  0.1346355E+03  0.7546771E-02  0.1232367E+00
         -2   -1    0    0    0  501 -0.00000000000E+00  0.00000000000E+00  0.17939186495E+03  0.17939186495E+03  0.00000000000E+00 0.  1.
          2   -1    0    0  501    0  0.00000000000E+00 -0.00000000000E+00 -0.85393093215E+02  0.85393093215E+02  0.00000000000E+00 0. -1.
          5    1    1    2  502    0 -0.59138723538E+02  0.24713745494E+02 -0.14092760919E+01  0.64282454038E+02  0.47000000000E+01 0.  1.
         -5    1    1    2    0  502  0.11103539084E+02 -0.38628484038E+02  0.85135650220E+02  0.94263552329E+02  0.47000000000E+01 0.  1.
        -11    1    1    2    0    0 -0.52186227087E+01  0.36357425517E+02  0.27558764472E+02  0.45919297822E+02  0.00000000000E+00 0. -1.
         11    1    1    2    0    0  0.53253807163E+02 -0.22442686973E+02 -0.17286366868E+02  0.60319653973E+02  0.00000000000E+00 0.  1.
<mgrwt>
<rscale>  0 0.12674500E+03</rscale>
<asrwt>0</asrwt>
<pdfrwt beam="2">  1        2 0.13137399E-01 0.13463555E+03</pdfrwt>
<pdfrwt beam="1">  1       -2 0.27598748E-01 0.13463555E+03</pdfrwt>
<totfact> 0.51773131E+03</totfact>
</mgrwt>
</event>
<event>
 6    1  0.5818426E-006  0.1268667E+03  0.7546771E-02  0.1247740E+00
          1   -1    0    0  501    0  0.00000000000E+00  0.00000000000E+00  0.10715165732E+03  0.10715165732E+03  0.00000000000E+00 0. -1.
         -1   -1    0    0    0  501 -0.00000000000E+00 -0.00000000000E+00 -0.11517690573E+03  0.11517690573E+03  0.00000000000E+00 0.  1.
          5    1    1    2  502    0 -0.48199744046E+02  0.25385760825E+02 -0.32032507537E+02  0.63370527202E+02  0.47000000000E+01 0. -1.
         -5    1    1    2    0  502  0.44357061488E+02 -0.46791455829E+02  0.99396871986E+01  0.65405478547E+02  0.47000000000E+01 0. -1.
        -11    1    1    2    0    0  0.46491446063E+02  0.15320968969E+02  0.28413811674E+01  0.49033254982E+02  0.00000000000E+00 0. -1.
         11    1    1    2    0    0 -0.42648763505E+02  0.60847260348E+01  0.11226190762E+02  0.44519302313E+02  0.00000000000E+00 0.  1.
<mgrwt>
<rscale>  0 0.11722848E+03</rscale>
<asrwt>0</asrwt>
<pdfrwt beam="1">  1        1 0.16484870E-01 0.12686673E+03</pdfrwt>
<pdfrwt beam="2">  1       -1 0.17719524E-01 0.12686673E+03</pdfrwt>
<totfact> 0.76026170E+03</totfact>
</mgrwt>
</event>
<event>
 6    1  0.5818426E-006  0.3332595E+03  0.7546771E-02  0.1069704E+00
         -2   -1    0    0    0  501 -0.00000000000E+00  0.00000000000E+00  0.69837341065E+02  0.69837341065E+02  0.00000000000E+00 0.  1.
          2   -1    0    0  501    0  0.00000000000E+00 -0.00000000000E+00 -0.39757355753E+03  0.39757355753E+03  0.00000000000E+00 0. -1.
          5    1    1    2  502    0 -0.14151374861E+03 -0.45570729527E+02 -0.12609529933E+03  0.19499986397E+03  0.47000000000E+01 0.  1.
         -5    1    1    2    0  502  0.20222223484E+02  0.13907135862E+02 -0.43448352972E+02  0.50121812881E+02  0.47000000000E+01 0.  1.
        -11    1    1    2    0    0  0.40305021059E+02  0.56728949160E+02 -0.54748892975E+02  0.88544393822E+02  0.00000000000E+00 0.  1.
         11    1    1    2    0    0  0.80986504067E+02 -0.25065355494E+02 -0.10344367120E+03  0.13374482793E+03  0.00000000000E+00 0. -1.
<mgrwt>
<rscale>  0 0.33325954E+03</rscale>
<asrwt>0</asrwt>
<pdfrwt beam="2">  1        2 0.61165162E-01 0.33325954E+03</pdfrwt>
<pdfrwt beam="1">  1       -2 0.10744207E-01 0.33325954E+03</pdfrwt>
<totfact> 0.47618781E+03</totfact>
</mgrwt>
</event>
<event>
 6    1  0.5818426E-006  0.4196084E+03  0.7546771E-02  0.1037194E+00
          2   -1    0    0  501    0  0.00000000000E+00  0.00000000000E+00  0.26921119258E+03  0.26921119258E+03  0.00000000000E+00 0. -1.
         -2   -1    0    0    0  501 -0.00000000000E+00 -0.00000000000E+00 -0.16350658810E+03  0.16350658810E+03  0.00000000000E+00 0.  1.
          5    1    1    2  502    0 -0.96681400992E+01  0.23825041525E+02 -0.37228344716E+01  0.26401799809E+02  0.47000000000E+01 0.  1.
         -5    1    1    2    0  502 -0.92797321871E+02 -0.15987678724E+03 -0.84001442238E+00  0.18491815938E+03  0.47000000000E+01 0.  1.
        -11    1    1    2    0    0  0.61369031106E+02  0.11518460207E+03  0.11642766037E+03  0.17489725736E+03  0.00000000000E+00 0. -1.
         11    1    1    2    0    0  0.41096430864E+02  0.20867143645E+02 -0.61602069953E+01  0.46500564125E+02  0.00000000000E+00 0.  1.
<mgrwt>
<rscale>  0 0.41960841E+03</rscale>
<asrwt>0</asrwt>
<pdfrwt beam="1">  1        2 0.41417106E-01 0.41960841E+03</pdfrwt>
<pdfrwt beam="2">  1       -2 0.25154860E-01 0.41960841E+03</pdfrwt>
<totfact> 0.17418116E+03</totfact>
</mgrwt>
</event>
<event>
 6    1  0.5818426E-006  0.2951887E+03  0.7546771E-02  0.1089897E+00
         -2   -1    0    0    0  501 -0.00000000000E+00  0.00000000000E+00  0.71714233038E+02  0.71714233038E+02  0.00000000000E+00 0.  1.
          2   -1    0    0  501    0  0.00000000000E+00 -0.00000000000E+00 -0.15474851394E+04  0.15474851394E+04  0.00000000000E+00 0. -1.
          5    1    1    2  502    0 -0.18820964948E+01  0.23173897786E+03 -0.21283149984E+03  0.31468370385E+03  0.47000000000E+01 0.  1.
         -5    1    1    2    0  502 -0.30896497979E+02  0.33660549192E+02 -0.12916305879E+03  0.13708687725E+03  0.47000000000E+01 0.  1.
        -11    1    1    2    0    0  0.41047872759E+02 -0.17390739570E+03 -0.60902149593E+03  0.63469354230E+03  0.00000000000E+00 0.  1.
         11    1    1    2    0    0 -0.82692782852E+01 -0.91492131353E+02 -0.52475485182E+03  0.53273524904E+03  0.00000000000E+00 0. -1.
<mgrwt>
<rscale>  0 0.29086824E+03</rscale>
<asrwt>0</asrwt>
<pdfrwt beam="2">  1        2 0.23807464E+00 0.29518872E+03</pdfrwt>
<pdfrwt beam="1">  1       -2 0.11032959E-01 0.29518872E+03</pdfrwt>
<totfact> 0.72904982E+02</totfact>
</mgrwt>
</event>
<event>
 6    1  0.5818426E-006  0.1477694E+03  0.7546771E-02  0.1212709E+00
         -2   -1    0    0    0  501 -0.00000000000E+00  0.00000000000E+00  0.48779802511E+02  0.48779802511E+02  0.00000000000E+00 0.  1.
          2   -1    0    0  501    0  0.00000000000E+00 -0.00000000000E+00 -0.46275498262E+03  0.46275498262E+03  0.00000000000E+00 0. -1.
          5    1    1    2  502    0 -0.47084775426E+02 -0.51671548388E+02 -0.11429709993E+03  0.13406282872E+03  0.47000000000E+01 0.  1.
         -5    1    1    2    0  502  0.41148345392E+02 -0.26905174856E+02  0.51359627708E+01  0.49654233214E+02  0.47000000000E+01 0.  1.
        -11    1    1    2    0    0 -0.39112948244E+02  0.22004761306E+02 -0.80886093481E+02  0.92501850571E+02  0.00000000000E+00 0.  1.
         11    1    1    2    0    0  0.45049378278E+02  0.56571961938E+02 -0.22392794947E+03  0.23531587263E+03  0.00000000000E+00 0. -1.
<mgrwt>
<rscale>  0 0.14046140E+03</rscale>
<asrwt>0</asrwt>
<pdfrwt beam="2">  1        2 0.71193075E-01 0.14776943E+03</pdfrwt>
<pdfrwt beam="1">  1       -2 0.75045849E-02 0.14776943E+03</pdfrwt>
<totfact> 0.68338858E+03</totfact>
</mgrwt>
</event>
<event>
 6    1  0.5818426E-006  0.1366370E+03  0.7546771E-02  0.1229545E+00
         -1   -1    0    0    0  501 -0.00000000000E+00  0.00000000000E+00  0.46341662005E+02  0.46341662005E+02  0.00000000000E+00 0.  1.
          1   -1    0    0  501    0  0.00000000000E+00 -0.00000000000E+00 -0.34213277456E+03  0.34213277456E+03  0.00000000000E+00 0. -1.
          5    1    1    2  502    0 -0.71998218209E+02 -0.61400451571E+02 -0.83706566996E+02  0.12642245938E+03  0.47000000000E+01 0.  1.
         -5    1    1    2    0  502  0.37128145049E+02  0.18641682523E+02 -0.32755730259E+02  0.53113457304E+02  0.47000000000E+01 0.  1.
        -11    1    1    2    0    0 -0.21287829949E+02  0.27427450094E+02 -0.12347635161E+03  0.12826475015E+03  0.00000000000E+00 0. -1.
         11    1    1    2    0    0  0.56157903109E+02  0.15331318954E+02 -0.55852463689E+02  0.80673769731E+02  0.00000000000E+00 0.  1.
<mgrwt>
<rscale>  0 0.12860177E+03</rscale>
<asrwt>0</asrwt>
<pdfrwt beam="2">  1        1 0.52635812E-01 0.13663703E+03</pdfrwt>
<pdfrwt beam="1">  1       -1 0.71294864E-02 0.13663703E+03</pdfrwt>
<totfact> 0.72580923E+03</totfact>
</mgrwt>
</event>
<event>
 6    1  0.5818426E-006  0.1450253E+03  0.7546771E-02  0.1211780E+00
          3   -1    0    0  501    0  0.00000000000E+00  0.00000000000E+00  0.56907476017E+03  0.56907476017E+03  0.00000000000E+00 0. -1.
         -3   -1    0    0    0  501 -0.00000000000E+00 -0.00000000000E+00 -0.33413964484E+02  0.33413964484E+02  0.00000000000E+00 0.  1.
          5    1    1    2  502    0  0.16534508773E+02  0.46317083815E+02  0.20256888155E+03  0.20850636443E+03  0.47000000000E+01 0. -1.
         -5    1    1    2    0  502 -0.77881747370E+02 -0.57750631235E+01  0.99521322260E+02  0.12659186985E+03  0.47000000000E+01 0. -1.
        -11    1    1    2    0    0 -0.11892000552E+02 -0.41749744850E+01 -0.62098761315E+01  0.14050361229E+02  0.00000000000E+00 0.  1.
         11    1    1    2    0    0  0.73239239149E+02 -0.36367046207E+02  0.23978046801E+03  0.25334012915E+03  0.00000000000E+00 0. -1.
<mgrwt>
<rscale>  0 0.14115779E+03</rscale>
<asrwt>0</asrwt>
<pdfrwt beam="1">  1        3 0.87549956E-01 0.14502529E+03</pdfrwt>
<pdfrwt beam="2">  1       -3 0.51406104E-02 0.14502529E+03</pdfrwt>
<totfact> 0.62418533E+02</totfact>
</mgrwt>
</event>
<event>
 6    1  0.5818426E-006  0.1136578E+03  0.7546771E-02  0.1333288E+00
          1   -1    0    0  501    0  0.00000000000E+00  0.00000000000E+00  0.11349532502E+03  0.11349532502E+03  0.00000000000E+00 0. -1.
         -1   -1    0    0    0  501 -0.00000000000E+00 -0.00000000000E+00 -0.44525729990E+02  0.44525729990E+02  0.00000000000E+00 0.  1.
          5    1    1    2  502    0 -0.39317016469E+02  0.92895568516E+01  0.72975789076E+02  0.83544475830E+02  0.47000000000E+01 0. -1.
         -5    1    1    2    0  502  0.22241731464E+02  0.83660472093E+01 -0.29476633343E+02  0.38152945858E+02  0.47000000000E+01 0.  1.
        -11    1    1    2    0    0  0.58213851809E+01 -0.11820414534E+02  0.11918942381E+02  0.17767158261E+02  0.00000000000E+00 0.  1.
         11    1    1    2    0    0  0.11253899824E+02 -0.58351895274E+01  0.13551496919E+02  0.18556475064E+02  0.00000000000E+00 0. -1.
<mgrwt>
<rscale>  0 0.78525798E+02</rscale>
<asrwt>0</asrwt>
<pdfrwt beam="1">  1        1 0.17460819E-01 0.11365776E+03</pdfrwt>
<pdfrwt beam="2">  1       -1 0.68501124E-02 0.11365776E+03</pdfrwt>
<totfact> 0.29992212E+04</totfact>
</mgrwt>
</event>
<event>
 6    1  0.5818426E-006  0.1269890E+03  0.7546771E-02  0.1245985E+00
          1   -1    0    0  501    0  0.00000000000E+00  0.00000000000E+00  0.56165498740E+03  0.56165498740E+03  0.00000000000E+00 0. -1.
         -1   -1    0    0    0  501 -0.00000000000E+00 -0.00000000000E+00 -0.22782454600E+02  0.22782454600E+02  0.00000000000E+00 0.  1.
          5    1    1    2  502    0  0.10344462534E+02  0.43570478373E+02  0.17756540168E+03  0.18318557903E+03  0.47000000000E+01 0.  1.
         -5    1    1    2    0  502 -0.24947809353E+02 -0.60604645977E+02  0.76471317295E+02  0.10082295708E+03  0.47000000000E+01 0.  1.
        -11    1    1    2    0    0  0.47010885127E+02 -0.12300020051E+02  0.18810082595E+03  0.19427618108E+03  0.00000000000E+00 0. -1.
         11    1    1    2    0    0 -0.32407538308E+02  0.29334187656E+02  0.96734987876E+02  0.10615272481E+03  0.00000000000E+00 0.  1.
<mgrwt>
<rscale>  0 0.11826603E+03</rscale>
<asrwt>0</asrwt>
<pdfrwt beam="1">  1        1 0.86408449E-01 0.12698895E+03</pdfrwt>
<pdfrwt beam="2">  1       -1 0.35049934E-02 0.12698895E+03</pdfrwt>
<totfact> 0.10944856E+04</totfact>
</mgrwt>
</event>
<event>
 6    1  0.5818426E-006  0.1528120E+03  0.7546771E-02  0.1206749E+00
         -1   -1    0    0    0  501 -0.00000000000E+00  0.00000000000E+00  0.86867568966E+02  0.86867568966E+02  0.00000000000E+00 0.  1.
          1   -1    0    0  501    0  0.00000000000E+00 -0.00000000000E+00 -0.24951739040E+03  0.24951739040E+03  0.00000000000E+00 0. -1.
          5    1    1    2  502    0  0.68446304303E+02  0.26083298512E+02  0.16590280155E+02  0.75249999533E+02  0.47000000000E+01 0.  1.
         -5    1    1    2    0  502 -0.34210791836E+02  0.54885829518E+02 -0.48200111245E+02  0.80797111854E+02  0.47000000000E+01 0.  1.
        -11    1    1    2    0    0  0.19633580319E+02 -0.14791603198E+02 -0.73288190612E+02  0.77300891874E+02  0.00000000000E+00 0. -1.
         11    1    1    2    0    0 -0.53869092786E+02 -0.66177524833E+02 -0.57751799728E+02  0.10303695610E+03  0.00000000000E+00 0.  1.
<mgrwt>
<rscale>  0 0.14500489E+03</rscale>
<asrwt>0</asrwt>
<pdfrwt beam="2">  1        1 0.38387291E-01 0.15281204E+03</pdfrwt>
<pdfrwt beam="1">  1       -1 0.13364241E-01 0.15281204E+03</pdfrwt>
<totfact> 0.41390002E+03</totfact>
</mgrwt>
</event>
<event>
 6    1  0.5818426E-006  0.1308343E+03  0.7546771E-02  0.1236812E+00
         -1   -1    0    0    0  501 -0.00000000000E+00  0.00000000000E+00  0.16470825782E+03  0.16470825782E+03  0.00000000000E+00 0.  1.
          1   -1    0    0  501    0  0.00000000000E+00 -0.00000000000E+00 -0.10962459836E+03  0.10962459836E+03  0.00000000000E+00 0. -1.
          5    1    1    2  502    0 -0.31339707817E+02  0.14246596563E+02 -0.10929106627E+02  0.36423593609E+02  0.47000000000E+01 0. -1.
         -5    1    1    2    0  502  0.60459525920E+02  0.27989339256E+02  0.10606903698E+03  0.12534547456E+03  0.47000000000E+01 0.  1.
        -11    1    1    2    0    0  0.24594348142E+02 -0.36344050556E+02  0.22424100911E+01  0.43940873619E+02  0.00000000000E+00 0.  1.
         11    1    1    2    0    0 -0.53714166244E+02 -0.58918852628E+01 -0.42298680982E+02  0.68622914395E+02  0.00000000000E+00 0. -1.
<mgrwt>
<rscale>  0 0.12389125E+03</rscale>
<asrwt>0</asrwt>
<pdfrwt beam="2">  1        1 0.16865323E-01 0.13083434E+03</pdfrwt>
<pdfrwt beam="1">  1       -1 0.25339732E-01 0.13083434E+03</pdfrwt>
<totfact> 0.41550882E+03</totfact>
</mgrwt>
</event>
<event>
 6    1  0.5818426E-006  0.1495152E+03  0.7546771E-02  0.1210320E+00
          3   -1    0    0  501    0  0.00000000000E+00  0.00000000000E+00  0.30101360328E+03  0.30101360328E+03  0.00000000000E+00 0. -1.
         -3   -1    0    0    0  501 -0.00000000000E+00 -0.00000000000E+00 -0.72977433747E+02  0.72977433747E+02  0.00000000000E+00 0.  1.
          5    1    1    2  502    0  0.64521516400E+01  0.18932130181E+02  0.57464422319E+02  0.61027089447E+02  0.47000000000E+01 0.  1.
         -5    1    1    2    0  502 -0.83073792444E+02 -0.48236668794E+02 -0.78695065922E+01  0.96498965494E+02  0.47000000000E+01 0.  1.
        -11    1    1    2    0    0  0.81044769458E+02  0.50625847846E+02  0.11573818912E+03  0.15008850571E+03  0.00000000000E+00 0.  1.
         11    1    1    2    0    0 -0.44231286545E+01 -0.21321309232E+02  0.62703064683E+02  0.66376476368E+02  0.00000000000E+00 0. -1.
<mgrwt>
<rscale>  0 0.14225995E+03</rscale>
<asrwt>0</asrwt>
<pdfrwt beam="1">  1        3 0.46309784E-01 0.14951522E+03</pdfrwt>
<pdfrwt beam="2">  1       -3 0.11227298E-01 0.14951522E+03</pdfrwt>
<totfact> 0.66468972E+02</totfact>
</mgrwt>
</event>
<event>
 6    1  0.5818426E-006  0.2702050E+03  0.7546771E-02  0.1103292E+00
         -1   -1    0    0    0  501 -0.00000000000E+00  0.00000000000E+00  0.13903159814E+03  0.13903159814E+03  0.00000000000E+00 0.  1.
          1   -1    0    0  501    0  0.00000000000E+00 -0.00000000000E+00 -0.85849901430E+03  0.85849901430E+03  0.00000000000E+00 0. -1.
          5    1    1    2  502    0  0.14852597433E+03  0.75955949050E+02 -0.61307073212E+02  0.17779178404E+03  0.47000000000E+01 0.  1.
         -5    1    1    2    0  502  0.87285919120E+02 -0.33778791270E+02  0.19244504232E+02  0.95667546009E+02  0.47000000000E+01 0.  1.
        -11    1    1    2    0    0 -0.14921253028E+03  0.12161325261E+02 -0.33958322223E+03  0.37111863581E+03  0.00000000000E+00 0. -1.
         11    1    1    2    0    0 -0.86599363177E+02 -0.54338483041E+02 -0.33782162495E+03  0.35295264657E+03  0.00000000000E+00 0.  1.
<mgrwt>
<rscale>  0 0.26651327E+03</rscale>
<asrwt>0</asrwt>
<pdfrwt beam="2">  1        1 0.13207677E+00 0.27020501E+03</pdfrwt>
<pdfrwt beam="1">  1       -1 0.21389476E-01 0.27020501E+03</pdfrwt>
<totfact> 0.37471156E+02</totfact>
</mgrwt>
</event>
<event>
 6    1  0.5818426E-006  0.1256889E+03  0.7546771E-02  0.1250841E+00
          2   -1    0    0  501    0  0.00000000000E+00  0.00000000000E+00  0.19638921349E+02  0.19638921349E+02  0.00000000000E+00 0. -1.
         -2   -1    0    0    0  501 -0.00000000000E+00 -0.00000000000E+00 -0.63036374614E+03  0.63036374614E+03  0.00000000000E+00 0.  1.
          5    1    1    2  502    0  0.29532006101E+02  0.28442720378E+01 -0.20644904529E+02  0.36449024003E+02  0.47000000000E+01 0.  1.
         -5    1    1    2    0  502 -0.37939948241E+02 -0.13041617801E+02 -0.41510818993E+03  0.41706884661E+03  0.47000000000E+01 0.  1.
        -11    1    1    2    0    0  0.44306617384E+02  0.10420357764E+02 -0.13639174406E+03  0.14378584091E+03  0.00000000000E+00 0.  1.
         11    1    1    2    0    0 -0.35898675244E+02 -0.22301200146E+00 -0.38579986277E+02  0.52698955964E+02  0.00000000000E+00 0. -1.
<mgrwt>
<rscale>  0 0.11542476E+03</rscale>
<asrwt>0</asrwt>
<pdfrwt beam="1">  1        2 0.30213727E-02 0.12568890E+03</pdfrwt>
<pdfrwt beam="2">  1       -2 0.96979031E-01 0.12568890E+03</pdfrwt>
<totfact> 0.27116827E+03</totfact>
</mgrwt>
</event>
<event>
 6    1  0.5818426E-006  0.2337790E+03  0.7546771E-02  0.1124008E+00
          3   -1    0    0  501    0  0.00000000000E+00  0.00000000000E+00  0.11550334664E+03  0.11550334664E+03  0.00000000000E+00 0. -1.
         -3   -1    0    0    0  501 -0.00000000000E+00 -0.00000000000E+00 -0.11829233741E+03  0.11829233741E+03  0.00000000000E+00 0.  1.
          5    1    1    2  502    0 -0.37172969014E+01  0.91256461878E+01  0.48696032992E+02  0.49904802813E+02  0.47000000000E+01 0.  1.
         -5    1    1    2    0  502 -0.29496304671E+02 -0.29164120413E+01 -0.76997456251E+02  0.82639189961E+02  0.47000000000E+01 0.  1.
        -11    1    1    2    0    0  0.93311959516E+01  0.21365333578E+02 -0.28033030089E+02  0.36460930772E+02  0.00000000000E+00 0.  1.
         11    1    1    2    0    0  0.23882405620E+02 -0.27574567724E+02  0.53545462582E+02  0.64790760502E+02  0.00000000000E+00 0. -1.
<mgrwt>
<rscale>  0 0.23377905E+03</rscale>
<asrwt>0</asrwt>
<pdfrwt beam="1">  1        3 0.17769746E-01 0.23377905E+03</pdfrwt>
<pdfrwt beam="2">  1       -3 0.18198821E-01 0.23377905E+03</pdfrwt>
<totfact> 0.18301900E+03</totfact>
</mgrwt>
</event>
<event>
 6    1  0.5818426E-006  0.1399634E+03  0.7546771E-02  0.1224786E+00
          2   -1    0    0  501    0  0.00000000000E+00  0.00000000000E+00  0.50937946396E+02  0.50937946396E+02  0.00000000000E+00 0. -1.
         -2   -1    0    0    0  501 -0.00000000000E+00 -0.00000000000E+00 -0.30776176813E+03  0.30776176813E+03  0.00000000000E+00 0.  1.
          5    1    1    2  502    0  0.20095843036E+02 -0.45902704372E+02 -0.17382184040E+02  0.53245952879E+02  0.47000000000E+01 0. -1.
         -5    1    1    2    0  502  0.41189800563E+02  0.60345476084E+02 -0.13559783786E+03  0.15410074558E+03  0.47000000000E+01 0. -1.
        -11    1    1    2    0    0 -0.37743593730E+02 -0.43309574490E+02 -0.22154946511E+02  0.61572232094E+02  0.00000000000E+00 0. -1.
         11    1    1    2    0    0 -0.23542049868E+02  0.28866802777E+02 -0.81688853320E+02  0.89780783976E+02  0.00000000000E+00 0.  1.
<mgrwt>
<rscale>  0 0.13181584E+03</rscale>
<asrwt>0</asrwt>
<pdfrwt beam="1">  1        2 0.78366072E-02 0.13996345E+03</pdfrwt>
<pdfrwt beam="2">  1       -2 0.47347964E-01 0.13996345E+03</pdfrwt>
<totfact> 0.35809260E+03</totfact>
</mgrwt>
</event>
<event>
 6    1  0.5818426E-006  0.6888144E+03  0.7546771E-02  0.9736555E-01
          2   -1    0    0  501    0  0.00000000000E+00  0.00000000000E+00  0.19974931245E+03  0.19974931245E+03  0.00000000000E+00 0.  1.
         -2   -1    0    0    0  501 -0.00000000000E+00 -0.00000000000E+00 -0.59382588034E+03  0.59382588034E+03  0.00000000000E+00 0. -1.
          5    1    1    2  502    0  0.80604815478E+02  0.11420408131E+03 -0.38122359060E+03  0.40607046740E+03  0.47000000000E+01 0.  1.
         -5    1    1    2    0  502 -0.45928101865E+02  0.36037289534E+02 -0.15067008623E+03  0.16165284304E+03  0.47000000000E+01 0.  1.
        -11    1    1    2    0    0 -0.32730643751E+02 -0.66687954807E+02  0.12664532603E+02  0.75358932734E+02  0.00000000000E+00 0. -1.
         11    1    1    2    0    0 -0.19460698615E+01 -0.83553416040E+02  0.12515257633E+03  0.15049294961E+03  0.00000000000E+00 0.  1.
<mgrwt>
<rscale>  0 0.68881438E+03</rscale>
<asrwt>0</asrwt>
<pdfrwt beam="1">  1        2 0.30730664E-01 0.68881438E+03</pdfrwt>
<pdfrwt beam="2">  1       -2 0.91357826E-01 0.68881438E+03</pdfrwt>
<totfact> 0.17863030E+02</totfact>
</mgrwt>
</event>
<event>
 6    1  0.5818426E-006  0.1883206E+03  0.7546771E-02  0.1164985E+00
         -4   -1    0    0    0  501 -0.00000000000E+00  0.00000000000E+00  0.16784083942E+03  0.16784083942E+03  0.00000000000E+00 0.  1.
          4   -1    0    0  501    0  0.00000000000E+00 -0.00000000000E+00 -0.21366466614E+03  0.21366466614E+03  0.00000000000E+00 0. -1.
          5    1    1    2  502    0 -0.62750130617E+02  0.45838648472E+02  0.76987066700E+02  0.10948908176E+03  0.47000000000E+01 0. -1.
         -5    1    1    2    0  502 -0.11309626340E+02  0.73969505020E+02 -0.36106520619E+02  0.83217583190E+02  0.47000000000E+01 0. -1.
        -11    1    1    2    0    0  0.40483587586E+02 -0.72966520750E+02  0.14729381225E+01  0.83457795087E+02  0.00000000000E+00 0.  1.
         11    1    1    2    0    0  0.33576169371E+02 -0.46841632742E+02 -0.88177310929E+02  0.10534104552E+03  0.00000000000E+00 0. -1.
<mgrwt>
<rscale>  0 0.18294243E+03</rscale>
<asrwt>0</asrwt>
<pdfrwt beam="2">  1        4 0.32871487E-01 0.18832058E+03</pdfrwt>
<pdfrwt beam="1">  1       -4 0.25821668E-01 0.18832058E+03</pdfrwt>
<totfact> 0.22179839E+02</totfact>
</mgrwt>
</event>
<event>
 6    1  0.5818426E-006  0.1332275E+03  0.7546771E-02  0.1235618E+00
         -1   -1    0    0    0  501 -0.00000000000E+00  0.00000000000E+00  0.28008210690E+03  0.28008210690E+03  0.00000000000E+00 0.  1.
          1   -1    0    0  501    0  0.00000000000E+00 -0.00000000000E+00 -0.60440833485E+02  0.60440833485E+02  0.00000000000E+00 0. -1.
          5    1    1    2  502    0 -0.54238108623E+02 -0.14612369671E+02  0.92715338082E+02  0.10850584173E+03  0.47000000000E+01 0.  1.
         -5    1    1    2    0  502  0.46814484728E+02  0.60117362072E+02  0.10114899761E+03  0.12672372674E+03  0.47000000000E+01 0.  1.
        -11    1    1    2    0    0  0.13543240648E+02  0.17981085507E+01 -0.29363297307E+02  0.32386043141E+02  0.00000000000E+00 0. -1.
         11    1    1    2    0    0 -0.61196167528E+01 -0.47303100951E+02  0.55140235037E+02  0.72907328772E+02  0.00000000000E+00 0.  1.
<mgrwt>
<rscale>  0 0.12464951E+03</rscale>
<asrwt>0</asrwt>
<pdfrwt beam="2">  1        1 0.92985899E-02 0.13322751E+03</pdfrwt>
<pdfrwt beam="1">  1       -1 0.43089554E-01 0.13322751E+03</pdfrwt>
<totfact> 0.36673485E+03</totfact>
</mgrwt>
</event>
<event>
 6    1  0.5818426E-006  0.3897769E+03  0.7546771E-02  0.1047378E+00
         -1   -1    0    0    0  501 -0.00000000000E+00  0.00000000000E+00  0.92719296825E+02  0.92719296825E+02  0.00000000000E+00 0.  1.
          1   -1    0    0  501    0  0.00000000000E+00 -0.00000000000E+00 -0.40963967175E+03  0.40963967175E+03  0.00000000000E+00 0. -1.
          5    1    1    2  502    0 -0.15930819087E+02 -0.63780293518E+01  0.51759529828E+02  0.54732158583E+02  0.47000000000E+01 0.  1.
         -5    1    1    2    0  502  0.11007009739E+02  0.85752587246E+02 -0.37002128664E+02  0.94158950761E+02  0.47000000000E+01 0.  1.
        -11    1    1    2    0    0 -0.28651152092E+02 -0.15894043807E+02 -0.33870389519E+02  0.47124435603E+02  0.00000000000E+00 0.  1.
         11    1    1    2    0    0  0.33574961441E+02 -0.63480514088E+02 -0.29780738657E+03  0.30634342363E+03  0.00000000000E+00 0. -1.
<mgrwt>
<rscale>  0 0.38977687E+03</rscale>
<asrwt>0</asrwt>
<pdfrwt beam="2">  1        1 0.63021486E-01 0.38977687E+03</pdfrwt>
<pdfrwt beam="1">  1       -1 0.14264508E-01 0.38977687E+03</pdfrwt>
<totfact> 0.20549266E+03</totfact>
</mgrwt>
</event>
<event>
 6    1  0.5818426E-006  0.1318381E+03  0.7546771E-02  0.1238286E+00
         -2   -1    0    0    0  501 -0.00000000000E+00  0.00000000000E+00  0.33111708829E+03  0.33111708829E+03  0.00000000000E+00 0.  1.
          2   -1    0    0  501    0  0.00000000000E+00 -0.00000000000E+00 -0.41990120497E+02  0.41990120497E+02  0.00000000000E+00 0. -1.
          5    1    1    2  502    0  0.23137209499E+02  0.39186764641E+02  0.10739930386E+03  0.11673745524E+03  0.47000000000E+01 0. -1.
         -5    1    1    2    0  502 -0.11643291627E+02 -0.79514417856E+02  0.91288057466E+02  0.12171157843E+03  0.47000000000E+01 0. -1.
        -11    1    1    2    0    0  0.25934464998E+02  0.50753813002E+02  0.34748921464E+02  0.66753528385E+02  0.00000000000E+00 0. -1.
         11    1    1    2    0    0 -0.37428382870E+02 -0.10426159787E+02  0.55690685007E+02  0.67904646739E+02  0.00000000000E+00 0.  1.
<mgrwt>
<rscale>  0 0.12296389E+03</rscale>
<asrwt>0</asrwt>
<pdfrwt beam="2">  1        2 0.64600188E-02 0.13183806E+03</pdfrwt>
<pdfrwt beam="1">  1       -2 0.50941089E-01 0.13183806E+03</pdfrwt>
<totfact> 0.39456040E+03</totfact>
</mgrwt>
</event>
<event>
 6    1  0.5818426E-006  0.3063800E+03  0.7546771E-02  0.1082094E+00
          2   -1    0    0  501    0  0.00000000000E+00  0.00000000000E+00  0.32338677516E+02  0.32338677516E+02  0.00000000000E+00 0.  1.
         -2   -1    0    0    0  501 -0.00000000000E+00 -0.00000000000E+00 -0.72566904836E+03  0.72566904836E+03  0.00000000000E+00 0. -1.
          5    1    1    2  502    0 -0.10650785184E+03  0.61859206551E+02 -0.33489674886E+03  0.35685908470E+03  0.47000000000E+01 0. -1.
         -5    1    1    2    0  502  0.89146358678E+01 -0.16635636458E+02 -0.37531122411E+01  0.19808861263E+02  0.47000000000E+01 0. -1.
        -11    1    1    2    0    0  0.83275891718E+02 -0.10397628741E+02 -0.31757024355E+03  0.32847198422E+03  0.00000000000E+00 0. -1.
         11    1    1    2    0    0  0.14317324253E+02 -0.34825941352E+02 -0.37110266192E+02  0.52867795695E+02  0.00000000000E+00 0.  1.
<mgrwt>
<rscale>  0 0.30638001E+03</rscale>
<asrwt>0</asrwt>
<pdfrwt beam="1">  1        2 0.49751814E-02 0.30638001E+03</pdfrwt>
<pdfrwt beam="2">  1       -2 0.11164139E+00 0.30638001E+03</pdfrwt>
<totfact> 0.10489565E+03</totfact>
</mgrwt>
</event>
<event>
 6    1  0.5818426E-006  0.1319346E+03  0.7546771E-02  0.1239561E+00
          2   -1    0    0  501    0  0.00000000000E+00  0.00000000000E+00  0.59089989839E+03  0.59089989839E+03  0.00000000000E+00 0. -1.
         -2   -1    0    0    0  501 -0.00000000000E+00 -0.00000000000E+00 -0.26158987465E+02  0.26158987465E+02  0.00000000000E+00 0.  1.
          5    1    1    2  502    0  0.74755305306E+02 -0.41317238145E+01  0.15769190763E+03  0.17462604201E+03  0.47000000000E+01 0.  1.
         -5    1    1    2    0  502 -0.40083393663E+02  0.28188739892E+02  0.41978715694E+02  0.64696105567E+02  0.47000000000E+01 0.  1.
        -11    1    1    2    0    0  0.83676335969E+01  0.25942229360E+02  0.16031092373E+03  0.16261183481E+03  0.00000000000E+00 0. -1.
         11    1    1    2    0    0 -0.43039545240E+02 -0.49999245437E+02  0.20475936387E+03  0.21512490346E+03  0.00000000000E+00 0.  1.
<mgrwt>
<rscale>  0 0.12216881E+03</rscale>
<asrwt>0</asrwt>
<pdfrwt beam="1">  1        2 0.90907666E-01 0.13193458E+03</pdfrwt>
<pdfrwt beam="2">  1       -2 0.40244601E-02 0.13193458E+03</pdfrwt>
<totfact> 0.13263138E+04</totfact>
</mgrwt>
</event>
<event>
 6    1  0.5818426E-006  0.2246937E+03  0.7546771E-02  0.1133408E+00
         -2   -1    0    0    0  501 -0.00000000000E+00  0.00000000000E+00  0.52138867632E+03  0.52138867632E+03  0.00000000000E+00 0.  1.
          2   -1    0    0  501    0  0.00000000000E+00 -0.00000000000E+00 -0.90563802846E+02  0.90563802846E+02  0.00000000000E+00 0. -1.
          5    1    1    2  502    0 -0.95216415328E+01  0.50407255407E+02  0.60357180804E+02  0.79351322168E+02  0.47000000000E+01 0. -1.
         -5    1    1    2    0  502  0.16215718121E+03  0.57136550646E+02  0.14216235417E+03  0.22314067710E+03  0.47000000000E+01 0. -1.
        -11    1    1    2    0    0 -0.14218485070E+03 -0.50477323419E+02  0.16333450762E+03  0.22235704020E+03  0.00000000000E+00 0.  1.
         11    1    1    2    0    0 -0.10450688970E+02 -0.57066482635E+02  0.64970830883E+02  0.87103439690E+02  0.00000000000E+00 0. -1.
<mgrwt>
<rscale>  0 0.22063875E+03</rscale>
<asrwt>0</asrwt>
<pdfrwt beam="2">  1        2 0.13932893E-01 0.22469367E+03</pdfrwt>
<pdfrwt beam="1">  1       -2 0.80213641E-01 0.22469367E+03</pdfrwt>
<totfact> 0.60165097E+02</totfact>
</mgrwt>
</event>
<event>
 6    1  0.5818426E-006  0.3964126E+03  0.7546771E-02  0.1045029E+00
          1   -1    0    0  501    0  0.00000000000E+00  0.00000000000E+00  0.80424227977E+03  0.80424227977E+03  0.00000000000E+00 0. -1.
         -1   -1    0    0    0  501 -0.00000000000E+00 -0.00000000000E+00 -0.48848132711E+02  0.48848132711E+02  0.00000000000E+00 0.  1.
          5    1    1    2  502    0 -0.26734839726E+02  0.32207750422E+02  0.48793658809E+02  0.64459304855E+02  0.47000000000E+01 0.  1.
         -5    1    1    2    0  502  0.13521705924E+03  0.70225077581E+02  0.19401653166E+03  0.24673815917E+03  0.47000000000E+01 0.  1.
        -11    1    1    2    0    0 -0.10131616141E+03 -0.42495040992E+02  0.26125926548E+03  0.28342053008E+03  0.00000000000E+00 0. -1.
         11    1    1    2    0    0 -0.71660581093E+01 -0.59937787011E+02  0.25132469112E+03  0.25847241838E+03  0.00000000000E+00 0.  1.
<mgrwt>
<rscale>  0 0.39641258E+03</rscale>
<asrwt>0</asrwt>
<pdfrwt beam="1">  1        1 0.12372957E+00 0.39641258E+03</pdfrwt>
<pdfrwt beam="2">  1       -1 0.75150979E-02 0.39641258E+03</pdfrwt>
<totfact> 0.21716876E+03</totfact>
</mgrwt>
</event>
<event>
 6    1  0.5818426E-006  0.1381871E+03  0.7546771E-02  0.1228684E+00
          1   -1    0    0  501    0  0.00000000000E+00  0.00000000000E+00  0.19373677407E+03  0.19373677407E+03  0.00000000000E+00 0. -1.
         -1   -1    0    0    0  501 -0.00000000000E+00 -0.00000000000E+00 -0.76744702282E+02  0.76744702282E+02  0.00000000000E+00 0.  1.
          5    1    1    2  502    0 -0.37067953433E+01 -0.64996764341E+02  0.85084699636E+02  0.10723719419E+03  0.47000000000E+01 0. -1.
         -5    1    1    2    0  502 -0.31941990925E+02  0.18098927871E+02 -0.23721129942E+02  0.43961846868E+02  0.47000000000E+01 0. -1.
        -11    1    1    2    0    0  0.43320256143E+01  0.31775047168E+02  0.73493256487E+02  0.80185278060E+02  0.00000000000E+00 0. -1.
         11    1    1    2    0    0  0.31316760654E+02  0.15122789302E+02 -0.17864754390E+02  0.39097157231E+02  0.00000000000E+00 0.  1.
<mgrwt>
<rscale>  0 0.12917569E+03</rscale>
<asrwt>0</asrwt>
<pdfrwt beam="1">  1        1 0.29805657E-01 0.13818706E+03</pdfrwt>
<pdfrwt beam="2">  1       -1 0.11806877E-01 0.13818706E+03</pdfrwt>
<totfact> 0.68267647E+03</totfact>
</mgrwt>
</event>
<event>
 6    1  0.5818426E-006  0.1261170E+03  0.7546771E-02  0.1249863E+00
          1   -1    0    0  501    0  0.00000000000E+00  0.00000000000E+00  0.28927741818E+03  0.28927741818E+03  0.00000000000E+00 0. -1.
         -1   -1    0    0    0  501 -0.00000000000E+00 -0.00000000000E+00 -0.40462622202E+02  0.40462622202E+02  0.00000000000E+00 0.  1.
          5    1    1    2  502    0  0.19720743106E+02 -0.48002328229E+02  0.13953933483E+03  0.14895115706E+03  0.47000000000E+01 0.  1.
         -5    1    1    2    0  502 -0.46003579927E+01  0.40579062205E+02  0.27726736986E+01  0.41201957508E+02  0.47000000000E+01 0.  1.
        -11    1    1    2    0    0  0.27343514791E+02  0.12560767881E+02  0.87964631970E+02  0.92968904310E+02  0.00000000000E+00 0. -1.
         11    1    1    2    0    0 -0.42463899904E+02 -0.51375018570E+01  0.18538155475E+02  0.46618021503E+02  0.00000000000E+00 0.  1.
<mgrwt>
<rscale>  0 0.11598969E+03</rscale>
<asrwt>0</asrwt>
<pdfrwt beam="1">  1        1 0.44504217E-01 0.12611701E+03</pdfrwt>
<pdfrwt beam="2">  1       -1 0.62250190E-02 0.12611701E+03</pdfrwt>
<totfact> 0.10880596E+04</totfact>
</mgrwt>
</event>
<event>
 6    1  0.5818426E-006  0.1695838E+03  0.7546771E-02  0.1185410E+00
          1   -1    0    0  501    0  0.00000000000E+00  0.00000000000E+00  0.41777335847E+03  0.41777335847E+03  0.00000000000E+00 0. -1.
         -1   -1    0    0    0  501 -0.00000000000E+00 -0.00000000000E+00 -0.59129797583E+02  0.59129797583E+02  0.00000000000E+00 0.  1.
          5    1    1    2  502    0 -0.47065265520E+02 -0.95830008819E+01  0.46063194912E+02  0.66714923742E+02  0.47000000000E+01 0.  1.
         -5    1    1    2    0  502  0.14520076857E+02  0.11945754227E+03  0.15618007114E+03  0.19721876599E+03  0.47000000000E+01 0.  1.
        -11    1    1    2    0    0  0.14686496750E+02 -0.31177968779E+02  0.11925183388E+03  0.12413202168E+03  0.00000000000E+00 0.  1.
         11    1    1    2    0    0  0.17858691914E+02 -0.78696572613E+02  0.37148460955E+02  0.88837444635E+02  0.00000000000E+00 0. -1.
<mgrwt>
<rscale>  0 0.16294587E+03</rscale>
<asrwt>0</asrwt>
<pdfrwt beam="1">  1        1 0.64272822E-01 0.16958377E+03</pdfrwt>
<pdfrwt beam="2">  1       -1 0.90968922E-02 0.16958377E+03</pdfrwt>
<totfact> 0.39488315E+03</totfact>
</mgrwt>
</event>
<event>
 6    1  0.5818426E-006  0.1892389E+03  0.7546771E-02  0.1163933E+00
         -1   -1    0    0    0  501 -0.00000000000E+00  0.00000000000E+00  0.30547894081E+03  0.30547894081E+03  0.00000000000E+00 0. -1.
          1   -1    0    0  501    0  0.00000000000E+00 -0.00000000000E+00 -0.13466229806E+03  0.13466229806E+03  0.00000000000E+00 0.  1.
          5    1    1    2  502    0  0.64757375906E+02  0.35208096076E+01  0.37635226785E+01  0.65131927175E+02  0.47000000000E+01 0. -1.
         -5    1    1    2    0  502  0.75687318477E+02 -0.25067939499E+02  0.18810139687E+03  0.20435556580E+03  0.47000000000E+01 0. -1.
        -11    1    1    2    0    0 -0.52780347146E+02  0.50787134043E+02 -0.26964313265E+02  0.78052368439E+02  0.00000000000E+00 0.  1.
         11    1    1    2    0    0 -0.87664347237E+02 -0.29240004151E+02  0.59160364689E+01  0.92601377456E+02  0.00000000000E+00 0. -1.
<mgrwt>
<rscale>  0 0.18405795E+03</rscale>
<asrwt>0</asrwt>
<pdfrwt beam="2">  1        1 0.20717277E-01 0.18923890E+03</pdfrwt>
<pdfrwt beam="1">  1       -1 0.46996760E-01 0.18923890E+03</pdfrwt>
<totfact> 0.11170579E+03</totfact>
</mgrwt>
</event>
<event>
 6    1  0.5818426E-006  0.1612019E+03  0.7546771E-02  0.1194717E+00
         -1   -1    0    0    0  501 -0.00000000000E+00  0.00000000000E+00  0.20316504381E+02  0.20316504381E+02  0.00000000000E+00 0.  1.
          1   -1    0    0  501    0  0.00000000000E+00 -0.00000000000E+00 -0.11114383968E+04  0.11114383968E+04  0.00000000000E+00 0. -1.
          5    1    1    2  502    0 -0.60746187762E+02 -0.15546596132E+02 -0.11058540864E+03  0.12721249381E+03  0.47000000000E+01 0. -1.
         -5    1    1    2    0  502 -0.14058491759E+02 -0.53482854045E+02 -0.54848593336E+03  0.55128664592E+03  0.47000000000E+01 0. -1.
        -11    1    1    2    0    0 -0.14770975462E+02  0.15316607807E+02 -0.24111022020E+02  0.32157760707E+02  0.00000000000E+00 0.  1.
         11    1    1    2    0    0  0.89575654983E+02  0.53712842370E+02 -0.40793952841E+03  0.42109800075E+03  0.00000000000E+00 0. -1.
<mgrwt>
<rscale>  0 0.15478170E+03</rscale>
<asrwt>0</asrwt>
<pdfrwt beam="2">  1        1 0.17099055E+00 0.16120189E+03</pdfrwt>
<pdfrwt beam="1">  1       -1 0.31256155E-02 0.16120189E+03</pdfrwt>
<totfact> 0.46291526E+03</totfact>
</mgrwt>
</event>
<event>
 6    1  0.5818426E-006  0.1282710E+03  0.7546771E-02  0.1244485E+00
         -1   -1    0    0    0  501 -0.00000000000E+00  0.00000000000E+00  0.70831922467E+02  0.70831922467E+02  0.00000000000E+00 0.  1.
          1   -1    0    0  501    0  0.00000000000E+00 -0.00000000000E+00 -0.18289546947E+03  0.18289546947E+03  0.00000000000E+00 0. -1.
          5    1    1    2  502    0  0.35504482350E+01  0.15783144693E+02 -0.77797042596E+02  0.79600145576E+02  0.47000000000E+01 0. -1.
         -5    1    1    2    0  502 -0.29865377819E+02 -0.27679937967E+02  0.36776695472E+02  0.55070274087E+02  0.47000000000E+01 0. -1.
        -11    1    1    2    0    0 -0.33731418700E+02 -0.33161849687E+00 -0.19365010112E+02  0.38896300531E+02  0.00000000000E+00 0.  1.
         11    1    1    2    0    0  0.60046348284E+02  0.12228411771E+02 -0.51678189770E+02  0.80160671745E+02  0.00000000000E+00 0. -1.
<mgrwt>
<rscale>  0 0.11916259E+03</rscale>
<asrwt>0</asrwt>
<pdfrwt beam="2">  1        1 0.28137764E-01 0.12827101E+03</pdfrwt>
<pdfrwt beam="1">  1       -1 0.10897219E-01 0.12827101E+03</pdfrwt>
<totfact> 0.82516823E+03</totfact>
</mgrwt>
</event>
<event>
 6    1  0.5818426E-006  0.2615870E+03  0.7546771E-02  0.1106193E+00
          3   -1    0    0  501    0  0.00000000000E+00  0.00000000000E+00  0.77036347447E+03  0.77036347447E+03  0.00000000000E+00 0. -1.
         -3   -1    0    0    0  501 -0.00000000000E+00 -0.00000000000E+00 -0.22206313881E+02  0.22206313881E+02  0.00000000000E+00 0.  1.
          5    1    1    2  502    0  0.53464116822E+01  0.49640255392E+01  0.24058392907E+03  0.24074040499E+03  0.47000000000E+01 0. -1.
         -5    1    1    2    0  502 -0.34818687389E+02  0.42544255011E+02  0.30711913230E+02  0.63147970990E+02  0.47000000000E+01 0. -1.
        -11    1    1    2    0    0  0.44793429599E+02 -0.61916351272E+02  0.43680291020E+03  0.44343755846E+03  0.00000000000E+00 0. -1.
         11    1    1    2    0    0 -0.15321153892E+02  0.14408070722E+02  0.40058408089E+02  0.45243853916E+02  0.00000000000E+00 0.  1.
<mgrwt>
<rscale>  0 0.26158695E+03</rscale>
<asrwt>0</asrwt>
<pdfrwt beam="1">  1        3 0.11851744E+00 0.26158695E+03</pdfrwt>
<pdfrwt beam="2">  1       -3 0.34163566E-02 0.26158695E+03</pdfrwt>
<totfact> 0.64123585E+02</totfact>
</mgrwt>
</event>
<event>
 6    1  0.5818426E-006  0.1575415E+03  0.7546771E-02  0.1199144E+00
          2   -1    0    0  501    0  0.00000000000E+00  0.00000000000E+00  0.22492027224E+03  0.22492027224E+03  0.00000000000E+00 0.  1.
         -2   -1    0    0    0  501 -0.00000000000E+00 -0.00000000000E+00 -0.94447791922E+02  0.94447791922E+02  0.00000000000E+00 0. -1.
          5    1    1    2  502    0  0.99380197406E+02  0.63348716263E+02  0.31379430754E+02  0.12205016249E+03  0.47000000000E+01 0.  1.
         -5    1    1    2    0  502 -0.75437863948E+01 -0.35698594708E+02  0.28308254290E+02  0.46419237803E+02  0.47000000000E+01 0.  1.
        -11    1    1    2    0    0  0.18725949854E+01 -0.34724065255E+02  0.37651011955E+02  0.51252961095E+02  0.00000000000E+00 0.  1.
         11    1    1    2    0    0 -0.93709005997E+02  0.70739436993E+01  0.33133783315E+02  0.99645702773E+02  0.00000000000E+00 0. -1.
<mgrwt>
<rscale>  0 0.15108673E+03</rscale>
<asrwt>0</asrwt>
<pdfrwt beam="1">  1        2 0.34603119E-01 0.15754148E+03</pdfrwt>
<pdfrwt beam="2">  1       -2 0.14530430E-01 0.15754148E+03</pdfrwt>
<totfact> 0.52149478E+03</totfact>
</mgrwt>
</event>
<event>
 6    1  0.5818426E-006  0.1234319E+03  0.7546771E-02  0.1248358E+00
          2   -1    0    0  501    0  0.00000000000E+00  0.00000000000E+00  0.10839225385E+04  0.10839225385E+04  0.00000000000E+00 0.  1.
         -2   -1    0    0    0  501 -0.00000000000E+00 -0.00000000000E+00 -0.11662049434E+02  0.11662049434E+02  0.00000000000E+00 0. -1.
          5    1    1    2  502    0 -0.29329546237E+02 -0.20798660274E+02  0.23845738890E+03  0.24119872071E+03  0.47000000000E+01 0.  1.
         -5    1    1    2    0  502  0.67520151716E+02  0.46075452960E+02  0.27822922276E+03  0.29002673782E+03  0.47000000000E+01 0. -1.
        -11    1    1    2    0    0  0.32779580102E+01  0.29637317529E+02  0.14165810402E+03  0.14476233638E+03  0.00000000000E+00 0. -1.
         11    1    1    2    0    0 -0.41468563490E+02 -0.54914110216E+02  0.41391577338E+03  0.41959679302E+03  0.00000000000E+00 0.  1.
<mgrwt>
<rscale>  0 0.11686618E+03</rscale>
<asrwt>0</asrwt>
<pdfrwt beam="1">  1        2 0.16675723E+00 0.12343190E+03</pdfrwt>
<pdfrwt beam="2">  1       -2 0.17941623E-02 0.12343190E+03</pdfrwt>
<totfact> 0.20102887E+04</totfact>
</mgrwt>
</event>
<event>
 6    1  0.5818426E-006  0.1313516E+03  0.7546771E-02  0.1237862E+00
          2   -1    0    0  501    0  0.00000000000E+00  0.00000000000E+00  0.93145300386E+03  0.93145300386E+03  0.00000000000E+00 0.  1.
         -2   -1    0    0    0  501 -0.00000000000E+00 -0.00000000000E+00 -0.14605357839E+02  0.14605357839E+02  0.00000000000E+00 0. -1.
          5    1    1    2  502    0 -0.40806691727E+02  0.31578109729E+02  0.12930258549E+03  0.13929684748E+03  0.47000000000E+01 0. -1.
         -5    1    1    2    0  502  0.69244601555E+02 -0.29570736558E+01  0.40500373905E+03  0.41091809132E+03  0.47000000000E+01 0. -1.
        -11    1    1    2    0    0 -0.28472598185E+02  0.30923798372E+02  0.14697929502E+03  0.15287211426E+03  0.00000000000E+00 0. -1.
         11    1    1    2    0    0  0.34688356794E-01 -0.59544834445E+02  0.23556202646E+03  0.24297130864E+03  0.00000000000E+00 0.  1.
<mgrwt>
<rscale>  0 0.12322980E+03</rscale>
<asrwt>0</asrwt>
<pdfrwt beam="1">  1        2 0.14330042E+00 0.13135155E+03</pdfrwt>
<pdfrwt beam="2">  1       -2 0.22469789E-02 0.13135155E+03</pdfrwt>
<totfact> 0.17953971E+04</totfact>
</mgrwt>
</event>
<event>
 6    1  0.5818426E-006  0.1317538E+03  0.7546771E-02  0.1238192E+00
         -2   -1    0    0    0  501 -0.00000000000E+00  0.00000000000E+00  0.47481659160E+02  0.47481659160E+02  0.00000000000E+00 0.  1.
          2   -1    0    0  501    0  0.00000000000E+00 -0.00000000000E+00 -0.40251901705E+03  0.40251901705E+03  0.00000000000E+00 0. -1.
          5    1    1    2  502    0  0.16129469535E+02 -0.14322930435E+02 -0.95575816804E+02  0.98092471074E+02  0.47000000000E+01 0. -1.
         -5    1    1    2    0  502 -0.43959552024E+02 -0.16671057272E+02  0.22758904649E+02  0.52444485941E+02  0.47000000000E+01 0. -1.
        -11    1    1    2    0    0  0.54883021939E+02  0.42288937237E+02 -0.22060681181E+03  0.23123119540E+03  0.00000000000E+00 0. -1.
         11    1    1    2    0    0 -0.27052939449E+02 -0.11294949530E+02 -0.61613633921E+02  0.68232523789E+02  0.00000000000E+00 0.  1.
<mgrwt>
<rscale>  0 0.12302286E+03</rscale>
<asrwt>0</asrwt>
<pdfrwt beam="2">  1        2 0.61926004E-01 0.13175383E+03</pdfrwt>
<pdfrwt beam="1">  1       -2 0.73048705E-02 0.13175383E+03</pdfrwt>
<totfact> 0.82196745E+03</totfact>
</mgrwt>
</event>
<event>
 6    1  0.5818426E-006  0.1309327E+03  0.7546771E-02  0.1237138E+00
          2   -1    0    0  501    0  0.00000000000E+00  0.00000000000E+00  0.14767058763E+03  0.14767058763E+03  0.00000000000E+00 0. -1.
         -2   -1    0    0    0  501 -0.00000000000E+00 -0.00000000000E+00 -0.17583068350E+03  0.17583068350E+03  0.00000000000E+00 0.  1.
          5    1    1    2  502    0  0.30247888996E+01  0.79038346909E+02 -0.63116726303E+02  0.10130163261E+03  0.47000000000E+01 0.  1.
         -5    1    1    2    0  502 -0.21916599800E+02 -0.44958651470E+02 -0.62016617053E+02  0.79810829337E+02  0.47000000000E+01 0.  1.
        -11    1    1    2    0    0  0.10875396695E+02 -0.68000844388E+02  0.57364178554E+02  0.89627217250E+02  0.00000000000E+00 0.  1.
         11    1    1    2    0    0  0.80164142051E+01  0.33921148948E+02  0.39609068925E+02  0.52761591937E+02  0.00000000000E+00 0. -1.
<mgrwt>
<rscale>  0 0.12368544E+03</rscale>
<asrwt>0</asrwt>
<pdfrwt beam="1">  1        2 0.22718552E-01 0.13093269E+03</pdfrwt>
<pdfrwt beam="2">  1       -2 0.27050874E-01 0.13093269E+03</pdfrwt>
<totfact> 0.28520132E+03</totfact>
</mgrwt>
</event>
<event>
 6    1  0.5818426E-006  0.1312308E+03  0.7546771E-02  0.1238852E+00
         -3   -1    0    0    0  501 -0.00000000000E+00  0.00000000000E+00  0.77776087563E+02  0.77776087563E+02  0.00000000000E+00 0.  1.
          3   -1    0    0  501    0  0.00000000000E+00 -0.00000000000E+00 -0.17928931875E+03  0.17928931875E+03  0.00000000000E+00 0. -1.
          5    1    1    2  502    0 -0.33850208805E+02  0.15146441043E+02  0.19844732020E+02  0.42322035648E+02  0.47000000000E+01 0.  1.
         -5    1    1    2    0  502  0.72135684170E+02 -0.26935274748E+02 -0.51244872155E+02  0.92613135562E+02  0.47000000000E+01 0.  1.
        -11    1    1    2    0    0  0.82092485526E+00 -0.12138434868E+02  0.18626420817E+02  0.22247675634E+02  0.00000000000E+00 0.  1.
         11    1    1    2    0    0 -0.39106400220E+02  0.23927268573E+02 -0.88739511868E+02  0.99882559469E+02  0.00000000000E+00 0. -1.
<mgrwt>
<rscale>  0 0.12261021E+03</rscale>
<asrwt>0</asrwt>
<pdfrwt beam="2">  1        3 0.27582972E-01 0.13123083E+03</pdfrwt>
<pdfrwt beam="1">  1       -3 0.11965552E-01 0.13123083E+03</pdfrwt>
<totfact> 0.15647631E+03</totfact>
</mgrwt>
</event>
<event>
 6    1  0.5818426E-006  0.1285384E+03  0.7546771E-02  0.1245618E+00
          1   -1    0    0  501    0  0.00000000000E+00  0.00000000000E+00  0.50043473821E+02  0.50043473821E+02  0.00000000000E+00 0. -1.
         -1   -1    0    0    0  501 -0.00000000000E+00 -0.00000000000E+00 -0.34706964080E+03  0.34706964080E+03  0.00000000000E+00 0.  1.
          5    1    1    2  502    0  0.69491248158E+02  0.12997966798E+02 -0.14237756283E+03  0.15903283029E+03  0.47000000000E+01 0.  1.
         -5    1    1    2    0  502 -0.55634338480E+02  0.13784505498E+02 -0.12986251575E+03  0.14202660035E+03  0.47000000000E+01 0.  1.
        -11    1    1    2    0    0 -0.30138266388E+01 -0.16758521632E+02 -0.57603329011E+02  0.60067251573E+02  0.00000000000E+00 0.  1.
         11    1    1    2    0    0 -0.10843083039E+02 -0.10023950664E+02  0.32817240610E+02  0.35986432415E+02  0.00000000000E+00 0. -1.
<mgrwt>
<rscale>  0 0.11848474E+03</rscale>
<asrwt>0</asrwt>
<pdfrwt beam="1">  1        1 0.76989958E-02 0.12853840E+03</pdfrwt>
<pdfrwt beam="2">  1       -1 0.53395330E-01 0.12853840E+03</pdfrwt>
<totfact> 0.31945953E+03</totfact>
</mgrwt>
</event>
<event>
 6    1  0.5818426E-006  0.3210424E+03  0.7546771E-02  0.1075171E+00
          2   -1    0    0  501    0  0.00000000000E+00  0.00000000000E+00  0.47017208979E+02  0.47017208979E+02  0.00000000000E+00 0. -1.
         -2   -1    0    0    0  501 -0.00000000000E+00 -0.00000000000E+00 -0.54803455483E+03  0.54803455483E+03  0.00000000000E+00 0.  1.
          5    1    1    2  502    0 -0.68172214874E+01 -0.18802263205E+02 -0.86166486091E+01  0.22278605066E+02  0.47000000000E+01 0. -1.
         -5    1    1    2    0  502  0.89150440394E+02  0.96873434747E+02 -0.35370564669E+03  0.37744143636E+03  0.47000000000E+01 0. -1.
        -11    1    1    2    0    0  0.10980908545E+01 -0.37430087664E+02 -0.14189362963E+02  0.40044416431E+02  0.00000000000E+00 0. -1.
         11    1    1    2    0    0 -0.83431309762E+02 -0.40641083877E+02 -0.12450568759E+03  0.15528730595E+03  0.00000000000E+00 0.  1.
<mgrwt>
<rscale>  0 0.32104240E+03</rscale>
<asrwt>0</asrwt>
<pdfrwt beam="1">  1        2 0.72334167E-02 0.32104240E+03</pdfrwt>
<pdfrwt beam="2">  1       -2 0.84313010E-01 0.32104240E+03</pdfrwt>
<totfact> 0.12311230E+03</totfact>
</mgrwt>
</event>
<event>
 6    1  0.5818426E-006  0.1748629E+03  0.7546771E-02  0.1179469E+00
         -4   -1    0    0    0  501 -0.00000000000E+00  0.00000000000E+00  0.11152556372E+03  0.11152556372E+03  0.00000000000E+00 0.  1.
          4   -1    0    0  501    0  0.00000000000E+00 -0.00000000000E+00 -0.25214737205E+03  0.25214737205E+03  0.00000000000E+00 0. -1.
          5    1    1    2  502    0  0.10398699784E+03 -0.81247114285E+01 -0.31111864161E+02  0.10894652242E+03  0.47000000000E+01 0.  1.
         -5    1    1    2    0  502  0.23332719431E+01  0.68524080296E+02 -0.35822431286E+00  0.68725628866E+02  0.47000000000E+01 0.  1.
        -11    1    1    2    0    0 -0.44303755920E+02 -0.59637806606E+02 -0.19189970701E+02  0.76731647583E+02  0.00000000000E+00 0.  1.
         11    1    1    2    0    0 -0.62016513866E+02 -0.76156226210E+00 -0.89961749152E+02  0.10926913690E+03  0.00000000000E+00 0. -1.
<mgrwt>
<rscale>  0 0.16845498E+03</rscale>
<asrwt>0</asrwt>
<pdfrwt beam="2">  1        4 0.38791903E-01 0.17486288E+03</pdfrwt>
<pdfrwt beam="1">  1       -4 0.17157779E-01 0.17486288E+03</pdfrwt>
<totfact> 0.33412168E+02</totfact>
</mgrwt>
</event>
<event>
 6    1  0.5818426E-006  0.1335395E+03  0.7546771E-02  0.1235012E+00
          2   -1    0    0  501    0  0.00000000000E+00  0.00000000000E+00  0.77185013275E+03  0.77185013275E+03  0.00000000000E+00 0. -1.
         -2   -1    0    0    0  501 -0.00000000000E+00 -0.00000000000E+00 -0.18483451433E+02  0.18483451433E+02  0.00000000000E+00 0.  1.
          5    1    1    2  502    0 -0.44143539964E+02  0.36313216712E+01  0.54136698435E+02  0.70104997932E+02  0.47000000000E+01 0. -1.
         -5    1    1    2    0  502  0.54980210387E+02  0.42102288875E+02  0.31192078207E+03  0.31954982483E+03  0.47000000000E+01 0. -1.
        -11    1    1    2    0    0 -0.76013678677E+00  0.28082286353E+02  0.10070914692E+03  0.10455393292E+03  0.00000000000E+00 0. -1.
         11    1    1    2    0    0 -0.10076533636E+02 -0.73815896899E+02  0.28660005389E+03  0.29612482851E+03  0.00000000000E+00 0.  1.
<mgrwt>
<rscale>  0 0.12503654E+03</rscale>
<asrwt>0</asrwt>
<pdfrwt beam="1">  1        2 0.11874615E+00 0.13353951E+03</pdfrwt>
<pdfrwt beam="2">  1       -2 0.28436085E-02 0.13353951E+03</pdfrwt>
<totfact> 0.16189561E+04</totfact>
</mgrwt>
</event>
<event>
 6    1  0.5818426E-006  0.1301596E+03  0.7546771E-02  0.1248102E+00
          2   -1    0    0  501    0  0.00000000000E+00  0.00000000000E+00  0.21991233679E+03  0.21991233679E+03  0.00000000000E+00 0. -1.
         -2   -1    0    0    0  501 -0.00000000000E+00 -0.00000000000E+00 -0.61680828348E+02  0.61680828348E+02  0.00000000000E+00 0.  1.
          5    1    1    2  502    0  0.13427383477E+02 -0.18869248592E+02  0.76943454726E+02  0.80490548480E+02  0.47000000000E+01 0. -1.
         -5    1    1    2    0  502 -0.41721626597E+02 -0.38038722701E+01 -0.36546978956E+02  0.55793684597E+02  0.47000000000E+01 0. -1.
        -11    1    1    2    0    0 -0.24819426324E+02  0.82971463693E+01  0.19536795233E+02  0.32657815740E+02  0.00000000000E+00 0.  1.
         11    1    1    2    0    0  0.53113669444E+02  0.14375974493E+02  0.98298237437E+02  0.11265111632E+03  0.00000000000E+00 0. -1.
<mgrwt>
<rscale>  0 0.11701629E+03</rscale>
<asrwt>0</asrwt>
<pdfrwt beam="1">  1        2 0.33832667E-01 0.13015958E+03</pdfrwt>
<pdfrwt beam="2">  1       -2 0.94893583E-02 0.13015958E+03</pdfrwt>
<totfact> 0.10411676E+04</totfact>
</mgrwt>
</event>
<event>
 6    1  0.5818426E-006  0.1709388E+03  0.7546771E-02  0.1182194E+00
          1   -1    0    0  501    0  0.00000000000E+00  0.00000000000E+00  0.38695974331E+03  0.38695974331E+03  0.00000000000E+00 0. -1.
         -1   -1    0    0    0  501 -0.00000000000E+00 -0.00000000000E+00 -0.69022335515E+02  0.69022335515E+02  0.00000000000E+00 0.  1.
          5    1    1    2  502    0  0.44870448761E+02  0.26795450947E+00  0.55237427508E+01  0.45453610479E+02  0.47000000000E+01 0.  1.
         -5    1    1    2    0  502 -0.15987035795E+02 -0.11323324857E+03  0.12604833860E+03  0.17025753305E+03  0.47000000000E+01 0.  1.
        -11    1    1    2    0    0 -0.17015027770E+02  0.10662536433E+02 -0.69372616691E+01  0.21244445218E+02  0.00000000000E+00 0.  1.
         11    1    1    2    0    0 -0.11868385196E+02  0.10230275763E+03  0.19330258812E+03  0.21902649008E+03  0.00000000000E+00 0. -1.
<mgrwt>
<rscale>  0 0.16589833E+03</rscale>
<asrwt>0</asrwt>
<pdfrwt beam="1">  1        1 0.59532267E-01 0.17093883E+03</pdfrwt>
<pdfrwt beam="2">  1       -1 0.10618821E-01 0.17093883E+03</pdfrwt>
<totfact> 0.34346658E+03</totfact>
</mgrwt>
</event>
<event>
 6    1  0.5818426E-006  0.2594391E+03  0.7546771E-02  0.1109991E+00
          2   -1    0    0  501    0  0.00000000000E+00  0.00000000000E+00  0.10187062320E+04  0.10187062320E+04  0.00000000000E+00 0. -1.
         -2   -1    0    0    0  501 -0.00000000000E+00 -0.00000000000E+00 -0.82110318144E+02  0.82110318144E+02  0.00000000000E+00 0.  1.
          5    1    1    2  502    0  0.17219102721E+03  0.11915397481E+03  0.11800506986E+03  0.24040529544E+03  0.47000000000E+01 0.  1.
         -5    1    1    2    0  502  0.96509967994E+01  0.17290550157E+02  0.89571989158E+02  0.91854973222E+02  0.47000000000E+01 0.  1.
        -11    1    1    2    0    0  0.83382519466E+01 -0.16134209879E+02  0.48162238397E+02  0.51472714922E+02  0.00000000000E+00 0.  1.
         11    1    1    2    0    0 -0.19018027595E+03 -0.12031031509E+03  0.68085661649E+03  0.71708356661E+03  0.00000000000E+00 0. -1.
<mgrwt>
<rscale>  0 0.25531493E+03</rscale>
<asrwt>0</asrwt>
<pdfrwt beam="1">  1        2 0.15672403E+00 0.25943911E+03</pdfrwt>
<pdfrwt beam="2">  1       -2 0.12632357E-01 0.25943911E+03</pdfrwt>
<totfact> 0.11641594E+03</totfact>
</mgrwt>
</event>
<event>
 6    1  0.5818426E-006  0.1458989E+03  0.7546771E-02  0.1219022E+00
          1   -1    0    0  501    0  0.00000000000E+00  0.00000000000E+00  0.34438573351E+03  0.34438573351E+03  0.00000000000E+00 0. -1.
         -1   -1    0    0    0  501 -0.00000000000E+00 -0.00000000000E+00 -0.58470482506E+02  0.58470482506E+02  0.00000000000E+00 0.  1.
          5    1    1    2  502    0 -0.84776224834E+02  0.35435927880E+02  0.93926097322E+02  0.13147971342E+03  0.47000000000E+01 0. -1.
         -5    1    1    2    0  502  0.21811916841E+02  0.57670213590E+01 -0.21401643690E+02  0.31450573990E+02  0.47000000000E+01 0. -1.
        -11    1    1    2    0    0 -0.55662270037E+01 -0.12135875959E+02 -0.59214284975E+00  0.13364617522E+02  0.00000000000E+00 0.  1.
         11    1    1    2    0    0  0.68530534997E+02 -0.29067073279E+02  0.21398294022E+03  0.22656131109E+03  0.00000000000E+00 0. -1.
<mgrwt>
<rscale>  0 0.13585225E+03</rscale>
<asrwt>0</asrwt>
<pdfrwt beam="1">  1        1 0.52982419E-01 0.14589888E+03</pdfrwt>
<pdfrwt beam="2">  1       -1 0.89954591E-02 0.14589888E+03</pdfrwt>
<totfact> 0.50873382E+03</totfact>
</mgrwt>
</event>
<event>
 6    1  0.5818426E-006  0.2470790E+03  0.7546771E-02  0.1115165E+00
          1   -1    0    0  501    0  0.00000000000E+00  0.00000000000E+00  0.18318205648E+03  0.18318205648E+03  0.00000000000E+00 0. -1.
         -1   -1    0    0    0  501 -0.00000000000E+00 -0.00000000000E+00 -0.83316077889E+02  0.83316077889E+02  0.00000000000E+00 0.  1.
          5    1    1    2  502    0 -0.16626872491E+02  0.11686039485E+02 -0.34928276251E+02  0.40682808280E+02  0.47000000000E+01 0. -1.
         -5    1    1    2    0  502  0.33794781261E+02 -0.62847304800E+02  0.69655247146E+02  0.99828925748E+02  0.47000000000E+01 0. -1.
        -11    1    1    2    0    0  0.35753599864E+02  0.26600131736E+02  0.99172128400E+01  0.45653455753E+02  0.00000000000E+00 0.  1.
         11    1    1    2    0    0 -0.52921508634E+02  0.24561133578E+02  0.55221794854E+02  0.80332944585E+02  0.00000000000E+00 0. -1.
<mgrwt>
<rscale>  0 0.24707902E+03</rscale>
<asrwt>0</asrwt>
<pdfrwt beam="1">  1        1 0.28181855E-01 0.24707902E+03</pdfrwt>
<pdfrwt beam="2">  1       -1 0.12817858E-01 0.24707902E+03</pdfrwt>
<totfact> 0.66777606E+03</totfact>
</mgrwt>
</event>
<event>
 6    1  0.5818426E-006  0.3038457E+03  0.7546771E-02  0.1083334E+00
          1   -1    0    0  501    0  0.00000000000E+00  0.00000000000E+00  0.43394347204E+03  0.43394347204E+03  0.00000000000E+00 0. -1.
         -1   -1    0    0    0  501 -0.00000000000E+00 -0.00000000000E+00 -0.53187938255E+02  0.53187938255E+02  0.00000000000E+00 0.  1.
          5    1    1    2  502    0 -0.74879687209E+02  0.88531200215E+02  0.59796326422E+02  0.13054666454E+03  0.47000000000E+01 0.  1.
         -5    1    1    2    0  502  0.74004072072E+01 -0.27234441254E+02  0.55361729967E+02  0.62317669743E+02  0.47000000000E+01 0.  1.
        -11    1    1    2    0    0  0.15668326744E+02 -0.47364042445E+02  0.44822142452E+02  0.67066186962E+02  0.00000000000E+00 0.  1.
         11    1    1    2    0    0  0.51810953258E+02 -0.13932716516E+02  0.22077533495E+03  0.22720088906E+03  0.00000000000E+00 0. -1.
<mgrwt>
<rscale>  0 0.30384574E+03</rscale>
<asrwt>0</asrwt>
<pdfrwt beam="1">  1        1 0.66760532E-01 0.30384574E+03</pdfrwt>
<pdfrwt beam="2">  1       -1 0.81827600E-02 0.30384574E+03</pdfrwt>
<totfact> 0.45258140E+03</totfact>
</mgrwt>
</event>
<event>
 6    1  0.5818426E-006  0.2287592E+03  0.7546771E-02  0.1130904E+00
          2   -1    0    0  501    0  0.00000000000E+00  0.00000000000E+00  0.12589720943E+03  0.12589720943E+03  0.00000000000E+00 0. -1.
         -2   -1    0    0    0  501 -0.00000000000E+00 -0.00000000000E+00 -0.61153710685E+03  0.61153710685E+03  0.00000000000E+00 0.  1.
          5    1    1    2  502    0 -0.10093445196E+02 -0.23265370627E+02 -0.39533036092E+02  0.47202818231E+02  0.47000000000E+01 0. -1.
         -5    1    1    2    0  502 -0.12768345900E+03  0.15639321384E+03 -0.43485453717E+03  0.47946059435E+03  0.47000000000E+01 0. -1.
        -11    1    1    2    0    0  0.86014465462E+02 -0.62578797068E+02 -0.46946137299E+02  0.11626923032E+03  0.00000000000E+00 0.  1.
         11    1    1    2    0    0  0.51762438729E+02 -0.70549046147E+02  0.35693813144E+02  0.94501673383E+02  0.00000000000E+00 0. -1.
<mgrwt>
<rscale>  0 0.22404315E+03</rscale>
<asrwt>0</asrwt>
<pdfrwt beam="1">  1        2 0.19368801E-01 0.22875922E+03</pdfrwt>
<pdfrwt beam="2">  1       -2 0.94082632E-01 0.22875922E+03</pdfrwt>
<totfact> 0.28560115E+02</totfact>
</mgrwt>
</event>
<event>
 6    1  0.5818426E-006  0.1355477E+03  0.7546771E-02  0.1228673E+00
          1   -1    0    0  501    0  0.00000000000E+00  0.00000000000E+00  0.82603405556E+02  0.82603405556E+02  0.00000000000E+00 0. -1.
         -1   -1    0    0    0  501 -0.00000000000E+00 -0.00000000000E+00 -0.18760273081E+03  0.18760273081E+03  0.00000000000E+00 0.  1.
          5    1    1    2  502    0  0.43191551471E+02  0.33311693759E+02  0.75753293916E+01  0.55268930467E+02  0.47000000000E+01 0.  1.
         -5    1    1    2    0  502 -0.54071392352E+02  0.17957164774E+02 -0.80253984500E+02  0.98534091896E+02  0.47000000000E+01 0.  1.
        -11    1    1    2    0    0 -0.23148786312E+02 -0.58708403702E+02  0.74381895673E+01  0.63544233704E+02  0.00000000000E+00 0. -1.
         11    1    1    2    0    0  0.34028627193E+02  0.74395451692E+01 -0.39758859714E+02  0.52858880302E+02  0.00000000000E+00 0.  1.
<mgrwt>
<rscale>  0 0.12918285E+03</rscale>
<asrwt>0</asrwt>
<pdfrwt beam="1">  1        1 0.12708216E-01 0.13554771E+03</pdfrwt>
<pdfrwt beam="2">  1       -1 0.28861959E-01 0.13554771E+03</pdfrwt>
<totfact> 0.48426800E+03</totfact>
</mgrwt>
</event>
<event>
 6    1  0.5818426E-006  0.3199831E+03  0.7546771E-02  0.1075657E+00
         -1   -1    0    0    0  501 -0.00000000000E+00  0.00000000000E+00  0.57815760003E+02  0.57815760003E+02  0.00000000000E+00 0. -1.
          1   -1    0    0  501    0  0.00000000000E+00 -0.00000000000E+00 -0.44273894748E+03  0.44273894748E+03  0.00000000000E+00 0.  1.
          5    1    1    2  502    0  0.50203513475E+02  0.39716231807E+02 -0.21638285437E+03  0.22570201926E+03  0.47000000000E+01 0.  1.
         -5    1    1    2    0  502  0.71257696442E+01  0.43075187337E+01  0.17576997346E+02  0.20009301496E+02  0.47000000000E+01 0.  1.
        -11    1    1    2    0    0  0.54866051044E+02 -0.82629527163E+01 -0.48233852681E+02  0.73519143692E+02  0.00000000000E+00 0.  1.
         11    1    1    2    0    0 -0.11219533416E+03 -0.35760797824E+02 -0.13788347777E+03  0.18132424303E+03  0.00000000000E+00 0. -1.
<mgrwt>
<rscale>  0 0.31998305E+03</rscale>
<asrwt>0</asrwt>
<pdfrwt beam="2">  1        1 0.68113684E-01 0.31998305E+03</pdfrwt>
<pdfrwt beam="1">  1       -1 0.88947323E-02 0.31998305E+03</pdfrwt>
<totfact> 0.38825098E+03</totfact>
</mgrwt>
</event>
<event>
 6    1  0.5818426E-006  0.3879979E+03  0.7546771E-02  0.1048017E+00
          2   -1    0    0  501    0  0.00000000000E+00  0.00000000000E+00  0.12462555986E+04  0.12462555986E+04  0.00000000000E+00 0.  1.
         -2   -1    0    0    0  501 -0.00000000000E+00 -0.00000000000E+00 -0.30198940881E+02  0.30198940881E+02  0.00000000000E+00 0. -1.
          5    1    1    2  502    0  0.44683066406E+01  0.65513100326E+01  0.17525565131E+03  0.17549791664E+03  0.47000000000E+01 0. -1.
         -5    1    1    2    0  502  0.99848669639E+01 -0.15965956242E+03  0.31565234098E+03  0.35390586857E+03  0.47000000000E+01 0. -1.
        -11    1    1    2    0    0 -0.48762233086E+02  0.46993747795E+02  0.25259035683E+03  0.26151110124E+03  0.00000000000E+00 0. -1.
         11    1    1    2    0    0  0.34309059482E+02  0.10611450459E+03  0.47255830859E+03  0.48553965303E+03  0.00000000000E+00 0.  1.
<mgrwt>
<rscale>  0 0.38799793E+03</rscale>
<asrwt>0</asrwt>
<pdfrwt beam="1">  1        2 0.19173159E+00 0.38799793E+03</pdfrwt>
<pdfrwt beam="2">  1       -2 0.46459919E-02 0.38799793E+03</pdfrwt>
<totfact> 0.41328495E+03</totfact>
</mgrwt>
</event>
<event>
 6    1  0.5818426E-006  0.1726124E+03  0.7546771E-02  0.1181182E+00
          1   -1    0    0  501    0  0.00000000000E+00  0.00000000000E+00  0.10349237467E+03  0.10349237467E+03  0.00000000000E+00 0. -1.
         -1   -1    0    0    0  501 -0.00000000000E+00 -0.00000000000E+00 -0.29254355591E+03  0.29254355591E+03  0.00000000000E+00 0.  1.
          5    1    1    2  502    0  0.87777955714E+02 -0.23681634597E+01 -0.16334097959E+03  0.18550725948E+03  0.47000000000E+01 0.  1.
         -5    1    1    2    0  502  0.16119182774E+02 -0.55729749156E+02 -0.98846538715E+01  0.59037525155E+02  0.47000000000E+01 0.  1.
        -11    1    1    2    0    0 -0.54912362540E+02 -0.76084645569E+01  0.23954143540E+02  0.60390870878E+02  0.00000000000E+00 0. -1.
         11    1    1    2    0    0 -0.48984775949E+02  0.65706377172E+02 -0.39779691326E+02  0.91100275070E+02  0.00000000000E+00 0.  1.
<mgrwt>
<rscale>  0 0.16684188E+03</rscale>
<asrwt>0</asrwt>
<pdfrwt beam="1">  1        1 0.15921904E-01 0.17261237E+03</pdfrwt>
<pdfrwt beam="2">  1       -1 0.45006701E-01 0.17261237E+03</pdfrwt>
<totfact> 0.16922430E+03</totfact>
</mgrwt>
</event>
<event>
 6    1  0.5818426E-006  0.1743967E+03  0.7546771E-02  0.1180877E+00
          1   -1    0    0  501    0  0.00000000000E+00  0.00000000000E+00  0.51162021466E+03  0.51162021466E+03  0.00000000000E+00 0. -1.
         -1   -1    0    0    0  501 -0.00000000000E+00 -0.00000000000E+00 -0.64386028186E+02  0.64386028186E+02  0.00000000000E+00 0.  1.
          5    1    1    2  502    0  0.42168089447E+02  0.73244023927E+02  0.45146007093E+01  0.84766186821E+02  0.47000000000E+01 0. -1.
         -5    1    1    2    0  502 -0.40533124779E+02  0.48359599842E+02  0.10064421872E+03  0.11888201657E+03  0.47000000000E+01 0. -1.
        -11    1    1    2    0    0 -0.20029820248E+02 -0.80341690730E+02  0.12038466266E+03  0.14611108094E+03  0.00000000000E+00 0.  1.
         11    1    1    2    0    0  0.18394855580E+02 -0.41261933038E+02  0.22169070438E+03  0.22624695852E+03  0.00000000000E+00 0. -1.
<mgrwt>
<rscale>  0 0.16712761E+03</rscale>
<asrwt>0</asrwt>
<pdfrwt beam="1">  1        1 0.78710800E-01 0.17439671E+03</pdfrwt>
<pdfrwt beam="2">  1       -1 0.99055431E-02 0.17439671E+03</pdfrwt>
<totfact> 0.26675944E+03</totfact>
</mgrwt>
</event>
<event>
 6    1  0.5818426E-006  0.1297525E+03  0.7546771E-02  0.1240940E+00
         -3   -1    0    0    0  501 -0.00000000000E+00  0.00000000000E+00  0.65566986633E+03  0.65566986633E+03  0.00000000000E+00 0.  1.
          3   -1    0    0  501    0  0.00000000000E+00 -0.00000000000E+00 -0.32305882853E+02  0.32305882853E+02  0.00000000000E+00 0. -1.
          5    1    1    2  502    0 -0.24536282071E+02 -0.39916804510E+02  0.16904979596E+03  0.17548590807E+03  0.47000000000E+01 0. -1.
         -5    1    1    2    0  502  0.45195538686E+02  0.67927465894E+02  0.37969239029E+03  0.38838792281E+03  0.47000000000E+01 0. -1.
        -11    1    1    2    0    0 -0.30679221326E+02 -0.37261444159E+02  0.90867625438E+02  0.10289098695E+03  0.00000000000E+00 0.  1.
         11    1    1    2    0    0  0.10019964711E+02  0.92507827755E+01 -0.16245828206E+02  0.21210931353E+02  0.00000000000E+00 0. -1.
<mgrwt>
<rscale>  0 0.12131705E+03</rscale>
<asrwt>0</asrwt>
<pdfrwt beam="2">  1        3 0.49701363E-02 0.12975250E+03</pdfrwt>
<pdfrwt beam="1">  1       -3 0.10087228E+00 0.12975250E+03</pdfrwt>
<totfact> 0.47101240E+02</totfact>
</mgrwt>
</event>
<event>
 6    1  0.5818426E-006  0.1661742E+03  0.7546771E-02  0.1189132E+00
         -2   -1    0    0    0  501 -0.00000000000E+00  0.00000000000E+00  0.51474400835E+03  0.51474400835E+03  0.00000000000E+00 0.  1.
          2   -1    0    0  501    0  0.00000000000E+00 -0.00000000000E+00 -0.57172983890E+02  0.57172983890E+02  0.00000000000E+00 0. -1.
          5    1    1    2  502    0  0.93858645692E+02 -0.38200439424E+01  0.21183880937E+03  0.23177965671E+03  0.47000000000E+01 0. -1.
         -5    1    1    2    0  502 -0.78105786488E+01  0.71529142130E+02  0.15803273712E+03  0.17370624432E+03  0.47000000000E+01 0. -1.
        -11    1    1    2    0    0 -0.22534967161E+01  0.16990339325E+02  0.28820540619E+02  0.33531678148E+02  0.00000000000E+00 0.  1.
         11    1    1    2    0    0 -0.83794570327E+02 -0.84699437513E+02  0.58878937350E+02  0.13289941307E+03  0.00000000000E+00 0. -1.
<mgrwt>
<rscale>  0 0.15961489E+03</rscale>
<asrwt>0</asrwt>
<pdfrwt beam="2">  1        2 0.87958440E-02 0.16617417E+03</pdfrwt>
<pdfrwt beam="1">  1       -2 0.79191383E-01 0.16617417E+03</pdfrwt>
<totfact> 0.10780419E+03</totfact>
</mgrwt>
</event>
<event>
 6    1  0.5818426E-006  0.1428107E+03  0.7546771E-02  0.1219982E+00
          2   -1    0    0  501    0  0.00000000000E+00  0.00000000000E+00  0.82201714503E+03  0.82201714503E+03  0.00000000000E+00 0. -1.
         -2   -1    0    0    0  501 -0.00000000000E+00 -0.00000000000E+00 -0.22754577822E+02  0.22754577822E+02  0.00000000000E+00 0.  1.
          5    1    1    2  502    0 -0.17043253101E+02  0.15743994708E+02  0.25959353714E+03  0.26067075089E+03  0.47000000000E+01 0.  1.
         -5    1    1    2    0  502 -0.51306034493E+02 -0.25666143992E+02  0.36757098530E+02  0.68295200528E+02  0.47000000000E+01 0.  1.
        -11    1    1    2    0    0 -0.74991405589E+01 -0.28290681584E+02  0.14883117739E+03  0.15168163744E+03  0.00000000000E+00 0.  1.
         11    1    1    2    0    0  0.75848428154E+02  0.38212830868E+02  0.35408075414E+03  0.36412413398E+03  0.00000000000E+00 0. -1.
<mgrwt>
<rscale>  0 0.13516837E+03</rscale>
<asrwt>0</asrwt>
<pdfrwt beam="1">  1        2 0.12646415E+00 0.14281071E+03</pdfrwt>
<pdfrwt beam="2">  1       -2 0.35007049E-02 0.14281071E+03</pdfrwt>
<totfact> 0.11071421E+04</totfact>
</mgrwt>
</event>
<event>
 6    1  0.5818426E-006  0.1711856E+03  0.7546771E-02  0.1182814E+00
         -2   -1    0    0    0  501 -0.00000000000E+00  0.00000000000E+00  0.46085704295E+02  0.46085704295E+02  0.00000000000E+00 0.  1.
          2   -1    0    0  501    0  0.00000000000E+00 -0.00000000000E+00 -0.57228118523E+03  0.57228118523E+03  0.00000000000E+00 0. -1.
          5    1    1    2  502    0 -0.52376675023E+02  0.53722595480E+02 -0.36384274791E+02  0.83518493782E+02  0.47000000000E+01 0. -1.
         -5    1    1    2    0  502 -0.59259337053E+02 -0.18786972802E+02 -0.19221363700E+03  0.20207125382E+03  0.47000000000E+01 0. -1.
        -11    1    1    2    0    0  0.88238313120E+02 -0.37213609263E+02 -0.29373751644E+03  0.30895401143E+03  0.00000000000E+00 0. -1.
         11    1    1    2    0    0  0.23397698956E+02  0.22779865852E+01 -0.38600527133E+01  0.23823130489E+02  0.00000000000E+00 0.  1.
<mgrwt>
<rscale>  0 0.16532424E+03</rscale>
<asrwt>0</asrwt>
<pdfrwt beam="2">  1        2 0.88043254E-01 0.17118557E+03</pdfrwt>
<pdfrwt beam="1">  1       -2 0.70901088E-02 0.17118557E+03</pdfrwt>
<totfact> 0.59379359E+03</totfact>
</mgrwt>
</event>
<event>
 6    1  0.5818426E-006  0.1236033E+03  0.7546771E-02  0.1248728E+00
         -1   -1    0    0    0  501 -0.00000000000E+00  0.00000000000E+00  0.17669526777E+03  0.17669526777E+03  0.00000000000E+00 0.  1.
          1   -1    0    0  501    0  0.00000000000E+00 -0.00000000000E+00 -0.80299131055E+02  0.80299131055E+02  0.00000000000E+00 0. -1.
          5    1    1    2  502    0 -0.29492156906E+02 -0.50868965739E+02  0.77303885125E+01  0.59491914584E+02  0.47000000000E+01 0. -1.
         -5    1    1    2    0  502 -0.52150746624E+01  0.36700398524E+02  0.92100431412E+02  0.99391628027E+02  0.47000000000E+01 0.  1.
        -11    1    1    2    0    0  0.49435898626E+01 -0.36883428221E+02  0.76347751873E+01  0.37988368618E+02  0.00000000000E+00 0. -1.
         11    1    1    2    0    0  0.29763641706E+02  0.51051995436E+02 -0.11069458397E+02  0.60122487596E+02  0.00000000000E+00 0.  1.
<mgrwt>
<rscale>  0 0.11665017E+03</rscale>
<asrwt>0</asrwt>
<pdfrwt beam="2">  1        1 0.12353713E-01 0.12360335E+03</pdfrwt>
<pdfrwt beam="1">  1       -1 0.27183887E-01 0.12360335E+03</pdfrwt>
<totfact> 0.55171793E+03</totfact>
</mgrwt>
</event>
<event>
 6    1  0.5818426E-006  0.1680640E+03  0.7546771E-02  0.1186540E+00
          1   -1    0    0  501    0  0.00000000000E+00  0.00000000000E+00  0.37755716274E+03  0.37755716274E+03  0.00000000000E+00 0. -1.
         -1   -1    0    0    0  501 -0.00000000000E+00 -0.00000000000E+00 -0.68110587118E+02  0.68110587118E+02  0.00000000000E+00 0.  1.
          5    1    1    2  502    0  0.50681416535E+02 -0.76901673600E+02  0.17598184741E+02  0.93884287773E+02  0.47000000000E+01 0. -1.
         -5    1    1    2    0  502  0.45375425336E+02  0.18657910061E+02  0.99232766806E+02  0.11079837021E+03  0.47000000000E+01 0. -1.
        -11    1    1    2    0    0 -0.56050253852E+02  0.46761722093E+02  0.40918493539E+02  0.83681615206E+02  0.00000000000E+00 0.  1.
         11    1    1    2    0    0 -0.40006588018E+02  0.11482041445E+02  0.15169713054E+03  0.15730347668E+03  0.00000000000E+00 0. -1.
<mgrwt>
<rscale>  0 0.16192494E+03</rscale>
<asrwt>0</asrwt>
<pdfrwt beam="1">  1        1 0.58085716E-01 0.16806403E+03</pdfrwt>
<pdfrwt beam="2">  1       -1 0.10478552E-01 0.16806403E+03</pdfrwt>
<totfact> 0.36139045E+03</totfact>
</mgrwt>
</event>
<event>
 6    1  0.5818426E-006  0.4158250E+03  0.7546771E-02  0.1092586E+00
         -2   -1    0    0    0  501 -0.00000000000E+00  0.00000000000E+00  0.66638129752E+02  0.66638129752E+02  0.00000000000E+00 0.  1.
          2   -1    0    0  501    0  0.00000000000E+00 -0.00000000000E+00 -0.98963305653E+03  0.98963305653E+03  0.00000000000E+00 0. -1.
          5    1    1    2  502    0  0.10197220763E+03  0.72064051074E+02 -0.68948183842E+03  0.70071310398E+03  0.47000000000E+01 0. -1.
         -5    1    1    2    0  502 -0.83370424535E+02 -0.65655610966E+02 -0.20881026211E+01  0.10624376269E+03  0.47000000000E+01 0.  1.
        -11    1    1    2    0    0 -0.18189039751E+02  0.39035627869E+02 -0.75689839282E+02  0.87083713637E+02  0.00000000000E+00 0. -1.
         11    1    1    2    0    0 -0.41274334178E+00 -0.45444067977E+02 -0.15573514646E+03  0.16223060597E+03  0.00000000000E+00 0.  1.
<mgrwt>
<rscale>  0 0.28575635E+03</rscale>
<asrwt>0</asrwt>
<pdfrwt beam="2">  1        2 0.15225125E+00 0.41582496E+03</pdfrwt>
<pdfrwt beam="1">  1       -2 0.10252019E-01 0.41582496E+03</pdfrwt>
<totfact> 0.16983287E+03</totfact>
</mgrwt>
</event>
<event>
 6    1  0.5818426E-006  0.1356968E+03  0.7546771E-02  0.1231684E+00
         -1   -1    0    0    0  501 -0.00000000000E+00  0.00000000000E+00  0.18332213639E+02  0.18332213639E+02  0.00000000000E+00 0.  1.
          1   -1    0    0  501    0  0.00000000000E+00 -0.00000000000E+00 -0.80095719563E+03  0.80095719563E+03  0.00000000000E+00 0. -1.
          5    1    1    2  502    0  0.96712358971E+01  0.86401973543E+02 -0.31187487397E+03  0.32380064986E+03  0.47000000000E+01 0.  1.
         -5    1    1    2    0  502 -0.23645026729E+02 -0.35491964410E+02 -0.78110716358E+02  0.89118689603E+02  0.47000000000E+01 0.  1.
        -11    1    1    2    0    0  0.31684429195E+02 -0.57047276157E+02 -0.37498659661E+03  0.38062217803E+03  0.00000000000E+00 0. -1.
         11    1    1    2    0    0 -0.17710638363E+02  0.61372670238E+01 -0.17652795055E+02  0.25747891778E+02  0.00000000000E+00 0.  1.
<mgrwt>
<rscale>  0 0.12719138E+03</rscale>
<asrwt>0</asrwt>
<pdfrwt beam="2">  1        1 0.12322419E+00 0.13569680E+03</pdfrwt>
<pdfrwt beam="1">  1       -1 0.28203404E-02 0.13569680E+03</pdfrwt>
<totfact> 0.91431660E+03</totfact>
</mgrwt>
</event>
<event>
 6    1  0.5818426E-006  0.1662354E+03  0.7546771E-02  0.1187409E+00
         -1   -1    0    0    0  501 -0.00000000000E+00  0.00000000000E+00  0.65445499612E+02  0.65445499612E+02  0.00000000000E+00 0.  1.
          1   -1    0    0  501    0  0.00000000000E+00 -0.00000000000E+00 -0.40896975068E+03  0.40896975068E+03  0.00000000000E+00 0. -1.
          5    1    1    2  502    0  0.29077503961E+02  0.65712705868E+02  0.95605675614E+01  0.72644032110E+02  0.47000000000E+01 0.  1.
         -5    1    1    2    0  502  0.23144669172E+02  0.30638055217E+02 -0.12215462191E+03  0.12813355451E+03  0.47000000000E+01 0.  1.
        -11    1    1    2    0    0  0.72663741076E+01 -0.84957405861E+02 -0.15014646219E+03  0.17266881917E+03  0.00000000000E+00 0. -1.
         11    1    1    2    0    0 -0.59488547241E+02 -0.11393355224E+02 -0.80783734533E+02  0.10096884451E+03  0.00000000000E+00 0.  1.
<mgrwt>
<rscale>  0 0.16114640E+03</rscale>
<asrwt>0</asrwt>
<pdfrwt beam="2">  1        1 0.62918425E-01 0.16623543E+03</pdfrwt>
<pdfrwt beam="1">  1       -1 0.10068538E-01 0.16623543E+03</pdfrwt>
<totfact> 0.34708231E+03</totfact>
</mgrwt>
</event>
<event>
 6    1  0.5818426E-006  0.1349528E+03  0.7546771E-02  0.1232750E+00
         -1   -1    0    0    0  501 -0.00000000000E+00  0.00000000000E+00  0.66687390199E+02  0.66687390199E+02  0.00000000000E+00 0.  1.
          1   -1    0    0  501    0  0.00000000000E+00 -0.00000000000E+00 -0.23491426582E+03  0.23491426582E+03  0.00000000000E+00 0. -1.
          5    1    1    2  502    0 -0.30053266146E+02 -0.11538135905E+02 -0.63063027133E+02  0.70960290145E+02  0.47000000000E+01 0.  1.
         -5    1    1    2    0  502  0.35349902175E+02  0.62124342646E+02  0.13335698087E+02  0.72862750267E+02  0.47000000000E+01 0.  1.
        -11    1    1    2    0    0 -0.99259103836E+01 -0.12950937134E+02  0.13036895275E+02  0.20885667526E+02  0.00000000000E+00 0.  1.
         11    1    1    2    0    0  0.46292743543E+01 -0.37635269607E+02 -0.13153644185E+03  0.13689294808E+03  0.00000000000E+00 0. -1.
<mgrwt>
<rscale>  0 0.12649545E+03</rscale>
<asrwt>0</asrwt>
<pdfrwt beam="2">  1        1 0.36140656E-01 0.13495281E+03</pdfrwt>
<pdfrwt beam="1">  1       -1 0.10259599E-01 0.13495281E+03</pdfrwt>
<totfact> 0.66578893E+03</totfact>
</mgrwt>
</event>
<event>
 6    1  0.5818426E-006  0.2460712E+03  0.7546771E-02  0.1115813E+00
         -1   -1    0    0    0  501 -0.00000000000E+00  0.00000000000E+00  0.36130380578E+03  0.36130380578E+03  0.00000000000E+00 0.  1.
          1   -1    0    0  501    0  0.00000000000E+00 -0.00000000000E+00 -0.41897599287E+02  0.41897599287E+02  0.00000000000E+00 0. -1.
          5    1    1    2  502    0 -0.12005255474E+02  0.91711895231E+02  0.96873949361E+02  0.13402182640E+03  0.47000000000E+01 0. -1.
         -5    1    1    2    0  502  0.15337099339E+02 -0.37779685312E+02  0.73735428888E+02  0.84389185988E+02  0.47000000000E+01 0. -1.
        -11    1    1    2    0    0 -0.12722981345E+02 -0.23531065741E+02 -0.54465783745E+01  0.27299277009E+02  0.00000000000E+00 0. -1.
         11    1    1    2    0    0  0.93911374796E+01 -0.30401144178E+02  0.15424340662E+03  0.15749111567E+03  0.00000000000E+00 0.  1.
<mgrwt>
<rscale>  0 0.24607123E+03</rscale>
<asrwt>0</asrwt>
<pdfrwt beam="2">  1        1 0.64457848E-02 0.24607123E+03</pdfrwt>
<pdfrwt beam="1">  1       -1 0.55585199E-01 0.24607123E+03</pdfrwt>
<totfact> 0.39032970E+03</totfact>
</mgrwt>
</event>
<event>
 6    1  0.5818426E-006  0.1761295E+03  0.7546771E-02  0.1178038E+00
          2   -1    0    0  501    0  0.00000000000E+00  0.00000000000E+00  0.47854773835E+03  0.47854773835E+03  0.00000000000E+00 0. -1.
         -2   -1    0    0    0  501 -0.00000000000E+00 -0.00000000000E+00 -0.80892784867E+02  0.80892784867E+02  0.00000000000E+00 0.  1.
          5    1    1    2  502    0 -0.66407502162E+02  0.44689452082E+02  0.94827265717E+02  0.12418294486E+03  0.47000000000E+01 0. -1.
         -5    1    1    2    0  502 -0.29239408982E+02  0.34352532001E+02 -0.39800281726E+02  0.60342289631E+02  0.47000000000E+01 0. -1.
        -11    1    1    2    0    0  0.65203791691E+02 -0.81191730021E+02  0.16810949634E+03  0.19774841146E+03  0.00000000000E+00 0.  1.
         11    1    1    2    0    0  0.30443119453E+02  0.21497459370E+01  0.17451847316E+03  0.17716687727E+03  0.00000000000E+00 0. -1.
<mgrwt>
<rscale>  0 0.16981813E+03</rscale>
<asrwt>0</asrwt>
<pdfrwt beam="1">  1        2 0.73622727E-01 0.17612948E+03</pdfrwt>
<pdfrwt beam="2">  1       -2 0.12445044E-01 0.17612948E+03</pdfrwt>
<totfact> 0.29951816E+03</totfact>
</mgrwt>
</event>
<event>
 6    1  0.5818426E-006  0.2929179E+03  0.7546771E-02  0.1088835E+00
         -4   -1    0    0    0  501 -0.00000000000E+00  0.00000000000E+00  0.36485366063E+03  0.36485366063E+03  0.00000000000E+00 0.  1.
          4   -1    0    0  501    0  0.00000000000E+00 -0.00000000000E+00 -0.58791290589E+02  0.58791290589E+02  0.00000000000E+00 0. -1.
          5    1    1    2  502    0  0.34876959545E+01  0.35094680112E+02  0.11876662953E+03  0.12398146186E+03  0.47000000000E+01 0.  1.
         -5    1    1    2    0  502 -0.76488637707E+02 -0.68388292121E+02  0.12897809223E+03  0.16487846577E+03  0.47000000000E+01 0.  1.
        -11    1    1    2    0    0  0.21768857761E+02  0.45926466009E+02  0.63985872782E+02  0.81714841761E+02  0.00000000000E+00 0.  1.
         11    1    1    2    0    0  0.51232083992E+02 -0.12632854000E+02 -0.56682245067E+01  0.53070181829E+02  0.00000000000E+00 0. -1.
<mgrwt>
<rscale>  0 0.29291786E+03</rscale>
<asrwt>0</asrwt>
<pdfrwt beam="2">  1        4 0.90448142E-02 0.29291786E+03</pdfrwt>
<pdfrwt beam="1">  1       -4 0.56131331E-01 0.29291786E+03</pdfrwt>
<totfact> 0.51819212E+02</totfact>
</mgrwt>
</event>
<event>
 6    1  0.5818426E-006  0.1283336E+03  0.7546771E-02  0.1244243E+00
         -3   -1    0    0    0  501 -0.00000000000E+00  0.00000000000E+00  0.19194951050E+02  0.19194951050E+02  0.00000000000E+00 0.  1.
          3   -1    0    0  501    0  0.00000000000E+00 -0.00000000000E+00 -0.65802187765E+03  0.65802187765E+03  0.00000000000E+00 0. -1.
          5    1    1    2  502    0 -0.21281321613E+02 -0.44999700728E+02 -0.13341305899E+03  0.14247456623E+03  0.47000000000E+01 0.  1.
         -5    1    1    2    0  502  0.40222247461E+02  0.67054074719E+02 -0.20806813883E+03  0.22232525390E+03  0.47000000000E+01 0.  1.
        -11    1    1    2    0    0 -0.53526196945E+02 -0.12863440576E+02 -0.12807528174E+03  0.13940516366E+03  0.00000000000E+00 0.  1.
         11    1    1    2    0    0  0.34585271097E+02 -0.91909334143E+01 -0.16927044705E+03  0.17301184491E+03  0.00000000000E+00 0. -1.
<mgrwt>
<rscale>  0 0.11930785E+03</rscale>
<asrwt>0</asrwt>
<pdfrwt beam="2">  1        3 0.10123412E+00 0.12833355E+03</pdfrwt>
<pdfrwt beam="1">  1       -3 0.29530698E-02 0.12833355E+03</pdfrwt>
<totfact> 0.10530149E+03</totfact>
</mgrwt>
</event>
<event>
 6    1  0.5818426E-006  0.1363788E+03  0.7546771E-02  0.1232172E+00
         -3   -1    0    0    0  501 -0.00000000000E+00  0.00000000000E+00  0.26687135797E+03  0.26687135797E+03  0.00000000000E+00 0.  1.
          3   -1    0    0  501    0  0.00000000000E+00 -0.00000000000E+00 -0.67719751315E+02  0.67719751315E+02  0.00000000000E+00 0. -1.
          5    1    1    2  502    0  0.20478878488E+02 -0.46693950484E+02  0.57233342372E+02  0.76794888860E+02  0.47000000000E+01 0. -1.
         -5    1    1    2    0  502 -0.68546469668E+02  0.48514471605E+02  0.13016403231E+03  0.15497431325E+03  0.47000000000E+01 0.  1.
        -11    1    1    2    0    0 -0.25459012712E+02 -0.11554518768E+02  0.22808996011E+01  0.28051216288E+02  0.00000000000E+00 0.  1.
         11    1    1    2    0    0  0.73526603893E+02  0.97339976464E+01  0.94733323726E+01  0.74770690892E+02  0.00000000000E+00 0. -1.
<mgrwt>
<rscale>  0 0.12687251E+03</rscale>
<asrwt>0</asrwt>
<pdfrwt beam="2">  1        3 0.10418423E-01 0.13637884E+03</pdfrwt>
<pdfrwt beam="1">  1       -3 0.41057131E-01 0.13637884E+03</pdfrwt>
<totfact> 0.93910416E+02</totfact>
</mgrwt>
</event>
<event>
 6    1  0.5818426E-006  0.1403095E+03  0.7546771E-02  0.1224048E+00
          1   -1    0    0  501    0  0.00000000000E+00  0.00000000000E+00  0.13236939288E+03  0.13236939288E+03  0.00000000000E+00 0. -1.
         -1   -1    0    0    0  501 -0.00000000000E+00 -0.00000000000E+00 -0.12890399835E+03  0.12890399835E+03  0.00000000000E+00 0.  1.
          5    1    1    2  502    0 -0.14658049726E+02  0.22821964072E+02  0.47136983290E+02  0.54586497044E+02  0.47000000000E+01 0.  1.
         -5    1    1    2    0  502 -0.34609635050E+02  0.17618640129E+02 -0.80699474608E+02  0.89681316450E+02  0.47000000000E+01 0.  1.
        -11    1    1    2    0    0  0.52422291796E+01 -0.56560051486E+02  0.40850556626E+02  0.69966337388E+02  0.00000000000E+00 0.  1.
         11    1    1    2    0    0  0.44025455597E+02  0.16119447285E+02 -0.38226707793E+01  0.47039240355E+02  0.00000000000E+00 0. -1.
<mgrwt>
<rscale>  0 0.13232392E+03</rscale>
<asrwt>0</asrwt>
<pdfrwt beam="1">  1        1 0.20364522E-01 0.14030952E+03</pdfrwt>
<pdfrwt beam="2">  1       -1 0.19831384E-01 0.14030952E+03</pdfrwt>
<totfact> 0.48828913E+03</totfact>
</mgrwt>
</event>
<event>
 6    1  0.5818426E-006  0.1326114E+03  0.7546771E-02  0.1232908E+00
         -1   -1    0    0    0  501 -0.00000000000E+00  0.00000000000E+00  0.13480170806E+02  0.13480170806E+02  0.00000000000E+00 0.  1.
          1   -1    0    0  501    0  0.00000000000E+00 -0.00000000000E+00 -0.10906245602E+04  0.10906245602E+04  0.00000000000E+00 0. -1.
          5    1    1    2  502    0 -0.22118710619E+02 -0.15674571933E+02 -0.53126481109E+03  0.53197680313E+03  0.47000000000E+01 0. -1.
         -5    1    1    2    0  502 -0.29253166983E+02  0.92814917356E+01 -0.24957939624E+02  0.39835695270E+02  0.47000000000E+01 0.  1.
        -11    1    1    2    0    0 -0.43613137862E+01  0.42692313368E+02 -0.20725320070E+03  0.21164957802E+03  0.00000000000E+00 0.  1.
         11    1    1    2    0    0  0.55733191389E+02 -0.36299233170E+02 -0.31366843797E+03  0.32064265457E+03  0.00000000000E+00 0. -1.
<mgrwt>
<rscale>  0 0.12639303E+03</rscale>
<asrwt>0</asrwt>
<pdfrwt beam="2">  1        1 0.16778837E+00 0.13261141E+03</pdfrwt>
<pdfrwt beam="1">  1       -1 0.20738727E-02 0.13261141E+03</pdfrwt>
<totfact> 0.86201486E+03</totfact>
</mgrwt>
</event>
<event>
 6    1  0.5818426E-006  0.1248765E+03  0.7546771E-02  0.1243434E+00
         -3   -1    0    0    0  501 -0.00000000000E+00  0.00000000000E+00  0.28467928128E+03  0.28467928128E+03  0.00000000000E+00 0.  1.
          3   -1    0    0  501    0  0.00000000000E+00 -0.00000000000E+00 -0.49449819156E+02  0.49449819156E+02  0.00000000000E+00 0. -1.
          5    1    1    2  502    0 -0.27512621983E+02  0.43888657777E+02  0.11284891015E+03  0.12425830021E+03  0.47000000000E+01 0. -1.
         -5    1    1    2    0  502  0.64027889028E+02 -0.44666664594E+01  0.53142827334E+02  0.83461199247E+02  0.47000000000E+01 0.  1.
        -11    1    1    2    0    0  0.27977454513E+02 -0.17967652472E+02  0.64314226921E+01  0.33866468582E+02  0.00000000000E+00 0.  1.
         11    1    1    2    0    0 -0.64492721558E+02 -0.21454338845E+02  0.62806301950E+02  0.92543132397E+02  0.00000000000E+00 0. -1.
<mgrwt>
<rscale>  0 0.11979605E+03</rscale>
<asrwt>0</asrwt>
<pdfrwt beam="2">  1        3 0.76076646E-02 0.12487647E+03</pdfrwt>
<pdfrwt beam="1">  1       -3 0.43796812E-01 0.12487647E+03</pdfrwt>
<totfact> 0.13662486E+03</totfact>
</mgrwt>
</event>
<event>
 6    1  0.5818426E-006  0.1984283E+03  0.7546771E-02  0.1155332E+00
          3   -1    0    0  501    0  0.00000000000E+00  0.00000000000E+00  0.68655461578E+03  0.68655461578E+03  0.00000000000E+00 0. -1.
         -3   -1    0    0    0  501 -0.00000000000E+00 -0.00000000000E+00 -0.62841714506E+02  0.62841714506E+02  0.00000000000E+00 0.  1.
          5    1    1    2  502    0  0.70158198727E+02 -0.60743418754E+02  0.89121794057E+02  0.12875061144E+03  0.47000000000E+01 0.  1.
         -5    1    1    2    0  502 -0.50380835280E+02 -0.91971056407E+02  0.80227912816E+02  0.13211930887E+03  0.47000000000E+01 0.  1.
        -11    1    1    2    0    0  0.30166517907E+02  0.49878104559E+02  0.22252886371E+03  0.23003682162E+03  0.00000000000E+00 0. -1.
         11    1    1    2    0    0 -0.49943881354E+02  0.10283637060E+03  0.23183433069E+03  0.25848958836E+03  0.00000000000E+00 0.  1.
<mgrwt>
<rscale>  0 0.19351078E+03</rscale>
<asrwt>0</asrwt>
<pdfrwt beam="1">  1        3 0.10562378E+00 0.19842830E+03</pdfrwt>
<pdfrwt beam="2">  1       -3 0.96679566E-02 0.19842830E+03</pdfrwt>
<totfact> 0.15226331E+02</totfact>
</mgrwt>
</event>
<event>
 6    1  0.5818426E-006  0.2209608E+03  0.7546771E-02  0.1140327E+00
          1   -1    0    0  501    0  0.00000000000E+00  0.00000000000E+00  0.10239734411E+04  0.10239734411E+04  0.00000000000E+00 0.  1.
         -1   -1    0    0    0  501 -0.00000000000E+00 -0.00000000000E+00 -0.40388191705E+02  0.40388191705E+02  0.00000000000E+00 0. -1.
          5    1    1    2  502    0  0.53432115408E+02  0.18862129553E+02  0.34121581075E+03  0.34592064176E+03  0.47000000000E+01 0. -1.
         -5    1    1    2    0  502  0.12877397446E+03 -0.18850248249E+02  0.20000141917E+03  0.23866446327E+03  0.47000000000E+01 0. -1.
        -11    1    1    2    0    0 -0.12709003261E+03 -0.13969574866E+02  0.32846824770E+03  0.35247470145E+03  0.00000000000E+00 0.  1.
         11    1    1    2    0    0 -0.55116057258E+02  0.13957693562E+02  0.11389977174E+03  0.12730182630E+03  0.00000000000E+00 0. -1.
<mgrwt>
<rscale>  0 0.21157168E+03</rscale>
<asrwt>0</asrwt>
<pdfrwt beam="1">  1        1 0.15753436E+00 0.22096075E+03</pdfrwt>
<pdfrwt beam="2">  1       -1 0.62135688E-02 0.22096075E+03</pdfrwt>
<totfact> 0.19407790E+03</totfact>
</mgrwt>
</event>
<event>
 6    1  0.5818426E-006  0.1273429E+03  0.7546771E-02  0.1246319E+00
          2   -1    0    0  501    0  0.00000000000E+00  0.00000000000E+00  0.86283082962E+02  0.86283082962E+02  0.00000000000E+00 0.  1.
         -2   -1    0    0    0  501 -0.00000000000E+00 -0.00000000000E+00 -0.14739194483E+03  0.14739194483E+03  0.00000000000E+00 0. -1.
          5    1    1    2  502    0  0.28146797437E+02 -0.38683029950E+02 -0.87858858209E+02  0.10014932839E+03  0.47000000000E+01 0. -1.
         -5    1    1    2    0  502 -0.16072344832E+02  0.17549305035E+02  0.30957002220E+02  0.39328416724E+02  0.47000000000E+01 0. -1.
        -11    1    1    2    0    0  0.19845493246E+02 -0.27872526260E+02  0.62579826711E+01  0.34783382087E+02  0.00000000000E+00 0.  1.
         11    1    1    2    0    0 -0.31919945851E+02  0.49006251175E+02 -0.10464988548E+02  0.59413900585E+02  0.00000000000E+00 0. -1.
<mgrwt>
<rscale>  0 0.11806803E+03</rscale>
<asrwt>0</asrwt>
<pdfrwt beam="1">  1        2 0.13274321E-01 0.12734292E+03</pdfrwt>
<pdfrwt beam="2">  1       -2 0.22675684E-01 0.12734292E+03</pdfrwt>
<totfact> 0.71763921E+03</totfact>
</mgrwt>
</event>
<event>
 6    1  0.5818426E-006  0.3600055E+03  0.7546771E-02  0.1058582E+00
         -1   -1    0    0    0  501 -0.00000000000E+00  0.00000000000E+00  0.26405521036E+03  0.26405521036E+03  0.00000000000E+00 0.  1.
          1   -1    0    0  501    0  0.00000000000E+00 -0.00000000000E+00 -0.12270539364E+03  0.12270539364E+03  0.00000000000E+00 0. -1.
          5    1    1    2  502    0  0.28840072599E+02 -0.13400087072E+03  0.29276269344E+02  0.14023969869E+03  0.47000000000E+01 0. -1.
         -5    1    1    2    0  502  0.67077119908E+01 -0.18706960241E+01  0.73604560607E+02  0.74082482719E+02  0.47000000000E+01 0. -1.
        -11    1    1    2    0    0 -0.38238839464E+02  0.10264490859E+03 -0.13843329032E+02  0.11040753535E+03  0.00000000000E+00 0. -1.
         11    1    1    2    0    0  0.26910548743E+01  0.33226658153E+02  0.52312315796E+02  0.62030887245E+02  0.00000000000E+00 0.  1.
<mgrwt>
<rscale>  0 0.36000555E+03</rscale>
<asrwt>0</asrwt>
<pdfrwt beam="2">  1        1 0.18877753E-01 0.36000555E+03</pdfrwt>
<pdfrwt beam="1">  1       -1 0.40623878E-01 0.36000555E+03</pdfrwt>
<totfact> 0.16600195E+03</totfact>
</mgrwt>
</event>
<event>
 6    1  0.5818426E-006  0.1127898E+03  0.7546771E-02  0.1279873E+00
         -2   -1    0    0    0  501 -0.00000000000E+00  0.00000000000E+00  0.13528993210E+03  0.13528993210E+03  0.00000000000E+00 0.  1.
          2   -1    0    0  501    0  0.00000000000E+00 -0.00000000000E+00 -0.12551762222E+03  0.12551762222E+03  0.00000000000E+00 0. -1.
          5    1    1    2  502    0 -0.13418951392E+01 -0.46238131256E+02  0.11590519754E+01  0.46510201742E+02  0.47000000000E+01 0. -1.
         -5    1    1    2    0  502 -0.88095450831E+01  0.34188251031E+02  0.95869841011E+02  0.10227199523E+03  0.47000000000E+01 0.  1.
        -11    1    1    2    0    0  0.43225709499E+01 -0.23837389116E+02 -0.65068595440E+02  0.69432181674E+02  0.00000000000E+00 0. -1.
         11    1    1    2    0    0  0.58288692725E+01  0.35887269341E+02 -0.22187987657E+02  0.42593175674E+02  0.00000000000E+00 0.  1.
<mgrwt>
<rscale>  0 0.10020142E+03</rscale>
<asrwt>0</asrwt>
<pdfrwt beam="2">  1        2 0.19310403E-01 0.11278979E+03</pdfrwt>
<pdfrwt beam="1">  1       -2 0.20813836E-01 0.11278979E+03</pdfrwt>
<totfact> 0.53348248E+03</totfact>
</mgrwt>
</event>
<event>
 6    1  0.5818426E-006  0.1290907E+03  0.7546771E-02  0.1243698E+00
          4   -1    0    0  501    0  0.00000000000E+00  0.00000000000E+00  0.25072668155E+02  0.25072668155E+02  0.00000000000E+00 0. -1.
         -4   -1    0    0    0  501 -0.00000000000E+00 -0.00000000000E+00 -0.71290533169E+03  0.71290533169E+03  0.00000000000E+00 0.  1.
          5    1    1    2  502    0 -0.29810353208E+02 -0.21022898576E+02 -0.45314885271E+02  0.58362215945E+02  0.47000000000E+01 0.  1.
         -5    1    1    2    0  502  0.33001868294E+02 -0.11060620889E+02 -0.53434541989E+03  0.53549843921E+03  0.47000000000E+01 0.  1.
        -11    1    1    2    0    0 -0.34219107289E+02  0.28834644191E+02 -0.17192171176E+02  0.47936987380E+02  0.00000000000E+00 0. -1.
         11    1    1    2    0    0  0.31027592203E+02  0.32488752739E+01 -0.90980187198E+02  0.96180357304E+02  0.00000000000E+00 0.  1.
<mgrwt>
<rscale>  0 0.11963643E+03</rscale>
<asrwt>0</asrwt>
<pdfrwt beam="1">  1        4 0.38573341E-02 0.12909070E+03</pdfrwt>
<pdfrwt beam="2">  1       -4 0.10967773E+00 0.12909070E+03</pdfrwt>
<totfact> 0.41109642E+02</totfact>
</mgrwt>
</event>
<event>
 6    1  0.5818426E-006  0.1451580E+03  0.7546771E-02  0.1216722E+00
          2   -1    0    0  501    0  0.00000000000E+00  0.00000000000E+00  0.10798556892E+03  0.10798556892E+03  0.00000000000E+00 0. -1.
         -2   -1    0    0    0  501 -0.00000000000E+00 -0.00000000000E+00 -0.16190228234E+03  0.16190228234E+03  0.00000000000E+00 0.  1.
          5    1    1    2  502    0  0.36954579783E+02 -0.41874585960E+02  0.16227704664E+02  0.58348524531E+02  0.47000000000E+01 0.  1.
         -5    1    1    2    0  502 -0.63888168428E+02 -0.26834641899E+02 -0.64063853487E+02  0.94488429951E+02  0.47000000000E+01 0.  1.
        -11    1    1    2    0    0 -0.14248034104E+02  0.67053850727E+02  0.15857365458E+02  0.70361078818E+02  0.00000000000E+00 0. -1.
         11    1    1    2    0    0  0.41181622749E+02  0.16553771323E+01 -0.21937930058E+02  0.46689817958E+02  0.00000000000E+00 0.  1.
<mgrwt>
<rscale>  0 0.13750790E+03</rscale>
<asrwt>0</asrwt>
<pdfrwt beam="1">  1        2 0.16613164E-01 0.14515797E+03</pdfrwt>
<pdfrwt beam="2">  1       -2 0.24908044E-01 0.14515797E+03</pdfrwt>
<totfact> 0.47313556E+03</totfact>
</mgrwt>
</event>
<event>
 6    1  0.5818426E-006  0.1322632E+03  0.7546771E-02  0.1237757E+00
          1   -1    0    0  501    0  0.00000000000E+00  0.00000000000E+00  0.23507021619E+03  0.23507021619E+03  0.00000000000E+00 0. -1.
         -1   -1    0    0    0  501 -0.00000000000E+00 -0.00000000000E+00 -0.58176142532E+02  0.58176142532E+02  0.00000000000E+00 0.  1.
          5    1    1    2  502    0  0.43015871410E+02  0.34109473789E+02  0.98334457148E+02  0.11271901729E+03  0.47000000000E+01 0.  1.
         -5    1    1    2    0  502 -0.39265812398E+02  0.89537999646E+01 -0.15425052637E+02  0.43381987114E+02  0.47000000000E+01 0.  1.
        -11    1    1    2    0    0 -0.43350830452E+02 -0.33036930737E+02  0.32913426736E+02  0.63671241175E+02  0.00000000000E+00 0.  1.
         11    1    1    2    0    0  0.39600771439E+02 -0.10026343017E+02  0.61071242407E+02  0.73474113142E+02  0.00000000000E+00 0. -1.
<mgrwt>
<rscale>  0 0.12329554E+03</rscale>
<asrwt>0</asrwt>
<pdfrwt beam="1">  1        1 0.36164648E-01 0.13226320E+03</pdfrwt>
<pdfrwt beam="2">  1       -1 0.89501759E-02 0.13226320E+03</pdfrwt>
<totfact> 0.81778520E+03</totfact>
</mgrwt>
</event>
<event>
 6    1  0.5818426E-006  0.1476328E+03  0.7546771E-02  0.1212596E+00
         -2   -1    0    0    0  501 -0.00000000000E+00  0.00000000000E+00  0.10900796634E+03  0.10900796634E+03  0.00000000000E+00 0.  1.
          2   -1    0    0  501    0  0.00000000000E+00 -0.00000000000E+00 -0.32290763364E+03  0.32290763364E+03  0.00000000000E+00 0. -1.
          5    1    1    2  502    0 -0.60244964636E+02 -0.36611744464E+02  0.26935416876E+02  0.75614034934E+02  0.47000000000E+01 0.  1.
         -5    1    1    2    0  502  0.63272436818E+02 -0.41877261517E+02  0.10980683762E+02  0.76809971416E+02  0.47000000000E+01 0.  1.
        -11    1    1    2    0    0  0.39373229557E+02  0.60414349906E+02 -0.18269827715E+03  0.19641488069E+03  0.00000000000E+00 0.  1.
         11    1    1    2    0    0 -0.42400701739E+02  0.18074656075E+02 -0.69117490785E+02  0.83076712938E+02  0.00000000000E+00 0. -1.
<mgrwt>
<rscale>  0 0.14054583E+03</rscale>
<asrwt>0</asrwt>
<pdfrwt beam="2">  1        2 0.49678097E-01 0.14763281E+03</pdfrwt>
<pdfrwt beam="1">  1       -2 0.16770457E-01 0.14763281E+03</pdfrwt>
<totfact> 0.27911443E+03</totfact>
</mgrwt>
</event>
<event>
 6    1  0.5818426E-006  0.1644579E+03  0.7546771E-02  0.1193866E+00
          1   -1    0    0  501    0  0.00000000000E+00  0.00000000000E+00  0.13821395268E+03  0.13821395268E+03  0.00000000000E+00 0. -1.
         -1   -1    0    0    0  501 -0.00000000000E+00 -0.00000000000E+00 -0.16076234610E+03  0.16076234610E+03  0.00000000000E+00 0.  1.
          5    1    1    2  502    0 -0.84955039145E+02  0.13805682874E+02  0.33754122430E+02  0.92570979993E+02  0.47000000000E+01 0.  1.
         -5    1    1    2    0  502 -0.20377329342E+02 -0.31794147302E+02 -0.64273874360E+02  0.74694874516E+02  0.47000000000E+01 0.  1.
        -11    1    1    2    0    0 -0.65840654164E+01  0.15943309694E+02 -0.73151492579E+01  0.18736340359E+02  0.00000000000E+00 0. -1.
         11    1    1    2    0    0  0.11191643390E+03  0.20451547336E+01  0.15286507774E+02  0.11297410392E+03  0.00000000000E+00 0.  1.
<mgrwt>
<rscale>  0 0.15550593E+03</rscale>
<asrwt>0</asrwt>
<pdfrwt beam="1">  1        1 0.21263685E-01 0.16445793E+03</pdfrwt>
<pdfrwt beam="2">  1       -1 0.24732668E-01 0.16445793E+03</pdfrwt>
<totfact> 0.32548494E+03</totfact>
</mgrwt>
</event>
<event>
 6    1  0.5818426E-006  0.1324403E+03  0.7546771E-02  0.1233907E+00
         -2   -1    0    0    0  501 -0.00000000000E+00  0.00000000000E+00  0.53538498451E+02  0.53538498451E+02  0.00000000000E+00 0.  1.
          2   -1    0    0  501    0  0.00000000000E+00 -0.00000000000E+00 -0.28159411640E+03  0.28159411640E+03  0.00000000000E+00 0. -1.
          5    1    1    2  502    0 -0.60971368732E+02 -0.28666114785E+02 -0.78404068225E+02  0.10348208471E+03  0.47000000000E+01 0.  1.
         -5    1    1    2    0  502  0.53400143003E+02 -0.14444374411E+02 -0.11799116204E+02  0.56758473976E+02  0.47000000000E+01 0.  1.
        -11    1    1    2    0    0 -0.27612560089E+02  0.61198287141E+02 -0.97514055938E+02  0.11839203913E+03  0.00000000000E+00 0. -1.
         11    1    1    2    0    0  0.35183785818E+02 -0.18087797945E+02 -0.40338377577E+02  0.56500017031E+02  0.00000000000E+00 0.  1.
<mgrwt>
<rscale>  0 0.12574683E+03</rscale>
<asrwt>0</asrwt>
<pdfrwt beam="2">  1        2 0.43322171E-01 0.13244026E+03</pdfrwt>
<pdfrwt beam="1">  1       -2 0.82366922E-02 0.13244026E+03</pdfrwt>
<totfact> 0.99855879E+03</totfact>
</mgrwt>
</event>
<event>
 6    1  0.5818426E-006  0.2518147E+03  0.7546771E-02  0.1112163E+00
         -1   -1    0    0    0  501 -0.00000000000E+00  0.00000000000E+00  0.51959886005E+02  0.51959886005E+02  0.00000000000E+00 0.  1.
          1   -1    0    0  501    0  0.00000000000E+00 -0.00000000000E+00 -0.30509425581E+03  0.30509425581E+03  0.00000000000E+00 0. -1.
          5    1    1    2  502    0 -0.56395041407E+01 -0.76701211627E+01  0.34363500210E+02  0.35966302455E+02  0.47000000000E+01 0.  1.
         -5    1    1    2    0  502 -0.49005724532E+01  0.46256993097E+02 -0.10083164400E+03  0.11114331043E+03  0.47000000000E+01 0.  1.
        -11    1    1    2    0    0 -0.80915770105E+01 -0.11499580324E+02  0.54167421450E+01  0.15068346346E+02  0.00000000000E+00 0.  1.
         11    1    1    2    0    0  0.18631653604E+02 -0.27087291610E+02 -0.19208296816E+03  0.19487618259E+03  0.00000000000E+00 0. -1.
<mgrwt>
<rscale>  0 0.25181472E+03</rscale>
<asrwt>0</asrwt>
<pdfrwt beam="2">  1        1 0.46937578E-01 0.25181472E+03</pdfrwt>
<pdfrwt beam="1">  1       -1 0.79938286E-02 0.25181472E+03</pdfrwt>
<totfact> 0.73043766E+03</totfact>
</mgrwt>
</event>
<event>
 6    1  0.5818426E-006  0.1280770E+03  0.7546771E-02  0.1242620E+00
          1   -1    0    0  501    0  0.00000000000E+00  0.00000000000E+00  0.28586158081E+03  0.28586158081E+03  0.00000000000E+00 0. -1.
         -1   -1    0    0    0  501 -0.00000000000E+00 -0.00000000000E+00 -0.47038473007E+02  0.47038473007E+02  0.00000000000E+00 0.  1.
          5    1    1    2  502    0  0.67028713924E+02  0.16434620874E+02  0.40268685296E+02  0.80041253545E+02  0.47000000000E+01 0. -1.
         -5    1    1    2    0  502 -0.45027931788E+02 -0.33662244391E+02  0.62269338415E+02  0.84025126273E+02  0.47000000000E+01 0. -1.
        -11    1    1    2    0    0 -0.35258802416E+02 -0.18835791847E+02  0.12108533828E+03  0.12751325166E+03  0.00000000000E+00 0. -1.
         11    1    1    2    0    0  0.13258020279E+02  0.36063415364E+02  0.15199745809E+02  0.41320422337E+02  0.00000000000E+00 0.  1.
<mgrwt>
<rscale>  0 0.12028975E+03</rscale>
<asrwt>0</asrwt>
<pdfrwt beam="1">  1        1 0.43978704E-01 0.12807705E+03</pdfrwt>
<pdfrwt beam="2">  1       -1 0.72366883E-02 0.12807705E+03</pdfrwt>
<totfact> 0.88273206E+03</totfact>
</mgrwt>
</event>
<event>
 6    1  0.5818426E-006  0.2792348E+03  0.7546771E-02  0.1131074E+00
         -2   -1    0    0    0  501 -0.00000000000E+00  0.00000000000E+00  0.63412176573E+02  0.63412176573E+02  0.00000000000E+00 0.  1.
          2   -1    0    0  501    0  0.00000000000E+00 -0.00000000000E+00 -0.74753385070E+03  0.74753385070E+03  0.00000000000E+00 0. -1.
          5    1    1    2  502    0 -0.27676307282E+02 -0.63190909952E+01 -0.34441687413E+03  0.34561681394E+03  0.47000000000E+01 0. -1.
         -5    1    1    2    0  502 -0.42004085358E+02 -0.17685176843E+02  0.44706930601E+02  0.64014906940E+02  0.47000000000E+01 0.  1.
        -11    1    1    2    0    0  0.14702691313E+02  0.51148323468E+02 -0.15661650288E+03  0.16541175623E+03  0.00000000000E+00 0. -1.
         11    1    1    2    0    0  0.54977701328E+02 -0.27144055630E+02 -0.22779522772E+03  0.23590255016E+03  0.00000000000E+00 0.  1.
<mgrwt>
<rscale>  0 0.22381037E+03</rscale>
<asrwt>0</asrwt>
<pdfrwt beam="2">  1        2 0.11500521E+00 0.27923484E+03</pdfrwt>
<pdfrwt beam="1">  1       -2 0.97557192E-02 0.27923484E+03</pdfrwt>
<totfact> 0.26649374E+03</totfact>
</mgrwt>
</event>
<event>
 6    1  0.5818426E-006  0.3102813E+03  0.7546771E-02  0.1080211E+00
          1   -1    0    0  501    0  0.00000000000E+00  0.00000000000E+00  0.54625282861E+03  0.54625282861E+03  0.00000000000E+00 0. -1.
         -1   -1    0    0    0  501 -0.00000000000E+00 -0.00000000000E+00 -0.44061328204E+02  0.44061328204E+02  0.00000000000E+00 0.  1.
          5    1    1    2  502    0 -0.17082901035E+02  0.10176155212E+02 -0.66877829192E+01  0.21498746080E+02  0.47000000000E+01 0.  1.
         -5    1    1    2    0  502  0.84164069910E+02  0.71989627863E+02  0.23222123711E+03  0.25732254108E+03  0.47000000000E+01 0.  1.
        -11    1    1    2    0    0  0.59656429958E+01 -0.42912624778E+02  0.34051287208E+02  0.55105103413E+02  0.00000000000E+00 0.  1.
         11    1    1    2    0    0 -0.73046811871E+02 -0.39253158297E+02  0.24260675900E+03  0.25638776623E+03  0.00000000000E+00 0. -1.
<mgrwt>
<rscale>  0 0.31028133E+03</rscale>
<asrwt>0</asrwt>
<pdfrwt beam="1">  1        1 0.84038892E-01 0.31028133E+03</pdfrwt>
<pdfrwt beam="2">  1       -1 0.67786663E-02 0.31028133E+03</pdfrwt>
<totfact> 0.44458748E+03</totfact>
</mgrwt>
</event>
<event>
 6    1  0.5818426E-006  0.1362865E+03  0.7546771E-02  0.1230055E+00
         -1   -1    0    0    0  501 -0.00000000000E+00  0.00000000000E+00  0.58131986284E+02  0.58131986284E+02  0.00000000000E+00 0.  1.
          1   -1    0    0  501    0  0.00000000000E+00 -0.00000000000E+00 -0.26892940636E+03  0.26892940636E+03  0.00000000000E+00 0. -1.
          5    1    1    2  502    0 -0.38299929527E+02  0.33382996121E+02 -0.23562557526E+02  0.56201362519E+02  0.47000000000E+01 0. -1.
         -5    1    1    2    0  502  0.30661683673E+02 -0.78900853201E+02 -0.56091526680E+02  0.10165546147E+03  0.47000000000E+01 0.  1.
        -11    1    1    2    0    0  0.41930017554E+02 -0.80255775411E+01 -0.61931360653E+02  0.75219875693E+02  0.00000000000E+00 0.  1.
         11    1    1    2    0    0 -0.34291771700E+02  0.53543434621E+02 -0.69211975215E+02  0.93984692958E+02  0.00000000000E+00 0. -1.
<mgrwt>
<rscale>  0 0.12826348E+03</rscale>
<asrwt>0</asrwt>
<pdfrwt beam="2">  1        1 0.41373754E-01 0.13628648E+03</pdfrwt>
<pdfrwt beam="1">  1       -1 0.89433828E-02 0.13628648E+03</pdfrwt>
<totfact> 0.69469777E+03</totfact>
</mgrwt>
</event>
<event>
 6    1  0.5818426E-006  0.1253424E+03  0.7546771E-02  0.1256363E+00
         -1   -1    0    0    0  501 -0.00000000000E+00  0.00000000000E+00  0.11011236672E+04  0.11011236672E+04  0.00000000000E+00 0.  1.
          1   -1    0    0  501    0  0.00000000000E+00 -0.00000000000E+00 -0.15205041696E+02  0.15205041696E+02  0.00000000000E+00 0. -1.
          5    1    1    2  502    0 -0.20195115757E+02  0.21858664242E+02  0.90553795474E+03  0.90603902861E+03  0.47000000000E+01 0.  1.
         -5    1    1    2    0  502  0.11368927988E+02 -0.24382042312E+02  0.44357447907E+02  0.52090399267E+02  0.47000000000E+01 0.  1.
        -11    1    1    2    0    0 -0.21100741294E+02  0.76069273209E+01  0.40660604376E+01  0.22795602074E+02  0.00000000000E+00 0. -1.
         11    1    1    2    0    0  0.29926929062E+02 -0.50835492505E+01  0.13195716243E+03  0.13540367894E+03  0.00000000000E+00 0.  1.
<mgrwt>
<rscale>  0 0.11230358E+03</rscale>
<asrwt>0</asrwt>
<pdfrwt beam="2">  1        1 0.23392380E-02 0.12534243E+03</pdfrwt>
<pdfrwt beam="1">  1       -1 0.16940358E+00 0.12534243E+03</pdfrwt>
<totfact> 0.12821872E+03</totfact>
</mgrwt>
</event>
<event>
 6    1  0.5818426E-006  0.1279233E+03  0.7546771E-02  0.1236238E+00
         -1   -1    0    0    0  501 -0.00000000000E+00  0.00000000000E+00  0.12936873969E+03  0.12936873969E+03  0.00000000000E+00 0.  1.
          1   -1    0    0  501    0  0.00000000000E+00 -0.00000000000E+00 -0.14966636388E+03  0.14966636388E+03  0.00000000000E+00 0. -1.
          5    1    1    2  502    0  0.52449274767E+02 -0.31952102491E+01 -0.20482491870E+02  0.56592917095E+02  0.47000000000E+01 0. -1.
         -5    1    1    2    0  502  0.23798063173E+01  0.28486939525E+02  0.78875847347E+02  0.84027724569E+02  0.47000000000E+01 0.  1.
        -11    1    1    2    0    0  0.98607450747E+01  0.11526962786E+02  0.13235365977E+02  0.20131569165E+02  0.00000000000E+00 0.  1.
         11    1    1    2    0    0 -0.64689826159E+02 -0.36818692062E+02 -0.91926345639E+02  0.11828289275E+03  0.00000000000E+00 0. -1.
<mgrwt>
<rscale>  0 0.12425513E+03</rscale>
<asrwt>0</asrwt>
<pdfrwt beam="2">  1        1 0.23025594E-01 0.12792334E+03</pdfrwt>
<pdfrwt beam="1">  1       -1 0.19902883E-01 0.12792334E+03</pdfrwt>
<totfact> 0.41336504E+03</totfact>
</mgrwt>
</event>
<event>
 6    1  0.5818426E-006  0.1269269E+03  0.7546771E-02  0.1247465E+00
          2   -1    0    0  501    0  0.00000000000E+00  0.00000000000E+00  0.27391907917E+02  0.27391907917E+02  0.00000000000E+00 0. -1.
         -2   -1    0    0    0  501 -0.00000000000E+00 -0.00000000000E+00 -0.55712332631E+03  0.55712332631E+03  0.00000000000E+00 0.  1.
          5    1    1    2  502    0 -0.70602915941E+02 -0.26903130831E+01 -0.17631759916E+03  0.19000525071E+03  0.47000000000E+01 0. -1.
         -5    1    1    2    0  502  0.48585223670E+02  0.23970260777E+01 -0.25323263913E+03  0.25790527178E+03  0.47000000000E+01 0. -1.
        -11    1    1    2    0    0 -0.17548835307E+02 -0.72410012709E+01  0.84256618568E+01  0.20769821804E+02  0.00000000000E+00 0. -1.
         11    1    1    2    0    0  0.39566527577E+02  0.75342882763E+01 -0.10860684196E+03  0.11583488993E+03  0.00000000000E+00 0.  1.
<mgrwt>
<rscale>  0 0.11739035E+03</rscale>
<asrwt>0</asrwt>
<pdfrwt beam="1">  1        2 0.42141401E-02 0.12692686E+03</pdfrwt>
<pdfrwt beam="2">  1       -2 0.85711272E-01 0.12692686E+03</pdfrwt>
<totfact> 0.23015379E+03</totfact>
</mgrwt>
</event>
<event>
 6    1  0.5818426E-006  0.1281378E+03  0.7546771E-02  0.1231122E+00
         -2   -1    0    0    0  501 -0.00000000000E+00  0.00000000000E+00  0.17785866643E+02  0.17785866643E+02  0.00000000000E+00 0.  1.
          2   -1    0    0  501    0  0.00000000000E+00 -0.00000000000E+00 -0.92548536339E+03  0.92548536339E+03  0.00000000000E+00 0. -1.
          5    1    1    2  502    0 -0.41973952279E+02 -0.21912585809E+02 -0.27264560406E+03  0.27676648912E+03  0.47000000000E+01 0. -1.
         -5    1    1    2    0  502  0.60745089749E+02  0.86002027288E+01 -0.10998581642E+03  0.12602737492E+03  0.47000000000E+01 0.  1.
        -11    1    1    2    0    0  0.50517513324E+02 -0.13881974569E+02 -0.17981400497E+03  0.18729069586E+03  0.00000000000E+00 0.  1.
         11    1    1    2    0    0 -0.69288650793E+02  0.27194357649E+02 -0.34525407129E+03  0.35318667013E+03  0.00000000000E+00 0. -1.
<mgrwt>
<rscale>  0 0.12755984E+03</rscale>
<asrwt>0</asrwt>
<pdfrwt beam="2">  1        2 0.14238233E+00 0.12813781E+03</pdfrwt>
<pdfrwt beam="1">  1       -2 0.27362878E-02 0.12813781E+03</pdfrwt>
<totfact> 0.13560078E+04</totfact>
</mgrwt>
</event>
<event>
 6    1  0.5818426E-006  0.1759780E+03  0.7546771E-02  0.1176578E+00
         -2   -1    0    0    0  501 -0.00000000000E+00  0.00000000000E+00  0.63105886975E+02  0.63105886975E+02  0.00000000000E+00 0.  1.
          2   -1    0    0  501    0  0.00000000000E+00 -0.00000000000E+00 -0.53330548252E+03  0.53330548252E+03  0.00000000000E+00 0. -1.
          5    1    1    2  502    0  0.28917273596E+02 -0.62269478478E+02  0.11332917263E+02  0.69743972326E+02  0.47000000000E+01 0.  1.
         -5    1    1    2    0  502  0.26507918557E+02 -0.48512969757E+02 -0.13325263949E+03  0.14434172617E+03  0.47000000000E+01 0.  1.
        -11    1    1    2    0    0 -0.23882178435E+02  0.76609192368E+02 -0.92957049170E+02  0.12280203497E+03  0.00000000000E+00 0.  1.
         11    1    1    2    0    0 -0.31543013718E+02  0.34173255868E+02 -0.25532282414E+03  0.25952363603E+03  0.00000000000E+00 0. -1.
<mgrwt>
<rscale>  0 0.17122302E+03</rscale>
<asrwt>0</asrwt>
<pdfrwt beam="2">  1        2 0.82047002E-01 0.17597803E+03</pdfrwt>
<pdfrwt beam="1">  1       -2 0.97085975E-02 0.17597803E+03</pdfrwt>
<totfact> 0.39449898E+03</totfact>
</mgrwt>
</event>
<event>
 6    1  0.5818426E-006  0.2305763E+03  0.7546771E-02  0.1128636E+00
          2   -1    0    0  501    0  0.00000000000E+00  0.00000000000E+00  0.14192618815E+04  0.14192618815E+04  0.00000000000E+00 0. -1.
         -2   -1    0    0    0  501 -0.00000000000E+00 -0.00000000000E+00 -0.39086387373E+02  0.39086387373E+02  0.00000000000E+00 0.  1.
          5    1    1    2  502    0 -0.94646356510E+01  0.75245292315E+02  0.26539735470E+03  0.27606028186E+03  0.47000000000E+01 0. -1.
         -5    1    1    2    0  502 -0.11944244512E+03  0.74257298128E+02  0.21738129402E+03  0.25895436086E+03  0.47000000000E+01 0.  1.
        -11    1    1    2    0    0 -0.12721904443E+02 -0.48046213498E+01  0.36609975667E+02  0.39054085028E+02  0.00000000000E+00 0.  1.
         11    1    1    2    0    0  0.14162898521E+03 -0.14469796909E+03  0.86078686973E+03  0.88427954111E+03  0.00000000000E+00 0. -1.
<mgrwt>
<rscale>  0 0.22718584E+03</rscale>
<asrwt>0</asrwt>
<pdfrwt beam="1">  1        2 0.21834794E+00 0.23057633E+03</pdfrwt>
<pdfrwt beam="2">  1       -2 0.60132914E-02 0.23057633E+03</pdfrwt>
<totfact> 0.22258098E+03</totfact>
</mgrwt>
</event>
<event>
 6    1  0.5818426E-006  0.1411447E+03  0.7546771E-02  0.1222038E+00
         -1   -1    0    0    0  501 -0.00000000000E+00  0.00000000000E+00  0.73337640547E+02  0.73337640547E+02  0.00000000000E+00 0.  1.
          1   -1    0    0  501    0  0.00000000000E+00 -0.00000000000E+00 -0.31588441847E+03  0.31588441847E+03  0.00000000000E+00 0. -1.
          5    1    1    2  502    0  0.31636097993E+02  0.48069406762E+02  0.25417863408E+01  0.57793262933E+02  0.47000000000E+01 0. -1.
         -5    1    1    2    0  502  0.27616236329E+02 -0.76089122188E+02 -0.26969253918E+02  0.85449644126E+02  0.47000000000E+01 0. -1.
        -11    1    1    2    0    0 -0.36600864978E+02 -0.27848162240E+01 -0.20058188429E+03  0.20391290009E+03  0.00000000000E+00 0. -1.
         11    1    1    2    0    0 -0.22651469345E+02  0.30804531650E+02 -0.17537426062E+02  0.42066251872E+02  0.00000000000E+00 0.  1.
<mgrwt>
<rscale>  0 0.13372021E+03</rscale>
<asrwt>0</asrwt>
<pdfrwt beam="2">  1        1 0.48597603E-01 0.14114471E+03</pdfrwt>
<pdfrwt beam="1">  1       -1 0.11282714E-01 0.14114471E+03</pdfrwt>
<totfact> 0.39994319E+03</totfact>
</mgrwt>
</event>
<event>
 6    1  0.5818426E-006  0.3765134E+03  0.7546771E-02  0.1052230E+00
         -2   -1    0    0    0  501 -0.00000000000E+00  0.00000000000E+00  0.18517600449E+03  0.18517600449E+03  0.00000000000E+00 0.  1.
          2   -1    0    0  501    0  0.00000000000E+00 -0.00000000000E+00 -0.19138862849E+03  0.19138862849E+03  0.00000000000E+00 0. -1.
          5    1    1    2  502    0 -0.45924253086E+01 -0.23701769480E+02 -0.25946170841E+02  0.35751336032E+02  0.47000000000E+01 0.  1.
         -5    1    1    2    0  502 -0.14230988089E+03  0.40453211438E+02  0.65475220335E+02  0.16185690900E+03  0.47000000000E+01 0.  1.
        -11    1    1    2    0    0  0.94225160564E+02 -0.38240241034E+02  0.62571842815E+01  0.10188154530E+03  0.00000000000E+00 0. -1.
         11    1    1    2    0    0  0.52677145633E+02  0.21488799077E+02 -0.51998857784E+02  0.77074842645E+02  0.00000000000E+00 0.  1.
<mgrwt>
<rscale>  0 0.37651338E+03</rscale>
<asrwt>0</asrwt>
<pdfrwt beam="2">  1        2 0.29444404E-01 0.37651338E+03</pdfrwt>
<pdfrwt beam="1">  1       -2 0.28488616E-01 0.37651338E+03</pdfrwt>
<totfact> 0.20242716E+03</totfact>
</mgrwt>
</event>
<event>
 6    1  0.5818426E-006  0.2983003E+03  0.7546771E-02  0.1086093E+00
         -1   -1    0    0    0  501 -0.00000000000E+00  0.00000000000E+00  0.63421367204E+02  0.63421367204E+02  0.00000000000E+00 0.  1.
          1   -1    0    0  501    0  0.00000000000E+00 -0.00000000000E+00 -0.35076148772E+03  0.35076148772E+03  0.00000000000E+00 0. -1.
          5    1    1    2  502    0 -0.57260774282E+01  0.33660937313E+02 -0.44904640110E+01  0.34757746338E+02  0.47000000000E+01 0. -1.
         -5    1    1    2    0  502  0.93409569178E+02 -0.73794432859E+02 -0.13083821174E+03  0.17695110507E+03  0.47000000000E+01 0.  1.
        -11    1    1    2    0    0 -0.47909605971E+02 -0.61455584218E+01 -0.12041429259E+02  0.49780460536E+02  0.00000000000E+00 0.  1.
         11    1    1    2    0    0 -0.39773885779E+02  0.46279053968E+02 -0.13997001551E+03  0.15269354298E+03  0.00000000000E+00 0. -1.
<mgrwt>
<rscale>  0 0.29830034E+03</rscale>
<asrwt>0</asrwt>
<pdfrwt beam="2">  1        1 0.53963306E-01 0.29830034E+03</pdfrwt>
<pdfrwt beam="1">  1       -1 0.97571334E-02 0.29830034E+03</pdfrwt>
<totfact> 0.45346913E+03</totfact>
</mgrwt>
</event>
<event>
 6    1  0.5818426E-006  0.2307298E+03  0.7546771E-02  0.1128972E+00
         -2   -1    0    0    0  501 -0.00000000000E+00  0.00000000000E+00  0.12748715842E+03  0.12748715842E+03  0.00000000000E+00 0.  1.
          2   -1    0    0  501    0  0.00000000000E+00 -0.00000000000E+00 -0.42216425565E+03  0.42216425565E+03  0.00000000000E+00 0. -1.
          5    1    1    2  502    0  0.12262625330E+03 -0.70307828459E+02  0.87737975896E+01  0.14170200515E+03  0.47000000000E+01 0. -1.
         -5    1    1    2    0  502  0.54361252322E+02 -0.89954982237E+01 -0.84785194152E+02  0.10122590523E+03  0.47000000000E+01 0. -1.
        -11    1    1    2    0    0 -0.39335208238E+02  0.68997889071E+01 -0.10990547348E+03  0.11693621678E+03  0.00000000000E+00 0. -1.
         11    1    1    2    0    0 -0.13765229738E+03  0.72403537776E+02 -0.10876022719E+03  0.18978728691E+03  0.00000000000E+00 0.  1.
<mgrwt>
<rscale>  0 0.22671689E+03</rscale>
<asrwt>0</asrwt>
<pdfrwt beam="2">  1        2 0.64948347E-01 0.23072979E+03</pdfrwt>
<pdfrwt beam="1">  1       -2 0.19613409E-01 0.23072979E+03</pdfrwt>
<totfact> 0.16289346E+03</totfact>
</mgrwt>
</event>
<event>
 6    1  0.5818426E-006  0.1426891E+03  0.7546771E-02  0.1219742E+00
         -1   -1    0    0    0  501 -0.00000000000E+00  0.00000000000E+00  0.32709315325E+02  0.32709315325E+02  0.00000000000E+00 0.  1.
          1   -1    0    0  501    0  0.00000000000E+00 -0.00000000000E+00 -0.50948247819E+03  0.50948247819E+03  0.00000000000E+00 0. -1.
          5    1    1    2  502    0  0.63063923478E+02  0.82912980302E+01 -0.83501880289E+02  0.10507358412E+03  0.47000000000E+01 0. -1.
         -5    1    1    2    0  502 -0.45718411923E+02  0.58291149328E+02 -0.17726831181E+03  0.19218266220E+03  0.47000000000E+01 0. -1.
        -11    1    1    2    0    0 -0.36192745196E+02 -0.74186006826E+02 -0.11294612170E+03  0.13989390559E+03  0.00000000000E+00 0.  1.
         11    1    1    2    0    0  0.18847233642E+02  0.76035594683E+01 -0.10305684906E+03  0.10504164160E+03  0.00000000000E+00 0. -1.
<mgrwt>
<rscale>  0 0.13533867E+03</rscale>
<asrwt>0</asrwt>
<pdfrwt beam="2">  1        1 0.78381920E-01 0.14268911E+03</pdfrwt>
<pdfrwt beam="1">  1       -1 0.50322023E-02 0.14268911E+03</pdfrwt>
<totfact> 0.73725007E+03</totfact>
</mgrwt>
</event>
<event>
 6    1  0.1169803E-005  0.2804833E+03  0.7546771E-02  0.1097280E+00
         -1   -1    0    0    0  501 -0.00000000000E+00  0.00000000000E+00  0.56940210999E+02  0.56940210999E+02  0.00000000000E+00 0.  1.
          1   -1    0    0  501    0  0.00000000000E+00 -0.00000000000E+00 -0.13193789087E+04  0.13193789087E+04  0.00000000000E+00 0. -1.
          5    1    1    2  502    0 -0.36678604627E+02 -0.12297932554E+03 -0.29086472194E+03  0.31795221499E+03  0.47000000000E+01 0. -1.
         -5    1    1    2    0  502 -0.14233693293E+03 -0.53084190854E+02 -0.32675235781E+03  0.36037054143E+03  0.47000000000E+01 0. -1.
        -11    1    1    2    0    0  0.33581955880E+02  0.92250070765E+02 -0.27042754214E+03  0.28769580961E+03  0.00000000000E+00 0.  1.
         11    1    1    2    0    0  0.14543358168E+03  0.83813445628E+02 -0.37439407585E+03  0.41030055371E+03  0.00000000000E+00 0. -1.
<mgrwt>
<rscale>  0 0.27710581E+03</rscale>
<asrwt>0</asrwt>
<pdfrwt beam="2">  1        1 0.20298136E+00 0.28048334E+03</pdfrwt>
<pdfrwt beam="1">  1       -1 0.87600327E-02 0.28048334E+03</pdfrwt>
<totfact> 0.70932819E+02</totfact>
</mgrwt>
</event>
<event>
 6    1  0.5818426E-006  0.1431729E+03  0.7546771E-02  0.1219639E+00
         -1   -1    0    0    0  501 -0.00000000000E+00  0.00000000000E+00  0.26331381537E+02  0.26331381537E+02  0.00000000000E+00 0.  1.
          1   -1    0    0  501    0  0.00000000000E+00 -0.00000000000E+00 -0.63210483763E+03  0.63210483763E+03  0.00000000000E+00 0. -1.
          5    1    1    2  502    0 -0.10946800270E+02  0.54579819214E+02 -0.17751533353E+03  0.18609828785E+03  0.47000000000E+01 0. -1.
         -5    1    1    2    0  502 -0.58682616687E+02 -0.57428446280E+02 -0.14347772202E+03  0.16537721324E+03  0.47000000000E+01 0. -1.
        -11    1    1    2    0    0  0.20921838760E+02 -0.22575625560E+02 -0.20387682131E+02  0.36919368754E+02  0.00000000000E+00 0.  1.
         11    1    1    2    0    0  0.48707578197E+02  0.25424252626E+02 -0.26439271841E+03  0.27004134933E+03  0.00000000000E+00 0. -1.
<mgrwt>
<rscale>  0 0.13541230E+03</rscale>
<asrwt>0</asrwt>
<pdfrwt beam="2">  1        1 0.97246901E-01 0.14317292E+03</pdfrwt>
<pdfrwt beam="1">  1       -1 0.40509817E-02 0.14317292E+03</pdfrwt>
<totfact> 0.75989154E+03</totfact>
</mgrwt>
</event>
<event>
 6    1  0.5818426E-006  0.2753997E+03  0.7546771E-02  0.1098228E+00
         -3   -1    0    0    0  501 -0.00000000000E+00  0.00000000000E+00  0.21230472082E+03  0.21230472082E+03  0.00000000000E+00 0.  1.
          3   -1    0    0  501    0  0.00000000000E+00 -0.00000000000E+00 -0.89311488394E+02  0.89311488394E+02  0.00000000000E+00 0. -1.
          5    1    1    2  502    0  0.48961908324E+02  0.82129075209E+02  0.12095500345E+03  0.15425516627E+03  0.47000000000E+01 0. -1.
         -5    1    1    2    0  502  0.62195648680E+00 -0.26314900466E+02 -0.10241761659E+02  0.28632926820E+02  0.47000000000E+01 0. -1.
        -11    1    1    2    0    0 -0.55225530883E+02  0.38157106682E+01  0.18836391591E+02  0.58474170002E+02  0.00000000000E+00 0.  1.
         11    1    1    2    0    0  0.56416660715E+01 -0.59629885411E+02 -0.65564009531E+01  0.60253946125E+02  0.00000000000E+00 0. -1.
<mgrwt>
<rscale>  0 0.27539971E+03</rscale>
<asrwt>0</asrwt>
<pdfrwt beam="2">  1        3 0.13740229E-01 0.27539971E+03</pdfrwt>
<pdfrwt beam="1">  1       -3 0.32662265E-01 0.27539971E+03</pdfrwt>
<totfact> 0.10046869E+03</totfact>
</mgrwt>
</event>
<event>
 6    1  0.5818426E-006  0.1868850E+03  0.7546771E-02  0.1231394E+00
         -2   -1    0    0    0  501 -0.00000000000E+00  0.00000000000E+00  0.62365719831E+02  0.62365719831E+02  0.00000000000E+00 0.  1.
          2   -1    0    0  501    0  0.00000000000E+00 -0.00000000000E+00 -0.20739837063E+03  0.20739837063E+03  0.00000000000E+00 0. -1.
          5    1    1    2  502    0 -0.56185896389E+02  0.14215493026E+02 -0.14825436170E+03  0.15924943001E+03  0.47000000000E+01 0. -1.
         -5    1    1    2    0  502  0.49235541715E+02 -0.40831893228E+00  0.33792264602E+02  0.59902524481E+02  0.47000000000E+01 0.  1.
        -11    1    1    2    0    0 -0.39917766711E+01 -0.24151764498E+02 -0.13911139912E+02  0.28156026407E+02  0.00000000000E+00 0. -1.
         11    1    1    2    0    0  0.10942131345E+02  0.10344590404E+02 -0.16659413788E+02  0.22456109564E+02  0.00000000000E+00 0.  1.
<mgrwt>
<rscale>  0 0.12738118E+03</rscale>
<asrwt>0</asrwt>
<pdfrwt beam="2">  1        2 0.31907442E-01 0.18688501E+03</pdfrwt>
<pdfrwt beam="1">  1       -2 0.95947262E-02 0.18688501E+03</pdfrwt>
<totfact> 0.11202662E+04</totfact>
</mgrwt>
</event>
<event>
 6    1  0.5818426E-006  0.1200772E+03  0.7546771E-02  0.1255141E+00
         -2   -1    0    0    0  501 -0.00000000000E+00  0.00000000000E+00  0.27012098804E+02  0.27012098804E+02  0.00000000000E+00 0.  1.
          2   -1    0    0  501    0  0.00000000000E+00 -0.00000000000E+00 -0.48142382476E+03  0.48142382476E+03  0.00000000000E+00 0. -1.
          5    1    1    2  502    0  0.33145605459E+02  0.38706391930E+01 -0.15352745382E+03  0.15718263927E+03  0.47000000000E+01 0. -1.
         -5    1    1    2    0  502 -0.36948378298E+02 -0.25805949724E+02 -0.11220421877E+02  0.46681019345E+02  0.47000000000E+01 0.  1.
        -11    1    1    2    0    0  0.27957870509E+02  0.49457955288E+02 -0.19366208884E+03  0.20182352816E+03  0.00000000000E+00 0. -1.
         11    1    1    2    0    0 -0.24155097671E+02 -0.27522644756E+02 -0.96001761411E+02  0.10274873679E+03  0.00000000000E+00 0.  1.
<mgrwt>
<rscale>  0 0.11298458E+03</rscale>
<asrwt>0</asrwt>
<pdfrwt beam="2">  1        2 0.74065198E-01 0.12007718E+03</pdfrwt>
<pdfrwt beam="1">  1       -2 0.41557078E-02 0.12007718E+03</pdfrwt>
<totfact> 0.15749131E+04</totfact>
</mgrwt>
</event>
<event>
 6    1  0.5818426E-006  0.1283941E+03  0.7546771E-02  0.1244525E+00
          1   -1    0    0  501    0  0.00000000000E+00  0.00000000000E+00  0.57907394883E+03  0.57907394883E+03  0.00000000000E+00 0. -1.
         -1   -1    0    0    0  501 -0.00000000000E+00 -0.00000000000E+00 -0.22569730623E+02  0.22569730623E+02  0.00000000000E+00 0.  1.
          5    1    1    2  502    0 -0.43114417990E+02  0.60378487093E+02  0.20345456743E+03  0.21661086249E+03  0.47000000000E+01 0. -1.
         -5    1    1    2    0  502  0.22272290556E+02 -0.39749620071E+02  0.52020275468E+02  0.69312958977E+02  0.47000000000E+01 0. -1.
        -11    1    1    2    0    0  0.27153645658E+02  0.31073526910E+02  0.10309887549E+03  0.11105072118E+03  0.00000000000E+00 0.  1.
         11    1    1    2    0    0 -0.63115182233E+01 -0.51702393932E+02  0.19793049981E+03  0.20466913679E+03  0.00000000000E+00 0. -1.
<mgrwt>
<rscale>  0 0.11913841E+03</rscale>
<asrwt>0</asrwt>
<pdfrwt beam="1">  1        1 0.89088289E-01 0.12839407E+03</pdfrwt>
<pdfrwt beam="2">  1       -1 0.34722667E-02 0.12839407E+03</pdfrwt>
<totfact> 0.10659335E+04</totfact>
</mgrwt>
</event>
<event>
 6    1  0.5818426E-006  0.2916645E+03  0.7546771E-02  0.1089483E+00
          1   -1    0    0  501    0  0.00000000000E+00  0.00000000000E+00  0.10858386951E+03  0.10858386951E+03  0.00000000000E+00 0. -1.
         -1   -1    0    0    0  501 -0.00000000000E+00 -0.00000000000E+00 -0.19585817422E+03  0.19585817422E+03  0.00000000000E+00 0.  1.
          5    1    1    2  502    0  0.11071607805E+03  0.48265772529E+02 -0.60676430040E+02  0.13524553190E+03  0.47000000000E+01 0. -1.
         -5    1    1    2    0  502 -0.21116120810E+02 -0.26776229987E+02 -0.17293707511E+02  0.38522971976E+02  0.47000000000E+01 0. -1.
        -11    1    1    2    0    0 -0.45439696408E+02  0.34992246382E+02 -0.13273456307E+02  0.58867715760E+02  0.00000000000E+00 0.  1.
         11    1    1    2    0    0 -0.44160260837E+02 -0.56481788924E+02  0.39692891444E+01  0.71805824092E+02  0.00000000000E+00 0. -1.
<mgrwt>
<rscale>  0 0.29166445E+03</rscale>
<asrwt>0</asrwt>
<pdfrwt beam="1">  1        1 0.16705211E-01 0.29166445E+03</pdfrwt>
<pdfrwt beam="2">  1       -1 0.30132027E-01 0.29166445E+03</pdfrwt>
<totfact> 0.32696097E+03</totfact>
</mgrwt>
</event>
<event>
 6    1  0.5818426E-006  0.1324150E+03  0.7546771E-02  0.1236122E+00
         -4   -1    0    0    0  501 -0.00000000000E+00  0.00000000000E+00  0.68481148890E+02  0.68481148890E+02  0.00000000000E+00 0.  1.
          4   -1    0    0  501    0  0.00000000000E+00 -0.00000000000E+00 -0.20252213188E+03  0.20252213188E+03  0.00000000000E+00 0. -1.
          5    1    1    2  502    0  0.25156464171E+02  0.19427522875E-01 -0.97978112755E+02  0.10126523908E+03  0.47000000000E+01 0. -1.
         -5    1    1    2    0  502 -0.23538569960E+01  0.39038439259E+02  0.28167167321E+02  0.48425403431E+02  0.47000000000E+01 0.  1.
        -11    1    1    2    0    0 -0.56632894734E+01  0.30605296012E+02 -0.17737694551E+02  0.35824332508E+02  0.00000000000E+00 0.  1.
         11    1    1    2    0    0 -0.17139317702E+02 -0.69663162794E+02 -0.46492343001E+02  0.85488305747E+02  0.00000000000E+00 0. -1.
<mgrwt>
<rscale>  0 0.12432865E+03</rscale>
<asrwt>0</asrwt>
<pdfrwt beam="2">  1        4 0.31157251E-01 0.13241496E+03</pdfrwt>
<pdfrwt beam="1">  1       -4 0.10535562E-01 0.13241496E+03</pdfrwt>
<totfact> 0.11273652E+03</totfact>
</mgrwt>
</event>
<event>
 6    1  0.5818426E-006  0.1708942E+03  0.7546771E-02  0.1183583E+00
          1   -1    0    0  501    0  0.00000000000E+00  0.00000000000E+00  0.16734368621E+03  0.16734368621E+03  0.00000000000E+00 0. -1.
         -1   -1    0    0    0  501 -0.00000000000E+00 -0.00000000000E+00 -0.15171338573E+03  0.15171338573E+03  0.00000000000E+00 0.  1.
          5    1    1    2  502    0  0.81095986139E+02 -0.73604358673E+02 -0.22334543533E+02  0.11187082917E+03  0.47000000000E+01 0.  1.
         -5    1    1    2    0  502  0.31874903577E+02  0.44990460313E+02  0.20557520253E+02  0.59032640430E+02  0.47000000000E+01 0.  1.
        -11    1    1    2    0    0 -0.60110649918E+02  0.60586523723E+02  0.95932526541E+01  0.85883919257E+02  0.00000000000E+00 0.  1.
         11    1    1    2    0    0 -0.52860239798E+02 -0.31972625364E+02  0.78140711016E+01  0.62269683084E+02  0.00000000000E+00 0. -1.
<mgrwt>
<rscale>  0 0.16461483E+03</rscale>
<asrwt>0</asrwt>
<pdfrwt beam="1">  1        1 0.25745183E-01 0.17089423E+03</pdfrwt>
<pdfrwt beam="2">  1       -1 0.23340521E-01 0.17089423E+03</pdfrwt>
<totfact> 0.28142434E+03</totfact>
</mgrwt>
</event>
<event>
 6    1  0.5818426E-006  0.1450250E+03  0.7546771E-02  0.1218041E+00
          2   -1    0    0  501    0  0.00000000000E+00  0.00000000000E+00  0.14987670185E+03  0.14987670185E+03  0.00000000000E+00 0. -1.
         -2   -1    0    0    0  501 -0.00000000000E+00 -0.00000000000E+00 -0.11335138644E+03  0.11335138644E+03  0.00000000000E+00 0.  1.
          5    1    1    2  502    0  0.46981703474E+02  0.13556467467E+02  0.19285499142E+02  0.52773845309E+02  0.47000000000E+01 0.  1.
         -5    1    1    2    0  502 -0.72493765101E+02  0.55402162556E+02 -0.13572052744E+02  0.92363608689E+02  0.47000000000E+01 0.  1.
        -11    1    1    2    0    0  0.84493570141E+01 -0.27884592135E+02 -0.30607484920E+02  0.42258256538E+02  0.00000000000E+00 0.  1.
         11    1    1    2    0    0  0.17062704613E+02 -0.41074037888E+02  0.61419353937E+02  0.75832377750E+02  0.00000000000E+00 0. -1.
<mgrwt>
<rscale>  0 0.13655524E+03</rscale>
<asrwt>0</asrwt>
<pdfrwt beam="1">  1        2 0.23057954E-01 0.14502495E+03</pdfrwt>
<pdfrwt beam="2">  1       -2 0.17438675E-01 0.14502495E+03</pdfrwt>
<totfact> 0.59864498E+03</totfact>
</mgrwt>
</event>
<event>
 6    1  0.5818426E-006  0.1304265E+03  0.7546771E-02  0.1240409E+00
          1   -1    0    0  501    0  0.00000000000E+00  0.00000000000E+00  0.22344324069E+03  0.22344324069E+03  0.00000000000E+00 0. -1.
         -1   -1    0    0    0  501 -0.00000000000E+00 -0.00000000000E+00 -0.59689261203E+02  0.59689261203E+02  0.00000000000E+00 0.  1.
          5    1    1    2  502    0  0.29976511425E+02  0.21250604716E+02  0.78985704945E+02  0.87241108565E+02  0.47000000000E+01 0.  1.
         -5    1    1    2    0  502 -0.24624921864E+02 -0.58065204136E+02 -0.37006181644E+01  0.63354078661E+02  0.47000000000E+01 0.  1.
        -11    1    1    2    0    0  0.60962927420E+01 -0.29811269172E+02  0.20606627994E+02  0.36749281246E+02  0.00000000000E+00 0.  1.
         11    1    1    2    0    0 -0.11447882302E+02  0.66625868591E+02  0.67862264708E+02  0.95788033418E+02  0.00000000000E+00 0. -1.
<mgrwt>
<rscale>  0 0.12164404E+03</rscale>
<asrwt>0</asrwt>
<pdfrwt beam="1">  1        1 0.34375883E-01 0.13042648E+03</pdfrwt>
<pdfrwt beam="2">  1       -1 0.91829634E-02 0.13042648E+03</pdfrwt>
<totfact> 0.83660235E+03</totfact>
</mgrwt>
</event>
<event>
 6    1  0.5818426E-006  0.1430249E+03  0.7546771E-02  0.1220303E+00
          1   -1    0    0  501    0  0.00000000000E+00  0.00000000000E+00  0.11760883009E+03  0.11760883009E+03  0.00000000000E+00 0. -1.
         -1   -1    0    0    0  501 -0.00000000000E+00 -0.00000000000E+00 -0.16523742546E+03  0.16523742546E+03  0.00000000000E+00 0.  1.
          5    1    1    2  502    0 -0.69634525850E+02  0.69972882266E+02 -0.40482869382E+02  0.10679945766E+03  0.47000000000E+01 0.  1.
         -5    1    1    2    0  502  0.69698279872E+01 -0.39891620730E+02 -0.40949257522E+02  0.57782796733E+02  0.47000000000E+01 0.  1.
        -11    1    1    2    0    0  0.74500600226E+02 -0.49662418688E+02  0.32822843688E+02  0.95362646418E+02  0.00000000000E+00 0. -1.
         11    1    1    2    0    0 -0.11835902363E+02  0.19581157153E+02  0.98068784768E+00  0.22901354738E+02  0.00000000000E+00 0.  1.
<mgrwt>
<rscale>  0 0.13494134E+03</rscale>
<asrwt>0</asrwt>
<pdfrwt beam="1">  1        1 0.18093666E-01 0.14302492E+03</pdfrwt>
<pdfrwt beam="2">  1       -1 0.25421142E-01 0.14302492E+03</pdfrwt>
<totfact> 0.37958997E+03</totfact>
</mgrwt>
</event>
<event>
 6    1  0.5818426E-006  0.1527559E+03  0.7546771E-02  0.1205658E+00
          2   -1    0    0  501    0  0.00000000000E+00  0.00000000000E+00  0.70534955583E+03  0.70534955583E+03  0.00000000000E+00 0. -1.
         -2   -1    0    0    0  501 -0.00000000000E+00 -0.00000000000E+00 -0.29334219473E+02  0.29334219473E+02  0.00000000000E+00 0.  1.
          5    1    1    2  502    0 -0.10405491424E+03  0.42565843998E+02  0.18481516528E+03  0.21637470178E+03  0.47000000000E+01 0. -1.
         -5    1    1    2    0  502  0.16690820555E+02 -0.33781753827E+02  0.97203497138E+02  0.10435708044E+03  0.47000000000E+01 0. -1.
        -11    1    1    2    0    0  0.74448384534E+02  0.60980934397E+01  0.38519412944E+03  0.39237006264E+03  0.00000000000E+00 0. -1.
         11    1    1    2    0    0  0.12915709153E+02 -0.14882183610E+02  0.88025445072E+01  0.21581930445E+02  0.00000000000E+00 0.  1.
<mgrwt>
<rscale>  0 0.14585748E+03</rscale>
<asrwt>0</asrwt>
<pdfrwt beam="1">  1        2 0.10851530E+00 0.15275585E+03</pdfrwt>
<pdfrwt beam="2">  1       -2 0.45129574E-02 0.15275585E+03</pdfrwt>
<totfact> 0.91881961E+03</totfact>
</mgrwt>
</event>
<event>
 6    1  0.5818426E-006  0.2557716E+03  0.7546771E-02  0.1109711E+00
          1   -1    0    0  501    0  0.00000000000E+00  0.00000000000E+00  0.29696025911E+03  0.29696025911E+03  0.00000000000E+00 0. -1.
         -1   -1    0    0    0  501 -0.00000000000E+00 -0.00000000000E+00 -0.55073949710E+02  0.55073949710E+02  0.00000000000E+00 0.  1.
          5    1    1    2  502    0 -0.88280638366E+02 -0.44154557296E+02  0.74542226068E+02  0.12378097393E+03  0.47000000000E+01 0.  1.
         -5    1    1    2    0  502  0.31852997668E+02  0.20427139179E+01  0.84254658682E+02  0.90220417036E+02  0.47000000000E+01 0.  1.
        -11    1    1    2    0    0  0.46856418669E+02 -0.12148150376E+02  0.62862364636E+02  0.79339639624E+02  0.00000000000E+00 0. -1.
         11    1    1    2    0    0  0.95712220287E+01  0.54259993754E+02  0.20227060010E+02  0.58693178224E+02  0.00000000000E+00 0.  1.
<mgrwt>
<rscale>  0 0.25577157E+03</rscale>
<asrwt>0</asrwt>
<pdfrwt beam="1">  1        1 0.45686193E-01 0.25577157E+03</pdfrwt>
<pdfrwt beam="2">  1       -1 0.84729155E-02 0.25577157E+03</pdfrwt>
<totfact> 0.69179621E+03</totfact>
</mgrwt>
</event>
<event>
 6    1  0.5818426E-006  0.3576118E+03  0.7546771E-02  0.1059534E+00
          2   -1    0    0  501    0  0.00000000000E+00  0.00000000000E+00  0.40109505484E+03  0.40109505484E+03  0.00000000000E+00 0. -1.
         -2   -1    0    0    0  501 -0.00000000000E+00 -0.00000000000E+00 -0.79710637922E+02  0.79710637922E+02  0.00000000000E+00 0.  1.
          5    1    1    2  502    0  0.14447881808E+03 -0.20804296503E+01  0.42405322560E+02  0.15066107143E+03  0.47000000000E+01 0. -1.
         -5    1    1    2    0  502 -0.17103859089E+02 -0.24808188437E+01  0.44325469048E+02  0.47807255351E+02  0.47000000000E+01 0. -1.
        -11    1    1    2    0    0 -0.72393868351E+02  0.47229058148E+02  0.11419958111E+03  0.14322360292E+03  0.00000000000E+00 0. -1.
         11    1    1    2    0    0 -0.54981090644E+02 -0.42667809654E+02  0.12045404421E+03  0.13911376307E+03  0.00000000000E+00 0.  1.
<mgrwt>
<rscale>  0 0.35761176E+03</rscale>
<asrwt>0</asrwt>
<pdfrwt beam="1">  1        2 0.61706930E-01 0.35761176E+03</pdfrwt>
<pdfrwt beam="2">  1       -2 0.12263175E-01 0.35761176E+03</pdfrwt>
<totfact> 0.38136229E+03</totfact>
</mgrwt>
</event>
<event>
 6    1  0.5818426E-006  0.1579700E+03  0.7546771E-02  0.1199018E+00
         -1   -1    0    0    0  501 -0.00000000000E+00  0.00000000000E+00  0.93005464905E+02  0.93005464905E+02  0.00000000000E+00 0.  1.
          1   -1    0    0  501    0  0.00000000000E+00 -0.00000000000E+00 -0.22689337555E+03  0.22689337555E+03  0.00000000000E+00 0. -1.
          5    1    1    2  502    0  0.11726758016E+02 -0.58411159273E+02 -0.80001597764E+02  0.99858530061E+02  0.47000000000E+01 0. -1.
         -5    1    1    2    0  502 -0.70410476204E+02 -0.18315422900E+02  0.87659023754E+01  0.73430381449E+02  0.47000000000E+01 0. -1.
        -11    1    1    2    0    0  0.39519002947E+02  0.91141967556E+02 -0.70002647285E+02  0.12152769425E+03  0.00000000000E+00 0. -1.
         11    1    1    2    0    0  0.19164715241E+02 -0.14415385383E+02  0.73504320305E+01  0.25082234690E+02  0.00000000000E+00 0.  1.
<mgrwt>
<rscale>  0 0.15119063E+03</rscale>
<asrwt>0</asrwt>
<pdfrwt beam="2">  1        1 0.34906673E-01 0.15797001E+03</pdfrwt>
<pdfrwt beam="1">  1       -1 0.14308533E-01 0.15797001E+03</pdfrwt>
<totfact> 0.41937310E+03</totfact>
</mgrwt>
</event>
<event>
 6    1  0.5818426E-006  0.2863336E+03  0.7546771E-02  0.1092279E+00
          3   -1    0    0  501    0  0.00000000000E+00  0.00000000000E+00  0.28641152822E+03  0.28641152822E+03  0.00000000000E+00 0. -1.
         -3   -1    0    0    0  501 -0.00000000000E+00 -0.00000000000E+00 -0.71563911332E+02  0.71563911332E+02  0.00000000000E+00 0.  1.
          5    1    1    2  502    0 -0.32654117237E+01  0.84509257302E+02  0.88455398786E+02  0.12247009863E+03  0.47000000000E+01 0.  1.
         -5    1    1    2    0  502  0.31699508521E+02 -0.79542662139E+01 -0.23329326132E+02  0.40428661235E+02  0.47000000000E+01 0.  1.
        -11    1    1    2    0    0  0.15390299760E+02 -0.55271772107E+02  0.27745701774E+02  0.63731107675E+02  0.00000000000E+00 0.  1.
         11    1    1    2    0    0 -0.43824396558E+02 -0.21283218981E+02  0.12197584246E+03  0.13134557201E+03  0.00000000000E+00 0. -1.
<mgrwt>
<rscale>  0 0.28633358E+03</rscale>
<asrwt>0</asrwt>
<pdfrwt beam="1">  1        3 0.44063312E-01 0.28633358E+03</pdfrwt>
<pdfrwt beam="2">  1       -3 0.11009833E-01 0.28633358E+03</pdfrwt>
<totfact> 0.82418941E+02</totfact>
</mgrwt>
</event>
<event>
 6    1  0.5818426E-006  0.1525614E+03  0.7546771E-02  0.1206046E+00
          1   -1    0    0  501    0  0.00000000000E+00  0.00000000000E+00  0.28245080710E+03  0.28245080710E+03  0.00000000000E+00 0. -1.
         -1   -1    0    0    0  501 -0.00000000000E+00 -0.00000000000E+00 -0.97893006176E+02  0.97893006176E+02  0.00000000000E+00 0.  1.
          5    1    1    2  502    0  0.14392621854E+02  0.76294377569E+02 -0.38471956101E+02  0.86776500383E+02  0.47000000000E+01 0.  1.
         -5    1    1    2    0  502  0.52700625853E+02 -0.20183625965E+02  0.33629534162E+02  0.65861751346E+02  0.47000000000E+01 0.  1.
        -11    1    1    2    0    0 -0.11028253482E+02  0.16910638525E+02  0.38227525447E+01  0.20547639943E+02  0.00000000000E+00 0.  1.
         11    1    1    2    0    0 -0.56064994224E+02 -0.73021390130E+02  0.18557747032E+03  0.20715792160E+03  0.00000000000E+00 0. -1.
<mgrwt>
<rscale>  0 0.14555319E+03</rscale>
<asrwt>0</asrwt>
<pdfrwt beam="1">  1        1 0.43453970E-01 0.15256142E+03</pdfrwt>
<pdfrwt beam="2">  1       -1 0.15060463E-01 0.15256142E+03</pdfrwt>
<totfact> 0.29434069E+03</totfact>
</mgrwt>
</event>
<event>
 6    1  0.5818426E-006  0.1374393E+03  0.7546771E-02  0.1235697E+00
          2   -1    0    0  501    0  0.00000000000E+00  0.00000000000E+00  0.67525802242E+03  0.67525802242E+03  0.00000000000E+00 0. -1.
         -2   -1    0    0    0  501 -0.00000000000E+00 -0.00000000000E+00 -0.25971335401E+02  0.25971335401E+02  0.00000000000E+00 0.  1.
          5    1    1    2  502    0  0.48420603351E+02 -0.29226515733E+02  0.15205197521E+03  0.16229798895E+03  0.47000000000E+01 0. -1.
         -5    1    1    2    0  502 -0.59079585239E+02  0.26465176597E+02  0.49380534583E+02  0.81555687478E+02  0.47000000000E+01 0.  1.
        -11    1    1    2    0    0  0.24399877676E+02 -0.40135638704E+02  0.19812102266E+03  0.20361277746E+03  0.00000000000E+00 0.  1.
         11    1    1    2    0    0 -0.13740895788E+02  0.42896977839E+02  0.24973315457E+03  0.25376290394E+03  0.00000000000E+00 0. -1.
<mgrwt>
<rscale>  0 0.12459948E+03</rscale>
<asrwt>0</asrwt>
<pdfrwt beam="1">  1        2 0.10388584E+00 0.13743929E+03</pdfrwt>
<pdfrwt beam="2">  1       -2 0.39955906E-02 0.13743929E+03</pdfrwt>
<totfact> 0.11527118E+04</totfact>
</mgrwt>
</event>
<event>
 6    1  0.5818426E-006  0.1443064E+03  0.7546771E-02  0.1217727E+00
          1   -1    0    0  501    0  0.00000000000E+00  0.00000000000E+00  0.38853321237E+03  0.38853321237E+03  0.00000000000E+00 0. -1.
         -1   -1    0    0    0  501 -0.00000000000E+00 -0.00000000000E+00 -0.47481157465E+02  0.47481157465E+02  0.00000000000E+00 0.  1.
          5    1    1    2  502    0  0.18413403161E+02 -0.91187355642E+02  0.72310243000E+02  0.11791966964E+03  0.47000000000E+01 0.  1.
         -5    1    1    2    0  502 -0.44077817622E+02  0.23896320477E+02  0.54277659736E+02  0.74040816345E+02  0.47000000000E+01 0.  1.
        -11    1    1    2    0    0 -0.10640504293E+02  0.27821829184E+02  0.81471224965E+01  0.30881225943E+02  0.00000000000E+00 0.  1.
         11    1    1    2    0    0  0.36304918754E+02  0.39469205980E+02  0.20631702967E+03  0.21317265791E+03  0.00000000000E+00 0. -1.
<mgrwt>
<rscale>  0 0.13678117E+03</rscale>
<asrwt>0</asrwt>
<pdfrwt beam="1">  1        1 0.59774338E-01 0.14430638E+03</pdfrwt>
<pdfrwt beam="2">  1       -1 0.73047937E-02 0.14430638E+03</pdfrwt>
<totfact> 0.59875959E+03</totfact>
</mgrwt>
</event>
<event>
 6    1  0.5818426E-006  0.1280500E+03  0.7546771E-02  0.1241901E+00
          2   -1    0    0  501    0  0.00000000000E+00  0.00000000000E+00  0.94947439839E+02  0.94947439839E+02  0.00000000000E+00 0. -1.
         -2   -1    0    0    0  501 -0.00000000000E+00 -0.00000000000E+00 -0.14240899946E+03  0.14240899946E+03  0.00000000000E+00 0.  1.
          5    1    1    2  502    0  0.73884364126E+01  0.68169533374E+02  0.81634138065E+01  0.69212756036E+02  0.47000000000E+01 0. -1.
         -5    1    1    2    0  502 -0.25798653853E+02 -0.28761211486E+02 -0.54483330240E+02  0.66957457395E+02  0.47000000000E+01 0.  1.
        -11    1    1    2    0    0  0.36652255840E+02 -0.46460186154E+02  0.28493217263E+02  0.65679526380E+02  0.00000000000E+00 0.  1.
         11    1    1    2    0    0 -0.18242038400E+02  0.70518642654E+01 -0.29634860452E+02  0.35506699489E+02  0.00000000000E+00 0. -1.
<mgrwt>
<rscale>  0 0.12072801E+03</rscale>
<asrwt>0</asrwt>
<pdfrwt beam="1">  1        2 0.14607298E-01 0.12804996E+03</pdfrwt>
<pdfrwt beam="2">  1       -2 0.21909077E-01 0.12804996E+03</pdfrwt>
<totfact> 0.68032515E+03</totfact>
</mgrwt>
</event>
<event>
 6    1  0.5818426E-006  0.1362552E+03  0.7546771E-02  0.1230886E+00
          1   -1    0    0  501    0  0.00000000000E+00  0.00000000000E+00  0.31760255031E+03  0.31760255031E+03  0.00000000000E+00 0. -1.
         -1   -1    0    0    0  501 -0.00000000000E+00 -0.00000000000E+00 -0.87348340228E+02  0.87348340228E+02  0.00000000000E+00 0.  1.
          5    1    1    2  502    0  0.52774304914E+02  0.67413782797E+02 -0.29518631752E+02  0.90681778714E+02  0.47000000000E+01 0. -1.
         -5    1    1    2    0  502 -0.38281860804E+01 -0.44080890781E+02  0.13532301783E+02  0.46507989983E+02  0.47000000000E+01 0. -1.
        -11    1    1    2    0    0 -0.67861461882E+02 -0.38258823846E+02  0.15615282240E+03  0.17450678942E+03  0.00000000000E+00 0.  1.
         11    1    1    2    0    0  0.18915343048E+02  0.14925931830E+02  0.90087717650E+02  0.93254332420E+02  0.00000000000E+00 0. -1.
<mgrwt>
<rscale>  0 0.12771504E+03</rscale>
<asrwt>0</asrwt>
<pdfrwt beam="1">  1        1 0.48861930E-01 0.13625516E+03</pdfrwt>
<pdfrwt beam="2">  1       -1 0.13438206E-01 0.13625516E+03</pdfrwt>
<totfact> 0.30265769E+03</totfact>
</mgrwt>
</event>
<event>
 6    1  0.5818426E-006  0.1376182E+03  0.7546771E-02  0.1228499E+00
          1   -1    0    0  501    0  0.00000000000E+00  0.00000000000E+00  0.18908892378E+03  0.18908892378E+03  0.00000000000E+00 0. -1.
         -1   -1    0    0    0  501 -0.00000000000E+00 -0.00000000000E+00 -0.88911459952E+02  0.88911459952E+02  0.00000000000E+00 0.  1.
          5    1    1    2  502    0 -0.84669955337E+00  0.22809415575E+02 -0.51635906284E+02  0.56651064921E+02  0.47000000000E+01 0.  1.
         -5    1    1    2    0  502  0.52622799951E+02  0.23669280508E+01  0.61803851247E+02  0.81342285756E+02  0.47000000000E+01 0.  1.
        -11    1    1    2    0    0 -0.32584135917E+02 -0.34534198890E+02 -0.20346035778E-01  0.47479861209E+02  0.00000000000E+00 0.  1.
         11    1    1    2    0    0 -0.19191964481E+02  0.93578552645E+01  0.90029864903E+02  0.92527171848E+02  0.00000000000E+00 0. -1.
<mgrwt>
<rscale>  0 0.12929907E+03</rscale>
<asrwt>0</asrwt>
<pdfrwt beam="1">  1        1 0.29090604E-01 0.13761823E+03</pdfrwt>
<pdfrwt beam="2">  1       -1 0.13678686E-01 0.13761823E+03</pdfrwt>
<totfact> 0.56003138E+03</totfact>
</mgrwt>
</event>
<event>
 6    1  0.5818426E-006  0.1275455E+03  0.7546771E-02  0.1235234E+00
          2   -1    0    0  501    0  0.00000000000E+00  0.00000000000E+00  0.26665865234E+02  0.26665865234E+02  0.00000000000E+00 0. -1.
         -2   -1    0    0    0  501 -0.00000000000E+00 -0.00000000000E+00 -0.59292936831E+03  0.59292936831E+03  0.00000000000E+00 0.  1.
          5    1    1    2  502    0  0.53303103555E+02 -0.16103882562E+02 -0.34028954782E+03  0.34484724479E+03  0.47000000000E+01 0. -1.
         -5    1    1    2    0  502 -0.28047421025E+02  0.18273364454E+02 -0.24926919050E+02  0.42000178189E+02  0.47000000000E+01 0. -1.
        -11    1    1    2    0    0 -0.61033971379E+02 -0.27341920551E+02 -0.15708205985E+03  0.17072638873E+03  0.00000000000E+00 0.  1.
         11    1    1    2    0    0  0.35778288849E+02  0.25172438658E+02 -0.43964976358E+02  0.62021421840E+02  0.00000000000E+00 0. -1.
<mgrwt>
<rscale>  0 0.12489447E+03</rscale>
<asrwt>0</asrwt>
<pdfrwt beam="1">  1        2 0.41024410E-02 0.12754553E+03</pdfrwt>
<pdfrwt beam="2">  1       -2 0.91219898E-01 0.12754553E+03</pdfrwt>
<totfact> 0.20756157E+03</totfact>
</mgrwt>
</event>
<event>
 6    1  0.5818426E-006  0.2261059E+03  0.7546771E-02  0.1129411E+00
         -1   -1    0    0    0  501 -0.00000000000E+00  0.00000000000E+00  0.14473609829E+03  0.14473609829E+03  0.00000000000E+00 0.  1.
          1   -1    0    0  501    0  0.00000000000E+00 -0.00000000000E+00 -0.88305340429E+02  0.88305340429E+02  0.00000000000E+00 0. -1.
          5    1    1    2  502    0  0.61333431621E+01 -0.59826805198E+01 -0.39606004660E+02  0.40793822691E+02  0.47000000000E+01 0. -1.
         -5    1    1    2    0  502 -0.30130605945E+02  0.10457677926E+02  0.91003270752E+02  0.96544817208E+02  0.47000000000E+01 0. -1.
        -11    1    1    2    0    0  0.10118904383E+00  0.22171774881E+02 -0.35358053466E+02  0.41734755127E+02  0.00000000000E+00 0. -1.
         11    1    1    2    0    0  0.23896073739E+02 -0.26646772288E+02  0.40391545231E+02  0.53968043689E+02  0.00000000000E+00 0.  1.
<mgrwt>
<rscale>  0 0.22610591E+03</rscale>
<asrwt>0</asrwt>
<pdfrwt beam="2">  1        1 0.13585437E-01 0.22610591E+03</pdfrwt>
<pdfrwt beam="1">  1       -1 0.22267092E-01 0.22610591E+03</pdfrwt>
<totfact> 0.70373408E+03</totfact>
</mgrwt>
</event>
<event>
 6    1  0.5818426E-006  0.3284692E+03  0.7546771E-02  0.1071816E+00
          3   -1    0    0  501    0  0.00000000000E+00  0.00000000000E+00  0.73749697402E+02  0.73749697402E+02  0.00000000000E+00 0. -1.
         -3   -1    0    0    0  501 -0.00000000000E+00 -0.00000000000E+00 -0.36573721242E+03  0.36573721242E+03  0.00000000000E+00 0.  1.
          5    1    1    2  502    0  0.91901470437E+01  0.22167595093E+02  0.20495704955E+02  0.31906503984E+02  0.47000000000E+01 0. -1.
         -5    1    1    2    0  502 -0.11682355094E+03 -0.24351018630E+01 -0.17026482292E+03  0.20655718748E+03  0.47000000000E+01 0.  1.
        -11    1    1    2    0    0  0.48677179630E+02 -0.44561899369E+02 -0.11263071753E+03  0.13054083355E+03  0.00000000000E+00 0.  1.
         11    1    1    2    0    0  0.58956224266E+02  0.24829406139E+02 -0.29587679520E+02  0.70482384808E+02  0.00000000000E+00 0. -1.
<mgrwt>
<rscale>  0 0.32846923E+03</rscale>
<asrwt>0</asrwt>
<pdfrwt beam="1">  1        3 0.11346107E-01 0.32846923E+03</pdfrwt>
<pdfrwt beam="2">  1       -3 0.56267264E-01 0.32846923E+03</pdfrwt>
<totfact> 0.48391347E+02</totfact>
</mgrwt>
</event>
<event>
 6    1  0.5818426E-006  0.2429503E+03  0.7546771E-02  0.1120474E+00
         -1   -1    0    0    0  501 -0.00000000000E+00  0.00000000000E+00  0.16876755077E+04  0.16876755077E+04  0.00000000000E+00 0.  1.
          1   -1    0    0  501    0  0.00000000000E+00 -0.00000000000E+00 -0.38747586971E+02  0.38747586971E+02  0.00000000000E+00 0. -1.
          5    1    1    2  502    0  0.21703795183E+03  0.95963277077E+01  0.97324403458E+03  0.99720790354E+03  0.47000000000E+01 0. -1.
         -5    1    1    2    0  502 -0.99126242913E+01  0.12741845425E+02  0.21281717194E+03  0.21348033497E+03  0.47000000000E+01 0. -1.
        -11    1    1    2    0    0 -0.72990587403E+02 -0.32779308812E+02  0.26222263165E+03  0.27415838029E+03  0.00000000000E+00 0.  1.
         11    1    1    2    0    0 -0.13413474014E+03  0.10441135679E+02  0.20064408256E+03  0.24157647587E+03  0.00000000000E+00 0. -1.
<mgrwt>
<rscale>  0 0.23898080E+03</rscale>
<asrwt>0</asrwt>
<pdfrwt beam="2">  1        1 0.59611685E-02 0.24295025E+03</pdfrwt>
<pdfrwt beam="1">  1       -1 0.25964233E+00 0.24295025E+03</pdfrwt>
<totfact> 0.90363783E+01</totfact>
</mgrwt>
</event>
<event>
 6    1  0.5818426E-006  0.1438177E+03  0.7546771E-02  0.1218433E+00
          2   -1    0    0  501    0  0.00000000000E+00  0.00000000000E+00  0.52404004121E+03  0.52404004121E+03  0.00000000000E+00 0. -1.
         -2   -1    0    0    0  501 -0.00000000000E+00 -0.00000000000E+00 -0.32537535500E+02  0.32537535500E+02  0.00000000000E+00 0.  1.
          5    1    1    2  502    0  0.35486046050E+02 -0.10548797417E+01  0.37503121386E+02  0.51855051337E+02  0.47000000000E+01 0.  1.
         -5    1    1    2    0  502 -0.10062843011E+03 -0.27523542576E+02  0.20565274702E+03  0.23064858269E+03  0.47000000000E+01 0.  1.
        -11    1    1    2    0    0  0.14852643597E+02 -0.87956437354E+01 -0.69067634253E+00  0.17275456705E+02  0.00000000000E+00 0.  1.
         11    1    1    2    0    0  0.50289740464E+02  0.37374066053E+02  0.24903731365E+03  0.25679848597E+03  0.00000000000E+00 0. -1.
<mgrwt>
<rscale>  0 0.13627339E+03</rscale>
<asrwt>0</asrwt>
<pdfrwt beam="1">  1        2 0.80621539E-01 0.14381769E+03</pdfrwt>
<pdfrwt beam="2">  1       -2 0.50057751E-02 0.14381769E+03</pdfrwt>
<totfact> 0.11017989E+04</totfact>
</mgrwt>
</event>
<event>
 6    1  0.5818426E-006  0.1360507E+03  0.7546771E-02  0.1219980E+00
          2   -1    0    0  501    0  0.00000000000E+00  0.00000000000E+00  0.66858655548E+03  0.66858655548E+03  0.00000000000E+00 0. -1.
         -2   -1    0    0    0  501 -0.00000000000E+00 -0.00000000000E+00 -0.28279250757E+02  0.28279250757E+02  0.00000000000E+00 0.  1.
          5    1    1    2  502    0 -0.25329476176E+02 -0.39620348207E+02  0.32787073877E+02  0.57519010499E+02  0.47000000000E+01 0. -1.
         -5    1    1    2    0  502  0.66107513831E+02  0.47084652962E+01  0.21664676870E+03  0.22660601364E+03  0.47000000000E+01 0. -1.
        -11    1    1    2    0    0 -0.33187903936E+02  0.74245756484E+02  0.32996586811E+03  0.33984017338E+03  0.00000000000E+00 0. -1.
         11    1    1    2    0    0 -0.75901337185E+01 -0.39333873573E+02  0.60907594028E+02  0.72900608711E+02  0.00000000000E+00 0.  1.
<mgrwt>
<rscale>  0 0.13517019E+03</rscale>
<asrwt>0</asrwt>
<pdfrwt beam="1">  1        2 0.10285946E+00 0.13605068E+03</pdfrwt>
<pdfrwt beam="2">  1       -2 0.43506545E-02 0.13605068E+03</pdfrwt>
<totfact> 0.10266896E+04</totfact>
</mgrwt>
</event>
<event>
 6    1  0.5818426E-006  0.1259559E+03  0.7546771E-02  0.1246907E+00
         -4   -1    0    0    0  501 -0.00000000000E+00  0.00000000000E+00  0.22624797601E+03  0.22624797601E+03  0.00000000000E+00 0.  1.
          4   -1    0    0  501    0  0.00000000000E+00 -0.00000000000E+00 -0.66712986681E+02  0.66712986681E+02  0.00000000000E+00 0. -1.
          5    1    1    2  502    0  0.34398847649E+02  0.29928081922E+02  0.12297001890E+03  0.13123523290E+03  0.47000000000E+01 0.  1.
         -5    1    1    2    0  502 -0.37886040401E+02 -0.44987254236E+02  0.27797238693E+02  0.65222554227E+02  0.47000000000E+01 0.  1.
        -11    1    1    2    0    0  0.51421354624E+01  0.44082700208E+02 -0.25800508804E+02  0.51336071814E+02  0.00000000000E+00 0. -1.
         11    1    1    2    0    0 -0.16549427099E+01 -0.29023527894E+02  0.34568240541E+02  0.45167103747E+02  0.00000000000E+00 0.  1.
<mgrwt>
<rscale>  0 0.11771977E+03</rscale>
<asrwt>0</asrwt>
<pdfrwt beam="2">  1        4 0.10263537E-01 0.12595593E+03</pdfrwt>
<pdfrwt beam="1">  1       -4 0.34807381E-01 0.12595593E+03</pdfrwt>
<totfact> 0.94303031E+02</totfact>
</mgrwt>
</event>
<event>
 6    1  0.5818426E-006  0.2674920E+03  0.7546771E-02  0.1102724E+00
         -2   -1    0    0    0  501 -0.00000000000E+00  0.00000000000E+00  0.95367482425E+02  0.95367482425E+02  0.00000000000E+00 0.  1.
          2   -1    0    0  501    0  0.00000000000E+00 -0.00000000000E+00 -0.18756909062E+03  0.18756909062E+03  0.00000000000E+00 0. -1.
          5    1    1    2  502    0 -0.18054913701E+02 -0.50928364536E+01  0.49430593783E+02  0.53079096579E+02  0.47000000000E+01 0.  1.
         -5    1    1    2    0  502 -0.24468411632E+02 -0.54207686727E+02 -0.71802983025E+02  0.93353815345E+02  0.47000000000E+01 0.  1.
        -11    1    1    2    0    0  0.49025106456E+02 -0.66960555071E+01 -0.19218859790E+02  0.53081661560E+02  0.00000000000E+00 0. -1.
         11    1    1    2    0    0 -0.65017811232E+01  0.65996578688E+02 -0.50610359162E+02  0.83421999561E+02  0.00000000000E+00 0.  1.
<mgrwt>
<rscale>  0 0.26749200E+03</rscale>
<asrwt>0</asrwt>
<pdfrwt beam="2">  1        2 0.28856783E-01 0.26749200E+03</pdfrwt>
<pdfrwt beam="1">  1       -2 0.14671920E-01 0.26749200E+03</pdfrwt>
<totfact> 0.64432013E+03</totfact>
</mgrwt>
</event>
<event>
 6    1  0.5818426E-006  0.1521005E+03  0.7546771E-02  0.1206378E+00
          1   -1    0    0  501    0  0.00000000000E+00  0.00000000000E+00  0.58363440701E+03  0.58363440701E+03  0.00000000000E+00 0. -1.
         -1   -1    0    0    0  501 -0.00000000000E+00 -0.00000000000E+00 -0.33768278653E+02  0.33768278653E+02  0.00000000000E+00 0.  1.
          5    1    1    2  502    0  0.23729751294E+02  0.24511778379E+02  0.23286705365E+03  0.23539983656E+03  0.47000000000E+01 0. -1.
         -5    1    1    2    0  502  0.60890705052E+02 -0.57220384994E+01  0.29958857767E+02  0.68264506480E+02  0.47000000000E+01 0. -1.
        -11    1    1    2    0    0 -0.31321208099E+02 -0.30797261505E+02  0.23223358902E+03  0.23635128361E+03  0.00000000000E+00 0. -1.
         11    1    1    2    0    0 -0.53299248247E+02  0.12007521625E+02  0.54806627907E+02  0.77387059007E+02  0.00000000000E+00 0.  1.
<mgrwt>
<rscale>  0 0.14529393E+03</rscale>
<asrwt>0</asrwt>
<pdfrwt beam="1">  1        1 0.89789901E-01 0.15210054E+03</pdfrwt>
<pdfrwt beam="2">  1       -1 0.51951202E-02 0.15210054E+03</pdfrwt>
<totfact> 0.58882058E+03</totfact>
</mgrwt>
</event>
<event>
 6    1  0.5818426E-006  0.2431211E+03  0.7546771E-02  0.1120539E+00
         -1   -1    0    0    0  501 -0.00000000000E+00  0.00000000000E+00  0.32570027173E+03  0.32570027173E+03  0.00000000000E+00 0.  1.
          1   -1    0    0  501    0  0.00000000000E+00 -0.00000000000E+00 -0.17853823013E+03  0.17853823013E+03  0.00000000000E+00 0. -1.
          5    1    1    2  502    0  0.12396450029E+03 -0.15457577372E+03  0.12168513304E+03  0.23257306112E+03  0.47000000000E+01 0.  1.
         -5    1    1    2    0  502  0.36869646122E+02  0.21871246009E+02  0.11474050842E+02  0.44625845089E+02  0.47000000000E+01 0.  1.
        -11    1    1    2    0    0 -0.14402097506E+02  0.54787067046E+02  0.22492924236E+02  0.60950592850E+02  0.00000000000E+00 0.  1.
         11    1    1    2    0    0 -0.14643204891E+03  0.77917460663E+02 -0.84900665157E+01  0.16608900281E+03  0.00000000000E+00 0. -1.
<mgrwt>
<rscale>  0 0.23888313E+03</rscale>
<asrwt>0</asrwt>
<pdfrwt beam="2">  1        1 0.27467420E-01 0.24312109E+03</pdfrwt>
<pdfrwt beam="1">  1       -1 0.50107734E-01 0.24312109E+03</pdfrwt>
<totfact> 0.69511452E+02</totfact>
</mgrwt>
</event>
<event>
 6    1  0.5818426E-006  0.2170855E+03  0.7546771E-02  0.1139603E+00
         -2   -1    0    0    0  501 -0.00000000000E+00  0.00000000000E+00  0.13591486868E+03  0.13591486868E+03  0.00000000000E+00 0.  1.
          2   -1    0    0  501    0  0.00000000000E+00 -0.00000000000E+00 -0.31897560753E+03  0.31897560753E+03  0.00000000000E+00 0. -1.
          5    1    1    2  502    0  0.28794466481E+02  0.11288548163E+03  0.91637063566E+01  0.11695433629E+03  0.47000000000E+01 0.  1.
         -5    1    1    2    0  502  0.26253540134E+02  0.55847541653E+02 -0.10165640766E+03  0.11901391304E+03  0.47000000000E+01 0.  1.
        -11    1    1    2    0    0 -0.20698330873E+02 -0.58408600987E+02  0.13496597172E+02  0.63420372952E+02  0.00000000000E+00 0. -1.
         11    1    1    2    0    0 -0.34349675742E+02 -0.11032442229E+03 -0.10406463471E+03  0.15550185393E+03  0.00000000000E+00 0.  1.
<mgrwt>
<rscale>  0 0.21249819E+03</rscale>
<asrwt>0</asrwt>
<pdfrwt beam="2">  1        2 0.49073170E-01 0.21708550E+03</pdfrwt>
<pdfrwt beam="1">  1       -2 0.20909980E-01 0.21708550E+03</pdfrwt>
<totfact> 0.19743854E+03</totfact>
</mgrwt>
</event>
<event>
 6    1  0.5818426E-006  0.2531371E+03  0.7546771E-02  0.1113606E+00
          2   -1    0    0  501    0  0.00000000000E+00  0.00000000000E+00  0.69317134493E+02  0.69317134493E+02  0.00000000000E+00 0. -1.
         -2   -1    0    0    0  501 -0.00000000000E+00 -0.00000000000E+00 -0.10823893600E+04  0.10823893600E+04  0.00000000000E+00 0.  1.
          5    1    1    2  502    0  0.34603003984E+02 -0.18020946507E+03 -0.41799810433E+03  0.45652746293E+03  0.47000000000E+01 0.  1.
         -5    1    1    2    0  502  0.11773279702E+02 -0.34970807130E+02 -0.35318848357E+03  0.35514189051E+03  0.47000000000E+01 0.  1.
        -11    1    1    2    0    0  0.24222709127E+02  0.10476380882E+03 -0.11891175286E+03  0.16031905765E+03  0.00000000000E+00 0.  1.
         11    1    1    2    0    0 -0.70598992813E+02  0.11041646338E+03 -0.12297388472E+03  0.17971808338E+03  0.00000000000E+00 0. -1.
<mgrwt>
<rscale>  0 0.24952389E+03</rscale>
<asrwt>0</asrwt>
<pdfrwt beam="1">  1        2 0.10664175E-01 0.25313709E+03</pdfrwt>
<pdfrwt beam="2">  1       -2 0.16652143E+00 0.25313709E+03</pdfrwt>
<totfact> 0.14251233E+02</totfact>
</mgrwt>
</event>
<event>
 6    1  0.5818426E-006  0.1333098E+03  0.7546771E-02  0.1229041E+00
          4   -1    0    0  501    0  0.00000000000E+00  0.00000000000E+00  0.14502158369E+03  0.14502158369E+03  0.00000000000E+00 0.  1.
         -4   -1    0    0    0  501 -0.00000000000E+00 -0.00000000000E+00 -0.11511778948E+03  0.11511778948E+03  0.00000000000E+00 0. -1.
          5    1    1    2  502    0  0.46201770176E+02  0.71266351067E+01 -0.19576753879E+02  0.50899231701E+02  0.47000000000E+01 0.  1.
         -5    1    1    2    0  502 -0.79519501901E+02  0.24882585017E+02  0.25530414770E+01  0.83493126905E+02  0.47000000000E+01 0.  1.
        -11    1    1    2    0    0  0.21355670865E+02  0.28759326475E+02  0.52506278650E+02  0.63561567279E+02  0.00000000000E+00 0.  1.
         11    1    1    2    0    0  0.11962060860E+02 -0.60768546599E+02 -0.55787720409E+01  0.62185447279E+02  0.00000000000E+00 0. -1.
<mgrwt>
<rscale>  0 0.12893751E+03</rscale>
<asrwt>0</asrwt>
<pdfrwt beam="1">  1        4 0.22311013E-01 0.13330979E+03</pdfrwt>
<pdfrwt beam="2">  1       -4 0.17710429E-01 0.13330979E+03</pdfrwt>
<totfact> 0.85462781E+02</totfact>
</mgrwt>
</event>
<event>
 6    1  0.5818426E-006  0.1279260E+03  0.7546771E-02  0.1246991E+00
         -2   -1    0    0    0  501 -0.00000000000E+00  0.00000000000E+00  0.69443247311E+02  0.69443247311E+02  0.00000000000E+00 0.  1.
          2   -1    0    0  501    0  0.00000000000E+00 -0.00000000000E+00 -0.18932316558E+03  0.18932316558E+03  0.00000000000E+00 0. -1.
          5    1    1    2  502    0  0.32139002555E+02  0.41540307813E+02  0.76438741563E+01  0.53282562537E+02  0.47000000000E+01 0. -1.
         -5    1    1    2    0  502 -0.18532612469E+02 -0.65086988534E+02 -0.39695010828E+02  0.78597440709E+02  0.47000000000E+01 0. -1.
        -11    1    1    2    0    0 -0.22581958538E+02 -0.22268384548E+02 -0.70112711919E+02  0.76952051139E+02  0.00000000000E+00 0. -1.
         11    1    1    2    0    0  0.89755684520E+01  0.45815065269E+02 -0.17716069678E+02  0.49934358506E+02  0.00000000000E+00 0.  1.
<mgrwt>
<rscale>  0 0.11766984E+03</rscale>
<asrwt>0</asrwt>
<pdfrwt beam="2">  1        2 0.29126641E-01 0.12792599E+03</pdfrwt>
<pdfrwt beam="1">  1       -2 0.10683576E-01 0.12792599E+03</pdfrwt>
<totfact> 0.10143029E+04</totfact>
</mgrwt>
</event>
<event>
 6    1  0.5818426E-006  0.3800651E+03  0.7546771E-02  0.1050910E+00
          1   -1    0    0  501    0  0.00000000000E+00  0.00000000000E+00  0.19050927943E+03  0.19050927943E+03  0.00000000000E+00 0. -1.
         -1   -1    0    0    0  501 -0.00000000000E+00 -0.00000000000E+00 -0.18955698506E+03  0.18955698506E+03  0.00000000000E+00 0.  1.
          5    1    1    2  502    0 -0.95119011515E+01  0.25277498136E+02 -0.35264431020E+01  0.27639717374E+02  0.47000000000E+01 0. -1.
         -5    1    1    2    0  502  0.10463403288E+03 -0.70394414382E+02 -0.11356076884E+03  0.16976982251E+03  0.47000000000E+01 0.  1.
        -11    1    1    2    0    0 -0.67588279953E+02 -0.79159554969E+01  0.25848374948E+02  0.72794068618E+02  0.00000000000E+00 0.  1.
         11    1    1    2    0    0 -0.27533851777E+02  0.53032871743E+02  0.92191131369E+02  0.10986265599E+03  0.00000000000E+00 0. -1.
<mgrwt>
<rscale>  0 0.38006507E+03</rscale>
<asrwt>0</asrwt>
<pdfrwt beam="1">  1        1 0.29309120E-01 0.38006507E+03</pdfrwt>
<pdfrwt beam="2">  1       -1 0.29162613E-01 0.38006507E+03</pdfrwt>
<totfact> 0.16815946E+03</totfact>
</mgrwt>
</event>
<event>
 6    1  0.5818426E-006  0.1416634E+03  0.7546771E-02  0.1228322E+00
         -2   -1    0    0    0  501 -0.00000000000E+00  0.00000000000E+00  0.10105792279E+03  0.10105792279E+03  0.00000000000E+00 0.  1.
          2   -1    0    0  501    0  0.00000000000E+00 -0.00000000000E+00 -0.19299001553E+03  0.19299001553E+03  0.00000000000E+00 0. -1.
          5    1    1    2  502    0 -0.39765192528E+02  0.70229685778E+02 -0.40480803441E+01  0.80944155167E+02  0.47000000000E+01 0. -1.
         -5    1    1    2    0  502  0.83431284520E+01 -0.55919888031E+02  0.26008340182E+02  0.62411260432E+02  0.47000000000E+01 0.  1.
        -11    1    1    2    0    0 -0.11360124560E+02 -0.39503726965E+02 -0.81877870498E+02  0.91616497158E+02  0.00000000000E+00 0.  1.
         11    1    1    2    0    0  0.42782188636E+02  0.25193929218E+02 -0.32014482075E+02  0.59076025564E+02  0.00000000000E+00 0. -1.
<mgrwt>
<rscale>  0 0.12941813E+03</rscale>
<asrwt>0</asrwt>
<pdfrwt beam="2">  1        2 0.29690771E-01 0.14166341E+03</pdfrwt>
<pdfrwt beam="1">  1       -2 0.15547373E-01 0.14166341E+03</pdfrwt>
<totfact> 0.54726932E+03</totfact>
</mgrwt>
</event>
<event>
 6    1  0.5818426E-006  0.1588855E+03  0.7546771E-02  0.1197036E+00
          1   -1    0    0  501    0  0.00000000000E+00  0.00000000000E+00  0.58276355706E+03  0.58276355706E+03  0.00000000000E+00 0. -1.
         -1   -1    0    0    0  501 -0.00000000000E+00 -0.00000000000E+00 -0.49715493382E+02  0.49715493382E+02  0.00000000000E+00 0.  1.
          5    1    1    2  502    0 -0.21357773158E+02  0.37697261558E+02  0.11994185463E+02  0.45201642538E+02  0.47000000000E+01 0.  1.
         -5    1    1    2    0  502  0.10869873755E+03  0.68966724663E+01  0.11241727065E+03  0.15659729364E+03  0.47000000000E+01 0.  1.
        -11    1    1    2    0    0 -0.50660881315E+02 -0.69681233759E+02  0.32180989848E+03  0.33314202676E+03  0.00000000000E+00 0. -1.
         11    1    1    2    0    0 -0.36680083077E+02  0.25087299735E+02  0.86826709082E+02  0.97538087496E+02  0.00000000000E+00 0.  1.
<mgrwt>
<rscale>  0 0.15283190E+03</rscale>
<asrwt>0</asrwt>
<pdfrwt beam="1">  1        1 0.89655927E-01 0.15888549E+03</pdfrwt>
<pdfrwt beam="2">  1       -1 0.76485379E-02 0.15888549E+03</pdfrwt>
<totfact> 0.33118483E+03</totfact>
</mgrwt>
</event>
<event>
 6    1  0.5818426E-006  0.3122500E+03  0.7546771E-02  0.1079272E+00
         -2   -1    0    0    0  501 -0.00000000000E+00  0.00000000000E+00  0.37855930081E+02  0.37855930081E+02  0.00000000000E+00 0.  1.
          2   -1    0    0  501    0  0.00000000000E+00 -0.00000000000E+00 -0.64388884012E+03  0.64388884012E+03  0.00000000000E+00 0. -1.
          5    1    1    2  502    0  0.30140040990E+02 -0.11623388365E+03 -0.17441290192E+03  0.21180341861E+03  0.47000000000E+01 0. -1.
         -5    1    1    2    0  502  0.84438428265E+01  0.10787291069E+02 -0.17830351798E+03  0.17889074503E+03  0.47000000000E+01 0. -1.
        -11    1    1    2    0    0  0.94333377071E+01  0.46298783637E+02 -0.32203112183E+02  0.57180465728E+02  0.00000000000E+00 0.  1.
         11    1    1    2    0    0 -0.48017221524E+02  0.59147808942E+02 -0.22111337795E+03  0.23387014083E+03  0.00000000000E+00 0. -1.
<mgrwt>
<rscale>  0 0.31224997E+03</rscale>
<asrwt>0</asrwt>
<pdfrwt beam="2">  1        2 0.99059814E-01 0.31224997E+03</pdfrwt>
<pdfrwt beam="1">  1       -2 0.58239897E-02 0.31224997E+03</pdfrwt>
<totfact> 0.71980503E+03</totfact>
</mgrwt>
</event>
<event>
 6    1  0.5818426E-006  0.1386412E+03  0.7546771E-02  0.1229408E+00
         -2   -1    0    0    0  501 -0.00000000000E+00  0.00000000000E+00  0.63587339065E+02  0.63587339065E+02  0.00000000000E+00 0.  1.
          2   -1    0    0  501    0  0.00000000000E+00 -0.00000000000E+00 -0.25666181499E+03  0.25666181499E+03  0.00000000000E+00 0. -1.
          5    1    1    2  502    0 -0.25277402639E+02 -0.27658744153E+02  0.16086130481E+02  0.41046398212E+02  0.47000000000E+01 0. -1.
         -5    1    1    2    0  502  0.80189149449E+02  0.37181272526E+01 -0.73740477831E+02  0.10910486804E+03  0.47000000000E+01 0. -1.
        -11    1    1    2    0    0 -0.25435552526E+02  0.23173706106E+02 -0.13632236283E+03  0.14059791817E+03  0.00000000000E+00 0. -1.
         11    1    1    2    0    0 -0.29476194284E+02  0.76691079492E+00  0.90223425181E+00  0.29499969632E+02  0.00000000000E+00 0.  1.
<mgrwt>
<rscale>  0 0.12869308E+03</rscale>
<asrwt>0</asrwt>
<pdfrwt beam="2">  1        2 0.39486433E-01 0.13864119E+03</pdfrwt>
<pdfrwt beam="1">  1       -2 0.97826675E-02 0.13864119E+03</pdfrwt>
<totfact> 0.84560138E+03</totfact>
</mgrwt>
</event>
<event>
 6    1  0.5818426E-006  0.3331413E+03  0.7546771E-02  0.1069755E+00
         -3   -1    0    0    0  501 -0.00000000000E+00  0.00000000000E+00  0.98219871953E+03  0.98219871953E+03  0.00000000000E+00 0.  1.
          3   -1    0    0  501    0  0.00000000000E+00 -0.00000000000E+00 -0.28248639456E+02  0.28248639456E+02  0.00000000000E+00 0. -1.
          5    1    1    2  502    0  0.27746448758E+02  0.17293397232E+02  0.18753839043E+02  0.37983200041E+02  0.47000000000E+01 0. -1.
         -5    1    1    2    0  502  0.97021439241E+02 -0.31747059119E+02  0.49600915273E+03  0.50642689998E+03  0.47000000000E+01 0. -1.
        -11    1    1    2    0    0 -0.46971178004E+02  0.43965609646E+02  0.11971990386E+03  0.13591218406E+03  0.00000000000E+00 0.  1.
         11    1    1    2    0    0 -0.77796709994E+02 -0.29511947760E+02  0.31946718444E+03  0.33012507490E+03  0.00000000000E+00 0. -1.
<mgrwt>
<rscale>  0 0.33314128E+03</rscale>
<asrwt>0</asrwt>
<pdfrwt beam="2">  1        3 0.43459453E-02 0.33314128E+03</pdfrwt>
<pdfrwt beam="1">  1       -3 0.15110747E+00 0.33314128E+03</pdfrwt>
<totfact> 0.24535469E+02</totfact>
</mgrwt>
</event>
<event>
 6    1  0.5818426E-006  0.1480646E+03  0.7546771E-02  0.1212189E+00
          1   -1    0    0  501    0  0.00000000000E+00  0.00000000000E+00  0.36338274966E+03  0.36338274966E+03  0.00000000000E+00 0. -1.
         -1   -1    0    0    0  501 -0.00000000000E+00 -0.00000000000E+00 -0.59720609292E+02  0.59720609292E+02  0.00000000000E+00 0.  1.
          5    1    1    2  502    0  0.28490425802E+02  0.19990556432E+02  0.17006005612E+02  0.39020775693E+02  0.47000000000E+01 0.  1.
         -5    1    1    2    0  502 -0.10484685884E+03 -0.41609984599E+02  0.62022740694E+02  0.12881445956E+03  0.47000000000E+01 0.  1.
        -11    1    1    2    0    0  0.83272908025E+02  0.36436376407E+02  0.22035500819E+03  0.23836592955E+03  0.00000000000E+00 0. -1.
         11    1    1    2    0    0 -0.69164749834E+01 -0.14816948240E+02  0.42783858682E+01  0.16902194147E+02  0.00000000000E+00 0.  1.
<mgrwt>
<rscale>  0 0.14085076E+03</rscale>
<asrwt>0</asrwt>
<pdfrwt beam="1">  1        1 0.55905037E-01 0.14806459E+03</pdfrwt>
<pdfrwt beam="2">  1       -1 0.91877863E-02 0.14806459E+03</pdfrwt>
<totfact> 0.46096343E+03</totfact>
</mgrwt>
</event>
<event>
 6    1  0.5818426E-006  0.1589793E+03  0.7546771E-02  0.1198100E+00
          1   -1    0    0  501    0  0.00000000000E+00  0.00000000000E+00  0.61101564065E+03  0.61101564065E+03  0.00000000000E+00 0. -1.
         -1   -1    0    0    0  501 -0.00000000000E+00 -0.00000000000E+00 -0.35152304786E+02  0.35152304786E+02  0.00000000000E+00 0.  1.
          5    1    1    2  502    0 -0.66864050255E+02 -0.40419489705E+02  0.28912560802E+03  0.29953337640E+03  0.47000000000E+01 0.  1.
         -5    1    1    2    0  502 -0.11625901829E+02 -0.18646545440E+02 -0.76485695172E+01  0.23737014678E+02  0.47000000000E+01 0.  1.
        -11    1    1    2    0    0  0.51601903844E+02  0.54390279004E+02  0.28394572793E+03  0.29367709366E+03  0.00000000000E+00 0. -1.
         11    1    1    2    0    0  0.26888048239E+02  0.46757561407E+01  0.10440569437E+02  0.29220460704E+02  0.00000000000E+00 0.  1.
<mgrwt>
<rscale>  0 0.15194735E+03</rscale>
<asrwt>0</asrwt>
<pdfrwt beam="1">  1        1 0.94002399E-01 0.15897931E+03</pdfrwt>
<pdfrwt beam="2">  1       -1 0.54080473E-02 0.15897931E+03</pdfrwt>
<totfact> 0.52213840E+03</totfact>
</mgrwt>
</event>
<event>
 6    1  0.5818426E-006  0.1768240E+03  0.7546771E-02  0.1177122E+00
         -1   -1    0    0    0  501 -0.00000000000E+00  0.00000000000E+00  0.17281186510E+03  0.17281186510E+03  0.00000000000E+00 0.  1.
          1   -1    0    0  501    0  0.00000000000E+00 -0.00000000000E+00 -0.36314850257E+03  0.36314850257E+03  0.00000000000E+00 0. -1.
          5    1    1    2  502    0 -0.35974809536E+02  0.38712340069E+02  0.39111217743E+02  0.65913652214E+02  0.47000000000E+01 0. -1.
         -5    1    1    2    0  502 -0.73960811038E+02 -0.98344399310E+02  0.64049809008E+02  0.13880306365E+03  0.47000000000E+01 0. -1.
        -11    1    1    2    0    0  0.63776834537E+02 -0.13119662361E+02 -0.98703126592E+02  0.11824515788E+03  0.00000000000E+00 0.  1.
         11    1    1    2    0    0  0.46158786038E+02  0.72751721602E+02 -0.19479453763E+03  0.21299849393E+03  0.00000000000E+00 0. -1.
<mgrwt>
<rscale>  0 0.17069757E+03</rscale>
<asrwt>0</asrwt>
<pdfrwt beam="2">  1        1 0.55869000E-01 0.17682403E+03</pdfrwt>
<pdfrwt beam="1">  1       -1 0.26586441E-01 0.17682403E+03</pdfrwt>
<totfact> 0.86183855E+02</totfact>
</mgrwt>
</event>
<event>
 6    1  0.5818426E-006  0.1646569E+03  0.7546771E-02  0.1198243E+00
          2   -1    0    0  501    0  0.00000000000E+00  0.00000000000E+00  0.50406554909E+03  0.50406554909E+03  0.00000000000E+00 0. -1.
         -2   -1    0    0    0  501 -0.00000000000E+00 -0.00000000000E+00 -0.10131709620E+03  0.10131709620E+03  0.00000000000E+00 0.  1.
          5    1    1    2  502    0  0.43957938083E+02  0.19872370901E+02  0.51303610828E+02  0.70578764014E+02  0.47000000000E+01 0. -1.
         -5    1    1    2    0  502  0.26094317143E+02 -0.57065456939E+02 -0.71605798317E+02  0.95325023553E+02  0.47000000000E+01 0.  1.
        -11    1    1    2    0    0 -0.27731113196E+02 -0.28402098826E+02  0.11366618724E+03  0.12039807298E+03  0.00000000000E+00 0.  1.
         11    1    1    2    0    0 -0.42321142030E+02  0.65595184864E+02  0.30938445314E+03  0.31908078473E+03  0.00000000000E+00 0. -1.
<mgrwt>
<rscale>  0 0.15182925E+03</rscale>
<asrwt>0</asrwt>
<pdfrwt beam="1">  1        2 0.77548545E-01 0.16465688E+03</pdfrwt>
<pdfrwt beam="2">  1       -2 0.15587246E-01 0.16465688E+03</pdfrwt>
<totfact> 0.19556504E+03</totfact>
</mgrwt>
</event>
<event>
 6    1  0.5818426E-006  0.2668308E+03  0.7546771E-02  0.1110310E+00
          1   -1    0    0  501    0  0.00000000000E+00  0.00000000000E+00  0.62444404688E+02  0.62444404688E+02  0.00000000000E+00 0. -1.
         -1   -1    0    0    0  501 -0.00000000000E+00 -0.00000000000E+00 -0.97074145211E+03  0.97074145211E+03  0.00000000000E+00 0.  1.
          5    1    1    2  502    0 -0.11210861692E+03  0.10488472155E+03 -0.26498985393E+03  0.30628558485E+03  0.47000000000E+01 0. -1.
         -5    1    1    2    0  502  0.58129102477E+02  0.90671032181E+02 -0.29348922760E+03  0.31266314997E+03  0.47000000000E+01 0.  1.
        -11    1    1    2    0    0  0.57947215863E+01 -0.91013872482E+02 -0.23309720085E+03  0.25030263448E+03  0.00000000000E+00 0.  1.
         11    1    1    2    0    0  0.48184792860E+02 -0.10454188125E+03 -0.11672076504E+03  0.16393448750E+03  0.00000000000E+00 0. -1.
<mgrwt>
<rscale>  0 0.25479704E+03</rscale>
<asrwt>0</asrwt>
<pdfrwt beam="1">  1        1 0.96068320E-02 0.26683076E+03</pdfrwt>
<pdfrwt beam="2">  1       -1 0.14934483E+00 0.26683076E+03</pdfrwt>
<totfact> 0.25948282E+02</totfact>
</mgrwt>
</event>
<event>
 6    1  0.5818426E-006  0.1266503E+03  0.7546771E-02  0.1247185E+00
          1   -1    0    0  501    0  0.00000000000E+00  0.00000000000E+00  0.65041266201E+03  0.65041266201E+03  0.00000000000E+00 0. -1.
         -1   -1    0    0    0  501 -0.00000000000E+00 -0.00000000000E+00 -0.19328894296E+02  0.19328894296E+02  0.00000000000E+00 0.  1.
          5    1    1    2  502    0 -0.44601829397E+02 -0.31099806579E+02  0.19177091735E+03  0.19938579662E+03  0.47000000000E+01 0. -1.
         -5    1    1    2    0  502  0.51089999664E+02  0.50405068958E+02  0.22803321321E+03  0.23910687018E+03  0.47000000000E+01 0. -1.
        -11    1    1    2    0    0 -0.32227700591E+02  0.17033132039E+02  0.39321642190E+02  0.53618502561E+02  0.00000000000E+00 0.  1.
         11    1    1    2    0    0  0.25739530324E+02 -0.36338394419E+02  0.17195799497E+03  0.17763038694E+03  0.00000000000E+00 0. -1.
<mgrwt>
<rscale>  0 0.11755543E+03</rscale>
<asrwt>0</asrwt>
<pdfrwt beam="1">  1        1 0.10006347E+00 0.12665035E+03</pdfrwt>
<pdfrwt beam="2">  1       -1 0.29736765E-02 0.12665035E+03</pdfrwt>
<totfact> 0.11386234E+04</totfact>
</mgrwt>
</event>
<event>
 6    1  0.5818426E-006  0.1251758E+03  0.7546771E-02  0.1249770E+00
         -1   -1    0    0    0  501 -0.00000000000E+00  0.00000000000E+00  0.13360880925E+03  0.13360880925E+03  0.00000000000E+00 0.  1.
          1   -1    0    0  501    0  0.00000000000E+00 -0.00000000000E+00 -0.92010434179E+02  0.92010434179E+02  0.00000000000E+00 0. -1.
          5    1    1    2  502    0  0.30985388374E+01  0.15197110992E+02  0.87591534613E+02  0.89078168264E+02  0.47000000000E+01 0. -1.
         -5    1    1    2    0  502 -0.59183182296E+01 -0.92116765229E+01 -0.42371679358E+02  0.44015118842E+02  0.47000000000E+01 0. -1.
        -11    1    1    2    0    0 -0.86725810392E+00  0.30595190557E+02  0.29888435844E+02  0.42780093724E+02  0.00000000000E+00 0.  1.
         11    1    1    2    0    0  0.36870374962E+01 -0.36580625026E+02 -0.33509916032E+02  0.49745862595E+02  0.00000000000E+00 0. -1.
<mgrwt>
<rscale>  0 0.11604409E+03</rscale>
<asrwt>0</asrwt>
<pdfrwt beam="2">  1        1 0.14155451E-01 0.12517583E+03</pdfrwt>
<pdfrwt beam="1">  1       -1 0.20555201E-01 0.12517583E+03</pdfrwt>
<totfact> 0.72945218E+03</totfact>
</mgrwt>
</event>
<event>
 6    1  0.5818426E-006  0.1424986E+03  0.7546771E-02  0.1220777E+00
          1   -1    0    0  501    0  0.00000000000E+00  0.00000000000E+00  0.65493704380E+03  0.65493704380E+03  0.00000000000E+00 0. -1.
         -1   -1    0    0    0  501 -0.00000000000E+00 -0.00000000000E+00 -0.26561598603E+02  0.26561598603E+02  0.00000000000E+00 0.  1.
          5    1    1    2  502    0 -0.56887049831E+02  0.84194963274E+02  0.21814722575E+03  0.24069738341E+03  0.47000000000E+01 0.  1.
         -5    1    1    2    0  502  0.74882974135E+01 -0.36864133081E+02  0.47670454227E+02  0.60906494828E+02  0.47000000000E+01 0.  1.
        -11    1    1    2    0    0  0.59165814893E+02 -0.66153583648E+02  0.24828132978E+03  0.26366742120E+03  0.00000000000E+00 0.  1.
         11    1    1    2    0    0 -0.97670624754E+01  0.18822753455E+02  0.11427643543E+03  0.11622734296E+03  0.00000000000E+00 0. -1.
<mgrwt>
<rscale>  0 0.13460567E+03</rscale>
<asrwt>0</asrwt>
<pdfrwt beam="1">  1        1 0.10075953E+00 0.14249863E+03</pdfrwt>
<pdfrwt beam="2">  1       -1 0.40864003E-02 0.14249863E+03</pdfrwt>
<totfact> 0.71387019E+03</totfact>
</mgrwt>
</event>
<event>
 6    1  0.5818426E-006  0.1311163E+03  0.7546771E-02  0.1239610E+00
         -1   -1    0    0    0  501 -0.00000000000E+00  0.00000000000E+00  0.11195179227E+03  0.11195179227E+03  0.00000000000E+00 0.  1.
          1   -1    0    0  501    0  0.00000000000E+00 -0.00000000000E+00 -0.12878858124E+03  0.12878858124E+03  0.00000000000E+00 0. -1.
          5    1    1    2  502    0 -0.10523466589E+02 -0.17648679082E+02 -0.50679829485E+02  0.54888562916E+02  0.47000000000E+01 0. -1.
         -5    1    1    2    0  502 -0.17718938159E+00 -0.20481591748E+02  0.75739777976E+02  0.78601087553E+02  0.47000000000E+01 0. -1.
        -11    1    1    2    0    0  0.26320262097E+02 -0.33511336173E+01  0.18491940934E+02  0.32340967408E+02  0.00000000000E+00 0.  1.
         11    1    1    2    0    0 -0.15619606126E+02  0.41481404448E+02 -0.60388678395E+02  0.74909755632E+02  0.00000000000E+00 0. -1.
<mgrwt>
<rscale>  0 0.12213876E+03</rscale>
<asrwt>0</asrwt>
<pdfrwt beam="2">  1        1 0.19813628E-01 0.13111631E+03</pdfrwt>
<pdfrwt beam="1">  1       -1 0.17223353E-01 0.13111631E+03</pdfrwt>
<totfact> 0.63026856E+03</totfact>
</mgrwt>
</event>
<event>
 6    1  0.5818426E-006  0.1703528E+03  0.7546771E-02  0.1184026E+00
          2   -1    0    0  501    0  0.00000000000E+00  0.00000000000E+00  0.12521726470E+03  0.12521726470E+03  0.00000000000E+00 0. -1.
         -2   -1    0    0    0  501 -0.00000000000E+00 -0.00000000000E+00 -0.27459804465E+03  0.27459804465E+03  0.00000000000E+00 0.  1.
          5    1    1    2  502    0 -0.67845667673E+02 -0.57404607266E+02 -0.58177187246E+02  0.10632496731E+03  0.47000000000E+01 0. -1.
         -5    1    1    2    0  502  0.44304896476E+02 -0.55909792859E+02 -0.12369850738E+03  0.14287140903E+03  0.47000000000E+01 0. -1.
        -11    1    1    2    0    0 -0.27762675317E+02  0.35474351505E+02  0.35485657682E+02  0.57344813685E+02  0.00000000000E+00 0. -1.
         11    1    1    2    0    0  0.51303446513E+02  0.77840048621E+02 -0.29907430036E+01  0.93274119332E+02  0.00000000000E+00 0.  1.
<mgrwt>
<rscale>  0 0.16420800E+03</rscale>
<asrwt>0</asrwt>
<pdfrwt beam="1">  1        2 0.19264195E-01 0.17035277E+03</pdfrwt>
<pdfrwt beam="2">  1       -2 0.42245853E-01 0.17035277E+03</pdfrwt>
<totfact> 0.15294561E+03</totfact>
</mgrwt>
</event>
<event>
 6    1  0.5818426E-006  0.3377513E+03  0.7546771E-02  0.1067758E+00
          1   -1    0    0  501    0  0.00000000000E+00  0.00000000000E+00  0.11587439570E+03  0.11587439570E+03  0.00000000000E+00 0.  1.
         -1   -1    0    0    0  501 -0.00000000000E+00 -0.00000000000E+00 -0.24611982280E+03  0.24611982280E+03  0.00000000000E+00 0. -1.
          5    1    1    2  502    0  0.21466137944E+01  0.70251442587E+00  0.21775173527E+02  0.22390838739E+02  0.47000000000E+01 0.  1.
         -5    1    1    2    0  502  0.10503981674E+03  0.17068052496E+02 -0.16592710840E+03  0.19717651184E+03  0.47000000000E+01 0.  1.
        -11    1    1    2    0    0 -0.52672127304E+02  0.91892006623E+00  0.51458916386E+02  0.73642497815E+02  0.00000000000E+00 0. -1.
         11    1    1    2    0    0 -0.54514303226E+02 -0.18689486988E+02 -0.37552408605E+02  0.68784370115E+02  0.00000000000E+00 0.  1.
<mgrwt>
<rscale>  0 0.33775130E+03</rscale>
<asrwt>0</asrwt>
<pdfrwt beam="1">  1        1 0.17826830E-01 0.33775130E+03</pdfrwt>
<pdfrwt beam="2">  1       -1 0.37864588E-01 0.33775130E+03</pdfrwt>
<totfact> 0.20261655E+03</totfact>
</mgrwt>
</event>
<event>
 6    1  0.5818426E-006  0.1301354E+03  0.7546771E-02  0.1240070E+00
         -2   -1    0    0    0  501 -0.00000000000E+00  0.00000000000E+00  0.57574248406E+03  0.57574248406E+03  0.00000000000E+00 0.  1.
          2   -1    0    0  501    0  0.00000000000E+00 -0.00000000000E+00 -0.47734338155E+02  0.47734338155E+02  0.00000000000E+00 0. -1.
          5    1    1    2  502    0  0.24215620324E+01 -0.20451443287E+02  0.59526970719E+01  0.21946528145E+02  0.47000000000E+01 0. -1.
         -5    1    1    2    0  502  0.21559095056E+02 -0.66666943817E+01  0.49813845511E+03  0.49867148490E+03  0.47000000000E+01 0. -1.
        -11    1    1    2    0    0  0.16530338579E+02  0.25065504533E+01  0.47181508920E+02  0.50056265069E+02  0.00000000000E+00 0.  1.
         11    1    1    2    0    0 -0.40510995667E+02  0.24611587215E+02 -0.23264515202E+02  0.52802544094E+02  0.00000000000E+00 0. -1.
<mgrwt>
<rscale>  0 0.12185393E+03</rscale>
<asrwt>0</asrwt>
<pdfrwt beam="2">  1        2 0.73437447E-02 0.13013541E+03</pdfrwt>
<pdfrwt beam="1">  1       -2 0.88575762E-01 0.13013541E+03</pdfrwt>
<totfact> 0.10450596E+03</totfact>
</mgrwt>
</event>
<event>
 6    1  0.5818426E-006  0.1252289E+03  0.7546771E-02  0.1249585E+00
          2   -1    0    0  501    0  0.00000000000E+00  0.00000000000E+00  0.19811466280E+03  0.19811466280E+03  0.00000000000E+00 0. -1.
         -2   -1    0    0    0  501 -0.00000000000E+00 -0.00000000000E+00 -0.66912220804E+02  0.66912220804E+02  0.00000000000E+00 0.  1.
          5    1    1    2  502    0 -0.25337654951E+01  0.51371788923E+02  0.47876552450E+02  0.70425385616E+02  0.47000000000E+01 0. -1.
         -5    1    1    2    0  502  0.86163123689E+01 -0.55770616384E+02 -0.15907755874E+02  0.58819632671E+02  0.47000000000E+01 0. -1.
        -11    1    1    2    0    0  0.27524091508E+01 -0.13124622251E+02 -0.14857963832E+02  0.20014758419E+02  0.00000000000E+00 0.  1.
         11    1    1    2    0    0 -0.88349560246E+01  0.17523449712E+02  0.11409160926E+03  0.11576710690E+03  0.00000000000E+00 0. -1.
<mgrwt>
<rscale>  0 0.11615120E+03</rscale>
<asrwt>0</asrwt>
<pdfrwt beam="1">  1        2 0.30479179E-01 0.12522887E+03</pdfrwt>
<pdfrwt beam="2">  1       -2 0.10294188E-01 0.12522887E+03</pdfrwt>
<totfact> 0.10220980E+04</totfact>
</mgrwt>
</event>
<event>
 6    1  0.5818426E-006  0.1907748E+03  0.7546771E-02  0.1162497E+00
          3   -1    0    0  501    0  0.00000000000E+00  0.00000000000E+00  0.27543585733E+03  0.27543585733E+03  0.00000000000E+00 0. -1.
         -3   -1    0    0    0  501 -0.00000000000E+00 -0.00000000000E+00 -0.15978470942E+03  0.15978470942E+03  0.00000000000E+00 0.  1.
          5    1    1    2  502    0  0.83485764898E+02 -0.21881606555E+02  0.28220428438E+02  0.90923925494E+02  0.47000000000E+01 0. -1.
         -5    1    1    2    0  502  0.32056049332E+02 -0.64259223889E+02 -0.78231337995E+02  0.10629708556E+03  0.47000000000E+01 0. -1.
        -11    1    1    2    0    0 -0.25967614451E+02 -0.13538439644E+02  0.66198690083E+01  0.30023807453E+02  0.00000000000E+00 0.  1.
         11    1    1    2    0    0 -0.89574199778E+02  0.99679270088E+02  0.15904218845E+03  0.20797574825E+03  0.00000000000E+00 0. -1.
<mgrwt>
<rscale>  0 0.18559378E+03</rscale>
<asrwt>0</asrwt>
<pdfrwt beam="1">  1        3 0.42374747E-01 0.19077483E+03</pdfrwt>
<pdfrwt beam="2">  1       -3 0.24582263E-01 0.19077483E+03</pdfrwt>
<totfact> 0.20897536E+02</totfact>
</mgrwt>
</event>
<event>
 6    1  0.5818426E-006  0.1436283E+03  0.7546771E-02  0.1219869E+00
         -2   -1    0    0    0  501 -0.00000000000E+00  0.00000000000E+00  0.48237516796E+02  0.48237516796E+02  0.00000000000E+00 0.  1.
          2   -1    0    0  501    0  0.00000000000E+00 -0.00000000000E+00 -0.36662630701E+03  0.36662630701E+03  0.00000000000E+00 0. -1.
          5    1    1    2  502    0 -0.44641938115E+02 -0.53763992042E+02 -0.20604063901E+02  0.73007444334E+02  0.47000000000E+01 0. -1.
         -5    1    1    2    0  502  0.52127777129E+02 -0.16578342859E+02 -0.10198358233E+03  0.11582265610E+03  0.47000000000E+01 0. -1.
        -11    1    1    2    0    0 -0.82567384772E+01 -0.18991814611E+02 -0.19772334061E+02  0.28632288534E+02  0.00000000000E+00 0.  1.
         11    1    1    2    0    0  0.77089946320E+00  0.89334149511E+02 -0.17602880992E+03  0.19740143484E+03  0.00000000000E+00 0. -1.
<mgrwt>
<rscale>  0 0.13524840E+03</rscale>
<asrwt>0</asrwt>
<pdfrwt beam="2">  1        2 0.56404046E-01 0.14362826E+03</pdfrwt>
<pdfrwt beam="1">  1       -2 0.74211566E-02 0.14362826E+03</pdfrwt>
<totfact> 0.89144423E+03</totfact>
</mgrwt>
</event>
<event>
 6    1  0.5818426E-006  0.3000205E+03  0.7546771E-02  0.1085230E+00
          1   -1    0    0  501    0  0.00000000000E+00  0.00000000000E+00  0.60412348890E+03  0.60412348890E+03  0.00000000000E+00 0. -1.
         -1   -1    0    0    0  501 -0.00000000000E+00 -0.00000000000E+00 -0.37249129417E+02  0.37249129417E+02  0.00000000000E+00 0.  1.
          5    1    1    2  502    0 -0.94622934149E+02  0.18202784577E+02  0.68949824934E+02  0.11857912713E+03  0.47000000000E+01 0. -1.
         -5    1    1    2    0  502  0.29870318457E+02  0.22793812239E+02  0.90145622243E+02  0.97775850856E+02  0.47000000000E+01 0. -1.
        -11    1    1    2    0    0  0.46672079278E+02  0.23616359215E+02  0.16125363816E+03  0.16952507551E+03  0.00000000000E+00 0.  1.
         11    1    1    2    0    0  0.18080536414E+02 -0.64612956031E+02  0.24652527415E+03  0.25549256482E+03  0.00000000000E+00 0. -1.
<mgrwt>
<rscale>  0 0.30002049E+03</rscale>
<asrwt>0</asrwt>
<pdfrwt beam="1">  1        1 0.92942068E-01 0.30002049E+03</pdfrwt>
<pdfrwt beam="2">  1       -1 0.57306357E-02 0.30002049E+03</pdfrwt>
<totfact> 0.49876450E+03</totfact>
</mgrwt>
</event>
<event>
 6    1  0.5818426E-006  0.1504610E+03  0.7546771E-02  0.1208426E+00
          2   -1    0    0  501    0  0.00000000000E+00  0.00000000000E+00  0.25564297418E+03  0.25564297418E+03  0.00000000000E+00 0. -1.
         -2   -1    0    0    0  501 -0.00000000000E+00 -0.00000000000E+00 -0.85983821711E+02  0.85983821711E+02  0.00000000000E+00 0.  1.
          5    1    1    2  502    0 -0.50876979703E+02  0.91890738851E+01  0.22309112692E+02  0.56503917136E+02  0.47000000000E+01 0. -1.
         -5    1    1    2    0  502  0.32185673145E+02 -0.90828665526E+02  0.65461074501E+01  0.96699046323E+02  0.47000000000E+01 0. -1.
        -11    1    1    2    0    0 -0.26477844533E+02  0.95542071249E-01  0.11132859890E+02  0.28723264939E+02  0.00000000000E+00 0.  1.
         11    1    1    2    0    0  0.45169151092E+02  0.81544049570E+02  0.12967107244E+03  0.15970056749E+03  0.00000000000E+00 0. -1.
<mgrwt>
<rscale>  0 0.14370724E+03</rscale>
<asrwt>0</asrwt>
<pdfrwt beam="1">  1        2 0.39329688E-01 0.15046104E+03</pdfrwt>
<pdfrwt beam="2">  1       -2 0.13228280E-01 0.15046104E+03</pdfrwt>
<totfact> 0.52809510E+03</totfact>
</mgrwt>
</event>
<event>
 6    1  0.5818426E-006  0.1274633E+03  0.7546771E-02  0.1244039E+00
         -3   -1    0    0    0  501 -0.00000000000E+00  0.00000000000E+00  0.95802324377E+02  0.95802324377E+02  0.00000000000E+00 0. -1.
          3   -1    0    0  501    0  0.00000000000E+00 -0.00000000000E+00 -0.13862350820E+03  0.13862350820E+03  0.00000000000E+00 0.  1.
          5    1    1    2  502    0 -0.10201775163E+02 -0.12789696803E+02  0.58572339908E+02  0.60995586423E+02  0.47000000000E+01 0.  1.
         -5    1    1    2    0  502  0.29948170935E+02 -0.24658190723E+01 -0.59101969250E+02  0.66468834616E+02  0.47000000000E+01 0.  1.
        -11    1    1    2    0    0  0.32973183179E+02 -0.15034637328E+02 -0.78396909185E+01  0.37077376960E+02  0.00000000000E+00 0.  1.
         11    1    1    2    0    0 -0.52719578951E+02  0.30290153203E+02 -0.34451863558E+02  0.69884034575E+02  0.00000000000E+00 0. -1.
<mgrwt>
<rscale>  0 0.11943099E+03</rscale>
<asrwt>0</asrwt>
<pdfrwt beam="2">  1        3 0.21326694E-01 0.12746332E+03</pdfrwt>
<pdfrwt beam="1">  1       -3 0.14738819E-01 0.12746332E+03</pdfrwt>
<totfact> 0.17384042E+03</totfact>
</mgrwt>
</event>
<event>
 6    1  0.5818426E-006  0.1403773E+03  0.7546771E-02  0.1222391E+00
          1   -1    0    0  501    0  0.00000000000E+00  0.00000000000E+00  0.36720939407E+03  0.36720939407E+03  0.00000000000E+00 0. -1.
         -1   -1    0    0    0  501 -0.00000000000E+00 -0.00000000000E+00 -0.52590991075E+02  0.52590991075E+02  0.00000000000E+00 0.  1.
          5    1    1    2  502    0  0.63960717172E+02  0.11441800354E+02  0.19145397596E+01  0.65173948775E+02  0.47000000000E+01 0. -1.
         -5    1    1    2    0  502 -0.13154397087E+02 -0.50159890905E+02  0.85772745374E+02  0.10033995549E+03  0.47000000000E+01 0. -1.
        -11    1    1    2    0    0  0.12046674202E+02  0.23099932116E+02  0.15630482881E+03  0.15846112688E+03  0.00000000000E+00 0. -1.
         11    1    1    2    0    0 -0.62852994287E+02  0.15618158435E+02  0.70626289044E+02  0.95825353993E+02  0.00000000000E+00 0.  1.
<mgrwt>
<rscale>  0 0.13347370E+03</rscale>
<asrwt>0</asrwt>
<pdfrwt beam="1">  1        1 0.56493751E-01 0.14037732E+03</pdfrwt>
<pdfrwt beam="2">  1       -1 0.80909219E-02 0.14037732E+03</pdfrwt>
<totfact> 0.55008903E+03</totfact>
</mgrwt>
</event>
<event>
 6    1  0.5818426E-006  0.1333475E+03  0.7546771E-02  0.1237350E+00
         -3   -1    0    0    0  501 -0.00000000000E+00  0.00000000000E+00  0.17420322387E+02  0.17420322387E+02  0.00000000000E+00 0.  1.
          3   -1    0    0  501    0  0.00000000000E+00 -0.00000000000E+00 -0.77398077514E+03  0.77398077514E+03  0.00000000000E+00 0. -1.
          5    1    1    2  502    0 -0.15971000774E+02  0.19704461380E+02 -0.10233820028E+02  0.27751751951E+02  0.47000000000E+01 0. -1.
         -5    1    1    2    0  502 -0.30234007291E+02 -0.14978868284E+02 -0.45338253728E+03  0.45466061717E+03  0.47000000000E+01 0. -1.
        -11    1    1    2    0    0 -0.79917619721E+01  0.23268639981E+02 -0.28731246639E+02  0.37825684388E+02  0.00000000000E+00 0.  1.
         11    1    1    2    0    0  0.54196770038E+02 -0.27994233077E+02 -0.26421284880E+03  0.27116304401E+03  0.00000000000E+00 0. -1.
<mgrwt>
<rscale>  0 0.12355163E+03</rscale>
<asrwt>0</asrwt>
<pdfrwt beam="2">  1        3 0.11907398E+00 0.13334754E+03</pdfrwt>
<pdfrwt beam="1">  1       -3 0.26800493E-02 0.13334754E+03</pdfrwt>
<totfact> 0.84595240E+02</totfact>
</mgrwt>
</event>
<event>
 6    1  0.5818426E-006  0.1257973E+03  0.7546771E-02  0.1249635E+00
         -2   -1    0    0    0  501 -0.00000000000E+00  0.00000000000E+00  0.45702075108E+02  0.45702075108E+02  0.00000000000E+00 0.  1.
          2   -1    0    0  501    0  0.00000000000E+00 -0.00000000000E+00 -0.26247256759E+03  0.26247256759E+03  0.00000000000E+00 0. -1.
          5    1    1    2  502    0  0.19163471479E+02  0.35226952303E+02  0.87502495966E+01  0.41313843632E+02  0.47000000000E+01 0.  1.
         -5    1    1    2    0  502 -0.84004872297E+01 -0.44393544414E+02 -0.11396143940E+03  0.12268110955E+03  0.47000000000E+01 0.  1.
        -11    1    1    2    0    0 -0.38732156004E+02 -0.41950995755E+01 -0.13330438985E+02  0.41176199105E+02  0.00000000000E+00 0.  1.
         11    1    1    2    0    0  0.27969171755E+02  0.13361691687E+02 -0.98228863690E+02  0.10300349040E+03  0.00000000000E+00 0. -1.
<mgrwt>
<rscale>  0 0.11612190E+03</rscale>
<asrwt>0</asrwt>
<pdfrwt beam="2">  1        2 0.40380395E-01 0.12579726E+03</pdfrwt>
<pdfrwt beam="1">  1       -2 0.70310885E-02 0.12579726E+03</pdfrwt>
<totfact> 0.13662452E+04</totfact>
</mgrwt>
</event>
<event>
 6    1  0.5818426E-006  0.1262855E+03  0.7546771E-02  0.1249187E+00
          2   -1    0    0  501    0  0.00000000000E+00  0.00000000000E+00  0.71046446425E+03  0.71046446425E+03  0.00000000000E+00 0.  1.
         -2   -1    0    0    0  501 -0.00000000000E+00 -0.00000000000E+00 -0.17547708730E+02  0.17547708730E+02  0.00000000000E+00 0. -1.
          5    1    1    2  502    0 -0.16214894175E+02 -0.14787310214E+02  0.29646599843E+03  0.29731425388E+03  0.47000000000E+01 0.  1.
         -5    1    1    2    0  502  0.33666116095E+02  0.19074186789E+02  0.20842418488E+02  0.44200999796E+02  0.47000000000E+01 0.  1.
        -11    1    1    2    0    0  0.35339718699E+02  0.89466336858E+01  0.13781347410E+03  0.14255346932E+03  0.00000000000E+00 0. -1.
         11    1    1    2    0    0 -0.52790940619E+02 -0.13233510260E+02  0.23779486450E+03  0.24394344998E+03  0.00000000000E+00 0.  1.
<mgrwt>
<rscale>  0 0.11638272E+03</rscale>
<asrwt>0</asrwt>
<pdfrwt beam="1">  1        2 0.10930220E+00 0.12628554E+03</pdfrwt>
<pdfrwt beam="2">  1       -2 0.26996480E-02 0.12628554E+03</pdfrwt>
<totfact> 0.19222460E+04</totfact>
</mgrwt>
</event>
<event>
 6    1  0.5818426E-006  0.1434841E+03  0.7546771E-02  0.1219287E+00
         -2   -1    0    0    0  501 -0.00000000000E+00  0.00000000000E+00  0.12050068373E+03  0.12050068373E+03  0.00000000000E+00 0.  1.
          2   -1    0    0  501    0  0.00000000000E+00 -0.00000000000E+00 -0.16928839755E+03  0.16928839755E+03  0.00000000000E+00 0. -1.
          5    1    1    2  502    0 -0.40345044206E+02 -0.11828221299E+02  0.19614344281E+02  0.46630911557E+02  0.47000000000E+01 0. -1.
         -5    1    1    2    0  502  0.96097171194E+02 -0.26858485446E+02  0.15483836450E+02  0.10108354833E+03  0.47000000000E+01 0.  1.
        -11    1    1    2    0    0 -0.42780128969E+02 -0.25082423771E+02 -0.36174247712E+02  0.61382763170E+02  0.00000000000E+00 0.  1.
         11    1    1    2    0    0 -0.12971998019E+02  0.63769130516E+02 -0.47711646835E+02  0.80691858220E+02  0.00000000000E+00 0. -1.
<mgrwt>
<rscale>  0 0.13566309E+03</rscale>
<asrwt>0</asrwt>
<pdfrwt beam="2">  1        2 0.26044369E-01 0.14348407E+03</pdfrwt>
<pdfrwt beam="1">  1       -2 0.18538567E-01 0.14348407E+03</pdfrwt>
<totfact> 0.47197343E+03</totfact>
</mgrwt>
</event>
<event>
 6    1  0.5818426E-006  0.1618071E+03  0.7546771E-02  0.1193833E+00
         -1   -1    0    0    0  501 -0.00000000000E+00  0.00000000000E+00  0.28774985200E+03  0.28774985200E+03  0.00000000000E+00 0.  1.
          1   -1    0    0  501    0  0.00000000000E+00 -0.00000000000E+00 -0.81674066014E+02  0.81674066014E+02  0.00000000000E+00 0. -1.
          5    1    1    2  502    0  0.54170130088E+02  0.24726238946E+02  0.11084494256E+03  0.12591457889E+03  0.47000000000E+01 0. -1.
         -5    1    1    2    0  502 -0.38342391184E+02  0.76789105544E+02  0.38155196690E+02  0.94045811849E+02  0.47000000000E+01 0. -1.
        -11    1    1    2    0    0  0.20372483043E+02 -0.25196697311E+02 -0.17463571323E+02  0.36808802535E+02  0.00000000000E+00 0. -1.
         11    1    1    2    0    0 -0.36200221947E+02 -0.76318647179E+02  0.74539218052E+02  0.11265472473E+03  0.00000000000E+00 0.  1.
<mgrwt>
<rscale>  0 0.15553399E+03</rscale>
<asrwt>0</asrwt>
<pdfrwt beam="2">  1        1 0.12565241E-01 0.16180708E+03</pdfrwt>
<pdfrwt beam="1">  1       -1 0.44269207E-01 0.16180708E+03</pdfrwt>
<totfact> 0.23697308E+03</totfact>
</mgrwt>
</event>
<event>
 6    1  0.5818426E-006  0.1378711E+03  0.7546771E-02  0.1227653E+00
         -4   -1    0    0    0  501 -0.00000000000E+00  0.00000000000E+00  0.12610630547E+03  0.12610630547E+03  0.00000000000E+00 0.  1.
          4   -1    0    0  501    0  0.00000000000E+00 -0.00000000000E+00 -0.12038633918E+03  0.12038633918E+03  0.00000000000E+00 0. -1.
          5    1    1    2  502    0  0.77355897013E+02 -0.11291930931E+02  0.14318663804E+02  0.79615052848E+02  0.47000000000E+01 0. -1.
         -5    1    1    2    0  502 -0.44221351695E+02 -0.36495692576E+02 -0.96632209358E+01  0.58334649748E+02  0.47000000000E+01 0. -1.
        -11    1    1    2    0    0  0.22197307180E+02  0.24968830814E+02  0.27346835940E+02  0.43174209827E+02  0.00000000000E+00 0.  1.
         11    1    1    2    0    0 -0.55331852498E+02  0.22818792693E+02 -0.26282312524E+02  0.65368732224E+02  0.00000000000E+00 0. -1.
<mgrwt>
<rscale>  0 0.12986741E+03</rscale>
<asrwt>0</asrwt>
<pdfrwt beam="2">  1        4 0.18520975E-01 0.13787113E+03</pdfrwt>
<pdfrwt beam="1">  1       -4 0.19400970E-01 0.13787113E+03</pdfrwt>
<totfact> 0.10229526E+03</totfact>
</mgrwt>
</event>
<event>
 6    1  0.5818426E-006  0.1322585E+03  0.7546771E-02  0.1237678E+00
         -1   -1    0    0    0  501 -0.00000000000E+00  0.00000000000E+00  0.63097400843E+03  0.63097400843E+03  0.00000000000E+00 0.  1.
          1   -1    0    0  501    0  0.00000000000E+00 -0.00000000000E+00 -0.25191261639E+02  0.25191261639E+02  0.00000000000E+00 0. -1.
          5    1    1    2  502    0 -0.26569684346E+01 -0.73988935868E+02  0.21591172563E+03  0.22830108492E+03  0.47000000000E+01 0. -1.
         -5    1    1    2    0  502 -0.30281070667E+02  0.45968104964E+02  0.24914622294E+03  0.25519784545E+03  0.47000000000E+01 0. -1.
        -11    1    1    2    0    0  0.31402669431E+02 -0.19864973842E+01  0.28936740269E+01  0.31598214643E+02  0.00000000000E+00 0. -1.
         11    1    1    2    0    0  0.15353696706E+01  0.30007328288E+02  0.13783112419E+03  0.14106812506E+03  0.00000000000E+00 0.  1.
<mgrwt>
<rscale>  0 0.12334544E+03</rscale>
<asrwt>0</asrwt>
<pdfrwt beam="2">  1        1 0.38755792E-02 0.13225854E+03</pdfrwt>
<pdfrwt beam="1">  1       -1 0.97072912E-01 0.13225854E+03</pdfrwt>
<totfact> 0.24717762E+03</totfact>
</mgrwt>
</event>
<event>
 6    1  0.5818426E-006  0.1505775E+03  0.7546771E-02  0.1211877E+00
          2   -1    0    0  501    0  0.00000000000E+00  0.00000000000E+00  0.27434538120E+03  0.27434538120E+03  0.00000000000E+00 0. -1.
         -2   -1    0    0    0  501 -0.00000000000E+00 -0.00000000000E+00 -0.67982523936E+02  0.67982523936E+02  0.00000000000E+00 0.  1.
          5    1    1    2  502    0 -0.19275855713E+02 -0.58310296406E+02 -0.10928137559E+02  0.62555283317E+02  0.47000000000E+01 0.  1.
         -5    1    1    2    0  502 -0.55264233099E+02  0.19620196011E+02  0.89994867855E+02  0.10751862067E+03  0.47000000000E+01 0.  1.
        -11    1    1    2    0    0  0.46470374861E+02 -0.19586789838E+02  0.66714027746E+02  0.83629537688E+02  0.00000000000E+00 0. -1.
         11    1    1    2    0    0  0.28069713951E+02  0.58276890233E+02  0.60582099220E+02  0.88624463454E+02  0.00000000000E+00 0.  1.
<mgrwt>
<rscale>  0 0.14108456E+03</rscale>
<asrwt>0</asrwt>
<pdfrwt beam="1">  1        2 0.42206981E-01 0.15057750E+03</pdfrwt>
<pdfrwt beam="2">  1       -2 0.10458850E-01 0.15057750E+03</pdfrwt>
<totfact> 0.71300365E+03</totfact>
</mgrwt>
</event>
<event>
 6    1  0.5818426E-006  0.1280703E+03  0.7546771E-02  0.1245729E+00
         -2   -1    0    0    0  501 -0.00000000000E+00  0.00000000000E+00  0.20254203017E+02  0.20254203017E+02  0.00000000000E+00 0.  1.
          2   -1    0    0  501    0  0.00000000000E+00 -0.00000000000E+00 -0.65893024240E+03  0.65893024240E+03  0.00000000000E+00 0. -1.
          5    1    1    2  502    0  0.63437736880E+02 -0.12154512515E+02 -0.15179831474E+03  0.16503604755E+03  0.47000000000E+01 0. -1.
         -5    1    1    2    0  502 -0.60559048356E+02 -0.15585729183E+02 -0.11858393274E+03  0.13414377510E+03  0.47000000000E+01 0. -1.
        -11    1    1    2    0    0  0.35574952210E+02  0.35535535481E+02 -0.14974432309E+03  0.15796111485E+03  0.00000000000E+00 0. -1.
         11    1    1    2    0    0 -0.38453640734E+02 -0.77952937827E+01 -0.21854946882E+03  0.22204350792E+03  0.00000000000E+00 0.  1.
<mgrwt>
<rscale>  0 0.11841840E+03</rscale>
<asrwt>0</asrwt>
<pdfrwt beam="2">  1        2 0.10137388E+00 0.12807032E+03</pdfrwt>
<pdfrwt beam="1">  1       -2 0.31160313E-02 0.12807032E+03</pdfrwt>
<totfact> 0.17039715E+04</totfact>
</mgrwt>
</event>
<event>
 6    1  0.5818426E-006  0.1462488E+03  0.7546771E-02  0.1214857E+00
          1   -1    0    0  501    0  0.00000000000E+00  0.00000000000E+00  0.78191088818E+02  0.78191088818E+02  0.00000000000E+00 0. -1.
         -1   -1    0    0    0  501 -0.00000000000E+00 -0.00000000000E+00 -0.22485220753E+03  0.22485220753E+03  0.00000000000E+00 0.  1.
          5    1    1    2  502    0 -0.14074419329E+02  0.76342201706E+02 -0.90741990671E+02  0.11950907878E+03  0.47000000000E+01 0. -1.
         -5    1    1    2    0  502 -0.38578800460E+02 -0.21646825554E+02  0.12695185727E+02  0.46261935132E+02  0.47000000000E+01 0. -1.
        -11    1    1    2    0    0  0.48880158302E+02 -0.79342730083E+02 -0.60254949160E+02  0.11097385994E+03  0.00000000000E+00 0.  1.
         11    1    1    2    0    0  0.37730614865E+01  0.24647353931E+02 -0.83593646095E+01  0.26298422490E+02  0.00000000000E+00 0. -1.
<mgrwt>
<rscale>  0 0.13887025E+03</rscale>
<asrwt>0</asrwt>
<pdfrwt beam="1">  1        1 0.12029398E-01 0.14624885E+03</pdfrwt>
<pdfrwt beam="2">  1       -1 0.34592647E-01 0.14624885E+03</pdfrwt>
<totfact> 0.38469929E+03</totfact>
</mgrwt>
</event>
<event>
 6    1  0.5818426E-006  0.1255250E+03  0.7546771E-02  0.1249015E+00
         -3   -1    0    0    0  501 -0.00000000000E+00  0.00000000000E+00  0.54265719913E+03  0.54265719913E+03  0.00000000000E+00 0.  1.
          3   -1    0    0  501    0  0.00000000000E+00 -0.00000000000E+00 -0.22026942879E+02  0.22026942879E+02  0.00000000000E+00 0. -1.
          5    1    1    2  502    0 -0.16936967020E+02 -0.58386366741E+02  0.21149147674E+03  0.22010580048E+03  0.47000000000E+01 0.  1.
         -5    1    1    2    0  502  0.25739465751E+02  0.51105534748E+02  0.93692653102E+02  0.10988493538E+03  0.47000000000E+01 0.  1.
        -11    1    1    2    0    0 -0.45974088462E+02 -0.75560822812E+01  0.15766280395E+03  0.16440277047E+03  0.00000000000E+00 0.  1.
         11    1    1    2    0    0  0.37171589731E+02  0.14836914274E+02  0.57783322455E+02  0.70290635665E+02  0.00000000000E+00 0. -1.
<mgrwt>
<rscale>  0 0.11648294E+03</rscale>
<asrwt>0</asrwt>
<pdfrwt beam="2">  1        3 0.33887609E-02 0.12552503E+03</pdfrwt>
<pdfrwt beam="1">  1       -3 0.83485713E-01 0.12552503E+03</pdfrwt>
<totfact> 0.12998570E+03</totfact>
</mgrwt>
</event>
<event>
 6    1  0.5818426E-006  0.1795872E+03  0.7546771E-02  0.1174299E+00
         -2   -1    0    0    0  501 -0.00000000000E+00  0.00000000000E+00  0.46904367440E+02  0.46904367440E+02  0.00000000000E+00 0.  1.
          2   -1    0    0  501    0  0.00000000000E+00 -0.00000000000E+00 -0.72287472116E+03  0.72287472116E+03  0.00000000000E+00 0. -1.
          5    1    1    2  502    0 -0.41114837773E+02 -0.12393490225E+02 -0.26322616813E+02  0.50586546047E+02  0.47000000000E+01 0.  1.
         -5    1    1    2    0  502 -0.75197377066E+01  0.13181469521E+03 -0.17358973923E+03  0.21814478654E+03  0.47000000000E+01 0.  1.
        -11    1    1    2    0    0 -0.20763068474E+02 -0.52030782236E+02 -0.22835573812E+03  0.23512688159E+03  0.00000000000E+00 0. -1.
         11    1    1    2    0    0  0.69397643954E+02 -0.67390422752E+02 -0.24770225956E+03  0.26592087443E+03  0.00000000000E+00 0.  1.
<mgrwt>
<rscale>  0 0.17344811E+03</rscale>
<asrwt>0</asrwt>
<pdfrwt beam="2">  1        2 0.11121149E+00 0.17958725E+03</pdfrwt>
<pdfrwt beam="1">  1       -2 0.72160571E-02 0.17958725E+03</pdfrwt>
<totfact> 0.44041899E+03</totfact>
</mgrwt>
</event>
<event>
 6    1  0.5818426E-006  0.1286485E+03  0.7546771E-02  0.1244404E+00
         -1   -1    0    0    0  501 -0.00000000000E+00  0.00000000000E+00  0.12286196578E+03  0.12286196578E+03  0.00000000000E+00 0.  1.
          1   -1    0    0  501    0  0.00000000000E+00 -0.00000000000E+00 -0.11537334590E+03  0.11537334590E+03  0.00000000000E+00 0. -1.
          5    1    1    2  502    0 -0.37581778917E+02 -0.22816867781E+02  0.68249011422E+02  0.81320459431E+02  0.47000000000E+01 0. -1.
         -5    1    1    2    0  502  0.18031195778E+02  0.46121446930E+02 -0.23332519829E+02  0.54943683620E+02  0.47000000000E+01 0. -1.
        -11    1    1    2    0    0  0.59243438055E+01  0.32668524298E+02  0.12993510742E+00  0.33201614607E+02  0.00000000000E+00 0.  1.
         11    1    1    2    0    0  0.13626239333E+02 -0.55973103448E+02 -0.37557806823E+02  0.68769554029E+02  0.00000000000E+00 0. -1.
<mgrwt>
<rscale>  0 0.11921127E+03</rscale>
<asrwt>0</asrwt>
<pdfrwt beam="2">  1        1 0.17749746E-01 0.12864846E+03</pdfrwt>
<pdfrwt beam="1">  1       -1 0.18901841E-01 0.12864846E+03</pdfrwt>
<totfact> 0.62469082E+03</totfact>
</mgrwt>
</event>
<event>
 6    1  0.5818426E-006  0.2425751E+03  0.7546771E-02  0.1118089E+00
         -2   -1    0    0    0  501 -0.00000000000E+00  0.00000000000E+00  0.63299320897E+02  0.63299320897E+02  0.00000000000E+00 0.  1.
          2   -1    0    0  501    0  0.00000000000E+00 -0.00000000000E+00 -0.23239858160E+03  0.23239858160E+03  0.00000000000E+00 0. -1.
          5    1    1    2  502    0 -0.45873902099E+00  0.15344318878E+02 -0.11794424488E+03  0.11903190104E+03  0.47000000000E+01 0. -1.
         -5    1    1    2    0  502 -0.45021919707E+02  0.11256879774E+02  0.17432707270E+02  0.49796384198E+02  0.47000000000E+01 0. -1.
        -11    1    1    2    0    0 -0.19034642199E+01 -0.28438009931E+02 -0.73849709926E+02  0.79158848154E+02  0.00000000000E+00 0. -1.
         11    1    1    2    0    0  0.47384122948E+02  0.18368112796E+01  0.52619868376E+01  0.47710769106E+02  0.00000000000E+00 0.  1.
<mgrwt>
<rscale>  0 0.24257512E+03</rscale>
<asrwt>0</asrwt>
<pdfrwt beam="2">  1        2 0.35753628E-01 0.24257512E+03</pdfrwt>
<pdfrwt beam="1">  1       -2 0.97383570E-02 0.24257512E+03</pdfrwt>
<totfact> 0.98381663E+03</totfact>
</mgrwt>
</event>
<event>
 6    1  0.5818426E-006  0.2596621E+03  0.7546771E-02  0.1107346E+00
         -1   -1    0    0    0  501 -0.00000000000E+00  0.00000000000E+00  0.59055661863E+02  0.59055661863E+02  0.00000000000E+00 0.  1.
          1   -1    0    0  501    0  0.00000000000E+00 -0.00000000000E+00 -0.28542735368E+03  0.28542735368E+03  0.00000000000E+00 0. -1.
          5    1    1    2  502    0  0.31504949758E+02 -0.18070273670E+02  0.39620098310E+02  0.53953117054E+02  0.47000000000E+01 0. -1.
         -5    1    1    2    0  502 -0.91836883838E+01 -0.42510949194E+01 -0.80535938302E+02  0.81305223071E+02  0.47000000000E+01 0. -1.
        -11    1    1    2    0    0 -0.53651393568E+02 -0.13911429601E+01 -0.13498056954E+03  0.14525894624E+03  0.00000000000E+00 0. -1.
         11    1    1    2    0    0  0.31330132194E+02  0.23712511549E+02 -0.50475282292E+02  0.63965729182E+02  0.00000000000E+00 0.  1.
<mgrwt>
<rscale>  0 0.25966210E+03</rscale>
<asrwt>0</asrwt>
<pdfrwt beam="2">  1        1 0.43911902E-01 0.25966210E+03</pdfrwt>
<pdfrwt beam="1">  1       -1 0.90854861E-02 0.25966210E+03</pdfrwt>
<totfact> 0.65365459E+03</totfact>
</mgrwt>
</event>
<event>
 6    1  0.5818426E-006  0.1473099E+03  0.7546771E-02  0.1216594E+00
          4   -1    0    0  501    0  0.00000000000E+00  0.00000000000E+00  0.81864443950E+02  0.81864443950E+02  0.00000000000E+00 0. -1.
         -4   -1    0    0    0  501 -0.00000000000E+00 -0.00000000000E+00 -0.22422250436E+03  0.22422250436E+03  0.00000000000E+00 0.  1.
          5    1    1    2  502    0  0.18746772337E+02  0.15394357389E+02 -0.75662617273E+02  0.79594907909E+02  0.47000000000E+01 0. -1.
         -5    1    1    2    0  502 -0.69749663190E+02 -0.74330048310E+02 -0.48118305943E+02  0.11281592513E+03  0.47000000000E+01 0. -1.
        -11    1    1    2    0    0  0.48663007536E+02  0.73528556682E+02 -0.31911674012E+02  0.93770421181E+02  0.00000000000E+00 0.  1.
         11    1    1    2    0    0  0.23398833172E+01 -0.14592865761E+02  0.13334536816E+02  0.19905694089E+02  0.00000000000E+00 0. -1.
<mgrwt>
<rscale>  0 0.13760106E+03</rscale>
<asrwt>0</asrwt>
<pdfrwt beam="1">  1        4 0.12594530E-01 0.14730992E+03</pdfrwt>
<pdfrwt beam="2">  1       -4 0.34495769E-01 0.14730992E+03</pdfrwt>
<totfact> 0.69921006E+02</totfact>
</mgrwt>
</event>
<event>
 6    1  0.5818426E-006  0.2377946E+03  0.7546771E-02  0.1123724E+00
          2   -1    0    0  501    0  0.00000000000E+00  0.00000000000E+00  0.98409427318E+02  0.98409427318E+02  0.00000000000E+00 0. -1.
         -2   -1    0    0    0  501 -0.00000000000E+00 -0.00000000000E+00 -0.54599860599E+03  0.54599860599E+03  0.00000000000E+00 0.  1.
          5    1    1    2  502    0 -0.41752560881E+02  0.20307910768E+03 -0.15479882614E+03  0.25878401591E+03  0.47000000000E+01 0.  1.
         -5    1    1    2    0  502  0.25117323991E+02 -0.14702205761E+01 -0.45157058262E+02  0.51906564362E+02  0.47000000000E+01 0.  1.
        -11    1    1    2    0    0 -0.30072211580E+02 -0.12637553074E+03 -0.18148494996E+03  0.22318579645E+03  0.00000000000E+00 0. -1.
         11    1    1    2    0    0  0.46707448471E+02 -0.75233356363E+02 -0.66148344311E+02  0.11053165658E+03  0.00000000000E+00 0.  1.
<mgrwt>
<rscale>  0 0.23419181E+03</rscale>
<asrwt>0</asrwt>
<pdfrwt beam="1">  1        2 0.15139912E-01 0.23779462E+03</pdfrwt>
<pdfrwt beam="2">  1       -2 0.83999785E-01 0.23779462E+03</pdfrwt>
<totfact> 0.49229164E+02</totfact>
</mgrwt>
</event>
<event>
 6    1  0.5818426E-006  0.1444020E+03  0.7546771E-02  0.1218426E+00
         -2   -1    0    0    0  501 -0.00000000000E+00  0.00000000000E+00  0.14049696999E+03  0.14049696999E+03  0.00000000000E+00 0. -1.
          2   -1    0    0  501    0  0.00000000000E+00 -0.00000000000E+00 -0.11988544347E+03  0.11988544347E+03  0.00000000000E+00 0.  1.
          5    1    1    2  502    0 -0.18871473491E+02  0.17216844637E+02 -0.55084627921E+02  0.60901219070E+02  0.47000000000E+01 0.  1.
         -5    1    1    2    0  502 -0.52281420503E+02 -0.29905195793E+02  0.57675810640E+02  0.83523989358E+02  0.47000000000E+01 0.  1.
        -11    1    1    2    0    0 -0.61113325837E+01  0.28267472815E+02 -0.12405997920E+02  0.31469146631E+02  0.00000000000E+00 0.  1.
         11    1    1    2    0    0  0.77264226578E+02 -0.15579121659E+02  0.30426341721E+02  0.84488058392E+02  0.00000000000E+00 0. -1.
<mgrwt>
<rscale>  0 0.13627842E+03</rscale>
<asrwt>0</asrwt>
<pdfrwt beam="2">  1        2 0.18443914E-01 0.14440196E+03</pdfrwt>
<pdfrwt beam="1">  1       -2 0.21614918E-01 0.14440196E+03</pdfrwt>
<totfact> 0.53592003E+03</totfact>
</mgrwt>
</event>
<event>
 6    1  0.5818426E-006  0.2223026E+03  0.7546771E-02  0.1135720E+00
         -1   -1    0    0    0  501 -0.00000000000E+00  0.00000000000E+00  0.10553925145E+04  0.10553925145E+04  0.00000000000E+00 0.  1.
          1   -1    0    0  501    0  0.00000000000E+00 -0.00000000000E+00 -0.48386284094E+02  0.48386284094E+02  0.00000000000E+00 0. -1.
          5    1    1    2  502    0  0.68549310079E+02 -0.12151271381E+03  0.62831588348E+03  0.64363598949E+03  0.47000000000E+01 0.  1.
         -5    1    1    2    0  502  0.55383375149E+02 -0.14262379711E+02  0.77978333879E+02  0.96816549580E+02  0.47000000000E+01 0.  1.
        -11    1    1    2    0    0 -0.12628230094E+03  0.84897520727E+02  0.23873805764E+03  0.28310893438E+03  0.00000000000E+00 0.  1.
         11    1    1    2    0    0  0.23496157067E+01  0.50877572793E+02  0.61973955425E+02  0.80217325175E+02  0.00000000000E+00 0. -1.
<mgrwt>
<rscale>  0 0.21755380E+03</rscale>
<asrwt>0</asrwt>
<pdfrwt beam="2">  1        1 0.74440445E-02 0.22230259E+03</pdfrwt>
<pdfrwt beam="1">  1       -1 0.16236806E+00 0.22230259E+03</pdfrwt>
<totfact> 0.29406629E+02</totfact>
</mgrwt>
</event>
<event>
 6    1  0.5818426E-006  0.4763560E+03  0.7546771E-02  0.1123848E+00
          2   -1    0    0  501    0  0.00000000000E+00  0.00000000000E+00  0.10432570408E+03  0.10432570408E+03  0.00000000000E+00 0. -1.
         -2   -1    0    0    0  501 -0.00000000000E+00 -0.00000000000E+00 -0.64524315799E+03  0.64524315799E+03  0.00000000000E+00 0.  1.
          5    1    1    2  502    0  0.18143938304E+03 -0.14975603418E+03 -0.24745110070E+03  0.34146926176E+03  0.47000000000E+01 0. -1.
         -5    1    1    2    0  502 -0.16826569686E+03  0.17142135743E+03 -0.29483031472E+03  0.38032306136E+03  0.47000000000E+01 0.  1.
        -11    1    1    2    0    0 -0.95742593729E+01 -0.56374511498E+01 -0.11028573869E+01  0.11165285147E+02  0.00000000000E+00 0.  1.
         11    1    1    2    0    0 -0.35994268097E+01 -0.16027872100E+02  0.24668188988E+01  0.16611253802E+02  0.00000000000E+00 0. -1.
<mgrwt>
<rscale>  0 0.23401150E+03</rscale>
<asrwt>0</asrwt>
<pdfrwt beam="1">  1        2 0.16050108E-01 0.47635598E+03</pdfrwt>
<pdfrwt beam="2">  1       -2 0.99268180E-01 0.47635598E+03</pdfrwt>
<totfact> 0.31427492E+02</totfact>
</mgrwt>
</event>
<event>
 6    1  0.5818426E-006  0.3254089E+03  0.7546771E-02  0.1073187E+00
          2   -1    0    0  501    0  0.00000000000E+00  0.00000000000E+00  0.43605134816E+02  0.43605134816E+02  0.00000000000E+00 0. -1.
         -2   -1    0    0    0  501 -0.00000000000E+00 -0.00000000000E+00 -0.60710137646E+03  0.60710137646E+03  0.00000000000E+00 0.  1.
          5    1    1    2  502    0  0.10114132373E+03 -0.27743023349E+02 -0.40307139805E+03  0.41651876865E+03  0.47000000000E+01 0.  1.
         -5    1    1    2    0  502  0.93993959534E+01  0.12829777613E+02  0.33243871546E+01  0.16914295369E+02  0.47000000000E+01 0.  1.
        -11    1    1    2    0    0 -0.81861619122E+02 -0.30308540763E+02 -0.11840987464E+03  0.14710822798E+03  0.00000000000E+00 0.  1.
         11    1    1    2    0    0 -0.28679100562E+02  0.45221786499E+02 -0.45339356105E+02  0.70165219270E+02  0.00000000000E+00 0. -1.
<mgrwt>
<rscale>  0 0.32540890E+03</rscale>
<asrwt>0</asrwt>
<pdfrwt beam="1">  1        2 0.67084829E-02 0.32540890E+03</pdfrwt>
<pdfrwt beam="2">  1       -2 0.93400203E-01 0.32540890E+03</pdfrwt>
<totfact> 0.10767563E+03</totfact>
</mgrwt>
</event>
<event>
 6    1  0.5818426E-006  0.4056450E+03  0.7546771E-02  0.1041842E+00
         -2   -1    0    0    0  501 -0.00000000000E+00  0.00000000000E+00  0.46328599304E+03  0.46328599304E+03  0.00000000000E+00 0.  1.
          2   -1    0    0  501    0  0.00000000000E+00 -0.00000000000E+00 -0.88793910699E+02  0.88793910699E+02  0.00000000000E+00 0. -1.
          5    1    1    2  502    0 -0.21109040895E+02 -0.65408854147E+01  0.23069118052E+03  0.23179492134E+03  0.47000000000E+01 0.  1.
         -5    1    1    2    0  502  0.90708992380E+02  0.25805146104E+02  0.17554851041E+03  0.19933237663E+03  0.47000000000E+01 0.  1.
        -11    1    1    2    0    0 -0.43306060801E+02  0.27387245649E+02  0.11030027328E+02  0.52413143668E+02  0.00000000000E+00 0. -1.
         11    1    1    2    0    0 -0.26293890683E+02 -0.46651506338E+02 -0.42777635918E+02  0.68539462105E+02  0.00000000000E+00 0.  1.
<mgrwt>
<rscale>  0 0.40564504E+03</rscale>
<asrwt>0</asrwt>
<pdfrwt beam="2">  1        2 0.13660602E-01 0.40564504E+03</pdfrwt>
<pdfrwt beam="1">  1       -2 0.71274766E-01 0.40564504E+03</pdfrwt>
<totfact> 0.80564079E+02</totfact>
</mgrwt>
</event>
<event>
 6    1  0.5818426E-006  0.1632981E+03  0.7546771E-02  0.1192395E+00
          2   -1    0    0  501    0  0.00000000000E+00  0.00000000000E+00  0.72372305974E+03  0.72372305974E+03  0.00000000000E+00 0. -1.
         -2   -1    0    0    0  501 -0.00000000000E+00 -0.00000000000E+00 -0.32286406274E+02  0.32286406274E+02  0.00000000000E+00 0.  1.
          5    1    1    2  502    0  0.20953400175E+02  0.43768005128E+02  0.43223044725E+02  0.65153701715E+02  0.47000000000E+01 0. -1.
         -5    1    1    2    0  502 -0.95431799406E+02  0.30358062086E+02  0.27136820717E+03  0.28929506414E+03  0.47000000000E+01 0. -1.
        -11    1    1    2    0    0  0.71437198530E+02 -0.19126755152E+02  0.13931372113E+03  0.15772577149E+03  0.00000000000E+00 0. -1.
         11    1    1    2    0    0  0.30412007009E+01 -0.54999312062E+02  0.23753168044E+03  0.24383492867E+03  0.00000000000E+00 0.  1.
<mgrwt>
<rscale>  0 0.15676798E+03</rscale>
<asrwt>0</asrwt>
<pdfrwt beam="1">  1        2 0.11134200E+00 0.16329811E+03</pdfrwt>
<pdfrwt beam="2">  1       -2 0.49671400E-02 0.16329811E+03</pdfrwt>
<totfact> 0.77411164E+03</totfact>
</mgrwt>
</event>
<event>
 6    1  0.5818426E-006  0.3297714E+03  0.7546771E-02  0.1071238E+00
         -2   -1    0    0    0  501 -0.00000000000E+00  0.00000000000E+00  0.25906261748E+03  0.25906261748E+03  0.00000000000E+00 0. -1.
          2   -1    0    0  501    0  0.00000000000E+00 -0.00000000000E+00 -0.10494488735E+03  0.10494488735E+03  0.00000000000E+00 0.  1.
          5    1    1    2  502    0 -0.16002226251E+02  0.20659007978E+02 -0.25735407159E+02  0.36976574169E+02  0.47000000000E+01 0. -1.
         -5    1    1    2    0  502  0.51586239668E+02  0.10187255104E+03  0.11721556776E+03  0.16370930366E+03  0.47000000000E+01 0. -1.
        -11    1    1    2    0    0 -0.12417859192E+02 -0.48425669189E+02  0.69237071435E+02  0.85399184564E+02  0.00000000000E+00 0. -1.
         11    1    1    2    0    0 -0.23166154225E+02 -0.74105889834E+02 -0.65995019106E+01  0.77922442435E+02  0.00000000000E+00 0.  1.
<mgrwt>
<rscale>  0 0.32977142E+03</rscale>
<asrwt>0</asrwt>
<pdfrwt beam="2">  1        2 0.16145367E-01 0.32977142E+03</pdfrwt>
<pdfrwt beam="1">  1       -2 0.39855787E-01 0.32977142E+03</pdfrwt>
<totfact> 0.21485397E+03</totfact>
</mgrwt>
</event>
<event>
 6    1  0.7459405E-006  0.2829955E+03  0.7546771E-02  0.1095865E+00
          1   -1    0    0  501    0  0.00000000000E+00  0.00000000000E+00  0.10200564642E+04  0.10200564642E+04  0.00000000000E+00 0. -1.
         -1   -1    0    0    0  501 -0.00000000000E+00 -0.00000000000E+00 -0.93937686861E+02  0.93937686861E+02  0.00000000000E+00 0.  1.
          5    1    1    2  502    0 -0.23331986030E+01 -0.14083636544E+03  0.19039916822E+03  0.23688448431E+03  0.47000000000E+01 0. -1.
         -5    1    1    2    0  502 -0.48494278887E+02 -0.10791587163E+03  0.30915513261E+02  0.12237397352E+03  0.47000000000E+01 0. -1.
        -11    1    1    2    0    0  0.27619960653E+02  0.55815175541E+02  0.29078916588E+03  0.29738280892E+03  0.00000000000E+00 0. -1.
         11    1    1    2    0    0  0.23207516837E+02  0.19293706153E+03  0.41401492994E+03  0.45735288428E+03  0.00000000000E+00 0.  1.
<mgrwt>
<rscale>  0 0.27967817E+03</rscale>
<asrwt>0</asrwt>
<pdfrwt beam="1">  1        1 0.15693176E+00 0.28299550E+03</pdfrwt>
<pdfrwt beam="2">  1       -1 0.14451953E-01 0.28299550E+03</pdfrwt>
<totfact> 0.52862365E+02</totfact>
</mgrwt>
</event>
<event>
 6    1  0.5818426E-006  0.1609366E+03  0.7546771E-02  0.1194987E+00
         -1   -1    0    0    0  501 -0.00000000000E+00  0.00000000000E+00  0.41875748071E+02  0.41875748071E+02  0.00000000000E+00 0.  1.
          1   -1    0    0  501    0  0.00000000000E+00 -0.00000000000E+00 -0.53013712298E+03  0.53013712298E+03  0.00000000000E+00 0. -1.
          5    1    1    2  502    0 -0.85989512587E+01  0.33679455466E+02 -0.73211139062E+02  0.81180099568E+02  0.47000000000E+01 0.  1.
         -5    1    1    2    0  502  0.10370894977E+03 -0.68736524267E+02 -0.18087735787E+03  0.21958817049E+03  0.47000000000E+01 0.  1.
        -11    1    1    2    0    0 -0.23511125274E+02 -0.28656315658E+02 -0.38975833218E+02  0.53787294167E+02  0.00000000000E+00 0.  1.
         11    1    1    2    0    0 -0.71598873235E+02  0.63713384459E+02 -0.19519704476E+03  0.21745730682E+03  0.00000000000E+00 0. -1.
<mgrwt>
<rscale>  0 0.15455311E+03</rscale>
<asrwt>0</asrwt>
<pdfrwt beam="2">  1        1 0.81559558E-01 0.16093660E+03</pdfrwt>
<pdfrwt beam="1">  1       -1 0.64424227E-02 0.16093660E+03</pdfrwt>
<totfact> 0.48722038E+03</totfact>
</mgrwt>
</event>
<event>
 6    1  0.5818426E-006  0.3353859E+03  0.7546771E-02  0.1068778E+00
          2   -1    0    0  501    0  0.00000000000E+00  0.00000000000E+00  0.11679299933E+04  0.11679299933E+04  0.00000000000E+00 0. -1.
         -2   -1    0    0    0  501 -0.00000000000E+00 -0.00000000000E+00 -0.24077574781E+02  0.24077574781E+02  0.00000000000E+00 0.  1.
          5    1    1    2  502    0 -0.14769993576E+02  0.13116038432E+03  0.39763685734E+03  0.41899684896E+03  0.47000000000E+01 0.  1.
         -5    1    1    2    0  502 -0.34476205052E+02 -0.20252905646E+02  0.83237525826E+02  0.92462774172E+02  0.47000000000E+01 0.  1.
        -11    1    1    2    0    0 -0.87841827477E+01 -0.91594195748E+02  0.37188851124E+03  0.38310275822E+03  0.00000000000E+00 0.  1.
         11    1    1    2    0    0  0.58030381376E+02 -0.19313282927E+02  0.29108952415E+03  0.29744518677E+03  0.00000000000E+00 0. -1.
<mgrwt>
<rscale>  0 0.33538588E+03</rscale>
<asrwt>0</asrwt>
<pdfrwt beam="1">  1        2 0.17968149E+00 0.33538588E+03</pdfrwt>
<pdfrwt beam="2">  1       -2 0.37042432E-02 0.33538588E+03</pdfrwt>
<totfact> 0.64571322E+03</totfact>
</mgrwt>
</event>
<event>
 6    1  0.5818426E-006  0.1702821E+03  0.7546771E-02  0.1184139E+00
         -2   -1    0    0    0  501 -0.00000000000E+00  0.00000000000E+00  0.69626021129E+02  0.69626021129E+02  0.00000000000E+00 0.  1.
          2   -1    0    0  501    0  0.00000000000E+00 -0.00000000000E+00 -0.36739256977E+03  0.36739256977E+03  0.00000000000E+00 0. -1.
          5    1    1    2  502    0 -0.59855668153E+02  0.15747095229E+02 -0.52966686295E+02  0.81597989407E+02  0.47000000000E+01 0. -1.
         -5    1    1    2    0  502 -0.10664587968E+02 -0.10738394087E+03 -0.78416101564E+02  0.13347741074E+03  0.47000000000E+01 0. -1.
        -11    1    1    2    0    0  0.40179795352E+02  0.26426100947E+01 -0.13516273028E+02  0.42474568617E+02  0.00000000000E+00 0.  1.
         11    1    1    2    0    0  0.30340460768E+02  0.88994235543E+02 -0.15286748776E+03  0.17946862214E+03  0.00000000000E+00 0. -1.
<mgrwt>
<rscale>  0 0.16410475E+03</rscale>
<asrwt>0</asrwt>
<pdfrwt beam="2">  1        2 0.56521933E-01 0.17028209E+03</pdfrwt>
<pdfrwt beam="1">  1       -2 0.10711696E-01 0.17028209E+03</pdfrwt>
<totfact> 0.50635723E+03</totfact>
</mgrwt>
</event>
<event>
 6    1  0.5818426E-006  0.1327796E+03  0.7546771E-02  0.1239178E+00
         -1   -1    0    0    0  501 -0.00000000000E+00  0.00000000000E+00  0.81706033232E+02  0.81706033232E+02  0.00000000000E+00 0.  1.
          1   -1    0    0  501    0  0.00000000000E+00 -0.00000000000E+00 -0.16495208645E+03  0.16495208645E+03  0.00000000000E+00 0. -1.
          5    1    1    2  502    0 -0.42874557987E+02 -0.42984891016E+02 -0.32738759558E+02  0.69136422786E+02  0.47000000000E+01 0.  1.
         -5    1    1    2    0  502  0.65791616100E+02  0.47353686958E+01  0.56788568889E+01  0.66372433143E+02  0.47000000000E+01 0.  1.
        -11    1    1    2    0    0  0.32499405183E+01  0.21439731709E+02  0.19599880039E+02  0.29229770897E+02  0.00000000000E+00 0.  1.
         11    1    1    2    0    0 -0.26166998631E+02  0.16809790611E+02 -0.75786030591E+02  0.81919492860E+02  0.00000000000E+00 0. -1.
<mgrwt>
<rscale>  0 0.12240688E+03</rscale>
<asrwt>0</asrwt>
<pdfrwt beam="2">  1        1 0.25377244E-01 0.13277956E+03</pdfrwt>
<pdfrwt beam="1">  1       -1 0.12570159E-01 0.13277956E+03</pdfrwt>
<totfact> 0.75551646E+03</totfact>
</mgrwt>
</event>
<event>
 6    1  0.5818426E-006  0.1976137E+03  0.7546771E-02  0.1170077E+00
          1   -1    0    0  501    0  0.00000000000E+00  0.00000000000E+00  0.30908299857E+02  0.30908299857E+02  0.00000000000E+00 0. -1.
         -1   -1    0    0    0  501 -0.00000000000E+00 -0.00000000000E+00 -0.10478863932E+04  0.10478863932E+04  0.00000000000E+00 0.  1.
          5    1    1    2  502    0 -0.52890081279E+02 -0.21508221281E+02 -0.10905015293E+03  0.12318275096E+03  0.47000000000E+01 0. -1.
         -5    1    1    2    0  502  0.10078696243E+03 -0.56791601317E+02 -0.70939768803E+03  0.71878402010E+03  0.47000000000E+01 0.  1.
        -11    1    1    2    0    0  0.27675866533E+01  0.66966980081E+02 -0.15573997337E+03  0.16954991968E+03  0.00000000000E+00 0. -1.
         11    1    1    2    0    0 -0.50664467806E+02  0.11332842517E+02 -0.42790279016E+02  0.67278002318E+02  0.00000000000E+00 0.  1.
<mgrwt>
<rscale>  0 0.17767044E+03</rscale>
<asrwt>0</asrwt>
<pdfrwt beam="1">  1        1 0.47551228E-02 0.19761370E+03</pdfrwt>
<pdfrwt beam="2">  1       -1 0.16121330E+00 0.19761370E+03</pdfrwt>
<totfact> 0.55502054E+02</totfact>
</mgrwt>
</event>
<event>
 6    1  0.5818426E-006  0.3397665E+03  0.7546771E-02  0.1066895E+00
          3   -1    0    0  501    0  0.00000000000E+00  0.00000000000E+00  0.73859437352E+02  0.73859437352E+02  0.00000000000E+00 0. -1.
         -3   -1    0    0    0  501 -0.00000000000E+00 -0.00000000000E+00 -0.39074646742E+03  0.39074646742E+03  0.00000000000E+00 0.  1.
          5    1    1    2  502    0 -0.27416184303E+02 -0.50373971682E+01 -0.10426790009E+03  0.10803197453E+03  0.47000000000E+01 0. -1.
         -5    1    1    2    0  502 -0.78704033291E+01  0.12770091014E+03 -0.93801967763E+02  0.15871472791E+03  0.47000000000E+01 0. -1.
        -11    1    1    2    0    0  0.41365901673E+02 -0.16442786500E+02 -0.99026058297E+01  0.45602243929E+02  0.00000000000E+00 0. -1.
         11    1    1    2    0    0 -0.60793140411E+01 -0.10622072647E+03 -0.10891455639E+03  0.15225695841E+03  0.00000000000E+00 0.  1.
<mgrwt>
<rscale>  0 0.33976647E+03</rscale>
<asrwt>0</asrwt>
<pdfrwt beam="1">  1        3 0.11362990E-01 0.33976647E+03</pdfrwt>
<pdfrwt beam="2">  1       -3 0.60114840E-01 0.33976647E+03</pdfrwt>
<totfact> 0.42193046E+02</totfact>
</mgrwt>
</event>
<event>
 6    1  0.5818426E-006  0.1743478E+03  0.7546771E-02  0.1178769E+00
          2   -1    0    0  501    0  0.00000000000E+00  0.00000000000E+00  0.11006219787E+03  0.11006219787E+03  0.00000000000E+00 0.  1.
         -2   -1    0    0    0  501 -0.00000000000E+00 -0.00000000000E+00 -0.29654177190E+03  0.29654177190E+03  0.00000000000E+00 0. -1.
          5    1    1    2  502    0  0.15722849943E+02 -0.82252404194E+02 -0.21216847430E+02  0.86515377945E+02  0.47000000000E+01 0. -1.
         -5    1    1    2    0  502  0.17372107596E+02 -0.34692385138E+02 -0.16099841836E+03  0.16567417549E+03  0.47000000000E+01 0. -1.
        -11    1    1    2    0    0  0.33338429581E+02  0.44798949506E+02  0.40488006572E+01  0.55989191372E+02  0.00000000000E+00 0. -1.
         11    1    1    2    0    0 -0.66433387120E+02  0.72145839827E+02 -0.83131088976E+01  0.98425224958E+02  0.00000000000E+00 0.  1.
<mgrwt>
<rscale>  0 0.16911922E+03</rscale>
<asrwt>0</asrwt>
<pdfrwt beam="1">  1        2 0.16932646E-01 0.17434784E+03</pdfrwt>
<pdfrwt beam="2">  1       -2 0.45621810E-01 0.17434784E+03</pdfrwt>
<totfact> 0.15305315E+03</totfact>
</mgrwt>
</event>
<event>
 6    1  0.5818426E-006  0.1327700E+03  0.7546771E-02  0.1236876E+00
          1   -1    0    0  501    0  0.00000000000E+00  0.00000000000E+00  0.94420076467E+02  0.94420076467E+02  0.00000000000E+00 0. -1.
         -1   -1    0    0    0  501 -0.00000000000E+00 -0.00000000000E+00 -0.18729463772E+03  0.18729463772E+03  0.00000000000E+00 0.  1.
          5    1    1    2  502    0  0.16796087445E+02  0.34521884663E+02 -0.13870525082E+03  0.14399689468E+03  0.47000000000E+01 0.  1.
         -5    1    1    2    0  502 -0.25200068515E+02  0.94314152882E+01  0.20196175994E+02  0.33970142365E+02  0.47000000000E+01 0.  1.
        -11    1    1    2    0    0 -0.34560748172E+01  0.22498909936E+02  0.28146050227E+02  0.36198695347E+02  0.00000000000E+00 0.  1.
         11    1    1    2    0    0  0.11860055888E+02 -0.66452209887E+02 -0.25115366544E+01  0.67548981790E+02  0.00000000000E+00 0. -1.
<mgrwt>
<rscale>  0 0.12385106E+03</rscale>
<asrwt>0</asrwt>
<pdfrwt beam="1">  1        1 0.14526166E-01 0.13276997E+03</pdfrwt>
<pdfrwt beam="2">  1       -1 0.28814559E-01 0.13276997E+03</pdfrwt>
<totfact> 0.40751994E+03</totfact>
</mgrwt>
</event>
<event>
 6    1  0.5818426E-006  0.1406329E+03  0.7546771E-02  0.1228452E+00
         -1   -1    0    0    0  501 -0.00000000000E+00  0.00000000000E+00  0.34147597322E+03  0.34147597322E+03  0.00000000000E+00 0.  1.
          1   -1    0    0  501    0  0.00000000000E+00 -0.00000000000E+00 -0.25757842056E+03  0.25757842056E+03  0.00000000000E+00 0. -1.
          5    1    1    2  502    0 -0.43014350955E+02 -0.13268878755E+02  0.54760408977E+02  0.71042873836E+02  0.47000000000E+01 0. -1.
         -5    1    1    2    0  502  0.76032405023E+02  0.38528863272E+02  0.26135508318E+03  0.27494357498E+03  0.47000000000E+01 0.  1.
        -11    1    1    2    0    0  0.25370293536E+02 -0.36511784718E+01 -0.21851099091E+02  0.33681648264E+02  0.00000000000E+00 0.  1.
         11    1    1    2    0    0 -0.58388347603E+02 -0.21608806045E+02 -0.21036684041E+03  0.21938629670E+03  0.00000000000E+00 0. -1.
<mgrwt>
<rscale>  0 0.12933118E+03</rscale>
<asrwt>0</asrwt>
<pdfrwt beam="2">  1        1 0.39627449E-01 0.14063292E+03</pdfrwt>
<pdfrwt beam="1">  1       -1 0.52534765E-01 0.14063292E+03</pdfrwt>
<totfact> 0.40272884E+02</totfact>
</mgrwt>
</event>
<event>
 6    1  0.5818426E-006  0.1362987E+03  0.7546771E-02  0.1230594E+00
         -1   -1    0    0    0  501 -0.00000000000E+00  0.00000000000E+00  0.30566878958E+02  0.30566878958E+02  0.00000000000E+00 0.  1.
          1   -1    0    0  501    0  0.00000000000E+00 -0.00000000000E+00 -0.47954728576E+03  0.47954728576E+03  0.00000000000E+00 0. -1.
          5    1    1    2  502    0  0.42324377211E+02  0.29701321949E+02 -0.18727382732E+03  0.19433758728E+03  0.47000000000E+01 0.  1.
         -5    1    1    2    0  502 -0.33290633101E+01 -0.67542400497E+02 -0.74027707156E+02  0.10037554460E+03  0.47000000000E+01 0.  1.
        -11    1    1    2    0    0 -0.22803743777E+02  0.67005842759E+02 -0.14386435364E+03  0.16033323405E+03  0.00000000000E+00 0.  1.
         11    1    1    2    0    0 -0.16191570124E+02 -0.29164764212E+02 -0.43814518690E+02  0.55067798782E+02  0.00000000000E+00 0. -1.
<mgrwt>
<rscale>  0 0.12790752E+03</rscale>
<asrwt>0</asrwt>
<pdfrwt beam="2">  1        1 0.73776502E-01 0.13629871E+03</pdfrwt>
<pdfrwt beam="1">  1       -1 0.47025970E-02 0.13629871E+03</pdfrwt>
<totfact> 0.87926759E+03</totfact>
</mgrwt>
</event>
<event>
 6    1  0.5818426E-006  0.1421869E+03  0.7546771E-02  0.1221291E+00
         -1   -1    0    0    0  501 -0.00000000000E+00  0.00000000000E+00  0.60278118085E+03  0.60278118085E+03  0.00000000000E+00 0.  1.
          1   -1    0    0  501    0  0.00000000000E+00 -0.00000000000E+00 -0.27523510964E+02  0.27523510964E+02  0.00000000000E+00 0. -1.
          5    1    1    2  502    0 -0.32923206975E+02  0.14255594613E+02  0.13128106779E+02  0.38491514947E+02  0.47000000000E+01 0.  1.
         -5    1    1    2    0  502 -0.30716191966E+02  0.90531817419E+01  0.34982106984E+03  0.35131512272E+03  0.47000000000E+01 0.  1.
        -11    1    1    2    0    0  0.45828836354E+02  0.28691092040E+02  0.73842641288E+02  0.91521563997E+02  0.00000000000E+00 0. -1.
         11    1    1    2    0    0  0.17810562588E+02 -0.51999868395E+02  0.13846585198E+03  0.14897649015E+03  0.00000000000E+00 0.  1.
<mgrwt>
<rscale>  0 0.13424397E+03</rscale>
<asrwt>0</asrwt>
<pdfrwt beam="2">  1        1 0.42343868E-02 0.14218688E+03</pdfrwt>
<pdfrwt beam="1">  1       -1 0.92735556E-01 0.14218688E+03</pdfrwt>
<totfact> 0.24242809E+03</totfact>
</mgrwt>
</event>
<event>
 6    1  0.5818426E-006  0.3850356E+03  0.7546771E-02  0.1049088E+00
         -1   -1    0    0    0  501 -0.00000000000E+00  0.00000000000E+00  0.10273862278E+03  0.10273862278E+03  0.00000000000E+00 0.  1.
          1   -1    0    0  501    0  0.00000000000E+00 -0.00000000000E+00 -0.36075138203E+03  0.36075138203E+03  0.00000000000E+00 0. -1.
          5    1    1    2  502    0 -0.10495661547E+02  0.16184405013E+01 -0.43486815484E+02  0.45010791839E+02  0.47000000000E+01 0.  1.
         -5    1    1    2    0  502  0.50309437524E+02 -0.12111035757E+03  0.24348954382E+02  0.13346804784E+03  0.47000000000E+01 0.  1.
        -11    1    1    2    0    0 -0.64959460172E+02  0.10804613846E+03 -0.17761219892E+03  0.21780677838E+03  0.00000000000E+00 0. -1.
         11    1    1    2    0    0  0.25145684195E+02  0.11445778610E+02 -0.61262699231E+02  0.67204386752E+02  0.00000000000E+00 0.  1.
<mgrwt>
<rscale>  0 0.38503558E+03</rscale>
<asrwt>0</asrwt>
<pdfrwt beam="2">  1        1 0.55500212E-01 0.38503558E+03</pdfrwt>
<pdfrwt beam="1">  1       -1 0.15805942E-01 0.38503558E+03</pdfrwt>
<totfact> 0.20547786E+03</totfact>
</mgrwt>
</event>
<event>
 6    1  0.5818426E-006  0.1990177E+03  0.7546771E-02  0.1154426E+00
          1   -1    0    0  501    0  0.00000000000E+00  0.00000000000E+00  0.70151677907E+03  0.70151677907E+03  0.00000000000E+00 0. -1.
         -1   -1    0    0    0  501 -0.00000000000E+00 -0.00000000000E+00 -0.52474656251E+02  0.52474656251E+02  0.00000000000E+00 0.  1.
          5    1    1    2  502    0  0.83621022180E+01 -0.12254872678E+03  0.10059558522E+03  0.15883852478E+03  0.47000000000E+01 0.  1.
         -5    1    1    2    0  502 -0.11802916169E+02 -0.32277904465E+02  0.19147803482E+03  0.19459470642E+03  0.47000000000E+01 0.  1.
        -11    1    1    2    0    0  0.95572776934E+01  0.14196101230E+03  0.35900105840E+03  0.38616839656E+03  0.00000000000E+00 0. -1.
         11    1    1    2    0    0 -0.61164637421E+01  0.12865618935E+02 -0.20325556229E+01  0.14389807562E+02  0.00000000000E+00 0.  1.
<mgrwt>
<rscale>  0 0.19454341E+03</rscale>
<asrwt>0</asrwt>
<pdfrwt beam="1">  1        1 0.10792565E+00 0.19901771E+03</pdfrwt>
<pdfrwt beam="2">  1       -1 0.80730245E-02 0.19901771E+03</pdfrwt>
<totfact> 0.23677601E+03</totfact>
</mgrwt>
</event>
<event>
 6    1  0.5818426E-006  0.1280426E+03  0.7546771E-02  0.1246565E+00
         -2   -1    0    0    0  501 -0.00000000000E+00  0.00000000000E+00  0.19048552471E+02  0.19048552471E+02  0.00000000000E+00 0. -1.
          2   -1    0    0  501    0  0.00000000000E+00 -0.00000000000E+00 -0.68208535501E+03  0.68208535501E+03  0.00000000000E+00 0.  1.
          5    1    1    2  502    0 -0.47746080700E+00 -0.46956862325E+02 -0.16761549853E+03  0.17413276612E+03  0.47000000000E+01 0.  1.
         -5    1    1    2    0  502  0.96796329081E+01  0.73174534695E+02 -0.12448517074E+03  0.14479936310E+03  0.47000000000E+01 0.  1.
        -11    1    1    2    0    0  0.30863940790E+02  0.12995132363E+02 -0.97888880068E+02  0.10345863496E+03  0.00000000000E+00 0.  1.
         11    1    1    2    0    0 -0.40066112891E+02 -0.39212804733E+02 -0.27304725320E+03  0.27874314330E+03  0.00000000000E+00 0. -1.
<mgrwt>
<rscale>  0 0.11792194E+03</rscale>
<asrwt>0</asrwt>
<pdfrwt beam="2">  1        2 0.10493619E+00 0.12804258E+03</pdfrwt>
<pdfrwt beam="1">  1       -2 0.29305472E-02 0.12804258E+03</pdfrwt>
<totfact> 0.17907948E+04</totfact>
</mgrwt>
</event>
<event>
 6    1  0.5818426E-006  0.1457993E+03  0.7546771E-02  0.1215737E+00
         -2   -1    0    0    0  501 -0.00000000000E+00  0.00000000000E+00  0.12052536497E+03  0.12052536497E+03  0.00000000000E+00 0.  1.
          2   -1    0    0  501    0  0.00000000000E+00 -0.00000000000E+00 -0.19058072788E+03  0.19058072788E+03  0.00000000000E+00 0. -1.
          5    1    1    2  502    0 -0.14063346166E+02  0.32753540386E+02  0.11070195487E+02  0.37619294801E+02  0.47000000000E+01 0.  1.
         -5    1    1    2    0  502  0.61891429040E+02 -0.90578864315E+02  0.27569050983E+02  0.11321317159E+03  0.47000000000E+01 0.  1.
        -11    1    1    2    0    0  0.21276158139E+02  0.38525755215E+02 -0.27387996258E+02  0.51836387404E+02  0.00000000000E+00 0.  1.
         11    1    1    2    0    0 -0.69104241012E+02  0.19299568715E+02 -0.81306613116E+02  0.10843723906E+03  0.00000000000E+00 0. -1.
<mgrwt>
<rscale>  0 0.13822557E+03</rscale>
<asrwt>0</asrwt>
<pdfrwt beam="2">  1        2 0.29320112E-01 0.14579932E+03</pdfrwt>
<pdfrwt beam="1">  1       -2 0.18542364E-01 0.14579932E+03</pdfrwt>
<totfact> 0.41485805E+03</totfact>
</mgrwt>
</event>
<event>
 6    1  0.5818426E-006  0.3050876E+03  0.7546771E-02  0.1118302E+00
         -2   -1    0    0    0  501 -0.00000000000E+00  0.00000000000E+00  0.50681403663E+02  0.50681403663E+02  0.00000000000E+00 0.  1.
          2   -1    0    0  501    0  0.00000000000E+00 -0.00000000000E+00 -0.91245198566E+03  0.91245198566E+03  0.00000000000E+00 0. -1.
          5    1    1    2  502    0  0.82059803094E+02 -0.14558175885E+03 -0.49460242343E+03  0.52209338921E+03  0.47000000000E+01 0. -1.
         -5    1    1    2    0  502 -0.28268580665E+02  0.89435442099E+02 -0.61679952846E+02  0.11235798832E+03  0.47000000000E+01 0.  1.
        -11    1    1    2    0    0 -0.11585998619E+02  0.28633538944E+01  0.33950213154E+01  0.12408075163E+02  0.00000000000E+00 0. -1.
         11    1    1    2    0    0 -0.42205223810E+02  0.53282962855E+02 -0.30888322704E+03  0.31627393664E+03  0.00000000000E+00 0.  1.
<mgrwt>
<rscale>  0 0.24225106E+03</rscale>
<asrwt>0</asrwt>
<pdfrwt beam="2">  1        2 0.14037721E+00 0.30508764E+03</pdfrwt>
<pdfrwt beam="1">  1       -2 0.77971402E-02 0.30508764E+03</pdfrwt>
<totfact> 0.29352060E+03</totfact>
</mgrwt>
</event>
<event>
 6    1  0.5818426E-006  0.3015386E+03  0.7546771E-02  0.1084474E+00
         -2   -1    0    0    0  501 -0.00000000000E+00  0.00000000000E+00  0.34883085584E+02  0.34883085584E+02  0.00000000000E+00 0.  1.
          2   -1    0    0  501    0  0.00000000000E+00 -0.00000000000E+00 -0.65164498953E+03  0.65164498953E+03  0.00000000000E+00 0. -1.
          5    1    1    2  502    0 -0.22976415500E+02  0.99189445711E+02 -0.88496651777E+02  0.13498225508E+03  0.47000000000E+01 0. -1.
         -5    1    1    2    0  502 -0.54759130208E+01 -0.81968802611E+01 -0.15167020570E+03  0.15206286781E+03  0.47000000000E+01 0. -1.
        -11    1    1    2    0    0  0.59147828820E+02 -0.74954709261E+02 -0.23373869352E+03  0.25248851646E+03  0.00000000000E+00 0.  1.
         11    1    1    2    0    0 -0.30695500299E+02 -0.16037856190E+02 -0.14285635295E+03  0.14699443577E+03  0.00000000000E+00 0. -1.
<mgrwt>
<rscale>  0 0.30153864E+03</rscale>
<asrwt>0</asrwt>
<pdfrwt beam="2">  1        2 0.10025307E+00 0.30153864E+03</pdfrwt>
<pdfrwt beam="1">  1       -2 0.53666289E-02 0.30153864E+03</pdfrwt>
<totfact> 0.80359273E+03</totfact>
</mgrwt>
</event>
<event>
 6    1  0.5818426E-006  0.1604678E+03  0.7546771E-02  0.1195563E+00
          2   -1    0    0  501    0  0.00000000000E+00  0.00000000000E+00  0.15526663626E+03  0.15526663626E+03  0.00000000000E+00 0. -1.
         -2   -1    0    0    0  501 -0.00000000000E+00 -0.00000000000E+00 -0.18219664160E+03  0.18219664160E+03  0.00000000000E+00 0.  1.
          5    1    1    2  502    0 -0.29465636098E+02 -0.20884610119E+02  0.14320838067E+02  0.39135240556E+02  0.47000000000E+01 0.  1.
         -5    1    1    2    0  502 -0.45263108375E+02  0.88265252140E+02 -0.10782605723E+03  0.14658803611E+03  0.47000000000E+01 0.  1.
        -11    1    1    2    0    0  0.26862662276E+02 -0.48588523943E+01 -0.20651360124E+02  0.34229953931E+02  0.00000000000E+00 0.  1.
         11    1    1    2    0    0  0.47866082197E+02 -0.62521789627E+02  0.87226573948E+02  0.11751004725E+03  0.00000000000E+00 0. -1.
<mgrwt>
<rscale>  0 0.15406674E+03</rscale>
<asrwt>0</asrwt>
<pdfrwt beam="1">  1        2 0.23887175E-01 0.16046778E+03</pdfrwt>
<pdfrwt beam="2">  1       -2 0.28030253E-01 0.16046778E+03</pdfrwt>
<totfact> 0.25568721E+03</totfact>
</mgrwt>
</event>
<event>
 6    1  0.5818426E-006  0.1289249E+03  0.7546771E-02  0.1242104E+00
          1   -1    0    0  501    0  0.00000000000E+00  0.00000000000E+00  0.45409706782E+03  0.45409706782E+03  0.00000000000E+00 0. -1.
         -1   -1    0    0    0  501 -0.00000000000E+00 -0.00000000000E+00 -0.31530710402E+02  0.31530710402E+02  0.00000000000E+00 0.  1.
          5    1    1    2  502    0 -0.98724374347E+01 -0.26653271435E+02 -0.12237779970E+02  0.31300401878E+02  0.47000000000E+01 0.  1.
         -5    1    1    2    0  502 -0.18159415927E+02  0.12132093078E+02  0.17460001122E+03  0.17602331092E+03  0.47000000000E+01 0.  1.
        -11    1    1    2    0    0 -0.13833740795E+02  0.42965608090E+02  0.89254091133E+02  0.10001854152E+03  0.00000000000E+00 0.  1.
         11    1    1    2    0    0  0.41865594156E+02 -0.28444429733E+02  0.17095003504E+03  0.17828552391E+03  0.00000000000E+00 0. -1.
<mgrwt>
<rscale>  0 0.12060387E+03</rscale>
<asrwt>0</asrwt>
<pdfrwt beam="1">  1        1 0.69861083E-01 0.12892489E+03</pdfrwt>
<pdfrwt beam="2">  1       -1 0.48508789E-02 0.12892489E+03</pdfrwt>
<totfact> 0.89751756E+03</totfact>
</mgrwt>
</event>
<event>
 6    1  0.5818426E-006  0.2713835E+03  0.7546771E-02  0.1108778E+00
          2   -1    0    0  501    0  0.00000000000E+00  0.00000000000E+00  0.10949183272E+04  0.10949183272E+04  0.00000000000E+00 0. -1.
         -2   -1    0    0    0  501 -0.00000000000E+00 -0.00000000000E+00 -0.67778955884E+02  0.67778955884E+02  0.00000000000E+00 0.  1.
          5    1    1    2  502    0 -0.26622928502E+02  0.83255195072E+02  0.23311691486E+03  0.24900962596E+03  0.47000000000E+01 0. -1.
         -5    1    1    2    0  502 -0.13980750870E+03  0.27193532269E+02  0.73109268085E+02  0.16016454903E+03  0.47000000000E+01 0.  1.
        -11    1    1    2    0    0  0.38758296061E+02  0.13741365163E+02  0.12957146065E+03  0.13594040623E+03  0.00000000000E+00 0.  1.
         11    1    1    2    0    0  0.12767214114E+03 -0.12419009250E+03  0.59134172772E+03  0.61758270186E+03  0.00000000000E+00 0. -1.
<mgrwt>
<rscale>  0 0.25729693E+03</rscale>
<asrwt>0</asrwt>
<pdfrwt beam="1">  1        2 0.16844896E+00 0.27138355E+03</pdfrwt>
<pdfrwt beam="2">  1       -2 0.10427532E-01 0.27138355E+03</pdfrwt>
<totfact> 0.14280732E+03</totfact>
</mgrwt>
</event>
<event>
 6    1  0.5818426E-006  0.1734354E+03  0.7546771E-02  0.1181543E+00
          1   -1    0    0  501    0  0.00000000000E+00  0.00000000000E+00  0.72873099063E+03  0.72873099063E+03  0.00000000000E+00 0. -1.
         -1   -1    0    0    0  501 -0.00000000000E+00 -0.00000000000E+00 -0.40680864438E+02  0.40680864438E+02  0.00000000000E+00 0.  1.
          5    1    1    2  502    0 -0.88376022618E+02  0.74824926342E+01  0.59853598744E+02  0.10710206512E+03  0.47000000000E+01 0.  1.
         -5    1    1    2    0  502 -0.20295653593E+02 -0.58525162892E+02  0.16892625487E+03  0.17998688239E+03  0.47000000000E+01 0.  1.
        -11    1    1    2    0    0  0.35195559355E+02  0.40296337765E+02  0.82678492555E+02  0.98479720587E+02  0.00000000000E+00 0.  1.
         11    1    1    2    0    0  0.73476116856E+02  0.10746332493E+02  0.37659178002E+03  0.38384318697E+03  0.00000000000E+00 0. -1.
<mgrwt>
<rscale>  0 0.16650463E+03</rscale>
<asrwt>0</asrwt>
<pdfrwt beam="1">  1        1 0.11211245E+00 0.17343541E+03</pdfrwt>
<pdfrwt beam="2">  1       -1 0.62585951E-02 0.17343541E+03</pdfrwt>
<totfact> 0.32801552E+03</totfact>
</mgrwt>
</event>
<event>
 6    1  0.5818426E-006  0.1334576E+03  0.7546771E-02  0.1236326E+00
         -3   -1    0    0    0  501 -0.00000000000E+00  0.00000000000E+00  0.30945786404E+03  0.30945786404E+03  0.00000000000E+00 0.  1.
          3   -1    0    0  501    0  0.00000000000E+00 -0.00000000000E+00 -0.45318466429E+02  0.45318466429E+02  0.00000000000E+00 0. -1.
          5    1    1    2  502    0  0.23096191640E+02 -0.30433223648E+02 -0.49818740234E+01  0.38813969633E+02  0.47000000000E+01 0.  1.
         -5    1    1    2    0  502 -0.75523458319E+00 -0.10636573827E+02  0.18454815848E+03  0.18491571020E+03  0.47000000000E+01 0.  1.
        -11    1    1    2    0    0 -0.74766933769E+00  0.61605924736E+02  0.79880836268E+02  0.10088011189E+03  0.00000000000E+00 0.  1.
         11    1    1    2    0    0 -0.21593287719E+02 -0.20536127262E+02  0.46922768893E+01  0.30166538745E+02  0.00000000000E+00 0. -1.
<mgrwt>
<rscale>  0 0.12419930E+03</rscale>
<asrwt>0</asrwt>
<pdfrwt beam="2">  1        3 0.69720720E-02 0.13345756E+03</pdfrwt>
<pdfrwt beam="1">  1       -3 0.47608901E-01 0.13345756E+03</pdfrwt>
<totfact> 0.13502985E+03</totfact>
</mgrwt>
</event>
<event>
 6    1  0.5818426E-006  0.1344353E+03  0.7546771E-02  0.1230484E+00
         -1   -1    0    0    0  501 -0.00000000000E+00  0.00000000000E+00  0.95207416168E+02  0.95207416168E+02  0.00000000000E+00 0.  1.
          1   -1    0    0  501    0  0.00000000000E+00 -0.00000000000E+00 -0.21264967411E+03  0.21264967411E+03  0.00000000000E+00 0. -1.
          5    1    1    2  502    0  0.22443232306E+02 -0.38022389446E+02 -0.10661377976E+02  0.45663505733E+02  0.47000000000E+01 0. -1.
         -5    1    1    2    0  502 -0.78988418958E+01  0.85326757085E+02  0.25839149026E+02  0.89625882424E+02  0.47000000000E+01 0. -1.
        -11    1    1    2    0    0  0.86447553457E+00  0.15082321998E+02  0.86218468037E+01  0.17394251841E+02  0.00000000000E+00 0.  1.
         11    1    1    2    0    0 -0.15408865945E+02 -0.62386689637E+02 -0.14124187580E+03  0.15517345028E+03  0.00000000000E+00 0. -1.
<mgrwt>
<rscale>  0 0.12798007E+03</rscale>
<asrwt>0</asrwt>
<pdfrwt beam="2">  1        1 0.32715334E-01 0.13443531E+03</pdfrwt>
<pdfrwt beam="1">  1       -1 0.14647295E-01 0.13443531E+03</pdfrwt>
<totfact> 0.43438589E+03</totfact>
</mgrwt>
</event>
<event>
 6    1  0.5818426E-006  0.2882997E+03  0.7546771E-02  0.1091240E+00
         -1   -1    0    0    0  501 -0.00000000000E+00  0.00000000000E+00  0.90830813628E+03  0.90830813628E+03  0.00000000000E+00 0.  1.
          1   -1    0    0  501    0  0.00000000000E+00 -0.00000000000E+00 -0.22876791809E+02  0.22876791809E+02  0.00000000000E+00 0. -1.
          5    1    1    2  502    0 -0.55930289669E+00  0.56079634544E+01 -0.59766654356E+01  0.94642804040E+01  0.47000000000E+01 0.  1.
         -5    1    1    2    0  502  0.14564850315E+02 -0.10184267343E+03  0.46012120723E+03  0.47150575855E+03  0.47000000000E+01 0.  1.
        -11    1    1    2    0    0 -0.10299085271E+02  0.74131377784E+02  0.41694018051E+03  0.42360435132E+03  0.00000000000E+00 0.  1.
         11    1    1    2    0    0 -0.37064621468E+01  0.22103332192E+02  0.14346622160E+02  0.26610537819E+02  0.00000000000E+00 0. -1.
<mgrwt>
<rscale>  0 0.28829968E+03</rscale>
<asrwt>0</asrwt>
<pdfrwt beam="2">  1        1 0.35195071E-02 0.28829968E+03</pdfrwt>
<pdfrwt beam="1">  1       -1 0.13973969E+00 0.28829968E+03</pdfrwt>
<totfact> 0.12371208E+03</totfact>
</mgrwt>
</event>
<event>
 6    1  0.5818426E-006  0.1261394E+03  0.7546771E-02  0.1248095E+00
         -1   -1    0    0    0  501 -0.00000000000E+00  0.00000000000E+00  0.59668224957E+02  0.59668224957E+02  0.00000000000E+00 0.  1.
          1   -1    0    0  501    0  0.00000000000E+00 -0.00000000000E+00 -0.32718630314E+03  0.32718630314E+03  0.00000000000E+00 0. -1.
          5    1    1    2  502    0  0.10183071024E+00  0.61120786034E+02 -0.34222225506E+02  0.70206919697E+02  0.47000000000E+01 0.  1.
         -5    1    1    2    0  502 -0.16426380516E+02 -0.55868952872E+02  0.69864668481E+01  0.58839328607E+02  0.47000000000E+01 0.  1.
        -11    1    1    2    0    0  0.16021332901E+02 -0.36484101912E+02 -0.21187162361E+03  0.21558607954E+03  0.00000000000E+00 0. -1.
         11    1    1    2    0    0  0.30321690460E+00  0.31232268751E+02 -0.28410695915E+02  0.42222200253E+02  0.00000000000E+00 0.  1.
<mgrwt>
<rscale>  0 0.11702047E+03</rscale>
<asrwt>0</asrwt>
<pdfrwt beam="2">  1        1 0.50336353E-01 0.12613940E+03</pdfrwt>
<pdfrwt beam="1">  1       -1 0.91797272E-02 0.12613940E+03</pdfrwt>
<totfact> 0.52142290E+03</totfact>
</mgrwt>
</event>
<event>
 6    1  0.5818426E-006  0.1838618E+03  0.7546771E-02  0.1169555E+00
         -2   -1    0    0    0  501 -0.00000000000E+00  0.00000000000E+00  0.33129056298E+02  0.33129056298E+02  0.00000000000E+00 0.  1.
          2   -1    0    0  501    0  0.00000000000E+00 -0.00000000000E+00 -0.94613881339E+03  0.94613881339E+03  0.00000000000E+00 0. -1.
          5    1    1    2  502    0  0.38216145694E+02  0.27697071954E+02 -0.13677283533E+03  0.14476360064E+03  0.47000000000E+01 0. -1.
         -5    1    1    2    0  502  0.61951492997E+02 -0.11801396837E+03 -0.24378529888E+03  0.27788243227E+03  0.47000000000E+01 0. -1.
        -11    1    1    2    0    0 -0.56304300003E+02  0.90857467413E+02 -0.26752981132E+03  0.28809278632E+03  0.00000000000E+00 0.  1.
         11    1    1    2    0    0 -0.43863338688E+02 -0.54057099722E+00 -0.26492181156E+03  0.26852905045E+03  0.00000000000E+00 0. -1.
<mgrwt>
<rscale>  0 0.17820132E+03</rscale>
<asrwt>0</asrwt>
<pdfrwt beam="2">  1        2 0.14555979E+00 0.18386184E+03</pdfrwt>
<pdfrwt beam="1">  1       -2 0.50967788E-02 0.18386184E+03</pdfrwt>
<totfact> 0.53159382E+03</totfact>
</mgrwt>
</event>
<event>
 6    1  0.5818426E-006  0.1525294E+03  0.7546771E-02  0.1206042E+00
          2   -1    0    0  501    0  0.00000000000E+00  0.00000000000E+00  0.40139561979E+02  0.40139561979E+02  0.00000000000E+00 0. -1.
         -2   -1    0    0    0  501 -0.00000000000E+00 -0.00000000000E+00 -0.59229099549E+03  0.59229099549E+03  0.00000000000E+00 0.  1.
          5    1    1    2  502    0  0.72523482375E+02  0.74923093647E+02 -0.24096578970E+03  0.26260184170E+03  0.47000000000E+01 0. -1.
         -5    1    1    2    0  502  0.79570007766E+01 -0.40781851694E+02 -0.19037347926E+03  0.19491183877E+03  0.47000000000E+01 0. -1.
        -11    1    1    2    0    0 -0.53042336342E+02 -0.49272442765E+02 -0.12382767696E+03  0.14343833742E+03  0.00000000000E+00 0.  1.
         11    1    1    2    0    0 -0.27438146809E+02  0.15131200812E+02  0.30155124154E+01  0.31478539570E+02  0.00000000000E+00 0. -1.
<mgrwt>
<rscale>  0 0.14555636E+03</rscale>
<asrwt>0</asrwt>
<pdfrwt beam="1">  1        2 0.61753179E-02 0.15252935E+03</pdfrwt>
<pdfrwt beam="2">  1       -2 0.91121682E-01 0.15252935E+03</pdfrwt>
<totfact> 0.12324374E+03</totfact>
</mgrwt>
</event>
<event>
 6    1  0.5818426E-006  0.1256561E+03  0.7546771E-02  0.1250061E+00
         -2   -1    0    0    0  501 -0.00000000000E+00  0.00000000000E+00  0.81556746079E+02  0.81556746079E+02  0.00000000000E+00 0. -1.
          2   -1    0    0  501    0  0.00000000000E+00 -0.00000000000E+00 -0.14683700520E+03  0.14683700520E+03  0.00000000000E+00 0.  1.
          5    1    1    2  502    0  0.57955693217E+02  0.52251495979E+00  0.14506532028E+02  0.59930500329E+02  0.47000000000E+01 0. -1.
         -5    1    1    2    0  502 -0.55729443816E+02  0.12146417496E+02 -0.35830667954E+02  0.67522093659E+02  0.47000000000E+01 0. -1.
        -11    1    1    2    0    0 -0.14935499737E+02 -0.22767425917E+02  0.20747230917E+02  0.34232622249E+02  0.00000000000E+00 0. -1.
         11    1    1    2    0    0  0.12709250336E+02  0.10098493461E+02 -0.64703354117E+02  0.66708535048E+02  0.00000000000E+00 0.  1.
<mgrwt>
<rscale>  0 0.11587512E+03</rscale>
<asrwt>0</asrwt>
<pdfrwt beam="2">  1        2 0.22590308E-01 0.12565606E+03</pdfrwt>
<pdfrwt beam="1">  1       -2 0.12547192E-01 0.12565606E+03</pdfrwt>
<totfact> 0.10369356E+04</totfact>
</mgrwt>
</event>
<event>
 6    1  0.5818426E-006  0.1246712E+03  0.7546771E-02  0.1247889E+00
         -1   -1    0    0    0  501 -0.00000000000E+00  0.00000000000E+00  0.14428399288E+03  0.14428399288E+03  0.00000000000E+00 0.  1.
          1   -1    0    0  501    0  0.00000000000E+00 -0.00000000000E+00 -0.10721678058E+03  0.10721678058E+03  0.00000000000E+00 0. -1.
          5    1    1    2  502    0  0.33118917732E+02  0.59108419565E+02  0.15513580353E+02  0.69666556902E+02  0.47000000000E+01 0. -1.
         -5    1    1    2    0  502 -0.38301164233E+02 -0.25356449751E+02  0.61387874692E+02  0.76814646291E+02  0.47000000000E+01 0.  1.
        -11    1    1    2    0    0 -0.38786771081E+02 -0.26712850899E+00 -0.36469333402E+01  0.38958761419E+02  0.00000000000E+00 0.  1.
         11    1    1    2    0    0  0.43969017582E+02 -0.33484841304E+02 -0.36187309400E+02  0.66060808850E+02  0.00000000000E+00 0. -1.
<mgrwt>
<rscale>  0 0.11714118E+03</rscale>
<asrwt>0</asrwt>
<pdfrwt beam="2">  1        1 0.16494889E-01 0.12467120E+03</pdfrwt>
<pdfrwt beam="1">  1       -1 0.22197537E-01 0.12467120E+03</pdfrwt>
<totfact> 0.52890233E+03</totfact>
</mgrwt>
</event>
<event>
 6    1  0.5818426E-006  0.2740576E+03  0.7546771E-02  0.1101028E+00
          2   -1    0    0  501    0  0.00000000000E+00  0.00000000000E+00  0.62033598801E+03  0.62033598801E+03  0.00000000000E+00 0. -1.
         -2   -1    0    0    0  501 -0.00000000000E+00 -0.00000000000E+00 -0.11505369224E+03  0.11505369224E+03  0.00000000000E+00 0.  1.
          5    1    1    2  502    0  0.62635365516E+01 -0.15576163174E+02  0.19718547124E+02  0.26320331496E+02  0.47000000000E+01 0.  1.
         -5    1    1    2    0  502  0.83550830009E+02  0.24232642514E+03  0.22579425498E+03  0.34162548661E+03  0.47000000000E+01 0.  1.
        -11    1    1    2    0    0 -0.10381102501E+03 -0.15586736182E+03  0.17875375119E+03  0.25889045359E+03  0.00000000000E+00 0. -1.
         11    1    1    2    0    0  0.13996658450E+02 -0.70882900146E+02  0.81015742477E+02  0.10855340856E+03  0.00000000000E+00 0.  1.
<mgrwt>
<rscale>  0 0.27044091E+03</rscale>
<asrwt>0</asrwt>
<pdfrwt beam="1">  1        2 0.95436304E-01 0.27405764E+03</pdfrwt>
<pdfrwt beam="2">  1       -2 0.17700568E-01 0.27405764E+03</pdfrwt>
<totfact> 0.12579776E+03</totfact>
</mgrwt>
</event>
<event>
 6    1  0.5818426E-006  0.1521113E+03  0.7546771E-02  0.1206472E+00
         -1   -1    0    0    0  501 -0.00000000000E+00  0.00000000000E+00  0.46558006055E+02  0.46558006055E+02  0.00000000000E+00 0.  1.
          1   -1    0    0  501    0  0.00000000000E+00 -0.00000000000E+00 -0.43726175939E+03  0.43726175939E+03  0.00000000000E+00 0. -1.
          5    1    1    2  502    0 -0.27184429062E+02  0.42451934733E+02 -0.32600074036E+00  0.50629598285E+02  0.47000000000E+01 0. -1.
         -5    1    1    2    0  502  0.39435804599E+02  0.43334050673E+02 -0.15961448874E+03  0.17009379074E+03  0.47000000000E+01 0. -1.
        -11    1    1    2    0    0 -0.25434984453E+02  0.93535282484E+01 -0.29316376069E+02  0.39923387013E+02  0.00000000000E+00 0.  1.
         11    1    1    2    0    0  0.13183608915E+02 -0.95139513655E+02 -0.20144688779E+03  0.22317298941E+03  0.00000000000E+00 0. -1.
<mgrwt>
<rscale>  0 0.14522037E+03</rscale>
<asrwt>0</asrwt>
<pdfrwt beam="2">  1        1 0.67271043E-01 0.15211132E+03</pdfrwt>
<pdfrwt beam="1">  1       -1 0.71627698E-02 0.15211132E+03</pdfrwt>
<totfact> 0.53239686E+03</totfact>
</mgrwt>
</event>
<event>
 6    1  0.5818426E-006  0.3845735E+03  0.7546771E-02  0.1049256E+00
         -1   -1    0    0    0  501 -0.00000000000E+00  0.00000000000E+00  0.82305374182E+02  0.82305374182E+02  0.00000000000E+00 0.  1.
          1   -1    0    0  501    0  0.00000000000E+00 -0.00000000000E+00 -0.44923173916E+03  0.44923173916E+03  0.00000000000E+00 0. -1.
          5    1    1    2  502    0 -0.16396877427E+02  0.43792955298E+01 -0.81283305496E+02  0.83169114285E+02  0.47000000000E+01 0. -1.
         -5    1    1    2    0  502 -0.12254963737E+03 -0.16976980117E+02 -0.73384536258E+01  0.12402650675E+03  0.47000000000E+01 0. -1.
        -11    1    1    2    0    0  0.52835703102E+02 -0.33516627062E+02 -0.67696849119E+02  0.92183725204E+02  0.00000000000E+00 0. -1.
         11    1    1    2    0    0  0.86110811697E+02  0.46114311649E+02 -0.21060775673E+03  0.23215776710E+03  0.00000000000E+00 0.  1.
<mgrwt>
<rscale>  0 0.38457346E+03</rscale>
<asrwt>0</asrwt>
<pdfrwt beam="2">  1        1 0.69112577E-01 0.38457346E+03</pdfrwt>
<pdfrwt beam="1">  1       -1 0.12662365E-01 0.38457346E+03</pdfrwt>
<totfact> 0.22001429E+03</totfact>
</mgrwt>
</event>
<event>
 6    1  0.5818426E-006  0.1661041E+03  0.7546771E-02  0.1193292E+00
         -2   -1    0    0    0  501 -0.00000000000E+00  0.00000000000E+00  0.59993516212E+02  0.59993516212E+02  0.00000000000E+00 0.  1.
          2   -1    0    0  501    0  0.00000000000E+00 -0.00000000000E+00 -0.43078121670E+03  0.43078121670E+03  0.00000000000E+00 0. -1.
          5    1    1    2  502    0  0.20798159543E+02  0.48638977043E+01 -0.55783292660E+02  0.59917332061E+02  0.47000000000E+01 0.  1.
         -5    1    1    2    0  502 -0.96988182995E+02 -0.83498167692E+02 -0.52763617642E+02  0.13850899247E+03  0.47000000000E+01 0.  1.
        -11    1    1    2    0    0  0.82149318600E+02  0.49491366926E+02 -0.22569776586E+03  0.24522925491E+03  0.00000000000E+00 0. -1.
         11    1    1    2    0    0 -0.59592951466E+01  0.29142903061E+02 -0.36543024329E+02  0.47119153479E+02  0.00000000000E+00 0.  1.
<mgrwt>
<rscale>  0 0.15599700E+03</rscale>
<asrwt>0</asrwt>
<pdfrwt beam="2">  1        2 0.66274037E-01 0.16610411E+03</pdfrwt>
<pdfrwt beam="1">  1       -2 0.92297712E-02 0.16610411E+03</pdfrwt>
<totfact> 0.53896638E+03</totfact>
</mgrwt>
</event>
<event>
 6    1  0.5818426E-006  0.1557539E+03  0.7546771E-02  0.1202282E+00
          3   -1    0    0  501    0  0.00000000000E+00  0.00000000000E+00  0.97375127261E+02  0.97375127261E+02  0.00000000000E+00 0. -1.
         -3   -1    0    0    0  501 -0.00000000000E+00 -0.00000000000E+00 -0.27104747670E+03  0.27104747670E+03  0.00000000000E+00 0.  1.
          5    1    1    2  502    0  0.11112978941E+03  0.15776118888E+02 -0.17654809849E+03  0.20926069173E+03  0.47000000000E+01 0. -1.
         -5    1    1    2    0  502 -0.18466753994E+02 -0.22688125370E+02 -0.51753234002E+01  0.30077333795E+02  0.47000000000E+01 0. -1.
        -11    1    1    2    0    0 -0.17978786827E+02 -0.37456980168E+02  0.74608954810E+01  0.42212878373E+02  0.00000000000E+00 0. -1.
         11    1    1    2    0    0 -0.74684248584E+02  0.44368986651E+02  0.59017697593E+00  0.86871700063E+02  0.00000000000E+00 0.  1.
<mgrwt>
<rscale>  0 0.14853755E+03</rscale>
<asrwt>0</asrwt>
<pdfrwt beam="1">  1        3 0.14980789E-01 0.15575394E+03</pdfrwt>
<pdfrwt beam="2">  1       -3 0.41699611E-01 0.15575394E+03</pdfrwt>
<totfact> 0.50370013E+02</totfact>
</mgrwt>
</event>
<event>
 6    1  0.5818426E-006  0.1618331E+03  0.7546771E-02  0.1191265E+00
         -2   -1    0    0    0  501 -0.00000000000E+00  0.00000000000E+00  0.24855158217E+03  0.24855158217E+03  0.00000000000E+00 0.  1.
          2   -1    0    0  501    0  0.00000000000E+00 -0.00000000000E+00 -0.14650003291E+03  0.14650003291E+03  0.00000000000E+00 0. -1.
          5    1    1    2  502    0 -0.45634438206E+02 -0.70211086201E+02  0.56053874000E+02  0.10087727874E+03  0.47000000000E+01 0. -1.
         -5    1    1    2    0  502  0.54862778274E+02 -0.43810175764E+02  0.11326110734E+03  0.13333950793E+03  0.47000000000E+01 0.  1.
        -11    1    1    2    0    0 -0.87668040183E+01 -0.65058513728E+01 -0.34132963330E+02  0.35836324316E+02  0.00000000000E+00 0. -1.
         11    1    1    2    0    0 -0.46153605027E+00  0.12052711334E+03 -0.33130468742E+02  0.12499850409E+03  0.00000000000E+00 0.  1.
<mgrwt>
<rscale>  0 0.15774608E+03</rscale>
<asrwt>0</asrwt>
<pdfrwt beam="2">  1        2 0.22538467E-01 0.16183306E+03</pdfrwt>
<pdfrwt beam="1">  1       -2 0.38238705E-01 0.16183306E+03</pdfrwt>
<totfact> 0.15450005E+03</totfact>
</mgrwt>
</event>
<event>
 6    1  0.5818426E-006  0.1697589E+03  0.7546771E-02  0.1181116E+00
          1   -1    0    0  501    0  0.00000000000E+00  0.00000000000E+00  0.10193073632E+04  0.10193073632E+04  0.00000000000E+00 0. -1.
         -1   -1    0    0    0  501 -0.00000000000E+00 -0.00000000000E+00 -0.28167381835E+02  0.28167381835E+02  0.00000000000E+00 0.  1.
          5    1    1    2  502    0 -0.78437794158E+01 -0.67665934684E+02  0.18602913954E+03  0.19816441242E+03  0.47000000000E+01 0. -1.
         -5    1    1    2    0  502  0.99542829528E+02 -0.13922330864E+01  0.19598876304E+03  0.21987359655E+03  0.47000000000E+01 0. -1.
        -11    1    1    2    0    0 -0.30534928897E+02 -0.10584169254E+02  0.39523226136E+02  0.51053814018E+02  0.00000000000E+00 0.  1.
         11    1    1    2    0    0 -0.61164121215E+02  0.79642337024E+02  0.56959885267E+03  0.57838292206E+03  0.00000000000E+00 0. -1.
<mgrwt>
<rscale>  0 0.16690343E+03</rscale>
<asrwt>0</asrwt>
<pdfrwt beam="1">  1        1 0.15681649E+00 0.16975894E+03</pdfrwt>
<pdfrwt beam="2">  1       -1 0.43334441E-02 0.16975894E+03</pdfrwt>
<totfact> 0.33380134E+03</totfact>
</mgrwt>
</event>
<event>
 6    1  0.5818426E-006  0.1289080E+03  0.7546771E-02  0.1243677E+00
         -1   -1    0    0    0  501 -0.00000000000E+00  0.00000000000E+00  0.39937023130E+02  0.39937023130E+02  0.00000000000E+00 0.  1.
          1   -1    0    0  501    0  0.00000000000E+00 -0.00000000000E+00 -0.32127665161E+03  0.32127665161E+03  0.00000000000E+00 0. -1.
          5    1    1    2  502    0  0.78146069764E+01  0.53960583959E+02 -0.11336077989E+02  0.55887470577E+02  0.47000000000E+01 0.  1.
         -5    1    1    2    0  502 -0.27616170956E+02 -0.29474872639E+02 -0.12631847082E+03  0.13270217439E+03  0.47000000000E+01 0.  1.
        -11    1    1    2    0    0  0.49328370863E+02 -0.37187636108E+02 -0.10933773867E+03  0.12558244124E+03  0.00000000000E+00 0. -1.
         11    1    1    2    0    0 -0.29526806884E+02  0.12701924788E+02 -0.34347340998E+02  0.47041588533E+02  0.00000000000E+00 0.  1.
<mgrwt>
<rscale>  0 0.11964906E+03</rscale>
<asrwt>0</asrwt>
<pdfrwt beam="2">  1        1 0.49427177E-01 0.12890803E+03</pdfrwt>
<pdfrwt beam="1">  1       -1 0.61441574E-02 0.12890803E+03</pdfrwt>
<totfact> 0.97619100E+03</totfact>
</mgrwt>
</event>
<event>
 6    1  0.5818426E-006  0.1569154E+03  0.7546771E-02  0.1200033E+00
         -1   -1    0    0    0  501 -0.00000000000E+00  0.00000000000E+00  0.48500084508E+02  0.48500084508E+02  0.00000000000E+00 0.  1.
          1   -1    0    0  501    0  0.00000000000E+00 -0.00000000000E+00 -0.43303264381E+03  0.43303264381E+03  0.00000000000E+00 0. -1.
          5    1    1    2  502    0  0.59419140317E+02  0.19004574309E+02 -0.33033294450E+02  0.70746707505E+02  0.47000000000E+01 0. -1.
         -5    1    1    2    0  502  0.16150273746E+02 -0.76320552356E+02 -0.15960969761E+03  0.17771607588E+03  0.47000000000E+01 0. -1.
        -11    1    1    2    0    0 -0.40413165816E+02 -0.17250919294E+02 -0.10221544716E+03  0.11126012685E+03  0.00000000000E+00 0. -1.
         11    1    1    2    0    0 -0.35156248247E+02  0.74566897341E+02 -0.89674120077E+02  0.12180981808E+03  0.00000000000E+00 0.  1.
<mgrwt>
<rscale>  0 0.15035880E+03</rscale>
<asrwt>0</asrwt>
<pdfrwt beam="2">  1        1 0.66620404E-01 0.15691537E+03</pdfrwt>
<pdfrwt beam="1">  1       -1 0.74615517E-02 0.15691537E+03</pdfrwt>
<totfact> 0.50769218E+03</totfact>
</mgrwt>
</event>
<event>
 6    1  0.5818426E-006  0.2168293E+03  0.7546771E-02  0.1168571E+00
         -2   -1    0    0    0  501 -0.00000000000E+00  0.00000000000E+00  0.37733200785E+02  0.37733200785E+02  0.00000000000E+00 0.  1.
          2   -1    0    0  501    0  0.00000000000E+00 -0.00000000000E+00 -0.67969866982E+03  0.67969866982E+03  0.00000000000E+00 0. -1.
          5    1    1    2  502    0  0.16992035023E+02 -0.27269680372E+02 -0.41512773925E+03  0.41639583886E+03  0.47000000000E+01 0. -1.
         -5    1    1    2    0  502 -0.25618962843E+02 -0.14184406146E+02  0.18978974021E+02  0.35211079077E+02  0.47000000000E+01 0.  1.
        -11    1    1    2    0    0 -0.33945611823E+02  0.26583798127E+02 -0.18590028308E+03  0.19083479277E+03  0.00000000000E+00 0.  1.
         11    1    1    2    0    0  0.42572539644E+02  0.14870288392E+02 -0.59916420722E+02  0.74990159892E+02  0.00000000000E+00 0. -1.
<mgrwt>
<rscale>  0 0.17920925E+03</rscale>
<asrwt>0</asrwt>
<pdfrwt beam="2">  1        2 0.10456903E+00 0.21682934E+03</pdfrwt>
<pdfrwt beam="1">  1       -2 0.58051077E-02 0.21682934E+03</pdfrwt>
<totfact> 0.66779116E+03</totfact>
</mgrwt>
</event>
<event>
 6    1  0.5818426E-006  0.1338372E+03  0.7546771E-02  0.1233772E+00
         -2   -1    0    0    0  501 -0.00000000000E+00  0.00000000000E+00  0.65710754202E+02  0.65710754202E+02  0.00000000000E+00 0. -1.
          2   -1    0    0  501    0  0.00000000000E+00 -0.00000000000E+00 -0.23130396264E+03  0.23130396264E+03  0.00000000000E+00 0.  1.
          5    1    1    2  502    0  0.51615358897E+02  0.14422705226E+02 -0.77228522982E+02  0.94119575340E+02  0.47000000000E+01 0. -1.
         -5    1    1    2    0  502 -0.13217875820E+02 -0.42918494317E+02  0.22532189012E+02  0.50462847099E+02  0.47000000000E+01 0. -1.
        -11    1    1    2    0    0 -0.11904090289E+02  0.45610280332E+02 -0.11131992309E+03  0.12088891725E+03  0.00000000000E+00 0.  1.
         11    1    1    2    0    0 -0.26493392788E+02 -0.17114491241E+02  0.42304862316E+00  0.31543377150E+02  0.00000000000E+00 0. -1.
<mgrwt>
<rscale>  0 0.12583378E+03</rscale>
<asrwt>0</asrwt>
<pdfrwt beam="2">  1        2 0.35585224E-01 0.13383717E+03</pdfrwt>
<pdfrwt beam="1">  1       -2 0.10109347E-01 0.13383717E+03</pdfrwt>
<totfact> 0.89512752E+03</totfact>
</mgrwt>
</event>
<event>
 6    1  0.5818426E-006  0.1332226E+03  0.7546771E-02  0.1235626E+00
          1   -1    0    0  501    0  0.00000000000E+00  0.00000000000E+00  0.82218743825E+02  0.82218743825E+02  0.00000000000E+00 0. -1.
         -1   -1    0    0    0  501 -0.00000000000E+00 -0.00000000000E+00 -0.17908660416E+03  0.17908660416E+03  0.00000000000E+00 0.  1.
          5    1    1    2  502    0 -0.43301337203E+02 -0.10753511419E+02 -0.14657694852E+02  0.47197265067E+02  0.47000000000E+01 0. -1.
         -5    1    1    2    0  502  0.84852959537E+02 -0.93917828060E+01 -0.71511365037E+02  0.11146387601E+03  0.47000000000E+01 0. -1.
        -11    1    1    2    0    0 -0.20208346068E+02  0.50683757717E+02  0.15938083284E+02  0.56844023836E+02  0.00000000000E+00 0. -1.
         11    1    1    2    0    0 -0.21343276267E+02 -0.30538463492E+02 -0.26636883729E+02  0.45800183067E+02  0.00000000000E+00 0.  1.
<mgrwt>
<rscale>  0 0.12464473E+03</rscale>
<asrwt>0</asrwt>
<pdfrwt beam="1">  1        1 0.12649038E-01 0.13322256E+03</pdfrwt>
<pdfrwt beam="2">  1       -1 0.27551785E-01 0.13322256E+03</pdfrwt>
<totfact> 0.52587018E+03</totfact>
</mgrwt>
</event>
<event>
 6    1  0.5818426E-006  0.1334441E+03  0.7546771E-02  0.1234716E+00
          1   -1    0    0  501    0  0.00000000000E+00  0.00000000000E+00  0.46349810281E+03  0.46349810281E+03  0.00000000000E+00 0. -1.
         -1   -1    0    0    0  501 -0.00000000000E+00 -0.00000000000E+00 -0.31498005464E+02  0.31498005464E+02  0.00000000000E+00 0.  1.
          5    1    1    2  502    0  0.54139182676E+02  0.45068966301E+02  0.11322902880E+03  0.13343599884E+03  0.47000000000E+01 0.  1.
         -5    1    1    2    0  502 -0.10320174697E+02 -0.61292201600E+02  0.80702965018E+02  0.10197204786E+03  0.47000000000E+01 0.  1.
        -11    1    1    2    0    0 -0.35023198913E+02 -0.28970871688E+02  0.57787528405E+02  0.73520978691E+02  0.00000000000E+00 0.  1.
         11    1    1    2    0    0 -0.87958090662E+01  0.45194106987E+02  0.18028057512E+03  0.18606708287E+03  0.00000000000E+00 0. -1.
<mgrwt>
<rscale>  0 0.12522640E+03</rscale>
<asrwt>0</asrwt>
<pdfrwt beam="1">  1        1 0.71307395E-01 0.13344411E+03</pdfrwt>
<pdfrwt beam="2">  1       -1 0.48458473E-02 0.13344411E+03</pdfrwt>
<totfact> 0.87767768E+03</totfact>
</mgrwt>
</event>
<event>
 6    1  0.5818426E-006  0.1293236E+03  0.7546771E-02  0.1242590E+00
          1   -1    0    0  501    0  0.00000000000E+00  0.00000000000E+00  0.35807856643E+03  0.35807856643E+03  0.00000000000E+00 0. -1.
         -1   -1    0    0    0  501 -0.00000000000E+00 -0.00000000000E+00 -0.39610064567E+02  0.39610064567E+02  0.00000000000E+00 0.  1.
          5    1    1    2  502    0 -0.36661522675E+02  0.24340961141E+02  0.10252809192E+03  0.11167206126E+03  0.47000000000E+01 0. -1.
         -5    1    1    2    0  502  0.25798814950E+02 -0.55649295147E+02  0.15562327615E+02  0.63456275844E+02  0.47000000000E+01 0. -1.
        -11    1    1    2    0    0  0.10999684296E+02  0.63568878429E+02  0.12913002011E+03  0.14434873554E+03  0.00000000000E+00 0.  1.
         11    1    1    2    0    0 -0.13697657193E+00 -0.32260544423E+02  0.71248062229E+02  0.78211558356E+02  0.00000000000E+00 0. -1.
<mgrwt>
<rscale>  0 0.12030773E+03</rscale>
<asrwt>0</asrwt>
<pdfrwt beam="1">  1        1 0.55089008E-01 0.12932358E+03</pdfrwt>
<pdfrwt beam="2">  1       -1 0.60938563E-02 0.12932358E+03</pdfrwt>
<totfact> 0.86379884E+03</totfact>
</mgrwt>
</event>
<event>
 6    1  0.5818426E-006  0.1345905E+03  0.7546771E-02  0.1234538E+00
          1   -1    0    0  501    0  0.00000000000E+00  0.00000000000E+00  0.72856792055E+02  0.72856792055E+02  0.00000000000E+00 0. -1.
         -1   -1    0    0    0  501 -0.00000000000E+00 -0.00000000000E+00 -0.21726278684E+03  0.21726278684E+03  0.00000000000E+00 0.  1.
          5    1    1    2  502    0 -0.36150167642E+02 -0.84488334413E+01 -0.12649159421E+03  0.13191069256E+03  0.47000000000E+01 0.  1.
         -5    1    1    2    0  502  0.37194292420E+02 -0.41499161076E+02 -0.48334528366E+01  0.56134196574E+02  0.47000000000E+01 0.  1.
        -11    1    1    2    0    0 -0.11537134299E+02  0.94487227957E+01  0.35176567292E+02  0.38206998270E+02  0.00000000000E+00 0. -1.
         11    1    1    2    0    0  0.10493009521E+02  0.40499271722E+02 -0.48257515031E+02  0.63867691486E+02  0.00000000000E+00 0.  1.
<mgrwt>
<rscale>  0 0.12534052E+03</rscale>
<asrwt>0</asrwt>
<pdfrwt beam="1">  1        1 0.11208738E-01 0.13459054E+03</pdfrwt>
<pdfrwt beam="2">  1       -1 0.33425043E-01 0.13459054E+03</pdfrwt>
<totfact> 0.44553976E+03</totfact>
</mgrwt>
</event>
<event>
 6    1  0.5818426E-006  0.1541758E+03  0.7546771E-02  0.1203791E+00
         -2   -1    0    0    0  501 -0.00000000000E+00  0.00000000000E+00  0.41798266885E+02  0.41798266885E+02  0.00000000000E+00 0.  1.
          2   -1    0    0  501    0  0.00000000000E+00 -0.00000000000E+00 -0.49661288627E+03  0.49661288627E+03  0.00000000000E+00 0. -1.
          5    1    1    2  502    0  0.40981938599E+02 -0.41769457019E+02 -0.93802261471E+02  0.11065785597E+03  0.47000000000E+01 0.  1.
         -5    1    1    2    0  502 -0.86341504754E+02 -0.36247534965E+02 -0.10174003337E+03  0.13835412399E+03  0.47000000000E+01 0.  1.
        -11    1    1    2    0    0  0.22124851204E+02 -0.13258747874E+02 -0.21251124176E+02  0.33420259046E+02  0.00000000000E+00 0.  1.
         11    1    1    2    0    0  0.23234714952E+02  0.91275739858E+02 -0.23802120036E+03  0.25597891415E+03  0.00000000000E+00 0. -1.
<mgrwt>
<rscale>  0 0.14733144E+03</rscale>
<asrwt>0</asrwt>
<pdfrwt beam="2">  1        2 0.76401987E-01 0.15417580E+03</pdfrwt>
<pdfrwt beam="1">  1       -2 0.64305022E-02 0.15417580E+03</pdfrwt>
<totfact> 0.80367133E+03</totfact>
</mgrwt>
</event>
<event>
 6    1  0.5818426E-006  0.1285208E+03  0.7546771E-02  0.1244559E+00
          1   -1    0    0  501    0  0.00000000000E+00  0.00000000000E+00  0.27271360642E+03  0.27271360642E+03  0.00000000000E+00 0. -1.
         -1   -1    0    0    0  501 -0.00000000000E+00 -0.00000000000E+00 -0.46695190224E+02  0.46695190224E+02  0.00000000000E+00 0.  1.
          5    1    1    2  502    0  0.28901881769E+02  0.16521068722E+02  0.99127455954E+02  0.10467381241E+03  0.47000000000E+01 0.  1.
         -5    1    1    2    0  502 -0.58568228367E+02 -0.20065691437E+02  0.79252330039E+01  0.62592081488E+02  0.47000000000E+01 0.  1.
        -11    1    1    2    0    0  0.60822873766E+02  0.49311267161E+01  0.94563982845E+02  0.11254370189E+03  0.00000000000E+00 0. -1.
         11    1    1    2    0    0 -0.31156527169E+02 -0.13865040007E+01  0.24401744394E+02  0.39599200851E+02  0.00000000000E+00 0.  1.
<mgrwt>
<rscale>  0 0.11911816E+03</rscale>
<asrwt>0</asrwt>
<pdfrwt beam="1">  1        1 0.41955938E-01 0.12852082E+03</pdfrwt>
<pdfrwt beam="2">  1       -1 0.71838756E-02 0.12852082E+03</pdfrwt>
<totfact> 0.94610020E+03</totfact>
</mgrwt>
</event>
<event>
 6    1  0.5818426E-006  0.1458118E+03  0.7546771E-02  0.1215140E+00
         -3   -1    0    0    0  501 -0.00000000000E+00  0.00000000000E+00  0.36219997521E+02  0.36219997521E+02  0.00000000000E+00 0.  1.
          3   -1    0    0  501    0  0.00000000000E+00 -0.00000000000E+00 -0.48843186628E+03  0.48843186628E+03  0.00000000000E+00 0. -1.
          5    1    1    2  502    0  0.25424588256E+02 -0.23448965658E+02 -0.40272006320E+02  0.53293415836E+02  0.47000000000E+01 0.  1.
         -5    1    1    2    0  502 -0.75385722953E+02  0.79406581033E+02 -0.18625435608E+03  0.21610457537E+03  0.47000000000E+01 0.  1.
        -11    1    1    2    0    0  0.25798981852E+02  0.64063278043E+01 -0.83540856870E+01  0.27864300605E+02  0.00000000000E+00 0.  1.
         11    1    1    2    0    0  0.24162152845E+02 -0.62363943179E+02 -0.21733142067E+03  0.22738957199E+03  0.00000000000E+00 0. -1.
<mgrwt>
<rscale>  0 0.13866257E+03</rscale>
<asrwt>0</asrwt>
<pdfrwt beam="2">  1        3 0.75143357E-01 0.14581181E+03</pdfrwt>
<pdfrwt beam="1">  1       -3 0.55723078E-02 0.14581181E+03</pdfrwt>
<totfact> 0.76640043E+02</totfact>
</mgrwt>
</event>
<event>
 6    1  0.5818426E-006  0.1325234E+03  0.7546771E-02  0.1236858E+00
         -1   -1    0    0    0  501 -0.00000000000E+00  0.00000000000E+00  0.13318190132E+03  0.13318190132E+03  0.00000000000E+00 0.  1.
          1   -1    0    0  501    0  0.00000000000E+00 -0.00000000000E+00 -0.10268096527E+03  0.10268096527E+03  0.00000000000E+00 0. -1.
          5    1    1    2  502    0  0.19061743947E+02  0.68634301220E+02  0.17989328830E+01  0.71409688039E+02  0.47000000000E+01 0.  1.
         -5    1    1    2    0  502  0.22634495378E+02 -0.54845107965E+02  0.20669372333E+02  0.63004914105E+02  0.47000000000E+01 0.  1.
        -11    1    1    2    0    0 -0.13976954521E+02 -0.14475863309E+02  0.48433750298E+02  0.52447440778E+02  0.00000000000E+00 0.  1.
         11    1    1    2    0    0 -0.27719284804E+02  0.68667005432E+00 -0.40401119469E+02  0.49000823668E+02  0.00000000000E+00 0. -1.
<mgrwt>
<rscale>  0 0.12386233E+03</rscale>
<asrwt>0</asrwt>
<pdfrwt beam="2">  1        1 0.15797071E-01 0.13252343E+03</pdfrwt>
<pdfrwt beam="1">  1       -1 0.20489523E-01 0.13252343E+03</pdfrwt>
<totfact> 0.63897861E+03</totfact>
</mgrwt>
</event>
<event>
 6    1  0.5818426E-006  0.2557288E+03  0.7546771E-02  0.1109737E+00
          1   -1    0    0  501    0  0.00000000000E+00  0.00000000000E+00  0.14371689686E+03  0.14371689686E+03  0.00000000000E+00 0. -1.
         -1   -1    0    0    0  501 -0.00000000000E+00 -0.00000000000E+00 -0.11376051514E+03  0.11376051514E+03  0.00000000000E+00 0.  1.
          5    1    1    2  502    0  0.28873513434E+02  0.12045577288E+02 -0.41034647795E+02  0.51814168235E+02  0.47000000000E+01 0. -1.
         -5    1    1    2    0  502 -0.84364112200E+02  0.10398265905E+01  0.20939112896E+02  0.87056999233E+02  0.47000000000E+01 0. -1.
        -11    1    1    2    0    0  0.27133664387E+02  0.34725701009E+02  0.39853398560E+00  0.44071179732E+02  0.00000000000E+00 0.  1.
         11    1    1    2    0    0  0.28356934379E+02 -0.47811104888E+02  0.49653382639E+02  0.74535064804E+02  0.00000000000E+00 0. -1.
<mgrwt>
<rscale>  0 0.25572883E+03</rscale>
<asrwt>0</asrwt>
<pdfrwt beam="1">  1        1 0.22110292E-01 0.25572883E+03</pdfrwt>
<pdfrwt beam="2">  1       -1 0.17501618E-01 0.25572883E+03</pdfrwt>
<totfact> 0.55567179E+03</totfact>
</mgrwt>
</event>
<event>
 6    1  0.5818426E-006  0.1308234E+03  0.7546771E-02  0.1239690E+00
         -1   -1    0    0    0  501 -0.00000000000E+00  0.00000000000E+00  0.29095997021E+02  0.29095997021E+02  0.00000000000E+00 0.  1.
          1   -1    0    0  501    0  0.00000000000E+00 -0.00000000000E+00 -0.46041601283E+03  0.46041601283E+03  0.00000000000E+00 0. -1.
          5    1    1    2  502    0 -0.72135273144E+02  0.16700927987E+02 -0.83949958115E+02  0.11203617315E+03  0.47000000000E+01 0. -1.
         -5    1    1    2    0  502  0.45802184616E+02  0.11529380031E+02 -0.13405415388E+03  0.14220890581E+03  0.47000000000E+01 0. -1.
        -11    1    1    2    0    0 -0.34175949014E+02 -0.11001941071E+02 -0.88078542480E+02  0.95115024280E+02  0.00000000000E+00 0. -1.
         11    1    1    2    0    0  0.60509037541E+02 -0.17228366947E+02 -0.12523736133E+03  0.14015190660E+03  0.00000000000E+00 0.  1.
<mgrwt>
<rscale>  0 0.12208894E+03</rscale>
<asrwt>0</asrwt>
<pdfrwt beam="2">  1        1 0.70833229E-01 0.13082342E+03</pdfrwt>
<pdfrwt beam="1">  1       -1 0.44763075E-02 0.13082342E+03</pdfrwt>
<totfact> 0.99369325E+03</totfact>
</mgrwt>
</event>
<event>
 6    1  0.5818426E-006  0.1336726E+03  0.7546771E-02  0.1234494E+00
         -2   -1    0    0    0  501 -0.00000000000E+00  0.00000000000E+00  0.69535543018E+02  0.69535543018E+02  0.00000000000E+00 0.  1.
          2   -1    0    0  501    0  0.00000000000E+00 -0.00000000000E+00 -0.21303194155E+03  0.21303194155E+03  0.00000000000E+00 0. -1.
          5    1    1    2  502    0 -0.25676573835E+01  0.14760749489E+02 -0.73522509894E+02  0.75180596240E+02  0.47000000000E+01 0. -1.
         -5    1    1    2    0  502  0.19293312901E+01 -0.62113062058E+02  0.24829387991E+02  0.67084598124E+02  0.47000000000E+01 0. -1.
        -11    1    1    2    0    0  0.17113706249E+02  0.20930459540E+01  0.13417755552E+02  0.21847103858E+02  0.00000000000E+00 0.  1.
         11    1    1    2    0    0 -0.16475380156E+02  0.45259266615E+02 -0.10822103218E+03  0.11845518635E+03  0.00000000000E+00 0. -1.
<mgrwt>
<rscale>  0 0.12536893E+03</rscale>
<asrwt>0</asrwt>
<pdfrwt beam="2">  1        2 0.32774145E-01 0.13367261E+03</pdfrwt>
<pdfrwt beam="1">  1       -2 0.10697776E-01 0.13367261E+03</pdfrwt>
<totfact> 0.89423046E+03</totfact>
</mgrwt>
</event>
<event>
 6    1  0.5818426E-006  0.1558803E+03  0.7546771E-02  0.1202187E+00
         -1   -1    0    0    0  501 -0.00000000000E+00  0.00000000000E+00  0.52653482697E+02  0.52653482697E+02  0.00000000000E+00 0.  1.
          1   -1    0    0  501    0  0.00000000000E+00 -0.00000000000E+00 -0.53000010896E+03  0.53000010896E+03  0.00000000000E+00 0. -1.
          5    1    1    2  502    0  0.51041975632E+02  0.15786398622E+02 -0.96236376222E+02  0.11017269973E+03  0.47000000000E+01 0.  1.
         -5    1    1    2    0  502  0.22528793935E+02 -0.72889990923E+02 -0.69198086963E+01  0.76749404462E+02  0.47000000000E+01 0.  1.
        -11    1    1    2    0    0  0.11848161995E+02  0.31981901359E+02 -0.16316919370E+03  0.16669555102E+03  0.00000000000E+00 0.  1.
         11    1    1    2    0    0 -0.85418931562E+02  0.25121690942E+02 -0.21102124764E+03  0.22903593644E+03  0.00000000000E+00 0. -1.
<mgrwt>
<rscale>  0 0.14861329E+03</rscale>
<asrwt>0</asrwt>
<pdfrwt beam="2">  1        1 0.81538479E-01 0.15588032E+03</pdfrwt>
<pdfrwt beam="1">  1       -1 0.81005357E-02 0.15588032E+03</pdfrwt>
<totfact> 0.34461666E+03</totfact>
</mgrwt>
</event>
<event>
 6    1  0.5818426E-006  0.1277164E+03  0.7546771E-02  0.1246746E+00
          1   -1    0    0  501    0  0.00000000000E+00  0.00000000000E+00  0.24743308594E+03  0.24743308594E+03  0.00000000000E+00 0. -1.
         -1   -1    0    0    0  501 -0.00000000000E+00 -0.00000000000E+00 -0.58047312616E+02  0.58047312616E+02  0.00000000000E+00 0.  1.
          5    1    1    2  502    0 -0.49829603516E+02 -0.23253403247E+02  0.76960140531E+02  0.94703027300E+02  0.47000000000E+01 0. -1.
         -5    1    1    2    0  502  0.28097361204E+02  0.86345008509E+01 -0.29155275153E+02  0.41666969902E+02  0.47000000000E+01 0. -1.
        -11    1    1    2    0    0  0.55583308156E+02  0.45749780570E+01  0.71909369786E+02  0.91002154001E+02  0.00000000000E+00 0.  1.
         11    1    1    2    0    0 -0.33851065844E+02  0.10043924339E+02  0.69671538156E+02  0.78108247349E+02  0.00000000000E+00 0. -1.
<mgrwt>
<rscale>  0 0.11781507E+03</rscale>
<asrwt>0</asrwt>
<pdfrwt beam="1">  1        1 0.38066628E-01 0.12771637E+03</pdfrwt>
<pdfrwt beam="2">  1       -1 0.89303559E-02 0.12771637E+03</pdfrwt>
<totfact> 0.76820278E+03</totfact>
</mgrwt>
</event>
<event>
 6    1  0.5818426E-006  0.1171639E+03  0.7546771E-02  0.1258817E+00
         -2   -1    0    0    0  501 -0.00000000000E+00  0.00000000000E+00  0.72356913504E+03  0.72356913504E+03  0.00000000000E+00 0.  1.
          2   -1    0    0  501    0  0.00000000000E+00 -0.00000000000E+00 -0.20629680222E+02  0.20629680222E+02  0.00000000000E+00 0. -1.
          5    1    1    2  502    0  0.65422928136E+02  0.18961486820E+02  0.30181546673E+03  0.30944201955E+03  0.47000000000E+01 0. -1.
         -5    1    1    2    0  502 -0.39141433053E+02 -0.27854558883E+02  0.26402231087E+03  0.26839858209E+03  0.47000000000E+01 0.  1.
        -11    1    1    2    0    0  0.17867648602E+02  0.31846559971E+02  0.92833593458E+02  0.99757367261E+02  0.00000000000E+00 0. -1.
         11    1    1    2    0    0 -0.44149143684E+02 -0.22953487908E+02  0.44268083757E+02  0.66600846351E+02  0.00000000000E+00 0.  1.
<mgrwt>
<rscale>  0 0.11095217E+03</rscale>
<asrwt>0</asrwt>
<pdfrwt beam="2">  1        2 0.31737975E-02 0.11716386E+03</pdfrwt>
<pdfrwt beam="1">  1       -2 0.11131831E+00 0.11716386E+03</pdfrwt>
<totfact> 0.18343299E+03</totfact>
</mgrwt>
</event>
<event>
 6    1  0.5818426E-006  0.1669875E+03  0.7546771E-02  0.1187125E+00
         -1   -1    0    0    0  501 -0.00000000000E+00  0.00000000000E+00  0.71742729757E+02  0.71742729757E+02  0.00000000000E+00 0.  1.
          1   -1    0    0  501    0  0.00000000000E+00 -0.00000000000E+00 -0.34847120184E+03  0.34847120184E+03  0.00000000000E+00 0. -1.
          5    1    1    2  502    0 -0.67158341081E+02 -0.25933643938E+02 -0.80321804229E+00  0.72149371611E+02  0.47000000000E+01 0.  1.
         -5    1    1    2    0  502 -0.41681552900E+02  0.46291306973E+02 -0.11562090990E+03  0.13141735715E+03  0.47000000000E+01 0.  1.
        -11    1    1    2    0    0  0.64621402437E+02 -0.31424298572E+02 -0.28706774825E+02  0.77378880287E+02  0.00000000000E+00 0.  1.
         11    1    1    2    0    0  0.44218491544E+02  0.11066635537E+02 -0.13159756932E+03  0.13926832255E+03  0.00000000000E+00 0. -1.
<mgrwt>
<rscale>  0 0.16140002E+03</rscale>
<asrwt>0</asrwt>
<pdfrwt beam="2">  1        1 0.53610956E-01 0.16698753E+03</pdfrwt>
<pdfrwt beam="1">  1       -1 0.11037343E-01 0.16698753E+03</pdfrwt>
<totfact> 0.36892159E+03</totfact>
</mgrwt>
</event>
<event>
 6    1  0.5818426E-006  0.1252168E+03  0.7546771E-02  0.1250757E+00
          2   -1    0    0  501    0  0.00000000000E+00  0.00000000000E+00  0.10141098212E+03  0.10141098212E+03  0.00000000000E+00 0. -1.
         -2   -1    0    0    0  501 -0.00000000000E+00 -0.00000000000E+00 -0.14834109693E+03  0.14834109693E+03  0.00000000000E+00 0.  1.
          5    1    1    2  502    0 -0.10480099850E+02  0.60057143374E+02 -0.73820637642E+02  0.95855461529E+02  0.47000000000E+01 0.  1.
         -5    1    1    2    0  502  0.11996350658E+02 -0.52867890975E+02 -0.11362242737E+02  0.55588819786E+02  0.47000000000E+01 0.  1.
        -11    1    1    2    0    0 -0.19340588727E+02 -0.16832024882E+02 -0.22594587449E+02  0.34174417565E+02  0.00000000000E+00 0.  1.
         11    1    1    2    0    0  0.17824337918E+02  0.96427724833E+01  0.60847353016E+02  0.64133380173E+02  0.00000000000E+00 0. -1.
<mgrwt>
<rscale>  0 0.11547322E+03</rscale>
<asrwt>0</asrwt>
<pdfrwt beam="1">  1        2 0.15601690E-01 0.12521680E+03</pdfrwt>
<pdfrwt beam="2">  1       -2 0.22821707E-01 0.12521680E+03</pdfrwt>
<totfact> 0.58640550E+03</totfact>
</mgrwt>
</event>
<event>
 6    1  0.5818426E-006  0.1282577E+03  0.7546771E-02  0.1242975E+00
          1   -1    0    0  501    0  0.00000000000E+00  0.00000000000E+00  0.16837337181E+03  0.16837337181E+03  0.00000000000E+00 0. -1.
         -1   -1    0    0    0  501 -0.00000000000E+00 -0.00000000000E+00 -0.80922266544E+02  0.80922266544E+02  0.00000000000E+00 0.  1.
          5    1    1    2  502    0  0.58590894586E+02  0.34456470880E+02 -0.10415890693E+02  0.68925482174E+02  0.47000000000E+01 0. -1.
         -5    1    1    2    0  502 -0.30924776660E+02 -0.42566712695E+02  0.30205315544E+02  0.60849962434E+02  0.47000000000E+01 0. -1.
        -11    1    1    2    0    0 -0.45911446263E+01 -0.38710578082E+02  0.71957595335E+01  0.39640464423E+02  0.00000000000E+00 0.  1.
         11    1    1    2    0    0 -0.23074973300E+02  0.46820819896E+02  0.60465920878E+02  0.79879729319E+02  0.00000000000E+00 0. -1.
<mgrwt>
<rscale>  0 0.12007377E+03</rscale>
<asrwt>0</asrwt>
<pdfrwt beam="1">  1        1 0.25903596E-01 0.12825773E+03</pdfrwt>
<pdfrwt beam="2">  1       -1 0.12449579E-01 0.12825773E+03</pdfrwt>
<totfact> 0.74547458E+03</totfact>
</mgrwt>
</event>
<event>
 6    1  0.5818426E-006  0.1191844E+03  0.7546771E-02  0.1255875E+00
         -2   -1    0    0    0  501 -0.00000000000E+00  0.00000000000E+00  0.83056221494E+02  0.83056221494E+02  0.00000000000E+00 0.  1.
          2   -1    0    0  501    0  0.00000000000E+00 -0.00000000000E+00 -0.13804089051E+03  0.13804089051E+03  0.00000000000E+00 0. -1.
          5    1    1    2  502    0  0.54173320431E+02 -0.44719166627E+02 -0.26179169511E+02  0.75113190763E+02  0.47000000000E+01 0. -1.
         -5    1    1    2    0  502 -0.43240439812E+02  0.20762959150E+02 -0.78312588471E+01  0.48828830858E+02  0.47000000000E+01 0.  1.
        -11    1    1    2    0    0  0.19934201883E+02  0.49640673537E+02 -0.42702474141E+01  0.53663804253E+02  0.00000000000E+00 0.  1.
         11    1    1    2    0    0 -0.30867082501E+02 -0.25684466060E+02 -0.16703993243E+02  0.43491286129E+02  0.00000000000E+00 0. -1.
<mgrwt>
<rscale>  0 0.11257448E+03</rscale>
<asrwt>0</asrwt>
<pdfrwt beam="2">  1        2 0.21237060E-01 0.11918438E+03</pdfrwt>
<pdfrwt beam="1">  1       -2 0.12777880E-01 0.11918438E+03</pdfrwt>
<totfact> 0.10741650E+04</totfact>
</mgrwt>
</event>
<event>
 6    1  0.5818426E-006  0.1342100E+03  0.7546771E-02  0.1234045E+00
         -3   -1    0    0    0  501 -0.00000000000E+00  0.00000000000E+00  0.23766747046E+02  0.23766747046E+02  0.00000000000E+00 0.  1.
          3   -1    0    0  501    0  0.00000000000E+00 -0.00000000000E+00 -0.82900712877E+03  0.82900712877E+03  0.00000000000E+00 0. -1.
          5    1    1    2  502    0 -0.15755954599E+02 -0.39521088834E+02 -0.13181705185E+03  0.13859289926E+03  0.47000000000E+01 0.  1.
         -5    1    1    2    0  502 -0.15077070992E+02  0.77423152861E+02 -0.82164435518E+02  0.11399450484E+03  0.47000000000E+01 0.  1.
        -11    1    1    2    0    0 -0.29844111001E+02  0.29355309438E+01 -0.16886542733E+03  0.17150749502E+03  0.00000000000E+00 0.  1.
         11    1    1    2    0    0  0.60677136592E+02 -0.40837594971E+02 -0.42239346703E+03  0.42867897670E+03  0.00000000000E+00 0. -1.
<mgrwt>
<rscale>  0 0.12565784E+03</rscale>
<asrwt>0</asrwt>
<pdfrwt beam="2">  1        3 0.12753954E+00 0.13420998E+03</pdfrwt>
<pdfrwt beam="1">  1       -3 0.36564232E-02 0.13420998E+03</pdfrwt>
<totfact> 0.44485405E+02</totfact>
</mgrwt>
</event>
<event>
 6    1  0.5818426E-006  0.1630683E+03  0.7546771E-02  0.1191923E+00
          2   -1    0    0  501    0  0.00000000000E+00  0.00000000000E+00  0.58675674616E+02  0.58675674616E+02  0.00000000000E+00 0. -1.
         -2   -1    0    0    0  501 -0.00000000000E+00 -0.00000000000E+00 -0.39346455600E+03  0.39346455600E+03  0.00000000000E+00 0.  1.
          5    1    1    2  502    0  0.72979262471E+02  0.14225728373E+02 -0.92389418915E+02  0.11868546173E+03  0.47000000000E+01 0.  1.
         -5    1    1    2    0  502  0.17621266308E+01 -0.87582309183E+02 -0.82324608197E+02  0.12030460127E+03  0.47000000000E+01 0.  1.
        -11    1    1    2    0    0  0.17276578729E+02  0.97657411777E+01 -0.59525038460E+02  0.62746155874E+02  0.00000000000E+00 0.  1.
         11    1    1    2    0    0 -0.92017967831E+02  0.63590839632E+02 -0.10054981582E+03  0.15040401175E+03  0.00000000000E+00 0. -1.
<mgrwt>
<rscale>  0 0.15717555E+03</rscale>
<asrwt>0</asrwt>
<pdfrwt beam="1">  1        2 0.90270266E-02 0.16306826E+03</pdfrwt>
<pdfrwt beam="2">  1       -2 0.60533011E-01 0.16306826E+03</pdfrwt>
<totfact> 0.18465792E+03</totfact>
</mgrwt>
</event>
<event>
 6    1  0.5818426E-006  0.2381981E+03  0.7546771E-02  0.1123413E+00
         -1   -1    0    0    0  501 -0.00000000000E+00  0.00000000000E+00  0.18553387664E+03  0.18553387664E+03  0.00000000000E+00 0.  1.
          1   -1    0    0  501    0  0.00000000000E+00 -0.00000000000E+00 -0.30017507101E+03  0.30017507101E+03  0.00000000000E+00 0. -1.
          5    1    1    2  502    0 -0.61348966513E+02  0.12850086733E+03 -0.40535203687E+02  0.14812616695E+03  0.47000000000E+01 0.  1.
         -5    1    1    2    0  502  0.42919178324E+02  0.73425126927E+02  0.29993598666E+02  0.90305100040E+02  0.47000000000E+01 0.  1.
        -11    1    1    2    0    0  0.86461714037E+01 -0.64142650113E+02 -0.86495550156E+02  0.10803016264E+03  0.00000000000E+00 0. -1.
         11    1    1    2    0    0  0.97836167859E+01 -0.13778334415E+03 -0.17604039192E+02  0.13924751803E+03  0.00000000000E+00 0.  1.
<mgrwt>
<rscale>  0 0.23464431E+03</rscale>
<asrwt>0</asrwt>
<pdfrwt beam="2">  1        1 0.46180780E-01 0.23819812E+03</pdfrwt>
<pdfrwt beam="1">  1       -1 0.28543674E-01 0.23819812E+03</pdfrwt>
<totfact> 0.97462606E+02</totfact>
</mgrwt>
</event>
<event>
 6    1  0.5818426E-006  0.3783073E+03  0.7546771E-02  0.1051561E+00
         -2   -1    0    0    0  501 -0.00000000000E+00  0.00000000000E+00  0.10525809188E+03  0.10525809188E+03  0.00000000000E+00 0.  1.
          2   -1    0    0  501    0  0.00000000000E+00 -0.00000000000E+00 -0.33991781423E+03  0.33991781423E+03  0.00000000000E+00 0. -1.
          5    1    1    2  502    0 -0.30848166335E+02  0.22764518527E+02 -0.40846214503E+02  0.56216864989E+02  0.47000000000E+01 0. -1.
         -5    1    1    2    0  502  0.11599215909E+03  0.10591338399E+03 -0.81459888418E+02  0.17700177767E+03  0.47000000000E+01 0. -1.
        -11    1    1    2    0    0 -0.54413181915E+02 -0.48356894996E+02 -0.10203570450E+03  0.12534140837E+03  0.00000000000E+00 0. -1.
         11    1    1    2    0    0 -0.30730810839E+02 -0.80321007517E+02 -0.10317914938E+02  0.86615855084E+02  0.00000000000E+00 0.  1.
<mgrwt>
<rscale>  0 0.37830729E+03</rscale>
<asrwt>0</asrwt>
<pdfrwt beam="2">  1        2 0.52295048E-01 0.37830729E+03</pdfrwt>
<pdfrwt beam="1">  1       -2 0.16193553E-01 0.37830729E+03</pdfrwt>
<totfact> 0.28888529E+03</totfact>
</mgrwt>
</event>
<event>
 6    1  0.5818426E-006  0.2366260E+03  0.7546771E-02  0.1124906E+00
          2   -1    0    0  501    0  0.00000000000E+00  0.00000000000E+00  0.10997118715E+03  0.10997118715E+03  0.00000000000E+00 0. -1.
         -2   -1    0    0    0  501 -0.00000000000E+00 -0.00000000000E+00 -0.47548756641E+03  0.47548756641E+03  0.00000000000E+00 0.  1.
          5    1    1    2  502    0 -0.47141073204E+02  0.13095148600E+03 -0.18522275982E+03  0.23173289197E+03  0.47000000000E+01 0. -1.
         -5    1    1    2    0  502 -0.67991681154E+02  0.33703471515E+02 -0.13396869559E+02  0.77203360110E+02  0.47000000000E+01 0. -1.
        -11    1    1    2    0    0  0.10350968613E+03 -0.13920912501E+03 -0.91549817973E+02  0.19614995483E+03  0.00000000000E+00 0. -1.
         11    1    1    2    0    0  0.11623068225E+02 -0.25445832506E+02 -0.75346931909E+02  0.80372546650E+02  0.00000000000E+00 0.  1.
<mgrwt>
<rscale>  0 0.23248113E+03</rscale>
<asrwt>0</asrwt>
<pdfrwt beam="1">  1        2 0.16918644E-01 0.23662597E+03</pdfrwt>
<pdfrwt beam="2">  1       -2 0.73151933E-01 0.23662597E+03</pdfrwt>
<totfact> 0.58525898E+02</totfact>
</mgrwt>
</event>
<event>
 6    1  0.5818426E-006  0.1252724E+03  0.7546771E-02  0.1248459E+00
          1   -1    0    0  501    0  0.00000000000E+00  0.00000000000E+00  0.64193734923E+03  0.64193734923E+03  0.00000000000E+00 0. -1.
         -1   -1    0    0    0  501 -0.00000000000E+00 -0.00000000000E+00 -0.24458268597E+02  0.24458268597E+02  0.00000000000E+00 0.  1.
          5    1    1    2  502    0  0.31202931042E+02 -0.57946923191E+02  0.80669941691E+02  0.10421707300E+03  0.47000000000E+01 0. -1.
         -5    1    1    2    0  502 -0.27574245027E+02  0.50608229745E+02  0.10268116951E+03  0.11784330477E+03  0.47000000000E+01 0. -1.
        -11    1    1    2    0    0  0.19130270637E+02 -0.38654587172E+02  0.21432693752E+03  0.21862337595E+03  0.00000000000E+00 0. -1.
         11    1    1    2    0    0 -0.22758956651E+02  0.45993280617E+02  0.21980103191E+03  0.22571186410E+03  0.00000000000E+00 0.  1.
<mgrwt>
<rscale>  0 0.11680751E+03</rscale>
<asrwt>0</asrwt>
<pdfrwt beam="1">  1        1 0.98759579E-01 0.12527243E+03</pdfrwt>
<pdfrwt beam="2">  1       -1 0.37628110E-02 0.12527243E+03</pdfrwt>
<totfact> 0.82215985E+03</totfact>
</mgrwt>
</event>
<event>
 6    1  0.5818426E-006  0.1411337E+03  0.7546771E-02  0.1222977E+00
         -1   -1    0    0    0  501 -0.00000000000E+00  0.00000000000E+00  0.93499599370E+02  0.93499599370E+02  0.00000000000E+00 0.  1.
          1   -1    0    0  501    0  0.00000000000E+00 -0.00000000000E+00 -0.19210076648E+03  0.19210076648E+03  0.00000000000E+00 0. -1.
          5    1    1    2  502    0 -0.83168022343E+01 -0.59245208111E+02  0.31064596338E+02  0.67574129881E+02  0.47000000000E+01 0.  1.
         -5    1    1    2    0  502 -0.52467507917E+02  0.34778933495E+02 -0.38110351788E+02  0.73735354583E+02  0.47000000000E+01 0.  1.
        -11    1    1    2    0    0  0.19693480242E+02 -0.18017473104E+02  0.85597891548E+01  0.28030920275E+02  0.00000000000E+00 0.  1.
         11    1    1    2    0    0  0.41090829909E+02  0.42483747720E+02 -0.10011520081E+03  0.11625996111E+03  0.00000000000E+00 0. -1.
<mgrwt>
<rscale>  0 0.13306523E+03</rscale>
<asrwt>0</asrwt>
<pdfrwt beam="2">  1        1 0.29553964E-01 0.14113372E+03</pdfrwt>
<pdfrwt beam="1">  1       -1 0.14384554E-01 0.14113372E+03</pdfrwt>
<totfact> 0.50842594E+03</totfact>
</mgrwt>
</event>
<event>
 6    1  0.5818426E-006  0.1874672E+03  0.7546771E-02  0.1176765E+00
         -1   -1    0    0    0  501 -0.00000000000E+00  0.00000000000E+00  0.17065471708E+04  0.17065471708E+04  0.00000000000E+00 0.  1.
          1   -1    0    0  501    0  0.00000000000E+00 -0.00000000000E+00 -0.34024026586E+02  0.34024026586E+02  0.00000000000E+00 0. -1.
          5    1    1    2  502    0  0.71079964411E+02 -0.50542556952E+02  0.33531625048E+03  0.34650539569E+03  0.47000000000E+01 0. -1.
         -5    1    1    2    0  502  0.12047168412E+02  0.72171795801E+01  0.12169476601E+04  0.12170377642E+04  0.47000000000E+01 0.  1.
        -11    1    1    2    0    0 -0.95432619154E+02  0.29705007741E+02  0.66065278014E+02  0.11980982114E+03  0.00000000000E+00 0. -1.
         11    1    1    2    0    0  0.12305486330E+02  0.13620369631E+02  0.54193955608E+02  0.57218216392E+02  0.00000000000E+00 0.  1.
<mgrwt>
<rscale>  0 0.17104280E+03</rscale>
<asrwt>0</asrwt>
<pdfrwt beam="2">  1        1 0.52344669E-02 0.18746724E+03</pdfrwt>
<pdfrwt beam="1">  1       -1 0.26254565E+00 0.18746724E+03</pdfrwt>
<totfact> 0.10459573E+02</totfact>
</mgrwt>
</event>
<event>
 6    1  0.5818426E-006  0.1892100E+03  0.7546771E-02  0.1164006E+00
          1   -1    0    0  501    0  0.00000000000E+00  0.00000000000E+00  0.37962767973E+03  0.37962767973E+03  0.00000000000E+00 0. -1.
         -1   -1    0    0    0  501 -0.00000000000E+00 -0.00000000000E+00 -0.93262304088E+02  0.93262304088E+02  0.00000000000E+00 0.  1.
          5    1    1    2  502    0 -0.10905679138E+03  0.10064119896E+02 -0.97982529382E+01  0.11005801205E+03  0.47000000000E+01 0.  1.
         -5    1    1    2    0  502 -0.30641295805E+02  0.15571888663E+02  0.88154709470E+02  0.94734975204E+02  0.47000000000E+01 0.  1.
        -11    1    1    2    0    0  0.13151807648E+03 -0.35683795221E+02  0.21409257959E+03  0.25378331371E+03  0.00000000000E+00 0. -1.
         11    1    1    2    0    0  0.81800107010E+01  0.10047786662E+02 -0.60836604837E+01  0.14313682851E+02  0.00000000000E+00 0.  1.
<mgrwt>
<rscale>  0 0.18397957E+03</rscale>
<asrwt>0</asrwt>
<pdfrwt beam="1">  1        1 0.58404258E-01 0.18921002E+03</pdfrwt>
<pdfrwt beam="2">  1       -1 0.14348047E-01 0.18921002E+03</pdfrwt>
<totfact> 0.22102380E+03</totfact>
</mgrwt>
</event>
<event>
 6    1  0.5818426E-006  0.1355495E+03  0.7546771E-02  0.1233563E+00
         -1   -1    0    0    0  501 -0.00000000000E+00  0.00000000000E+00  0.33626762849E+02  0.33626762849E+02  0.00000000000E+00 0.  1.
          1   -1    0    0  501    0  0.00000000000E+00 -0.00000000000E+00 -0.42230063003E+03  0.42230063003E+03  0.00000000000E+00 0. -1.
          5    1    1    2  502    0  0.20236035614E+02 -0.53737786465E+02 -0.20989677303E+02  0.61318051052E+02  0.47000000000E+01 0.  1.
         -5    1    1    2    0  502 -0.26492875693E+02  0.16759182484E+01 -0.17448850035E+03  0.17655879451E+03  0.47000000000E+01 0.  1.
        -11    1    1    2    0    0 -0.23182871829E+02  0.64543980358E+02 -0.12085929989E+03  0.13896165413E+03  0.00000000000E+00 0. -1.
         11    1    1    2    0    0  0.29439711908E+02 -0.12482112142E+02 -0.72336389631E+02  0.79088893188E+02  0.00000000000E+00 0.  1.
<mgrwt>
<rscale>  0 0.12596871E+03</rscale>
<asrwt>0</asrwt>
<pdfrwt beam="2">  1        1 0.64969326E-01 0.13554953E+03</pdfrwt>
<pdfrwt beam="1">  1       -1 0.51733483E-02 0.13554953E+03</pdfrwt>
<totfact> 0.89826603E+03</totfact>
</mgrwt>
</event>
<event>
 6    1  0.5818426E-006  0.3291634E+03  0.7546771E-02  0.1100546E+00
          2   -1    0    0  501    0  0.00000000000E+00  0.00000000000E+00  0.54207136092E+03  0.54207136092E+03  0.00000000000E+00 0. -1.
         -2   -1    0    0    0  501 -0.00000000000E+00 -0.00000000000E+00 -0.13293302084E+03  0.13293302084E+03  0.00000000000E+00 0.  1.
          5    1    1    2  502    0  0.51994140742E+02 -0.13339428152E+02  0.22872784211E+03  0.23498903542E+03  0.47000000000E+01 0. -1.
         -5    1    1    2    0  502  0.25240256648E+02 -0.43544225480E+02 -0.10510034027E+03  0.11662479005E+03  0.47000000000E+01 0.  1.
        -11    1    1    2    0    0  0.18952095874E+02  0.17099104613E+02  0.15184861228E+03  0.15397909718E+03  0.00000000000E+00 0.  1.
         11    1    1    2    0    0 -0.96186493265E+02  0.39784549019E+02  0.13366222596E+03  0.16941145911E+03  0.00000000000E+00 0. -1.
<mgrwt>
<rscale>  0 0.27128628E+03</rscale>
<asrwt>0</asrwt>
<pdfrwt beam="1">  1        2 0.83395593E-01 0.32916337E+03</pdfrwt>
<pdfrwt beam="2">  1       -2 0.20451234E-01 0.32916337E+03</pdfrwt>
<totfact> 0.11505265E+03</totfact>
</mgrwt>
</event>
<event>
 6    1  0.5818426E-006  0.2796566E+03  0.7546771E-02  0.1095877E+00
         -2   -1    0    0    0  501 -0.00000000000E+00  0.00000000000E+00  0.10104903665E+03  0.10104903665E+03  0.00000000000E+00 0.  1.
          2   -1    0    0  501    0  0.00000000000E+00 -0.00000000000E+00 -0.19348972653E+03  0.19348972653E+03  0.00000000000E+00 0. -1.
          5    1    1    2  502    0 -0.59040663297E+02  0.10213750889E+03 -0.62446529530E+02  0.13356470228E+03  0.47000000000E+01 0.  1.
         -5    1    1    2    0  502  0.23484786693E+02 -0.21154706946E+02 -0.40288616719E+00  0.31957927799E+02  0.47000000000E+01 0.  1.
        -11    1    1    2    0    0  0.27696827481E+02 -0.43621767896E+02 -0.60738221011E+02  0.79743992742E+02  0.00000000000E+00 0. -1.
         11    1    1    2    0    0  0.78590491242E+01 -0.37361034047E+02  0.31146946828E+02  0.49272140353E+02  0.00000000000E+00 0.  1.
<mgrwt>
<rscale>  0 0.27965658E+03</rscale>
<asrwt>0</asrwt>
<pdfrwt beam="2">  1        2 0.29767650E-01 0.27965658E+03</pdfrwt>
<pdfrwt beam="1">  1       -2 0.15546006E-01 0.27965658E+03</pdfrwt>
<totfact> 0.56679218E+03</totfact>
</mgrwt>
</event>
<event>
 6    1  0.5818426E-006  0.1556294E+03  0.7546771E-02  0.1202604E+00
         -1   -1    0    0    0  501 -0.00000000000E+00  0.00000000000E+00  0.20054838560E+02  0.20054838560E+02  0.00000000000E+00 0.  1.
          1   -1    0    0  501    0  0.00000000000E+00 -0.00000000000E+00 -0.10999333074E+04  0.10999333074E+04  0.00000000000E+00 0. -1.
          5    1    1    2  502    0  0.61384033767E+02 -0.10195116442E+03 -0.31926128610E+03  0.34075196013E+03  0.47000000000E+01 0.  1.
         -5    1    1    2    0  502  0.37516844137E+01  0.35985859265E+02 -0.10405376432E+03  0.11026483153E+03  0.47000000000E+01 0.  1.
        -11    1    1    2    0    0  0.16671606994E+02  0.38460684719E+02 -0.22030143835E+03  0.22425407574E+03  0.00000000000E+00 0. -1.
         11    1    1    2    0    0 -0.81807325175E+02  0.27504620432E+02 -0.43626198008E+03  0.44471727857E+03  0.00000000000E+00 0.  1.
<mgrwt>
<rscale>  0 0.14827915E+03</rscale>
<asrwt>0</asrwt>
<pdfrwt beam="2">  1        1 0.16922059E+00 0.15562941E+03</pdfrwt>
<pdfrwt beam="1">  1       -1 0.30853583E-02 0.15562941E+03</pdfrwt>
<totfact> 0.48014727E+03</totfact>
</mgrwt>
</event>
<event>
 6    1  0.5818426E-006  0.1700474E+03  0.7546771E-02  0.1184545E+00
          3   -1    0    0  501    0  0.00000000000E+00  0.00000000000E+00  0.60316133260E+03  0.60316133260E+03  0.00000000000E+00 0. -1.
         -3   -1    0    0    0  501 -0.00000000000E+00 -0.00000000000E+00 -0.49808756940E+02  0.49808756940E+02  0.00000000000E+00 0.  1.
          5    1    1    2  502    0  0.80115198898E+02  0.18105042785E+02  0.16956992814E+03  0.18847357427E+03  0.47000000000E+01 0. -1.
         -5    1    1    2    0  502  0.34813123461E+02 -0.27350796828E+02 -0.89804782715E+01  0.45417602779E+02  0.47000000000E+01 0. -1.
        -11    1    1    2    0    0 -0.80351054447E+02 -0.97270935105E+01  0.35626048846E+03  0.36533880705E+03  0.00000000000E+00 0. -1.
         11    1    1    2    0    0 -0.34577267912E+02  0.18972847554E+02  0.36502637329E+02  0.53740105438E+02  0.00000000000E+00 0.  1.
<mgrwt>
<rscale>  0 0.16373384E+03</rscale>
<asrwt>0</asrwt>
<pdfrwt beam="1">  1        3 0.92794046E-01 0.17004738E+03</pdfrwt>
<pdfrwt beam="2">  1       -3 0.76628861E-02 0.17004738E+03</pdfrwt>
<totfact> 0.29481214E+02</totfact>
</mgrwt>
</event>
<event>
 6    1  0.5818426E-006  0.1528096E+03  0.7546771E-02  0.1224461E+00
         -1   -1    0    0    0  501 -0.00000000000E+00  0.00000000000E+00  0.30014985213E+02  0.30014985213E+02  0.00000000000E+00 0.  1.
          1   -1    0    0  501    0  0.00000000000E+00 -0.00000000000E+00 -0.51343465703E+03  0.51343465703E+03  0.00000000000E+00 0. -1.
          5    1    1    2  502    0  0.31436821127E+02 -0.28955156862E+02 -0.23976336701E+03  0.24358825299E+03  0.47000000000E+01 0. -1.
         -5    1    1    2    0  502 -0.29007083678E+02  0.11219162545E+02  0.94188450181E+01  0.32834207059E+02  0.47000000000E+01 0.  1.
        -11    1    1    2    0    0 -0.38908409125E+02 -0.84461610730E+01 -0.13297756017E+03  0.13881006248E+03  0.00000000000E+00 0.  1.
         11    1    1    2    0    0  0.36478671677E+02  0.26182155390E+02 -0.12009758965E+03  0.12821711972E+03  0.00000000000E+00 0. -1.
<mgrwt>
<rscale>  0 0.13203948E+03</rscale>
<asrwt>0</asrwt>
<pdfrwt beam="2">  1        1 0.78989942E-01 0.15280961E+03</pdfrwt>
<pdfrwt beam="1">  1       -1 0.46176903E-02 0.15280961E+03</pdfrwt>
<totfact> 0.83236353E+03</totfact>
</mgrwt>
</event>
<event>
 6    1  0.5818426E-006  0.1425694E+03  0.7546771E-02  0.1219371E+00
         -1   -1    0    0    0  501 -0.00000000000E+00  0.00000000000E+00  0.31854859564E+03  0.31854859564E+03  0.00000000000E+00 0.  1.
          1   -1    0    0  501    0  0.00000000000E+00 -0.00000000000E+00 -0.55596409834E+02  0.55596409834E+02  0.00000000000E+00 0. -1.
          5    1    1    2  502    0 -0.97529268245E+01 -0.47777771856E+01 -0.16124085960E+02  0.20000572105E+02  0.47000000000E+01 0. -1.
         -5    1    1    2    0  502 -0.98337926400E+01  0.70495420462E+02  0.20220325885E+03  0.21441678030E+03  0.47000000000E+01 0. -1.
        -11    1    1    2    0    0  0.36471594671E+02 -0.78159904909E+02  0.35360679466E+02  0.93217624973E+02  0.00000000000E+00 0. -1.
         11    1    1    2    0    0 -0.16884875207E+02  0.12442261633E+02  0.41512333453E+02  0.46510028101E+02  0.00000000000E+00 0.  1.
<mgrwt>
<rscale>  0 0.13560303E+03</rscale>
<asrwt>0</asrwt>
<pdfrwt beam="2">  1        1 0.85532940E-02 0.14256941E+03</pdfrwt>
<pdfrwt beam="1">  1       -1 0.49007475E-01 0.14256941E+03</pdfrwt>
<totfact> 0.32656142E+03</totfact>
</mgrwt>
</event>
<event>
 6    1  0.5818426E-006  0.1312602E+03  0.7546771E-02  0.1236856E+00
          1   -1    0    0  501    0  0.00000000000E+00  0.00000000000E+00  0.19393541310E+03  0.19393541310E+03  0.00000000000E+00 0. -1.
         -1   -1    0    0    0  501 -0.00000000000E+00 -0.00000000000E+00 -0.89770493536E+02  0.89770493536E+02  0.00000000000E+00 0.  1.
          5    1    1    2  502    0  0.69125607548E+01 -0.54015489862E+02  0.42644758996E+02  0.69326200754E+02  0.47000000000E+01 0. -1.
         -5    1    1    2    0  502 -0.30245080418E+02  0.21461049046E+02 -0.49611634807E+02  0.62118804109E+02  0.47000000000E+01 0. -1.
        -11    1    1    2    0    0  0.28211080771E+02 -0.89707352436E+01  0.10609531541E+03  0.11014787843E+03  0.00000000000E+00 0. -1.
         11    1    1    2    0    0 -0.48785611079E+01  0.41525176059E+02  0.50364799642E+01  0.42113023350E+02  0.00000000000E+00 0.  1.
<mgrwt>
<rscale>  0 0.12386370E+03</rscale>
<asrwt>0</asrwt>
<pdfrwt beam="1">  1        1 0.29836217E-01 0.13126025E+03</pdfrwt>
<pdfrwt beam="2">  1       -1 0.13810845E-01 0.13126025E+03</pdfrwt>
<totfact> 0.53303817E+03</totfact>
</mgrwt>
</event>
<event>
 6    1  0.5818426E-006  0.1529967E+03  0.7546771E-02  0.1205880E+00
         -1   -1    0    0    0  501 -0.00000000000E+00  0.00000000000E+00  0.15572069538E+03  0.15572069538E+03  0.00000000000E+00 0.  1.
          1   -1    0    0  501    0  0.00000000000E+00 -0.00000000000E+00 -0.15871991787E+03  0.15871991787E+03  0.00000000000E+00 0. -1.
          5    1    1    2  502    0  0.37470975868E+02  0.86445806412E+02  0.90276495941E+02  0.13057138736E+03  0.47000000000E+01 0. -1.
         -5    1    1    2    0  502 -0.32298656988E+02  0.16201906169E+01 -0.19444300152E+02  0.38026294446E+02  0.47000000000E+01 0. -1.
        -11    1    1    2    0    0 -0.25460665775E+02 -0.73441607606E+02 -0.87745778688E+02  0.11722302209E+03  0.00000000000E+00 0. -1.
         11    1    1    2    0    0  0.20288346895E+02 -0.14624389423E+02  0.13914360416E+02  0.28619909356E+02  0.00000000000E+00 0.  1.
<mgrwt>
<rscale>  0 0.14568308E+03</rscale>
<asrwt>0</asrwt>
<pdfrwt beam="2">  1        1 0.24418449E-01 0.15299666E+03</pdfrwt>
<pdfrwt beam="1">  1       -1 0.23957030E-01 0.15299666E+03</pdfrwt>
<totfact> 0.28687982E+03</totfact>
</mgrwt>
</event>
<event>
 6    1  0.5818426E-006  0.2350711E+03  0.7546771E-02  0.1125494E+00
          2   -1    0    0  501    0  0.00000000000E+00  0.00000000000E+00  0.19910153585E+03  0.19910153585E+03  0.00000000000E+00 0. -1.
         -2   -1    0    0    0  501 -0.00000000000E+00 -0.00000000000E+00 -0.26331095264E+03  0.26331095264E+03  0.00000000000E+00 0.  1.
          5    1    1    2  502    0  0.88540958353E+02 -0.17528174078E+03 -0.47733256930E+02  0.20214782654E+03  0.47000000000E+01 0.  1.
         -5    1    1    2    0  502 -0.73634575351E+01 -0.64952515429E+01  0.31653116260E+02  0.33472654039E+02  0.47000000000E+01 0.  1.
        -11    1    1    2    0    0 -0.25009771133E+02  0.99395400368E+02 -0.70762397176E+02  0.12454818795E+03  0.00000000000E+00 0.  1.
         11    1    1    2    0    0 -0.56167729685E+02  0.82381591958E+02  0.22633121058E+02  0.10224381996E+03  0.00000000000E+00 0. -1.
<mgrwt>
<rscale>  0 0.23163532E+03</rscale>
<asrwt>0</asrwt>
<pdfrwt beam="1">  1        2 0.30631006E-01 0.23507114E+03</pdfrwt>
<pdfrwt beam="2">  1       -2 0.40509377E-01 0.23507114E+03</pdfrwt>
<totfact> 0.99480186E+02</totfact>
</mgrwt>
</event>
<event>
 6    1  0.5818426E-006  0.1261035E+03  0.7546771E-02  0.1249041E+00
         -2   -1    0    0    0  501 -0.00000000000E+00  0.00000000000E+00  0.68071787372E+02  0.68071787372E+02  0.00000000000E+00 0. -1.
          2   -1    0    0  501    0  0.00000000000E+00 -0.00000000000E+00 -0.17599623267E+03  0.17599623267E+03  0.00000000000E+00 0.  1.
          5    1    1    2  502    0 -0.14042081517E+02  0.37389700755E+02  0.22657498989E+02  0.46158661552E+02  0.47000000000E+01 0.  1.
         -5    1    1    2    0  502  0.50871517452E+01 -0.51327488363E+02 -0.73259542738E+02  0.89718675741E+02  0.47000000000E+01 0.  1.
        -11    1    1    2    0    0 -0.26108660245E+00  0.23060704879E+02 -0.79347794275E+02  0.82631330208E+02  0.00000000000E+00 0.  1.
         11    1    1    2    0    0  0.92160163745E+01 -0.91229172707E+01  0.22025392728E+02  0.25559352538E+02  0.00000000000E+00 0. -1.
<mgrwt>
<rscale>  0 0.11646762E+03</rscale>
<asrwt>0</asrwt>
<pdfrwt beam="2">  1        2 0.27076343E-01 0.12610347E+03</pdfrwt>
<pdfrwt beam="1">  1       -2 0.10472583E-01 0.12610347E+03</pdfrwt>
<totfact> 0.11317990E+04</totfact>
</mgrwt>
</event>
<event>
 6    1  0.5818426E-006  0.3782013E+03  0.7546771E-02  0.1051601E+00
         -3   -1    0    0    0  501 -0.00000000000E+00  0.00000000000E+00  0.50081506229E+03  0.50081506229E+03  0.00000000000E+00 0.  1.
          3   -1    0    0  501    0  0.00000000000E+00 -0.00000000000E+00 -0.71401704260E+02  0.71401704260E+02  0.00000000000E+00 0. -1.
          5    1    1    2  502    0  0.11959863028E+02  0.23892656148E+02  0.25958800874E+02  0.37547925166E+02  0.47000000000E+01 0.  1.
         -5    1    1    2    0  502 -0.94171393028E+02 -0.64647024831E+02  0.38831828418E+03  0.40479707128E+03  0.47000000000E+01 0.  1.
        -11    1    1    2    0    0  0.32036710253E+02  0.16673867038E+02  0.51857507034E+02  0.63194696625E+02  0.00000000000E+00 0.  1.
         11    1    1    2    0    0  0.50174819747E+02  0.24080501645E+02 -0.36721234065E+02  0.66677073476E+02  0.00000000000E+00 0. -1.
<mgrwt>
<rscale>  0 0.37820126E+03</rscale>
<asrwt>0</asrwt>
<pdfrwt beam="2">  1        3 0.10984878E-01 0.37820126E+03</pdfrwt>
<pdfrwt beam="1">  1       -3 0.77048469E-01 0.37820126E+03</pdfrwt>
<totfact> 0.26473011E+02</totfact>
</mgrwt>
</event>
<event>
 6    1  0.5818426E-006  0.1366495E+03  0.7546771E-02  0.1229595E+00
         -1   -1    0    0    0  501 -0.00000000000E+00  0.00000000000E+00  0.90711457341E+02  0.90711457341E+02  0.00000000000E+00 0.  1.
          1   -1    0    0  501    0  0.00000000000E+00 -0.00000000000E+00 -0.16507162902E+03  0.16507162902E+03  0.00000000000E+00 0. -1.
          5    1    1    2  502    0  0.23164839118E+02 -0.44764202887E+02  0.24910090762E+02  0.56418492122E+02  0.47000000000E+01 0.  1.
         -5    1    1    2    0  502  0.31211252987E+02  0.54281678135E+02 -0.55071422310E+02  0.83520024242E+02  0.47000000000E+01 0.  1.
        -11    1    1    2    0    0  0.69289648467E+01  0.18672534681E+02 -0.44077784565E+02  0.48368638573E+02  0.00000000000E+00 0.  1.
         11    1    1    2    0    0 -0.61305056952E+02 -0.28190009929E+02 -0.12105557134E+00  0.67475931428E+02  0.00000000000E+00 0. -1.
<mgrwt>
<rscale>  0 0.12856848E+03</rscale>
<asrwt>0</asrwt>
<pdfrwt beam="2">  1        1 0.25395635E-01 0.13664949E+03</pdfrwt>
<pdfrwt beam="1">  1       -1 0.13955609E-01 0.13664949E+03</pdfrwt>
<totfact> 0.64297211E+03</totfact>
</mgrwt>
</event>
<event>
 6    1  0.5818426E-006  0.1746486E+03  0.7546771E-02  0.1178977E+00
         -2   -1    0    0    0  501 -0.00000000000E+00  0.00000000000E+00  0.58701337134E+03  0.58701337134E+03  0.00000000000E+00 0.  1.
          2   -1    0    0  501    0  0.00000000000E+00 -0.00000000000E+00 -0.48562809632E+02  0.48562809632E+02  0.00000000000E+00 0. -1.
          5    1    1    2  502    0  0.58736855713E+02 -0.29196727028E+02  0.59186243526E+02  0.88473546956E+02  0.47000000000E+01 0. -1.
         -5    1    1    2    0  502  0.60982928953E+02  0.52529762010E+02  0.30420562718E+03  0.31470851137E+03  0.47000000000E+01 0. -1.
        -11    1    1    2    0    0 -0.61404135893E+02  0.19495264782E+02  0.31676755310E+02  0.71791016713E+02  0.00000000000E+00 0. -1.
         11    1    1    2    0    0 -0.58315648773E+02 -0.42828299764E+02  0.14338193569E+03  0.16060310593E+03  0.00000000000E+00 0.  1.
<mgrwt>
<rscale>  0 0.16892204E+03</rscale>
<asrwt>0</asrwt>
<pdfrwt beam="2">  1        2 0.74712019E-02 0.17464856E+03</pdfrwt>
<pdfrwt beam="1">  1       -2 0.90309744E-01 0.17464856E+03</pdfrwt>
<totfact> 0.99097593E+02</totfact>
</mgrwt>
</event>
<event>
 6    1  0.5818426E-006  0.3811338E+03  0.7546771E-02  0.1050515E+00
          1   -1    0    0  501    0  0.00000000000E+00  0.00000000000E+00  0.85568890024E+03  0.85568890024E+03  0.00000000000E+00 0. -1.
         -1   -1    0    0    0  501 -0.00000000000E+00 -0.00000000000E+00 -0.42440363148E+02  0.42440363148E+02  0.00000000000E+00 0.  1.
          5    1    1    2  502    0 -0.17383922675E+02  0.17672434020E+02  0.11936655722E+02  0.27912173717E+02  0.47000000000E+01 0. -1.
         -5    1    1    2    0  502 -0.12390348409E+03 -0.67448690178E+02  0.51400729244E+03  0.53303563282E+03  0.47000000000E+01 0. -1.
        -11    1    1    2    0    0  0.98085642028E+02  0.14131706868E+02  0.96479907276E+02  0.13830716113E+03  0.00000000000E+00 0.  1.
         11    1    1    2    0    0  0.43201764737E+02  0.35644549290E+02  0.19082468165E+03  0.19887429572E+03  0.00000000000E+00 0. -1.
<mgrwt>
<rscale>  0 0.38113382E+03</rscale>
<asrwt>0</asrwt>
<pdfrwt beam="1">  1        1 0.13164443E+00 0.38113382E+03</pdfrwt>
<pdfrwt beam="2">  1       -1 0.65292873E-02 0.38113382E+03</pdfrwt>
<totfact> 0.24416388E+03</totfact>
</mgrwt>
</event>
<event>
 6    1  0.5818426E-006  0.1587582E+03  0.7546771E-02  0.1198460E+00
         -1   -1    0    0    0  501 -0.00000000000E+00  0.00000000000E+00  0.11871029321E+03  0.11871029321E+03  0.00000000000E+00 0.  1.
          1   -1    0    0  501    0  0.00000000000E+00 -0.00000000000E+00 -0.17828556635E+03  0.17828556635E+03  0.00000000000E+00 0. -1.
          5    1    1    2  502    0  0.40953952166E+02  0.26754752717E+02  0.27045440712E+02  0.56094463668E+02  0.47000000000E+01 0.  1.
         -5    1    1    2    0  502 -0.50190405823E+02  0.70680085976E+02 -0.61413301564E+02  0.10634112563E+03  0.47000000000E+01 0.  1.
        -11    1    1    2    0    0  0.97317232503E+01 -0.26396596855E+02  0.32536036637E+02  0.43012561456E+02  0.00000000000E+00 0.  1.
         11    1    1    2    0    0 -0.49526959312E+00 -0.71038241837E+02 -0.57743448920E+02  0.91547708811E+02  0.00000000000E+00 0. -1.
<mgrwt>
<rscale>  0 0.15164987E+03</rscale>
<asrwt>0</asrwt>
<pdfrwt beam="2">  1        1 0.27428549E-01 0.15875821E+03</pdfrwt>
<pdfrwt beam="1">  1       -1 0.18263122E-01 0.15875821E+03</pdfrwt>
<totfact> 0.38523841E+03</totfact>
</mgrwt>
</event>
<event>
 6    1  0.5818426E-006  0.1588592E+03  0.7546771E-02  0.1203362E+00
         -4   -1    0    0    0  501 -0.00000000000E+00  0.00000000000E+00  0.55006048024E+03  0.55006048024E+03  0.00000000000E+00 0.  1.
          4   -1    0    0  501    0  0.00000000000E+00 -0.00000000000E+00 -0.12018047072E+03  0.12018047072E+03  0.00000000000E+00 0. -1.
          5    1    1    2  502    0  0.38027573922E+02  0.14608000990E+02  0.65599164447E+02  0.77361685914E+02  0.47000000000E+01 0. -1.
         -5    1    1    2    0  502 -0.10597679447E+03 -0.22163945528E+01  0.43969377402E+03  0.45231482209E+03  0.47000000000E+01 0.  1.
        -11    1    1    2    0    0  0.11939915063E+02 -0.49831131970E+02 -0.33500846947E+02  0.61220993387E+02  0.00000000000E+00 0.  1.
         11    1    1    2    0    0  0.56009305484E+02  0.37439525534E+02 -0.41912081998E+02  0.79343449574E+02  0.00000000000E+00 0. -1.
<mgrwt>
<rscale>  0 0.14767293E+03</rscale>
<asrwt>0</asrwt>
<pdfrwt beam="2">  1        4 0.18489304E-01 0.15885921E+03</pdfrwt>
<pdfrwt beam="1">  1       -4 0.84624688E-01 0.15885921E+03</pdfrwt>
<totfact> 0.56153753E+01</totfact>
</mgrwt>
</event>
<event>
 6    1  0.5818426E-006  0.3395932E+03  0.7546771E-02  0.1066969E+00
         -1   -1    0    0    0  501 -0.00000000000E+00  0.00000000000E+00  0.11528755191E+03  0.11528755191E+03  0.00000000000E+00 0.  1.
          1   -1    0    0  501    0  0.00000000000E+00 -0.00000000000E+00 -0.25007797525E+03  0.25007797525E+03  0.00000000000E+00 0. -1.
          5    1    1    2  502    0  0.20623375879E+02 -0.15777816534E+01 -0.37042914368E+02  0.42685835268E+02  0.47000000000E+01 0.  1.
         -5    1    1    2    0  502 -0.14131124740E+03 -0.46236558761E+02 -0.45640073775E+02  0.15560139569E+03  0.47000000000E+01 0.  1.
        -11    1    1    2    0    0  0.71051711207E+02  0.69842674122E+02 -0.52824989011E+02  0.11276889756E+03  0.00000000000E+00 0. -1.
         11    1    1    2    0    0  0.49636160310E+02 -0.22028333708E+02  0.71755381995E+00  0.54309398632E+02  0.00000000000E+00 0.  1.
<mgrwt>
<rscale>  0 0.33959315E+03</rscale>
<asrwt>0</asrwt>
<pdfrwt beam="2">  1        1 0.38473535E-01 0.33959315E+03</pdfrwt>
<pdfrwt beam="1">  1       -1 0.17736546E-01 0.33959315E+03</pdfrwt>
<totfact> 0.27144717E+03</totfact>
</mgrwt>
</event>
<event>
 6    1  0.5818426E-006  0.1814821E+03  0.7546771E-02  0.1169283E+00
          2   -1    0    0  501    0  0.00000000000E+00  0.00000000000E+00  0.12960222983E+03  0.12960222983E+03  0.00000000000E+00 0. -1.
         -2   -1    0    0    0  501 -0.00000000000E+00 -0.00000000000E+00 -0.37895675622E+03  0.37895675622E+03  0.00000000000E+00 0.  1.
          5    1    1    2  502    0 -0.41719298799E+02  0.14613928719E+02 -0.47394652341E+02  0.64980072910E+02  0.47000000000E+01 0. -1.
         -5    1    1    2    0  502 -0.51835476301E+02 -0.12388162603E+03 -0.23492774505E+03  0.27064129261E+03  0.47000000000E+01 0.  1.
        -11    1    1    2    0    0  0.25766030634E+02 -0.13240278358E+02 -0.52986812524E+00  0.28973678846E+02  0.00000000000E+00 0.  1.
         11    1    1    2    0    0  0.67788744466E+02  0.12250797567E+03  0.33497739125E+02  0.14396394169E+03  0.00000000000E+00 0. -1.
<mgrwt>
<rscale>  0 0.17847943E+03</rscale>
<asrwt>0</asrwt>
<pdfrwt beam="1">  1        2 0.19938805E-01 0.18148213E+03</pdfrwt>
<pdfrwt beam="2">  1       -2 0.58301038E-01 0.18148213E+03</pdfrwt>
<totfact> 0.77723878E+02</totfact>
</mgrwt>
</event>
<event>
 6    1  0.5818426E-006  0.1419214E+03  0.7546771E-02  0.1222084E+00
         -1   -1    0    0    0  501 -0.00000000000E+00  0.00000000000E+00  0.33258872050E+02  0.33258872050E+02  0.00000000000E+00 0.  1.
          1   -1    0    0  501    0  0.00000000000E+00 -0.00000000000E+00 -0.53402457782E+03  0.53402457782E+03  0.00000000000E+00 0. -1.
          5    1    1    2  502    0 -0.46267039520E+02  0.33243334260E+02 -0.62648769719E+02  0.84809884836E+02  0.47000000000E+01 0.  1.
         -5    1    1    2    0  502  0.15728723279E+01 -0.83407184459E+02 -0.12817844301E+03  0.15300665214E+03  0.47000000000E+01 0.  1.
        -11    1    1    2    0    0  0.42074484965E+02  0.74100613822E+02 -0.26661454033E+03  0.27990083310E+03  0.00000000000E+00 0.  1.
         11    1    1    2    0    0  0.26196822263E+01 -0.23936763623E+02 -0.43323952705E+02  0.49566079789E+02  0.00000000000E+00 0. -1.
<mgrwt>
<rscale>  0 0.13368766E+03</rscale>
<asrwt>0</asrwt>
<pdfrwt beam="2">  1        1 0.82157624E-01 0.14192139E+03</pdfrwt>
<pdfrwt beam="1">  1       -1 0.51167497E-02 0.14192139E+03</pdfrwt>
<totfact> 0.67582058E+03</totfact>
</mgrwt>
</event>
<event>
 6    1  0.5818426E-006  0.1717889E+03  0.7546771E-02  0.1184197E+00
          2   -1    0    0  501    0  0.00000000000E+00  0.00000000000E+00  0.48456949269E+03  0.48456949269E+03  0.00000000000E+00 0. -1.
         -2   -1    0    0    0  501 -0.00000000000E+00 -0.00000000000E+00 -0.57511314984E+02  0.57511314984E+02  0.00000000000E+00 0.  1.
          5    1    1    2  502    0  0.57562293780E+01  0.35715237625E+02  0.65452207530E+02  0.74931928081E+02  0.47000000000E+01 0. -1.
         -5    1    1    2    0  502 -0.11566614454E+03 -0.50801712832E+02  0.75218027680E+02  0.14710306831E+03  0.47000000000E+01 0.  1.
        -11    1    1    2    0    0  0.91804701625E+02  0.46527665837E+02  0.24012691430E+03  0.26125440073E+03  0.00000000000E+00 0. -1.
         11    1    1    2    0    0  0.18105213533E+02 -0.31441190630E+02  0.46261028201E+02  0.58791410560E+02  0.00000000000E+00 0.  1.
<mgrwt>
<rscale>  0 0.16405145E+03</rscale>
<asrwt>0</asrwt>
<pdfrwt beam="1">  1        2 0.74549150E-01 0.17178890E+03</pdfrwt>
<pdfrwt beam="2">  1       -2 0.88478949E-02 0.17178890E+03</pdfrwt>
<totfact> 0.50721125E+03</totfact>
</mgrwt>
</event>
<event>
 6    1  0.5818426E-006  0.3280814E+03  0.7546771E-02  0.1071989E+00
          3   -1    0    0  501    0  0.00000000000E+00  0.00000000000E+00  0.14513694802E+03  0.14513694802E+03  0.00000000000E+00 0. -1.
         -3   -1    0    0    0  501 -0.00000000000E+00 -0.00000000000E+00 -0.18540666380E+03  0.18540666380E+03  0.00000000000E+00 0.  1.
          5    1    1    2  502    0 -0.83251396742E+02 -0.81280413964E+02 -0.10638646556E+03  0.15772593575E+03  0.47000000000E+01 0.  1.
         -5    1    1    2    0  502  0.24018115906E+02  0.75058135554E+01  0.86225718405E+01  0.27011957981E+02  0.47000000000E+01 0.  1.
        -11    1    1    2    0    0  0.43247325890E+02  0.36575924567E+02 -0.18595239561E+02  0.59614699436E+02  0.00000000000E+00 0.  1.
         11    1    1    2    0    0  0.15985954946E+02  0.37198675842E+02  0.76089417503E+02  0.86191018650E+02  0.00000000000E+00 0. -1.
<mgrwt>
<rscale>  0 0.32808144E+03</rscale>
<asrwt>0</asrwt>
<pdfrwt beam="1">  1        3 0.22328761E-01 0.32808144E+03</pdfrwt>
<pdfrwt beam="2">  1       -3 0.28524102E-01 0.32808144E+03</pdfrwt>
<totfact> 0.56094636E+02</totfact>
</mgrwt>
</event>
<event>
 6    1  0.5818426E-006  0.1330709E+03  0.7546771E-02  0.1236275E+00
         -2   -1    0    0    0  501 -0.00000000000E+00  0.00000000000E+00  0.23086469972E+02  0.23086469972E+02  0.00000000000E+00 0.  1.
          2   -1    0    0  501    0  0.00000000000E+00 -0.00000000000E+00 -0.59966004468E+03  0.59966004468E+03  0.00000000000E+00 0. -1.
          5    1    1    2  502    0 -0.24888029677E+02  0.34043460209E+01 -0.32998729487E+00  0.25557826289E+02  0.47000000000E+01 0.  1.
         -5    1    1    2    0  502  0.14969387626E+02  0.41151916851E+02 -0.29627415969E+03  0.29952968222E+03  0.47000000000E+01 0.  1.
        -11    1    1    2    0    0  0.34104306019E+02  0.13390997106E+02 -0.13025263648E+03  0.13530769306E+03  0.00000000000E+00 0. -1.
         11    1    1    2    0    0 -0.24185663968E+02 -0.57947259977E+02 -0.14971679124E+03  0.16235131308E+03  0.00000000000E+00 0.  1.
<mgrwt>
<rscale>  0 0.12423190E+03</rscale>
<asrwt>0</asrwt>
<pdfrwt beam="2">  1        2 0.92255377E-01 0.13307091E+03</pdfrwt>
<pdfrwt beam="1">  1       -2 0.35517652E-02 0.13307091E+03</pdfrwt>
<totfact> 0.15706381E+04</totfact>
</mgrwt>
</event>
<event>
 6    1  0.5818426E-006  0.1712535E+03  0.7546771E-02  0.1187672E+00
          1   -1    0    0  501    0  0.00000000000E+00  0.00000000000E+00  0.32995841874E+03  0.32995841874E+03  0.00000000000E+00 0. -1.
         -1   -1    0    0    0  501 -0.00000000000E+00 -0.00000000000E+00 -0.10094697161E+03  0.10094697161E+03  0.00000000000E+00 0.  1.
          5    1    1    2  502    0 -0.62370807798E+01 -0.12452577610E+02  0.57927929185E+02  0.59763725164E+02  0.47000000000E+01 0. -1.
         -5    1    1    2    0  502  0.72380062530E+02  0.67415423138E+02 -0.51489427503E+02  0.11161076952E+03  0.47000000000E+01 0.  1.
        -11    1    1    2    0    0 -0.47049352262E+01  0.20068001719E+02  0.10557260513E+03  0.10756596145E+03  0.00000000000E+00 0.  1.
         11    1    1    2    0    0 -0.61438046524E+02 -0.75030847246E+02  0.11700034031E+03  0.15196493422E+03  0.00000000000E+00 0. -1.
<mgrwt>
<rscale>  0 0.16091097E+03</rscale>
<asrwt>0</asrwt>
<pdfrwt beam="1">  1        1 0.50762833E-01 0.17125351E+03</pdfrwt>
<pdfrwt beam="2">  1       -1 0.15530304E-01 0.17125351E+03</pdfrwt>
<totfact> 0.23204856E+03</totfact>
</mgrwt>
</event>
<event>
 6    1  0.5818426E-006  0.1285201E+03  0.7546771E-02  0.1243222E+00
         -1   -1    0    0    0  501 -0.00000000000E+00  0.00000000000E+00  0.84646419134E+02  0.84646419134E+02  0.00000000000E+00 0.  1.
          1   -1    0    0  501    0  0.00000000000E+00 -0.00000000000E+00 -0.15176629300E+03  0.15176629300E+03  0.00000000000E+00 0. -1.
          5    1    1    2  502    0 -0.14292519839E+02 -0.52626027520E+02 -0.33957036058E+02  0.64412306228E+02  0.47000000000E+01 0.  1.
         -5    1    1    2    0  502 -0.97289381765E+01  0.70513636862E+02 -0.13581024181E+02  0.72617900268E+02  0.47000000000E+01 0.  1.
        -11    1    1    2    0    0  0.78322223329E+01 -0.10113025451E+02  0.37458214535E+02  0.39582001296E+02  0.00000000000E+00 0.  1.
         11    1    1    2    0    0  0.16189235682E+02 -0.77745838913E+01 -0.57040028164E+02  0.59800504343E+02  0.00000000000E+00 0. -1.
<mgrwt>
<rscale>  0 0.11992401E+03</rscale>
<asrwt>0</asrwt>
<pdfrwt beam="2">  1        1 0.23348660E-01 0.12852008E+03</pdfrwt>
<pdfrwt beam="1">  1       -1 0.13022526E-01 0.12852008E+03</pdfrwt>
<totfact> 0.79220730E+03</totfact>
</mgrwt>
</event>
<event>
 6    1  0.5818426E-006  0.1970565E+03  0.7546771E-02  0.1225633E+00
          2   -1    0    0  501    0  0.00000000000E+00  0.00000000000E+00  0.85828397529E+02  0.85828397529E+02  0.00000000000E+00 0. -1.
         -2   -1    0    0    0  501 -0.00000000000E+00 -0.00000000000E+00 -0.29071364995E+03  0.29071364995E+03  0.00000000000E+00 0.  1.
          5    1    1    2  502    0 -0.64074519016E+02  0.16200954979E+02 -0.15645677141E+02  0.68080042176E+02  0.47000000000E+01 0. -1.
         -5    1    1    2    0  502  0.72723045191E+02 -0.49520799656E+02 -0.23353279201E+03  0.24960089311E+03  0.47000000000E+01 0.  1.
        -11    1    1    2    0    0 -0.12265457894E+02  0.23161540030E+02  0.22483010021E+02  0.34530915619E+02  0.00000000000E+00 0.  1.
         11    1    1    2    0    0  0.36169317193E+01  0.10158304647E+02  0.21810206710E+02  0.24330196569E+02  0.00000000000E+00 0. -1.
<mgrwt>
<rscale>  0 0.13123619E+03</rscale>
<asrwt>0</asrwt>
<pdfrwt beam="1">  1        2 0.13204369E-01 0.19705651E+03</pdfrwt>
<pdfrwt beam="2">  1       -2 0.44725178E-01 0.19705651E+03</pdfrwt>
<totfact> 0.21446315E+03</totfact>
</mgrwt>
</event>
<event>
 6    1  0.5818426E-006  0.1631254E+03  0.7546771E-02  0.1192257E+00
         -1   -1    0    0    0  501 -0.00000000000E+00  0.00000000000E+00  0.37981054208E+02  0.37981054208E+02  0.00000000000E+00 0.  1.
          1   -1    0    0  501    0  0.00000000000E+00 -0.00000000000E+00 -0.60781683289E+03  0.60781683289E+03  0.00000000000E+00 0. -1.
          5    1    1    2  502    0 -0.97716164303E+02 -0.40287087519E+01 -0.29110019647E+03  0.30712553402E+03  0.47000000000E+01 0.  1.
         -5    1    1    2    0  502  0.27341300053E+01  0.48387212969E+02 -0.44249413086E+02  0.65794364533E+02  0.47000000000E+01 0.  1.
        -11    1    1    2    0    0  0.35306620030E+02  0.62418739495E+01 -0.13266242499E+02  0.38229721401E+02  0.00000000000E+00 0.  1.
         11    1    1    2    0    0  0.59675414268E+02 -0.50600378167E+02 -0.22121992663E+03  0.23464826715E+03  0.00000000000E+00 0. -1.
<mgrwt>
<rscale>  0 0.15688664E+03</rscale>
<asrwt>0</asrwt>
<pdfrwt beam="2">  1        1 0.93510281E-01 0.16312538E+03</pdfrwt>
<pdfrwt beam="1">  1       -1 0.58432392E-02 0.16312538E+03</pdfrwt>
<totfact> 0.46910049E+03</totfact>
</mgrwt>
</event>
<event>
 6    1  0.5818426E-006  0.3181903E+03  0.7546771E-02  0.1076485E+00
          1   -1    0    0  501    0  0.00000000000E+00  0.00000000000E+00  0.26946477513E+03  0.26946477513E+03  0.00000000000E+00 0. -1.
         -1   -1    0    0    0  501 -0.00000000000E+00 -0.00000000000E+00 -0.93931641816E+02  0.93931641816E+02  0.00000000000E+00 0.  1.
          5    1    1    2  502    0 -0.25230429290E+02 -0.13336245385E+03  0.58553411205E+02  0.14789425487E+03  0.47000000000E+01 0. -1.
         -5    1    1    2    0  502 -0.36707367596E+01  0.26215921481E+02 -0.55478806711E+01  0.27452100601E+02  0.47000000000E+01 0. -1.
        -11    1    1    2    0    0 -0.32004772142E+02  0.37437430980E+02  0.33112234780E+02  0.59348856521E+02  0.00000000000E+00 0.  1.
         11    1    1    2    0    0  0.60905938192E+02  0.69709101387E+02  0.89415368005E+02  0.12870120496E+03  0.00000000000E+00 0. -1.
<mgrwt>
<rscale>  0 0.31819031E+03</rscale>
<asrwt>0</asrwt>
<pdfrwt beam="1">  1        1 0.41456119E-01 0.31819031E+03</pdfrwt>
<pdfrwt beam="2">  1       -1 0.14451022E-01 0.31819031E+03</pdfrwt>
<totfact> 0.34259524E+03</totfact>
</mgrwt>
</event>
<event>
 6    1  0.5818426E-006  0.1447626E+03  0.7546771E-02  0.1216446E+00
          2   -1    0    0  501    0  0.00000000000E+00  0.00000000000E+00  0.97763732312E+03  0.97763732312E+03  0.00000000000E+00 0.  1.
         -2   -1    0    0    0  501 -0.00000000000E+00 -0.00000000000E+00 -0.18004378238E+02  0.18004378238E+02  0.00000000000E+00 0. -1.
          5    1    1    2  502    0  0.13704972116E+01  0.14455483506E+02  0.37395020738E+03  0.37426152202E+03  0.47000000000E+01 0. -1.
         -5    1    1    2    0  502 -0.66399729446E+01 -0.87277395825E+02  0.21418655970E+03  0.23142905050E+03  0.47000000000E+01 0. -1.
        -11    1    1    2    0    0  0.17429801292E+02  0.87617818417E+02  0.34972654510E+03  0.36095614197E+03  0.00000000000E+00 0.  1.
         11    1    1    2    0    0 -0.12160325559E+02 -0.14795906098E+02  0.21769632698E+02  0.28994986856E+02  0.00000000000E+00 0. -1.
<mgrwt>
<rscale>  0 0.13770871E+03</rscale>
<asrwt>0</asrwt>
<pdfrwt beam="1">  1        2 0.15040570E+00 0.14476261E+03</pdfrwt>
<pdfrwt beam="2">  1       -2 0.27699051E-02 0.14476261E+03</pdfrwt>
<totfact> 0.12470552E+04</totfact>
</mgrwt>
</event>
<event>
 6    1  0.5818426E-006  0.2473922E+03  0.7546771E-02  0.1117577E+00
          1   -1    0    0  501    0  0.00000000000E+00  0.00000000000E+00  0.65251948863E+02  0.65251948863E+02  0.00000000000E+00 0. -1.
         -1   -1    0    0    0  501 -0.00000000000E+00 -0.00000000000E+00 -0.10410409618E+04  0.10410409618E+04  0.00000000000E+00 0.  1.
          5    1    1    2  502    0 -0.18522399582E+03 -0.73604726469E+02 -0.59163840893E+03  0.62432658225E+03  0.47000000000E+01 0. -1.
         -5    1    1    2    0  502  0.89030792416E+01 -0.46764096200E+02 -0.12782080433E+03  0.13647854605E+03  0.47000000000E+01 0. -1.
        -11    1    1    2    0    0  0.89517310388E+02  0.96608053558E+02 -0.19948637479E+03  0.23904242008E+03  0.00000000000E+00 0.  1.
         11    1    1    2    0    0  0.86803606195E+02  0.23760769111E+02 -0.56843424892E+02  0.10644536228E+03  0.00000000000E+00 0. -1.
<mgrwt>
<rscale>  0 0.24335630E+03</rscale>
<asrwt>0</asrwt>
<pdfrwt beam="1">  1        1 0.10038762E-01 0.24739217E+03</pdfrwt>
<pdfrwt beam="2">  1       -1 0.16016013E+00 0.24739217E+03</pdfrwt>
<totfact> 0.20318842E+02</totfact>
</mgrwt>
</event>
<event>
 6    1  0.5818426E-006  0.1267824E+03  0.7546771E-02  0.1248377E+00
          2   -1    0    0  501    0  0.00000000000E+00  0.00000000000E+00  0.18477555502E+03  0.18477555502E+03  0.00000000000E+00 0. -1.
         -2   -1    0    0    0  501 -0.00000000000E+00 -0.00000000000E+00 -0.78771448889E+02  0.78771448889E+02  0.00000000000E+00 0.  1.
          5    1    1    2  502    0  0.51237112605E+02 -0.11997250813E+02 -0.56174285450E+01  0.53130229047E+02  0.47000000000E+01 0. -1.
         -5    1    1    2    0  502 -0.72274007220E+02  0.94343698543E+01  0.10078876569E+02  0.73730680229E+02  0.47000000000E+01 0. -1.
        -11    1    1    2    0    0 -0.10411982962E+02 -0.27998798368E+02  0.84523267147E+02  0.89646666354E+02  0.00000000000E+00 0. -1.
         11    1    1    2    0    0  0.31448877577E+02  0.30561679326E+02  0.17019390961E+02  0.47039428279E+02  0.00000000000E+00 0.  1.
<mgrwt>
<rscale>  0 0.11685549E+03</rscale>
<asrwt>0</asrwt>
<pdfrwt beam="1">  1        2 0.28427008E-01 0.12678243E+03</pdfrwt>
<pdfrwt beam="2">  1       -2 0.12118685E-01 0.12678243E+03</pdfrwt>
<totfact> 0.85206632E+03</totfact>
</mgrwt>
</event>
<event>
 6    1  0.5818426E-006  0.1681446E+03  0.7546771E-02  0.1206197E+00
          2   -1    0    0  501    0  0.00000000000E+00  0.00000000000E+00  0.71310841662E+03  0.71310841662E+03  0.00000000000E+00 0. -1.
         -2   -1    0    0    0  501 -0.00000000000E+00 -0.00000000000E+00 -0.24364186421E+02  0.24364186421E+02  0.00000000000E+00 0.  1.
          5    1    1    2  502    0 -0.60165845611E+01 -0.54237526996E+02  0.33944785191E+03  0.34383839633E+03  0.47000000000E+01 0. -1.
         -5    1    1    2    0  502  0.10785179448E+02  0.67145103376E+02  0.65091817382E+02  0.94254016855E+02  0.47000000000E+01 0.  1.
        -11    1    1    2    0    0 -0.36340587040E+02  0.25452643564E+02  0.12882395578E+03  0.13625008959E+03  0.00000000000E+00 0.  1.
         11    1    1    2    0    0  0.31571992153E+02 -0.38360219944E+02  0.15538060513E+03  0.16313010026E+03  0.00000000000E+00 0. -1.
<mgrwt>
<rscale>  0 0.14543488E+03</rscale>
<asrwt>0</asrwt>
<pdfrwt beam="1">  1        2 0.10970897E+00 0.16814464E+03</pdfrwt>
<pdfrwt beam="2">  1       -2 0.37483369E-02 0.16814464E+03</pdfrwt>
<totfact> 0.12036319E+04</totfact>
</mgrwt>
</event>
<event>
 6    1  0.5818426E-006  0.1294161E+03  0.7546771E-02  0.1242208E+00
         -2   -1    0    0    0  501 -0.00000000000E+00  0.00000000000E+00  0.11935705848E+03  0.11935705848E+03  0.00000000000E+00 0.  1.
          2   -1    0    0  501    0  0.00000000000E+00 -0.00000000000E+00 -0.10833904463E+03  0.10833904463E+03  0.00000000000E+00 0. -1.
          5    1    1    2  502    0 -0.78990073430E+01 -0.52583747180E+02 -0.96687412465E+01  0.54249602227E+02  0.47000000000E+01 0.  1.
         -5    1    1    2    0  502  0.39680429972E+02  0.63217194938E+02  0.76957289294E+01  0.75181543628E+02  0.47000000000E+01 0.  1.
        -11    1    1    2    0    0 -0.58586653938E+02 -0.21514363036E+02  0.24610723731E+02  0.67089131453E+02  0.00000000000E+00 0.  1.
         11    1    1    2    0    0  0.26805231309E+02  0.10880915278E+02 -0.11619697564E+02  0.31175825800E+02  0.00000000000E+00 0. -1.
<mgrwt>
<rscale>  0 0.12054070E+03</rscale>
<asrwt>0</asrwt>
<pdfrwt beam="2">  1        2 0.16667545E-01 0.12941611E+03</pdfrwt>
<pdfrwt beam="1">  1       -2 0.18362624E-01 0.12941611E+03</pdfrwt>
<totfact> 0.78721414E+03</totfact>
</mgrwt>
</event>
<event>
 6    1  0.5818426E-006  0.1362070E+03  0.7546771E-02  0.1230189E+00
         -1   -1    0    0    0  501 -0.00000000000E+00  0.00000000000E+00  0.10679726462E+03  0.10679726462E+03  0.00000000000E+00 0.  1.
          1   -1    0    0  501    0  0.00000000000E+00 -0.00000000000E+00 -0.15860505723E+03  0.15860505723E+03  0.00000000000E+00 0. -1.
          5    1    1    2  502    0  0.25887586049E+02 -0.49642192879E+02  0.50492129471E+02  0.75538464135E+02  0.47000000000E+01 0. -1.
         -5    1    1    2    0  502 -0.52815385705E+02  0.26966797570E+01 -0.31888679257E+02  0.61933148746E+02  0.47000000000E+01 0. -1.
        -11    1    1    2    0    0  0.25611731179E+02  0.33083896805E+02 -0.92669165888E+02  0.10167634586E+03  0.00000000000E+00 0. -1.
         11    1    1    2    0    0  0.13160684763E+01  0.13861616318E+02  0.22257923058E+02  0.26254363104E+02  0.00000000000E+00 0.  1.
<mgrwt>
<rscale>  0 0.12817500E+03</rscale>
<asrwt>0</asrwt>
<pdfrwt beam="2">  1        1 0.24400778E-01 0.13620703E+03</pdfrwt>
<pdfrwt beam="1">  1       -1 0.16430349E-01 0.13620703E+03</pdfrwt>
<totfact> 0.52323162E+03</totfact>
</mgrwt>
</event>
<event>
 6    1  0.5818426E-006  0.1663239E+03  0.7546771E-02  0.1202409E+00
         -3   -1    0    0    0  501 -0.00000000000E+00  0.00000000000E+00  0.83590129502E+03  0.83590129502E+03  0.00000000000E+00 0.  1.
          3   -1    0    0  501    0  0.00000000000E+00 -0.00000000000E+00 -0.27770061527E+02  0.27770061527E+02  0.00000000000E+00 0. -1.
          5    1    1    2  502    0 -0.43202920287E+02  0.31554203495E+02  0.12059247746E+03  0.13201058935E+03  0.47000000000E+01 0. -1.
         -5    1    1    2    0  502  0.52204881008E+02 -0.84693088931E+02  0.54662340098E+03  0.55562352489E+03  0.47000000000E+01 0.  1.
        -11    1    1    2    0    0 -0.38576038283E+02 -0.36835486173E+01  0.34787573284E+02  0.52075469417E+02  0.00000000000E+00 0.  1.
         11    1    1    2    0    0  0.29574077561E+02  0.56822434054E+02  0.10612778177E+03  0.12396177289E+03  0.00000000000E+00 0. -1.
<mgrwt>
<rscale>  0 0.14843542E+03</rscale>
<asrwt>0</asrwt>
<pdfrwt beam="2">  1        3 0.42723178E-02 0.16632392E+03</pdfrwt>
<pdfrwt beam="1">  1       -3 0.12860018E+00 0.16632392E+03</pdfrwt>
<totfact> 0.35035410E+02</totfact>
</mgrwt>
</event>
<event>
 6    1  0.5818426E-006  0.1422346E+03  0.7546771E-02  0.1221596E+00
         -2   -1    0    0    0  501 -0.00000000000E+00  0.00000000000E+00  0.10725759328E+03  0.10725759328E+03  0.00000000000E+00 0.  1.
          2   -1    0    0  501    0  0.00000000000E+00 -0.00000000000E+00 -0.15518237046E+03  0.15518237046E+03  0.00000000000E+00 0. -1.
          5    1    1    2  502    0  0.23776247709E+02  0.19631479333E+02 -0.62656293175E+02  0.69990042223E+02  0.47000000000E+01 0.  1.
         -5    1    1    2    0  502  0.26983590309E+01  0.43188007770E+02  0.57765510009E+02  0.72328620222E+02  0.47000000000E+01 0.  1.
        -11    1    1    2    0    0 -0.42732812941E+02  0.24099503605E+01 -0.55694223533E+01  0.43161552659E+02  0.00000000000E+00 0.  1.
         11    1    1    2    0    0  0.16258206201E+02 -0.65229437464E+02 -0.37464571657E+02  0.76959748636E+02  0.00000000000E+00 0. -1.
<mgrwt>
<rscale>  0 0.13402998E+03</rscale>
<asrwt>0</asrwt>
<pdfrwt beam="2">  1        2 0.23874211E-01 0.14223460E+03</pdfrwt>
<pdfrwt beam="1">  1       -2 0.16501168E-01 0.14223460E+03</pdfrwt>
<totfact> 0.63040669E+03</totfact>
</mgrwt>
</event>
<event>
 6    1  0.5818426E-006  0.2808729E+03  0.7546771E-02  0.1096857E+00
          2   -1    0    0  501    0  0.00000000000E+00  0.00000000000E+00  0.15144415693E+03  0.15144415693E+03  0.00000000000E+00 0.  1.
         -2   -1    0    0    0  501 -0.00000000000E+00 -0.00000000000E+00 -0.56074547573E+03  0.56074547573E+03  0.00000000000E+00 0. -1.
          5    1    1    2  502    0 -0.58964361222E+02 -0.36737533508E+01 -0.54491564314E+02  0.80509086067E+02  0.47000000000E+01 0.  1.
         -5    1    1    2    0  502 -0.10664285949E+03  0.19298184287E+03 -0.27198166380E+03  0.35015825937E+03  0.47000000000E+01 0.  1.
        -11    1    1    2    0    0  0.58718219498E+02 -0.13829055574E+03 -0.53744138888E+02  0.15956359100E+03  0.00000000000E+00 0.  1.
         11    1    1    2    0    0  0.10688900121E+03 -0.51017533786E+02 -0.29083951796E+02  0.12195869623E+03  0.00000000000E+00 0. -1.
<mgrwt>
<rscale>  0 0.27787242E+03</rscale>
<asrwt>0</asrwt>
<pdfrwt beam="1">  1        2 0.23299101E-01 0.28087291E+03</pdfrwt>
<pdfrwt beam="2">  1       -2 0.86268533E-01 0.28087291E+03</pdfrwt>
<totfact> 0.28148774E+02</totfact>
</mgrwt>
</event>
<event>
 6    1  0.5818426E-006  0.2295317E+03  0.7546771E-02  0.1126970E+00
          2   -1    0    0  501    0  0.00000000000E+00  0.00000000000E+00  0.15494874027E+03  0.15494874027E+03  0.00000000000E+00 0. -1.
         -2   -1    0    0    0  501 -0.00000000000E+00 -0.00000000000E+00 -0.85003597153E+02  0.85003597153E+02  0.00000000000E+00 0.  1.
          5    1    1    2  502    0 -0.58692317603E+01  0.16114866178E+02  0.43850064196E+02  0.47318653017E+02  0.47000000000E+01 0. -1.
         -5    1    1    2    0  502  0.16824457605E+02 -0.26294055263E+02 -0.59773063072E+02  0.67596958399E+02  0.47000000000E+01 0.  1.
        -11    1    1    2    0    0  0.22332868350E+02  0.40248614760E+02  0.43132932680E+02  0.63080566582E+02  0.00000000000E+00 0.  1.
         11    1    1    2    0    0 -0.33288094194E+02 -0.30069425675E+02  0.42735209310E+02  0.61956159422E+02  0.00000000000E+00 0. -1.
<mgrwt>
<rscale>  0 0.22953170E+03</rscale>
<asrwt>0</asrwt>
<pdfrwt beam="1">  1        2 0.23838268E-01 0.22953170E+03</pdfrwt>
<pdfrwt beam="2">  1       -2 0.13077476E-01 0.22953170E+03</pdfrwt>
<totfact> 0.95475650E+03</totfact>
</mgrwt>
</event>
<event>
 6    1  0.5818426E-006  0.3473994E+03  0.7546771E-02  0.1063688E+00
          2   -1    0    0  501    0  0.00000000000E+00  0.00000000000E+00  0.20825387794E+03  0.20825387794E+03  0.00000000000E+00 0.  1.
         -2   -1    0    0    0  501 -0.00000000000E+00 -0.00000000000E+00 -0.14487889777E+03  0.14487889777E+03  0.00000000000E+00 0. -1.
          5    1    1    2  502    0  0.34055197980E+02 -0.13636935013E+02  0.10341710571E+01  0.36998405584E+02  0.47000000000E+01 0.  1.
         -5    1    1    2    0  502 -0.10796621647E+03 -0.71228259805E+02 -0.42468038213E+02  0.13621965043E+03  0.47000000000E+01 0.  1.
        -11    1    1    2    0    0  0.79310912215E+01  0.47049786883E+02 -0.31980675319E+01  0.47820626195E+02  0.00000000000E+00 0.  1.
         11    1    1    2    0    0  0.65979927269E+02  0.37815407935E+02  0.10800691486E+03  0.13209409350E+03  0.00000000000E+00 0. -1.
<mgrwt>
<rscale>  0 0.34739944E+03</rscale>
<asrwt>0</asrwt>
<pdfrwt beam="1">  1        2 0.32039058E-01 0.34739944E+03</pdfrwt>
<pdfrwt beam="2">  1       -2 0.22289061E-01 0.34739944E+03</pdfrwt>
<totfact> 0.28491206E+03</totfact>
</mgrwt>
</event>
<event>
 6    1  0.5818426E-006  0.1517047E+03  0.7546771E-02  0.1207249E+00
         -3   -1    0    0    0  501 -0.00000000000E+00  0.00000000000E+00  0.49719703977E+02  0.49719703977E+02  0.00000000000E+00 0.  1.
          3   -1    0    0  501    0  0.00000000000E+00 -0.00000000000E+00 -0.39444258612E+03  0.39444258612E+03  0.00000000000E+00 0. -1.
          5    1    1    2  502    0 -0.34808473110E+01  0.53684462178E+02 -0.31822276957E+02  0.62680819139E+02  0.47000000000E+01 0. -1.
         -5    1    1    2    0  502  0.78800245206E+02 -0.12261402220E+02 -0.18942533951E+03  0.20558178392E+03  0.47000000000E+01 0. -1.
        -11    1    1    2    0    0 -0.72580072328E+02  0.10373853222E+02 -0.68998855879E+02  0.10067932182E+03  0.00000000000E+00 0. -1.
         11    1    1    2    0    0 -0.27393255670E+01 -0.51796913179E+02 -0.54476409790E+02  0.75220365215E+02  0.00000000000E+00 0.  1.
<mgrwt>
<rscale>  0 0.14461652E+03</rscale>
<asrwt>0</asrwt>
<pdfrwt beam="2">  1        3 0.60683476E-01 0.15170470E+03</pdfrwt>
<pdfrwt beam="1">  1       -3 0.76491850E-02 0.15170470E+03</pdfrwt>
<totfact> 0.72622587E+02</totfact>
</mgrwt>
</event>
<event>
 6    1  0.5818426E-006  0.2648470E+03  0.7546771E-02  0.1104266E+00
         -2   -1    0    0    0  501 -0.00000000000E+00  0.00000000000E+00  0.13509784782E+02  0.13509784782E+02  0.00000000000E+00 0.  1.
          2   -1    0    0  501    0  0.00000000000E+00 -0.00000000000E+00 -0.12980207183E+04  0.12980207183E+04  0.00000000000E+00 0. -1.
          5    1    1    2  502    0 -0.54248647810E+01 -0.90257839178E+01 -0.50398042901E+03  0.50411234537E+03  0.47000000000E+01 0.  1.
         -5    1    1    2    0  502  0.73317562613E+02  0.39283085379E+02 -0.24279179484E+03  0.25668769240E+03  0.47000000000E+01 0.  1.
        -11    1    1    2    0    0 -0.89363007367E+02 -0.19468187826E+02 -0.47100584471E+03  0.47980335886E+03  0.00000000000E+00 0. -1.
         11    1    1    2    0    0  0.21470309535E+02 -0.10789113634E+02 -0.66732864946E+02  0.70927106444E+02  0.00000000000E+00 0.  1.
<mgrwt>
<rscale>  0 0.26484698E+03</rscale>
<asrwt>0</asrwt>
<pdfrwt beam="2">  1        2 0.19969542E+00 0.26484698E+03</pdfrwt>
<pdfrwt beam="1">  1       -2 0.20784292E-02 0.26484698E+03</pdfrwt>
<totfact> 0.12821516E+04</totfact>
</mgrwt>
</event>
<event>
 6    1  0.5818426E-006  0.1349639E+03  0.7546771E-02  0.1231548E+00
          1   -1    0    0  501    0  0.00000000000E+00  0.00000000000E+00  0.26008522402E+02  0.26008522402E+02  0.00000000000E+00 0. -1.
         -1   -1    0    0    0  501 -0.00000000000E+00 -0.00000000000E+00 -0.61695251169E+03  0.61695251169E+03  0.00000000000E+00 0.  1.
          5    1    1    2  502    0  0.44537580130E+02  0.60732180744E+02 -0.15002936660E+03  0.16793717476E+03  0.47000000000E+01 0. -1.
         -5    1    1    2    0  502 -0.39865291289E+02 -0.10044954830E+02 -0.27249907951E+03  0.27562289618E+03  0.47000000000E+01 0. -1.
        -11    1    1    2    0    0  0.28756801115E+02 -0.54097158770E+02 -0.59436285370E+02  0.85358820376E+02  0.00000000000E+00 0. -1.
         11    1    1    2    0    0 -0.33429089956E+02  0.34099328568E+01 -0.10897925781E+03  0.11404214278E+03  0.00000000000E+00 0.  1.
<mgrwt>
<rscale>  0 0.12728046E+03</rscale>
<asrwt>0</asrwt>
<pdfrwt beam="1">  1        1 0.40013116E-02 0.13496388E+03</pdfrwt>
<pdfrwt beam="2">  1       -1 0.94915759E-01 0.13496388E+03</pdfrwt>
<totfact> 0.24861718E+03</totfact>
</mgrwt>
</event>
<event>
 6    1  0.5818426E-006  0.1612426E+03  0.7546771E-02  0.1194983E+00
         -1   -1    0    0    0  501 -0.00000000000E+00  0.00000000000E+00  0.16037834977E+03  0.16037834977E+03  0.00000000000E+00 0.  1.
          1   -1    0    0  501    0  0.00000000000E+00 -0.00000000000E+00 -0.13861986415E+03  0.13861986415E+03  0.00000000000E+00 0. -1.
          5    1    1    2  502    0 -0.36291378175E+02 -0.35465067108E+02 -0.23767704480E+02  0.56230142193E+02  0.47000000000E+01 0. -1.
         -5    1    1    2    0  502 -0.56626165369E+02  0.77178638813E+02  0.46778725742E+02  0.10664616297E+03  0.47000000000E+01 0. -1.
        -11    1    1    2    0    0  0.30681744735E+02 -0.63157535965E+02 -0.28873336619E+01  0.70275034720E+02  0.00000000000E+00 0. -1.
         11    1    1    2    0    0  0.62235798809E+02  0.21443964260E+02  0.16347980159E+01  0.65846874043E+02  0.00000000000E+00 0.  1.
<mgrwt>
<rscale>  0 0.15455651E+03</rscale>
<asrwt>0</asrwt>
<pdfrwt beam="2">  1        1 0.21326133E-01 0.16124262E+03</pdfrwt>
<pdfrwt beam="1">  1       -1 0.24673592E-01 0.16124262E+03</pdfrwt>
<totfact> 0.32525696E+03</totfact>
</mgrwt>
</event>
<event>
 6    1  0.5818426E-006  0.1305378E+03  0.7546771E-02  0.1239570E+00
         -3   -1    0    0    0  501 -0.00000000000E+00  0.00000000000E+00  0.11473055927E+03  0.11473055927E+03  0.00000000000E+00 0.  1.
          3   -1    0    0  501    0  0.00000000000E+00 -0.00000000000E+00 -0.12253122414E+03  0.12253122414E+03  0.00000000000E+00 0. -1.
          5    1    1    2  502    0  0.81032516927E+02 -0.14851348577E+02  0.41955337762E+01  0.82622780501E+02  0.47000000000E+01 0.  1.
         -5    1    1    2    0  502 -0.46018720059E+02  0.10813392836E+01  0.18705227109E+02  0.49908590560E+02  0.47000000000E+01 0.  1.
        -11    1    1    2    0    0 -0.36234200887E+02  0.29665818024E+02 -0.57127151646E+02  0.73868054855E+02  0.00000000000E+00 0. -1.
         11    1    1    2    0    0  0.12204040194E+01 -0.15895808731E+02  0.26425725890E+02  0.30862357493E+02  0.00000000000E+00 0.  1.
<mgrwt>
<rscale>  0 0.12216381E+03</rscale>
<asrwt>0</asrwt>
<pdfrwt beam="2">  1        3 0.18850958E-01 0.13053781E+03</pdfrwt>
<pdfrwt beam="1">  1       -3 0.17650855E-01 0.13053781E+03</pdfrwt>
<totfact> 0.15905802E+03</totfact>
</mgrwt>
</event>
<event>
 6    1  0.5818426E-006  0.1518150E+03  0.7546771E-02  0.1206999E+00
         -3   -1    0    0    0  501 -0.00000000000E+00  0.00000000000E+00  0.13416072930E+03  0.13416072930E+03  0.00000000000E+00 0.  1.
          3   -1    0    0  501    0  0.00000000000E+00 -0.00000000000E+00 -0.14653311431E+03  0.14653311431E+03  0.00000000000E+00 0. -1.
          5    1    1    2  502    0  0.41770749216E+02  0.10708965847E+03  0.28604013657E+02  0.11854648893E+03  0.47000000000E+01 0. -1.
         -5    1    1    2    0  502 -0.41059380938E+01 -0.29594527487E+02 -0.15216915448E+02  0.33857632825E+02  0.47000000000E+01 0. -1.
        -11    1    1    2    0    0 -0.25360972134E+02 -0.60068013996E+02  0.27615617989E+02  0.70809374873E+02  0.00000000000E+00 0.  1.
         11    1    1    2    0    0 -0.12303838989E+02 -0.17427116988E+02 -0.53375101203E+02  0.57480346979E+02  0.00000000000E+00 0. -1.
<mgrwt>
<rscale>  0 0.14481048E+03</rscale>
<asrwt>0</asrwt>
<pdfrwt beam="2">  1        3 0.22543556E-01 0.15181503E+03</pdfrwt>
<pdfrwt beam="1">  1       -3 0.20640112E-01 0.15181503E+03</pdfrwt>
<totfact> 0.90253498E+02</totfact>
</mgrwt>
</event>
<event>
 6    1  0.5818426E-006  0.1785866E+03  0.7546771E-02  0.1174698E+00
          4   -1    0    0  501    0  0.00000000000E+00  0.00000000000E+00  0.97958406047E+02  0.97958406047E+02  0.00000000000E+00 0. -1.
         -4   -1    0    0    0  501 -0.00000000000E+00 -0.00000000000E+00 -0.30830967343E+03  0.30830967343E+03  0.00000000000E+00 0.  1.
          5    1    1    2  502    0 -0.45384866591E+02  0.48084430859E+02 -0.15124306424E+03  0.16513162353E+03  0.47000000000E+01 0. -1.
         -5    1    1    2    0  502  0.11231650172E+02  0.74825836520E+02 -0.11868916418E+02  0.76733414843E+02  0.47000000000E+01 0. -1.
        -11    1    1    2    0    0 -0.96599172397E+01 -0.14608149936E+02 -0.44190792080E+02  0.47534599507E+02  0.00000000000E+00 0.  1.
         11    1    1    2    0    0  0.43813133660E+02 -0.10830211744E+03 -0.30484946456E+01  0.11686844160E+03  0.00000000000E+00 0. -1.
<mgrwt>
<rscale>  0 0.17305580E+03</rscale>
<asrwt>0</asrwt>
<pdfrwt beam="1">  1        4 0.15070524E-01 0.17858661E+03</pdfrwt>
<pdfrwt beam="2">  1       -4 0.47432258E-01 0.17858661E+03</pdfrwt>
<totfact> 0.28206573E+02</totfact>
</mgrwt>
</event>
<event>
 6    1  0.5818426E-006  0.1500429E+03  0.7546771E-02  0.1210061E+00
          1   -1    0    0  501    0  0.00000000000E+00  0.00000000000E+00  0.14275560918E+03  0.14275560918E+03  0.00000000000E+00 0. -1.
         -1   -1    0    0    0  501 -0.00000000000E+00 -0.00000000000E+00 -0.13905336289E+03  0.13905336289E+03  0.00000000000E+00 0.  1.
          5    1    1    2  502    0  0.44281259916E+02 -0.46832823246E+02 -0.67217666237E+02  0.93244023762E+02  0.47000000000E+01 0. -1.
         -5    1    1    2    0  502  0.37777929450E+02  0.34364913461E+02  0.32561601901E+02  0.60749215213E+02  0.47000000000E+01 0. -1.
        -11    1    1    2    0    0 -0.39305211393E+02 -0.21146704085E+02 -0.19235686233E+02  0.48601382297E+02  0.00000000000E+00 0.  1.
         11    1    1    2    0    0 -0.42753977972E+02  0.33614613871E+02  0.57593996860E+02  0.79214350799E+02  0.00000000000E+00 0. -1.
<mgrwt>
<rscale>  0 0.14245709E+03</rscale>
<asrwt>0</asrwt>
<pdfrwt beam="1">  1        1 0.21962401E-01 0.15004291E+03</pdfrwt>
<pdfrwt beam="2">  1       -1 0.21392825E-01 0.15004291E+03</pdfrwt>
<totfact> 0.39411091E+03</totfact>
</mgrwt>
</event>
<event>
 6    1  0.5818426E-006  0.1408224E+03  0.7546771E-02  0.1226756E+00
          2   -1    0    0  501    0  0.00000000000E+00  0.00000000000E+00  0.31007443071E+03  0.31007443071E+03  0.00000000000E+00 0. -1.
         -2   -1    0    0    0  501 -0.00000000000E+00 -0.00000000000E+00 -0.48766809297E+02  0.48766809297E+02  0.00000000000E+00 0.  1.
          5    1    1    2  502    0 -0.31090093863E+02 -0.27898876187E+02  0.69708081796E+02  0.81401768388E+02  0.47000000000E+01 0. -1.
         -5    1    1    2    0  502  0.27183762308E+02  0.92635087488E+02  0.99069234649E+02  0.13840888563E+03  0.47000000000E+01 0. -1.
        -11    1    1    2    0    0  0.24070876600E+02 -0.30707139087E+02  0.67753926340E+00  0.39023000277E+02  0.00000000000E+00 0.  1.
         11    1    1    2    0    0 -0.20164545045E+02 -0.34029072215E+02  0.91852765708E+02  0.10000758572E+03  0.00000000000E+00 0. -1.
<mgrwt>
<rscale>  0 0.13047246E+03</rscale>
<asrwt>0</asrwt>
<pdfrwt beam="1">  1        2 0.47703757E-01 0.14082237E+03</pdfrwt>
<pdfrwt beam="2">  1       -2 0.75025862E-02 0.14082237E+03</pdfrwt>
<totfact> 0.10460269E+04</totfact>
</mgrwt>
</event>
<event>
 6    1  0.5818426E-006  0.1226249E+03  0.7546771E-02  0.1252152E+00
          1   -1    0    0  501    0  0.00000000000E+00  0.00000000000E+00  0.36202213747E+03  0.36202213747E+03  0.00000000000E+00 0. -1.
         -1   -1    0    0    0  501 -0.00000000000E+00 -0.00000000000E+00 -0.46098061198E+02  0.46098061198E+02  0.00000000000E+00 0.  1.
          5    1    1    2  502    0  0.16617651763E+02  0.45430261663E+02  0.27741919294E+02  0.55962122110E+02  0.47000000000E+01 0. -1.
         -5    1    1    2    0  502 -0.22736352000E+02 -0.70146230476E+02  0.34209742204E+02  0.81423779168E+02  0.47000000000E+01 0.  1.
        -11    1    1    2    0    0  0.24432776647E+02 -0.25014073200E+02  0.58019486576E+02  0.67741606530E+02  0.00000000000E+00 0.  1.
         11    1    1    2    0    0 -0.18314076410E+02  0.49730042013E+02  0.19595292820E+03  0.20299269086E+03  0.00000000000E+00 0. -1.
<mgrwt>
<rscale>  0 0.11467376E+03</rscale>
<asrwt>0</asrwt>
<pdfrwt beam="1">  1        1 0.55695712E-01 0.12262495E+03</pdfrwt>
<pdfrwt beam="2">  1       -1 0.70920097E-02 0.12262495E+03</pdfrwt>
<totfact> 0.67696138E+03</totfact>
</mgrwt>
</event>
<event>
 6    1  0.5818426E-006  0.1919752E+03  0.7546771E-02  0.1177474E+00
         -1   -1    0    0    0  501 -0.00000000000E+00  0.00000000000E+00  0.22360925551E+03  0.22360925551E+03  0.00000000000E+00 0.  1.
          1   -1    0    0  501    0  0.00000000000E+00 -0.00000000000E+00 -0.14279181467E+03  0.14279181467E+03  0.00000000000E+00 0. -1.
          5    1    1    2  502    0  0.87037499723E+02 -0.42262406883E+01  0.23485088966E+02  0.90371604346E+02  0.47000000000E+01 0. -1.
         -5    1    1    2    0  502 -0.63789385753E+02 -0.65181015525E+02  0.11243260672E+03  0.14484761501E+03  0.47000000000E+01 0.  1.
        -11    1    1    2    0    0  0.15973065580E+02  0.75621206502E+02 -0.24600331237E+02  0.81110307568E+02  0.00000000000E+00 0. -1.
         11    1    1    2    0    0 -0.39221179550E+02 -0.62139502884E+01 -0.30499923612E+02  0.50071543254E+02  0.00000000000E+00 0.  1.
<mgrwt>
<rscale>  0 0.17035901E+03</rscale>
<asrwt>0</asrwt>
<pdfrwt beam="2">  1        1 0.21967972E-01 0.19197516E+03</pdfrwt>
<pdfrwt beam="1">  1       -1 0.34401424E-01 0.19197516E+03</pdfrwt>
<totfact> 0.18010018E+03</totfact>
</mgrwt>
</event>
<event>
 6    1  0.5818426E-006  0.3130208E+03  0.7546771E-02  0.1078907E+00
          1   -1    0    0  501    0  0.00000000000E+00  0.00000000000E+00  0.65512116270E+03  0.65512116270E+03  0.00000000000E+00 0. -1.
         -1   -1    0    0    0  501 -0.00000000000E+00 -0.00000000000E+00 -0.37390789571E+02  0.37390789571E+02  0.00000000000E+00 0.  1.
          5    1    1    2  502    0  0.12955647341E+02 -0.25629907922E+02  0.30711125475E+02  0.42308441310E+02  0.47000000000E+01 0.  1.
         -5    1    1    2    0  502 -0.11412577470E+03  0.71722898037E+02  0.26908766643E+03  0.30099689164E+03  0.47000000000E+01 0.  1.
        -11    1    1    2    0    0  0.26150730680E+02 -0.36999054359E+02  0.37628257397E+02  0.58895470907E+02  0.00000000000E+00 0.  1.
         11    1    1    2    0    0  0.75019396675E+02 -0.90939357554E+01  0.28030332383E+03  0.29031114841E+03  0.00000000000E+00 0. -1.
<mgrwt>
<rscale>  0 0.31302075E+03</rscale>
<asrwt>0</asrwt>
<pdfrwt beam="1">  1        1 0.10078786E+00 0.31302075E+03</pdfrwt>
<pdfrwt beam="2">  1       -1 0.57524296E-02 0.31302075E+03</pdfrwt>
<totfact> 0.44258605E+03</totfact>
</mgrwt>
</event>
<event>
 6    1  0.5818426E-006  0.1329735E+03  0.7546771E-02  0.1236289E+00
         -2   -1    0    0    0  501 -0.00000000000E+00  0.00000000000E+00  0.16093556945E+03  0.16093556945E+03  0.00000000000E+00 0. -1.
          2   -1    0    0  501    0  0.00000000000E+00 -0.00000000000E+00 -0.85647365664E+02  0.85647365664E+02  0.00000000000E+00 0.  1.
          5    1    1    2  502    0 -0.17445494216E+01 -0.23176221521E+02  0.70346075330E+02  0.74235038971E+02  0.47000000000E+01 0.  1.
         -5    1    1    2    0  502 -0.23251265237E+02  0.61016426152E+02 -0.19219818111E+02  0.68228417860E+02  0.47000000000E+01 0.  1.
        -11    1    1    2    0    0 -0.11979602527E+02  0.15472004759E+02 -0.18127700645E+02  0.26674094899E+02  0.00000000000E+00 0.  1.
         11    1    1    2    0    0  0.36975417185E+02 -0.53312209390E+02  0.42289647208E+02  0.77445383381E+02  0.00000000000E+00 0. -1.
<mgrwt>
<rscale>  0 0.12422289E+03</rscale>
<asrwt>0</asrwt>
<pdfrwt beam="2">  1        2 0.13176518E-01 0.13297346E+03</pdfrwt>
<pdfrwt beam="1">  1       -2 0.24759318E-01 0.13297346E+03</pdfrwt>
<totfact> 0.62384356E+03</totfact>
</mgrwt>
</event>
<event>
 6    1  0.5818426E-006  0.1643560E+03  0.7546771E-02  0.1190943E+00
          2   -1    0    0  501    0  0.00000000000E+00  0.00000000000E+00  0.12050691528E+03  0.12050691528E+03  0.00000000000E+00 0.  1.
         -2   -1    0    0    0  501 -0.00000000000E+00 -0.00000000000E+00 -0.20939227442E+03  0.20939227442E+03  0.00000000000E+00 0. -1.
          5    1    1    2  502    0  0.85927783432E+02 -0.44894595823E+02 -0.78453625678E+02  0.12480452749E+03  0.47000000000E+01 0.  1.
         -5    1    1    2    0  502  0.19814126616E+02  0.59231752453E+02 -0.15552693073E+02  0.64536628158E+02  0.47000000000E+01 0.  1.
        -11    1    1    2    0    0 -0.73606221220E+02  0.10467019013E+02 -0.36148747796E+02  0.82669016304E+02  0.00000000000E+00 0. -1.
         11    1    1    2    0    0 -0.32135688827E+02 -0.24804175643E+02  0.41269707409E+02  0.57889017744E+02  0.00000000000E+00 0.  1.
<mgrwt>
<rscale>  0 0.15802687E+03</rscale>
<asrwt>0</asrwt>
<pdfrwt beam="1">  1        2 0.18539526E-01 0.16435597E+03</pdfrwt>
<pdfrwt beam="2">  1       -2 0.32214196E-01 0.16435597E+03</pdfrwt>
<totfact> 0.26512506E+03</totfact>
</mgrwt>
</event>
<event>
 6    1  0.5818426E-006  0.1265977E+03  0.7546771E-02  0.1247384E+00
          1   -1    0    0  501    0  0.00000000000E+00  0.00000000000E+00  0.16166784311E+03  0.16166784311E+03  0.00000000000E+00 0. -1.
         -1   -1    0    0    0  501 -0.00000000000E+00 -0.00000000000E+00 -0.77591849818E+02  0.77591849818E+02  0.00000000000E+00 0.  1.
          5    1    1    2  502    0  0.43169355540E+02  0.23556982931E+02 -0.10677101500E+02  0.50543201314E+02  0.47000000000E+01 0.  1.
         -5    1    1    2    0  502 -0.60833869347E+02 -0.33032006943E+02  0.37487083185E+02  0.78862187062E+02  0.47000000000E+01 0.  1.
        -11    1    1    2    0    0  0.93504874698E+01  0.24086241217E+02 -0.18799609860E+02  0.31953152626E+02  0.00000000000E+00 0.  1.
         11    1    1    2    0    0  0.83140263370E+01 -0.14611217205E+02  0.76065621469E+02  0.77901151928E+02  0.00000000000E+00 0. -1.
<mgrwt>
<rscale>  0 0.11743814E+03</rscale>
<asrwt>0</asrwt>
<pdfrwt beam="1">  1        1 0.24871976E-01 0.12659771E+03</pdfrwt>
<pdfrwt beam="2">  1       -1 0.11937208E-01 0.12659771E+03</pdfrwt>
<totfact> 0.83606356E+03</totfact>
</mgrwt>
</event>
<event>
 6    1  0.5818426E-006  0.1300305E+03  0.7546771E-02  0.1245397E+00
         -4   -1    0    0    0  501 -0.00000000000E+00  0.00000000000E+00  0.54427545560E+03  0.54427545560E+03  0.00000000000E+00 0. -1.
          4   -1    0    0  501    0  0.00000000000E+00 -0.00000000000E+00 -0.23910975382E+02  0.23910975382E+02  0.00000000000E+00 0.  1.
          5    1    1    2  502    0  0.16795552295E+02 -0.14715495331E+02  0.19955159198E+02  0.30313936702E+02  0.47000000000E+01 0.  1.
         -5    1    1    2    0  502 -0.74207362491E+02  0.52450614342E+02  0.35801556967E+03  0.36939821023E+03  0.47000000000E+01 0. -1.
        -11    1    1    2    0    0  0.55733567696E+02 -0.37516274605E+01  0.83597905807E+02  0.10054310087E+03  0.00000000000E+00 0.  1.
         11    1    1    2    0    0  0.16782424999E+01 -0.33983491550E+02  0.58795845539E+02  0.67931183182E+02  0.00000000000E+00 0. -1.
<mgrwt>
<rscale>  0 0.11861660E+03</rscale>
<asrwt>0</asrwt>
<pdfrwt beam="2">  1        4 0.36786120E-02 0.13003049E+03</pdfrwt>
<pdfrwt beam="1">  1       -4 0.83734676E-01 0.13003049E+03</pdfrwt>
<totfact> 0.82317247E+02</totfact>
</mgrwt>
</event>
<event>
 6    1  0.5818426E-006  0.2968301E+03  0.7546771E-02  0.1086836E+00
         -2   -1    0    0    0  501 -0.00000000000E+00  0.00000000000E+00  0.10281487587E+03  0.10281487587E+03  0.00000000000E+00 0.  1.
          2   -1    0    0  501    0  0.00000000000E+00 -0.00000000000E+00 -0.21423964297E+03  0.21423964297E+03  0.00000000000E+00 0. -1.
          5    1    1    2  502    0  0.90754662495E+00 -0.33953202260E+00  0.37834449959E+02  0.38137573685E+02  0.47000000000E+01 0. -1.
         -5    1    1    2    0  502 -0.66791322698E+01  0.98072661052E+02 -0.78168898497E+02  0.12567945077E+03  0.47000000000E+01 0. -1.
        -11    1    1    2    0    0 -0.41805498481E+02 -0.46818352772E+02 -0.17012319215E+02  0.65031352935E+02  0.00000000000E+00 0.  1.
         11    1    1    2    0    0  0.47577084125E+02 -0.50914776257E+02 -0.54077999354E+02  0.88206141449E+02  0.00000000000E+00 0. -1.
<mgrwt>
<rscale>  0 0.29683007E+03</rscale>
<asrwt>0</asrwt>
<pdfrwt beam="2">  1        2 0.32959945E-01 0.29683007E+03</pdfrwt>
<pdfrwt beam="1">  1       -2 0.15817673E-01 0.29683007E+03</pdfrwt>
<totfact> 0.49346416E+03</totfact>
</mgrwt>
</event>
<event>
 6    1  0.5818426E-006  0.1372096E+03  0.7546771E-02  0.1226906E+00
         -2   -1    0    0    0  501 -0.00000000000E+00  0.00000000000E+00  0.38716470806E+02  0.38716470806E+02  0.00000000000E+00 0.  1.
          2   -1    0    0  501    0  0.00000000000E+00 -0.00000000000E+00 -0.45471835291E+03  0.45471835291E+03  0.00000000000E+00 0. -1.
          5    1    1    2  502    0 -0.28326652956E+02  0.42784157632E+02 -0.31498575898E+02  0.60391503504E+02  0.47000000000E+01 0.  1.
         -5    1    1    2    0  502 -0.14584210472E+02 -0.79660722374E+02 -0.11035931745E+03  0.13696641498E+03  0.47000000000E+01 0.  1.
        -11    1    1    2    0    0  0.61493465057E+02 -0.73831771116E+01 -0.12693150049E+03  0.14123584306E+03  0.00000000000E+00 0. -1.
         11    1    1    2    0    0 -0.18582601629E+02  0.44259741854E+02 -0.14721248827E+03  0.15484106217E+03  0.00000000000E+00 0.  1.
<mgrwt>
<rscale>  0 0.13037098E+03</rscale>
<asrwt>0</asrwt>
<pdfrwt beam="2">  1        2 0.69956667E-01 0.13720964E+03</pdfrwt>
<pdfrwt beam="1">  1       -2 0.59563804E-02 0.13720964E+03</pdfrwt>
<totfact> 0.98678976E+03</totfact>
</mgrwt>
</event>
<event>
 6    1  0.5818426E-006  0.2014506E+03  0.7546771E-02  0.1154285E+00
          1   -1    0    0  501    0  0.00000000000E+00  0.00000000000E+00  0.13280682442E+04  0.13280682442E+04  0.00000000000E+00 0. -1.
         -1   -1    0    0    0  501 -0.00000000000E+00 -0.00000000000E+00 -0.26882976779E+02  0.26882976779E+02  0.00000000000E+00 0.  1.
          5    1    1    2  502    0  0.38479906541E+02  0.14840660096E+03  0.71759297235E+03  0.73380309783E+03  0.47000000000E+01 0. -1.
         -5    1    1    2    0  502 -0.19875521855E+02  0.84669803793E+01  0.16937608609E+02  0.27851368210E+02  0.47000000000E+01 0. -1.
        -11    1    1    2    0    0  0.23211951402E+02 -0.10184891932E+03  0.29351870571E+03  0.31155292914E+03  0.00000000000E+00 0.  1.
         11    1    1    2    0    0 -0.41816336088E+02 -0.55024662021E+02  0.27313598073E+03  0.28174382577E+03  0.00000000000E+00 0. -1.
<mgrwt>
<rscale>  0 0.19470514E+03</rscale>
<asrwt>0</asrwt>
<pdfrwt beam="1">  1        1 0.20431814E+00 0.20145062E+03</pdfrwt>
<pdfrwt beam="2">  1       -1 0.41358436E-02 0.20145062E+03</pdfrwt>
<totfact> 0.21818866E+03</totfact>
</mgrwt>
</event>
<event>
 6    1  0.5818426E-006  0.1411236E+03  0.7546771E-02  0.1222860E+00
          1   -1    0    0  501    0  0.00000000000E+00  0.00000000000E+00  0.41339832403E+02  0.41339832403E+02  0.00000000000E+00 0. -1.
         -1   -1    0    0    0  501 -0.00000000000E+00 -0.00000000000E+00 -0.39438585244E+03  0.39438585244E+03  0.00000000000E+00 0.  1.
          5    1    1    2  502    0 -0.23549457811E+02  0.70722069208E+02 -0.61787167215E+02  0.96932616124E+02  0.47000000000E+01 0.  1.
         -5    1    1    2    0  502  0.40922044852E+02 -0.74870400763E+01 -0.16458326162E+03  0.16982464347E+03  0.47000000000E+01 0.  1.
        -11    1    1    2    0    0  0.24712124910E+02 -0.47905962977E+02 -0.10747795514E+03  0.12023801914E+03  0.00000000000E+00 0.  1.
         11    1    1    2    0    0 -0.42084711951E+02 -0.15329066155E+02 -0.19197636066E+02  0.48730406110E+02  0.00000000000E+00 0. -1.
<mgrwt>
<rscale>  0 0.13314632E+03</rscale>
<asrwt>0</asrwt>
<pdfrwt beam="1">  1        1 0.63599741E-02 0.14112358E+03</pdfrwt>
<pdfrwt beam="2">  1       -1 0.60674748E-01 0.14112358E+03</pdfrwt>
<totfact> 0.32696183E+03</totfact>
</mgrwt>
</event>
<event>
 6    1  0.5818426E-006  0.1262296E+03  0.7546771E-02  0.1248299E+00
         -1   -1    0    0    0  501 -0.00000000000E+00  0.00000000000E+00  0.28914654161E+03  0.28914654161E+03  0.00000000000E+00 0.  1.
          1   -1    0    0  501    0  0.00000000000E+00 -0.00000000000E+00 -0.42825852128E+02  0.42825852128E+02  0.00000000000E+00 0. -1.
          5    1    1    2  502    0  0.37123142423E+02 -0.38919707807E+02  0.10182840637E+03  0.11525617425E+03  0.47000000000E+01 0. -1.
         -5    1    1    2    0  502 -0.38149946948E+02  0.56468332444E+02  0.68407761864E+02  0.96673692929E+02  0.47000000000E+01 0. -1.
        -11    1    1    2    0    0 -0.17094370380E+02  0.30408961802E+02  0.53849336952E+02  0.64161308799E+02  0.00000000000E+00 0. -1.
         11    1    1    2    0    0  0.18121174906E+02 -0.47957586440E+02  0.22235184288E+02  0.55881217752E+02  0.00000000000E+00 0.  1.
<mgrwt>
<rscale>  0 0.11690091E+03</rscale>
<asrwt>0</asrwt>
<pdfrwt beam="2">  1        1 0.65885928E-02 0.12622961E+03</pdfrwt>
<pdfrwt beam="1">  1       -1 0.44484082E-01 0.12622961E+03</pdfrwt>
<totfact> 0.54796966E+03</totfact>
</mgrwt>
</event>
<event>
 6    1  0.5818426E-006  0.3567421E+03  0.7546771E-02  0.1078939E+00
         -2   -1    0    0    0  501 -0.00000000000E+00  0.00000000000E+00  0.82383446724E+02  0.82383446724E+02  0.00000000000E+00 0.  1.
          2   -1    0    0  501    0  0.00000000000E+00 -0.00000000000E+00 -0.10358313380E+04  0.10358313380E+04  0.00000000000E+00 0. -1.
          5    1    1    2  502    0  0.40697419836E+02 -0.88075944326E+02 -0.47766532631E+03  0.48744220776E+03  0.47000000000E+01 0. -1.
         -5    1    1    2    0  502  0.33203155778E+02 -0.92285438418E+02  0.12268492381E+02  0.98952804927E+02  0.47000000000E+01 0.  1.
        -11    1    1    2    0    0  0.46266084034E+01  0.94896740347E+02 -0.23139012426E+03  0.25013633570E+03  0.00000000000E+00 0. -1.
         11    1    1    2    0    0 -0.78527184018E+02  0.85464642398E+02 -0.25666093309E+03  0.28168343633E+03  0.00000000000E+00 0.  1.
<mgrwt>
<rscale>  0 0.31295317E+03</rscale>
<asrwt>0</asrwt>
<pdfrwt beam="2">  1        2 0.15935867E+00 0.35674206E+03</pdfrwt>
<pdfrwt beam="1">  1       -2 0.12674376E-01 0.35674206E+03</pdfrwt>
<totfact> 0.11272669E+03</totfact>
</mgrwt>
</event>
<event>
 6    1  0.5818426E-006  0.1301641E+03  0.7546771E-02  0.1240910E+00
         -1   -1    0    0    0  501 -0.00000000000E+00  0.00000000000E+00  0.67526169042E+02  0.67526169042E+02  0.00000000000E+00 0.  1.
          1   -1    0    0  501    0  0.00000000000E+00 -0.00000000000E+00 -0.21683133463E+03  0.21683133463E+03  0.00000000000E+00 0. -1.
          5    1    1    2  502    0  0.52378835376E+01 -0.13591946974E+02 -0.82549492991E+02  0.83956448469E+02  0.47000000000E+01 0. -1.
         -5    1    1    2    0  502  0.21997109541E+02 -0.10385395158E+02  0.45126701067E+02  0.51480466295E+02  0.47000000000E+01 0. -1.
        -11    1    1    2    0    0  0.62965233178E+01  0.39795086714E+02 -0.11483194739E+02  0.41894616526E+02  0.00000000000E+00 0.  1.
         11    1    1    2    0    0 -0.33531516396E+02 -0.15817744582E+02 -0.10039917892E+03  0.10702597238E+03  0.00000000000E+00 0. -1.
<mgrwt>
<rscale>  0 0.12133574E+03</rscale>
<asrwt>0</asrwt>
<pdfrwt beam="2">  1        1 0.33358667E-01 0.13016410E+03</pdfrwt>
<pdfrwt beam="1">  1       -1 0.10388641E-01 0.13016410E+03</pdfrwt>
<totfact> 0.71948614E+03</totfact>
</mgrwt>
</event>
<event>
 6    1  0.5818426E-006  0.5096899E+03  0.7546771E-02  0.1040424E+00
         -2   -1    0    0    0  501 -0.00000000000E+00  0.00000000000E+00  0.32757327294E+03  0.32757327294E+03  0.00000000000E+00 0.  1.
          2   -1    0    0  501    0  0.00000000000E+00 -0.00000000000E+00 -0.47385768205E+03  0.47385768205E+03  0.00000000000E+00 0. -1.
          5    1    1    2  502    0  0.28174820333E+02 -0.22310989878E+03 -0.14560428245E+02  0.22540173802E+03  0.47000000000E+01 0. -1.
         -5    1    1    2    0  502  0.16835393933E+03  0.22298592679E+03  0.64023934134E+02  0.28668262343E+03  0.47000000000E+01 0.  1.
        -11    1    1    2    0    0 -0.60483552357E+02 -0.25978281094E+02 -0.27322923865E+02  0.71271827273E+02  0.00000000000E+00 0. -1.
         11    1    1    2    0    0 -0.13604520730E+03  0.26102253075E+02 -0.16842499113E+03  0.21807476627E+03  0.00000000000E+00 0.  1.
<mgrwt>
<rscale>  0 0.40984204E+03</rscale>
<asrwt>0</asrwt>
<pdfrwt beam="2">  1        2 0.72901182E-01 0.50968986E+03</pdfrwt>
<pdfrwt beam="1">  1       -2 0.50395888E-01 0.50968986E+03</pdfrwt>
<totfact> 0.24857927E+02</totfact>
</mgrwt>
</event>
<event>
 6    1  0.5818426E-006  0.2322292E+03  0.7546771E-02  0.1125080E+00
         -2   -1    0    0    0  501 -0.00000000000E+00  0.00000000000E+00  0.31795139716E+02  0.31795139716E+02  0.00000000000E+00 0.  1.
          2   -1    0    0  501    0  0.00000000000E+00 -0.00000000000E+00 -0.42404612576E+03  0.42404612576E+03  0.00000000000E+00 0. -1.
          5    1    1    2  502    0 -0.69112671958E+02 -0.85105287622E+01 -0.19594538563E+03  0.20800402562E+03  0.47000000000E+01 0. -1.
         -5    1    1    2    0  502  0.12662671229E+02  0.34562072401E+01  0.87446656309E+01  0.16457453878E+02  0.47000000000E+01 0.  1.
        -11    1    1    2    0    0  0.57717328028E+02  0.30344432838E+02 -0.77236797616E+02  0.10108213227E+03  0.00000000000E+00 0. -1.
         11    1    1    2    0    0 -0.12673272996E+01 -0.25290111316E+02 -0.12781346842E+03  0.13029765370E+03  0.00000000000E+00 0.  1.
<mgrwt>
<rscale>  0 0.23222925E+03</rscale>
<asrwt>0</asrwt>
<pdfrwt beam="2">  1        2 0.65237862E-01 0.23222925E+03</pdfrwt>
<pdfrwt beam="1">  1       -2 0.48915602E-02 0.23222925E+03</pdfrwt>
<totfact> 0.14884004E+04</totfact>
</mgrwt>
</event>
<event>
 6    1  0.5818426E-006  0.1440485E+03  0.7546771E-02  0.1218443E+00
         -1   -1    0    0    0  501 -0.00000000000E+00  0.00000000000E+00  0.26678950056E+02  0.26678950056E+02  0.00000000000E+00 0.  1.
          1   -1    0    0  501    0  0.00000000000E+00 -0.00000000000E+00 -0.63069063415E+03  0.63069063415E+03  0.00000000000E+00 0. -1.
          5    1    1    2  502    0  0.27853860220E+02  0.71137994467E+01 -0.21496634555E+02  0.36202748085E+02  0.47000000000E+01 0. -1.
         -5    1    1    2    0  502 -0.77366703868E+02 -0.58846955806E+02 -0.31889997980E+03  0.33341844309E+03  0.47000000000E+01 0. -1.
        -11    1    1    2    0    0  0.58964377874E+02  0.63707189773E+02 -0.25673586852E+03  0.27101422485E+03  0.00000000000E+00 0.  1.
         11    1    1    2    0    0 -0.94515342249E+01 -0.11974033413E+02 -0.68792012229E+01  0.16734168185E+02  0.00000000000E+00 0. -1.
<mgrwt>
<rscale>  0 0.13626629E+03</rscale>
<asrwt>0</asrwt>
<pdfrwt beam="2">  1        1 0.97029332E-01 0.14404850E+03</pdfrwt>
<pdfrwt beam="1">  1       -1 0.41044537E-02 0.14404850E+03</pdfrwt>
<totfact> 0.74794994E+03</totfact>
</mgrwt>
</event>
<event>
 6    1  0.5818426E-006  0.1458316E+03  0.7546771E-02  0.1215199E+00
         -2   -1    0    0    0  501 -0.00000000000E+00  0.00000000000E+00  0.69383579913E+02  0.69383579913E+02  0.00000000000E+00 0.  1.
          2   -1    0    0  501    0  0.00000000000E+00 -0.00000000000E+00 -0.32679750608E+03  0.32679750608E+03  0.00000000000E+00 0. -1.
          5    1    1    2  502    0 -0.84683562213E+02  0.46158092986E+02 -0.19367888421E+02  0.98483909138E+02  0.47000000000E+01 0.  1.
         -5    1    1    2    0  502  0.95771178784E+01 -0.46493035916E+02 -0.25525045262E+02  0.54101215432E+02  0.47000000000E+01 0.  1.
        -11    1    1    2    0    0  0.79458759604E+02 -0.22620837777E+02 -0.10520815836E+03  0.13376902992E+03  0.00000000000E+00 0.  1.
         11    1    1    2    0    0 -0.43523152693E+01  0.22955780707E+02 -0.10731283413E+03  0.10982693151E+03  0.00000000000E+00 0. -1.
<mgrwt>
<rscale>  0 0.13861956E+03</rscale>
<asrwt>0</asrwt>
<pdfrwt beam="2">  1        2 0.50276540E-01 0.14583156E+03</pdfrwt>
<pdfrwt beam="1">  1       -2 0.10674397E-01 0.14583156E+03</pdfrwt>
<totfact> 0.57209767E+03</totfact>
</mgrwt>
</event>
<event>
 6    1  0.5818426E-006  0.1523607E+03  0.7546771E-02  0.1206413E+00
         -2   -1    0    0    0  501 -0.00000000000E+00  0.00000000000E+00  0.14828574062E+02  0.14828574062E+02  0.00000000000E+00 0.  1.
          2   -1    0    0  501    0  0.00000000000E+00 -0.00000000000E+00 -0.13057331918E+04  0.13057331918E+04  0.00000000000E+00 0. -1.
          5    1    1    2  502    0  0.86880433866E+02  0.72345279911E+02 -0.63984617664E+03  0.64977478335E+03  0.47000000000E+01 0. -1.
         -5    1    1    2    0  502 -0.11596576027E+02 -0.28499152011E+02 -0.76391870748E+02  0.82489333597E+02  0.47000000000E+01 0. -1.
        -11    1    1    2    0    0  0.10229078702E+02  0.11741673451E+02 -0.26611298656E+02  0.30832809841E+02  0.00000000000E+00 0.  1.
         11    1    1    2    0    0 -0.85512936542E+02 -0.55587801350E+02 -0.54805527168E+03  0.55746483907E+03  0.00000000000E+00 0. -1.
<mgrwt>
<rscale>  0 0.14526697E+03</rscale>
<asrwt>0</asrwt>
<pdfrwt beam="2">  1        2 0.20088203E+00 0.15236074E+03</pdfrwt>
<pdfrwt beam="1">  1       -2 0.22813191E-02 0.15236074E+03</pdfrwt>
<totfact> 0.10813727E+04</totfact>
</mgrwt>
</event>
<event>
 6    1  0.5818426E-006  0.1741455E+03  0.7546771E-02  0.1180988E+00
         -4   -1    0    0    0  501 -0.00000000000E+00  0.00000000000E+00  0.40968577630E+03  0.40968577630E+03  0.00000000000E+00 0.  1.
          4   -1    0    0  501    0  0.00000000000E+00 -0.00000000000E+00 -0.63727169952E+02  0.63727169952E+02  0.00000000000E+00 0. -1.
          5    1    1    2  502    0 -0.92571410463E+02 -0.63797623617E+02  0.16345479293E+03  0.19844183567E+03  0.47000000000E+01 0. -1.
         -5    1    1    2    0  502 -0.24384638576E+02  0.31808741120E+02 -0.62227616527E-01  0.40354683525E+02  0.47000000000E+01 0. -1.
        -11    1    1    2    0    0  0.65503922097E+01  0.36276303972E+02  0.46638452748E+02  0.59447650439E+02  0.00000000000E+00 0. -1.
         11    1    1    2    0    0  0.11040565683E+03 -0.42874214740E+01  0.13592758829E+03  0.17516877661E+03  0.00000000000E+00 0.  1.
<mgrwt>
<rscale>  0 0.16702362E+03</rscale>
<asrwt>0</asrwt>
<pdfrwt beam="2">  1        4 0.98041802E-02 0.17414548E+03</pdfrwt>
<pdfrwt beam="1">  1       -4 0.63028579E-01 0.17414548E+03</pdfrwt>
<totfact> 0.32619001E+02</totfact>
</mgrwt>
</event>
<event>
 6    1  0.5818426E-006  0.3771855E+03  0.7546771E-02  0.1051979E+00
         -2   -1    0    0    0  501 -0.00000000000E+00  0.00000000000E+00  0.21670147961E+02  0.21670147961E+02  0.00000000000E+00 0.  1.
          2   -1    0    0  501    0  0.00000000000E+00 -0.00000000000E+00 -0.16413004073E+04  0.16413004073E+04  0.00000000000E+00 0. -1.
          5    1    1    2  502    0 -0.51455900526E+02  0.14833813263E+03 -0.48985678896E+03  0.51442557769E+03  0.47000000000E+01 0.  1.
         -5    1    1    2    0  502  0.63467593804E+01 -0.20453025018E+01 -0.28904555592E+03  0.28916066125E+03  0.47000000000E+01 0.  1.
        -11    1    1    2    0    0 -0.99465859910E+01 -0.11372399358E+02 -0.16492883917E+02  0.22366968054E+02  0.00000000000E+00 0.  1.
         11    1    1    2    0    0  0.55055727136E+02 -0.13492043077E+03 -0.82423503057E+03  0.83701734830E+03  0.00000000000E+00 0. -1.
<mgrwt>
<rscale>  0 0.37718549E+03</rscale>
<asrwt>0</asrwt>
<pdfrwt beam="2">  1        2 0.25250775E+00 0.37718549E+03</pdfrwt>
<pdfrwt beam="1">  1       -2 0.33338690E-02 0.37718549E+03</pdfrwt>
<totfact> 0.41519801E+03</totfact>
</mgrwt>
</event>
<event>
 6    1  0.5818426E-006  0.2416013E+03  0.7546771E-02  0.1121041E+00
         -2   -1    0    0    0  501 -0.00000000000E+00  0.00000000000E+00  0.39594913678E+02  0.39594913678E+02  0.00000000000E+00 0.  1.
          2   -1    0    0  501    0  0.00000000000E+00 -0.00000000000E+00 -0.13964133022E+04  0.13964133022E+04  0.00000000000E+00 0. -1.
          5    1    1    2  502    0  0.17461569662E+03  0.95148126038E+02 -0.53977241427E+03  0.57525660066E+03  0.47000000000E+01 0. -1.
         -5    1    1    2    0  502  0.21157587754E+02 -0.28042329853E+02 -0.19566522016E+03  0.19884914927E+03  0.47000000000E+01 0. -1.
        -11    1    1    2    0    0 -0.73248248288E+02 -0.75533336791E+02 -0.28442124221E+03  0.30325902108E+03  0.00000000000E+00 0.  1.
         11    1    1    2    0    0 -0.12252503608E+03  0.84275406065E+01 -0.33695951189E+03  0.35864344489E+03  0.00000000000E+00 0. -1.
<mgrwt>
<rscale>  0 0.23813639E+03</rscale>
<asrwt>0</asrwt>
<pdfrwt beam="2">  1        2 0.21483283E+00 0.24160132E+03</pdfrwt>
<pdfrwt beam="1">  1       -2 0.60915248E-02 0.24160132E+03</pdfrwt>
<totfact> 0.22448961E+03</totfact>
</mgrwt>
</event>
<event>
 6    1  0.5818426E-006  0.2597940E+03  0.7546771E-02  0.1109485E+00
         -2   -1    0    0    0  501 -0.00000000000E+00  0.00000000000E+00  0.81343889933E+03  0.81343889933E+03  0.00000000000E+00 0.  1.
          2   -1    0    0  501    0  0.00000000000E+00 -0.00000000000E+00 -0.93196279629E+02  0.93196279629E+02  0.00000000000E+00 0. -1.
          5    1    1    2  502    0  0.77502204566E+02  0.16446511620E+02  0.34130438490E+03  0.35041097673E+03  0.47000000000E+01 0.  1.
         -5    1    1    2    0  502  0.13042441625E+03  0.76487009868E+02  0.20757883527E+03  0.25684986643E+03  0.47000000000E+01 0.  1.
        -11    1    1    2    0    0 -0.13709970179E+03 -0.63095524302E+02  0.56452821683E+02  0.16113439885E+03  0.00000000000E+00 0. -1.
         11    1    1    2    0    0 -0.70826919034E+02 -0.29837997186E+02  0.11490657784E+03  0.13823993695E+03  0.00000000000E+00 0.  1.
<mgrwt>
<rscale>  0 0.25613940E+03</rscale>
<asrwt>0</asrwt>
<pdfrwt beam="2">  1        2 0.14337890E-01 0.25979404E+03</pdfrwt>
<pdfrwt beam="1">  1       -2 0.12514444E+00 0.25979404E+03</pdfrwt>
<totfact> 0.20663867E+02</totfact>
</mgrwt>
</event>
<event>
 6    1  0.5818426E-006  0.1430625E+03  0.7546771E-02  0.1220030E+00
          1   -1    0    0  501    0  0.00000000000E+00  0.00000000000E+00  0.82490242631E+02  0.82490242631E+02  0.00000000000E+00 0. -1.
         -1   -1    0    0    0  501 -0.00000000000E+00 -0.00000000000E+00 -0.22176247366E+03  0.22176247366E+03  0.00000000000E+00 0.  1.
          5    1    1    2  502    0  0.79171761406E+02 -0.48741035514E+02 -0.54584129656E+02  0.10791373202E+03  0.47000000000E+01 0.  1.
         -5    1    1    2    0  502 -0.13856256081E+02  0.24755524819E+02  0.25083268694E+02  0.38158776317E+02  0.47000000000E+01 0.  1.
        -11    1    1    2    0    0 -0.12450591561E+02  0.15190297724E+02 -0.10218370048E+03  0.10405417349E+03  0.00000000000E+00 0.  1.
         11    1    1    2    0    0 -0.52864913763E+02  0.87952129714E+01 -0.75876695871E+01  0.54126034477E+02  0.00000000000E+00 0. -1.
<mgrwt>
<rscale>  0 0.13513473E+03</rscale>
<asrwt>0</asrwt>
<pdfrwt beam="1">  1        1 0.12690807E-01 0.14306249E+03</pdfrwt>
<pdfrwt beam="2">  1       -1 0.34117303E-01 0.14306249E+03</pdfrwt>
<totfact> 0.36675997E+03</totfact>
</mgrwt>
</event>
<event>
 6    1  0.5818426E-006  0.2558470E+03  0.7546771E-02  0.1111772E+00
         -1   -1    0    0    0  501 -0.00000000000E+00  0.00000000000E+00  0.32073918314E+03  0.32073918314E+03  0.00000000000E+00 0.  1.
          1   -1    0    0  501    0  0.00000000000E+00 -0.00000000000E+00 -0.19356807678E+03  0.19356807678E+03  0.00000000000E+00 0. -1.
          5    1    1    2  502    0  0.68805215503E+02  0.32527615658E+01 -0.35546281451E+02  0.77655432928E+02  0.47000000000E+01 0.  1.
         -5    1    1    2    0  502  0.15152411263E+03 -0.39456118141E+02  0.10115726018E+03  0.18647043534E+03  0.47000000000E+01 0.  1.
        -11    1    1    2    0    0 -0.68563858506E+02 -0.11176210680E+02  0.59046361205E+02  0.91172271826E+02  0.00000000000E+00 0.  1.
         11    1    1    2    0    0 -0.15176546963E+03  0.47379567256E+02  0.25137664288E+01  0.15900911982E+03  0.00000000000E+00 0. -1.
<mgrwt>
<rscale>  0 0.25244012E+03</rscale>
<asrwt>0</asrwt>
<pdfrwt beam="2">  1        1 0.29779704E-01 0.25584697E+03</pdfrwt>
<pdfrwt beam="1">  1       -1 0.49344490E-01 0.25584697E+03</pdfrwt>
<totfact> 0.64553744E+02</totfact>
</mgrwt>
</event>
<event>
 6    1  0.5818426E-006  0.1513018E+03  0.7546771E-02  0.1207902E+00
          1   -1    0    0  501    0  0.00000000000E+00  0.00000000000E+00  0.28218306265E+03  0.28218306265E+03  0.00000000000E+00 0. -1.
         -1   -1    0    0    0  501 -0.00000000000E+00 -0.00000000000E+00 -0.67841361404E+02  0.67841361404E+02  0.00000000000E+00 0.  1.
          5    1    1    2  502    0 -0.46968305654E+02  0.75472722276E+02  0.53030008222E+02  0.10361672315E+03  0.47000000000E+01 0. -1.
         -5    1    1    2    0  502  0.60893946874E+02  0.86276616838E+01  0.50472851321E+02  0.79700113127E+02  0.47000000000E+01 0. -1.
        -11    1    1    2    0    0 -0.21224549610E+02 -0.97536600201E+02  0.66848984205E+02  0.12013599200E+03  0.00000000000E+00 0.  1.
         11    1    1    2    0    0  0.72989083899E+01  0.13436216241E+02  0.43989857501E+02  0.46571595780E+02  0.00000000000E+00 0. -1.
<mgrwt>
<rscale>  0 0.14411064E+03</rscale>
<asrwt>0</asrwt>
<pdfrwt beam="1">  1        1 0.43412778E-01 0.15130175E+03</pdfrwt>
<pdfrwt beam="2">  1       -1 0.10437133E-01 0.15130175E+03</pdfrwt>
<totfact> 0.52045134E+03</totfact>
</mgrwt>
</event>
<event>
 6    1  0.5818426E-006  0.1251258E+03  0.7546771E-02  0.1250498E+00
         -4   -1    0    0    0  501 -0.00000000000E+00  0.00000000000E+00  0.79088591065E+03  0.79088591065E+03  0.00000000000E+00 0.  1.
          4   -1    0    0  501    0  0.00000000000E+00 -0.00000000000E+00 -0.15345790472E+02  0.15345790472E+02  0.00000000000E+00 0. -1.
          5    1    1    2  502    0  0.30936808186E+02  0.50238557766E+02  0.29486321038E+03  0.30074474496E+03  0.47000000000E+01 0. -1.
         -5    1    1    2    0  502 -0.35827078909E+02 -0.53083323047E+02  0.22684671064E+03  0.23576034208E+03  0.47000000000E+01 0. -1.
        -11    1    1    2    0    0  0.25539248503E+02  0.28053300490E+02  0.21807436542E+03  0.22134965493E+03  0.00000000000E+00 0. -1.
         11    1    1    2    0    0 -0.20648977781E+02 -0.25208535209E+02  0.35755833738E+02  0.48376959155E+02  0.00000000000E+00 0.  1.
<mgrwt>
<rscale>  0 0.11562268E+03</rscale>
<asrwt>0</asrwt>
<pdfrwt beam="2">  1        4 0.23608915E-02 0.12512580E+03</pdfrwt>
<pdfrwt beam="1">  1       -4 0.12167472E+00 0.12512580E+03</pdfrwt>
<totfact> 0.68834981E+02</totfact>
</mgrwt>
</event>
<event>
 6    1  0.5818426E-006  0.1546718E+03  0.7546771E-02  0.1205050E+00
         -3   -1    0    0    0  501 -0.00000000000E+00  0.00000000000E+00  0.22001524269E+03  0.22001524269E+03  0.00000000000E+00 0.  1.
          3   -1    0    0  501    0  0.00000000000E+00 -0.00000000000E+00 -0.88759901944E+02  0.88759901944E+02  0.00000000000E+00 0. -1.
          5    1    1    2  502    0 -0.51280783315E+02 -0.83224880140E+02  0.41154721316E+02  0.10616920692E+03  0.47000000000E+01 0. -1.
         -5    1    1    2    0  502  0.54737704835E+02 -0.16446487838E+01  0.43918076362E+02  0.70354876388E+02  0.47000000000E+01 0.  1.
        -11    1    1    2    0    0 -0.12534390006E+02  0.29735792811E+01 -0.21871509533E+02  0.25383381095E+02  0.00000000000E+00 0. -1.
         11    1    1    2    0    0  0.90774684865E+01  0.81895949643E+02  0.68054052599E+02  0.10686768023E+03  0.00000000000E+00 0.  1.
<mgrwt>
<rscale>  0 0.14633510E+03</rscale>
<asrwt>0</asrwt>
<pdfrwt beam="2">  1        3 0.13655370E-01 0.15467182E+03</pdfrwt>
<pdfrwt beam="1">  1       -3 0.33848499E-01 0.15467182E+03</pdfrwt>
<totfact> 0.87873729E+02</totfact>
</mgrwt>
</event>
<event>
 6    1  0.5818426E-006  0.1274627E+03  0.7546771E-02  0.1243851E+00
          1   -1    0    0  501    0  0.00000000000E+00  0.00000000000E+00  0.95165082445E+02  0.95165082445E+02  0.00000000000E+00 0. -1.
         -1   -1    0    0    0  501 -0.00000000000E+00 -0.00000000000E+00 -0.13878029100E+03  0.13878029100E+03  0.00000000000E+00 0.  1.
          5    1    1    2  502    0  0.63387415921E+02  0.68205771482E+01 -0.12557560583E+02  0.65148039860E+02  0.47000000000E+01 0.  1.
         -5    1    1    2    0  502 -0.59212902609E+02  0.17753694524E+02 -0.32850804671E+02  0.70161434365E+02  0.47000000000E+01 0.  1.
        -11    1    1    2    0    0 -0.49327418046E+02 -0.13395772645E+02 -0.60233458050E+01  0.51467675200E+02  0.00000000000E+00 0.  1.
         11    1    1    2    0    0  0.45152904733E+02 -0.11178499028E+02  0.78165024990E+01  0.47168224025E+02  0.00000000000E+00 0. -1.
<mgrwt>
<rscale>  0 0.11954408E+03</rscale>
<asrwt>0</asrwt>
<pdfrwt beam="1">  1        1 0.14640782E-01 0.12746268E+03</pdfrwt>
<pdfrwt beam="2">  1       -1 0.21350814E-01 0.12746268E+03</pdfrwt>
<totfact> 0.65778298E+03</totfact>
</mgrwt>
</event>
<event>
 6    1  0.5818426E-006  0.1301256E+03  0.7546771E-02  0.1240848E+00
          1   -1    0    0  501    0  0.00000000000E+00  0.00000000000E+00  0.70257182079E+02  0.70257182079E+02  0.00000000000E+00 0. -1.
         -1   -1    0    0    0  501 -0.00000000000E+00 -0.00000000000E+00 -0.18616349533E+03  0.18616349533E+03  0.00000000000E+00 0.  1.
          5    1    1    2  502    0  0.13109058505E+02 -0.76220522000E+02 -0.66741237307E+02  0.10226386530E+03  0.47000000000E+01 0.  1.
         -5    1    1    2    0  502 -0.96479587810E+01  0.40216496053E+02  0.47124624286E+01  0.41889699993E+02  0.47000000000E+01 0.  1.
        -11    1    1    2    0    0 -0.23336363109E+02  0.47432937604E+02  0.91562882471E+00  0.52870670405E+02  0.00000000000E+00 0. -1.
         11    1    1    2    0    0  0.19875263385E+02 -0.11428911657E+02 -0.54793167195E+02  0.59396441707E+02  0.00000000000E+00 0.  1.
<mgrwt>
<rscale>  0 0.12137378E+03</rscale>
<asrwt>0</asrwt>
<pdfrwt beam="1">  1        1 0.10808797E-01 0.13012564E+03</pdfrwt>
<pdfrwt beam="2">  1       -1 0.28640538E-01 0.13012564E+03</pdfrwt>
<totfact> 0.60505543E+03</totfact>
</mgrwt>
</event>
<event>
 6    1  0.5818426E-006  0.1265048E+03  0.7546771E-02  0.1248273E+00
         -1   -1    0    0    0  501 -0.00000000000E+00  0.00000000000E+00  0.23776370893E+02  0.23776370893E+02  0.00000000000E+00 0.  1.
          1   -1    0    0  501    0  0.00000000000E+00 -0.00000000000E+00 -0.50579024284E+03  0.50579024284E+03  0.00000000000E+00 0. -1.
          5    1    1    2  502    0  0.45909297740E+02  0.44489259763E+02 -0.88028778844E+02  0.10889496663E+03  0.47000000000E+01 0.  1.
         -5    1    1    2    0  502 -0.36417895055E+02 -0.27501236312E+02 -0.20856310286E+03  0.21354914880E+03  0.47000000000E+01 0.  1.
        -11    1    1    2    0    0 -0.35862952216E+02 -0.33174519734E+02 -0.57216714728E+02  0.75235979062E+02  0.00000000000E+00 0.  1.
         11    1    1    2    0    0  0.26371549532E+02  0.16186496284E+02 -0.12820527551E+03  0.13188651924E+03  0.00000000000E+00 0. -1.
<mgrwt>
<rscale>  0 0.11691631E+03</rscale>
<asrwt>0</asrwt>
<pdfrwt beam="2">  1        1 0.77813886E-01 0.12650480E+03</pdfrwt>
<pdfrwt beam="1">  1       -1 0.36579031E-02 0.12650480E+03</pdfrwt>
<totfact> 0.11802944E+04</totfact>
</mgrwt>
</event>
<event>
 6    1  0.6395267E-006  0.3235300E+03  0.7546771E-02  0.1075299E+00
         -1   -1    0    0    0  501 -0.00000000000E+00  0.00000000000E+00  0.29221022947E+03  0.29221022947E+03  0.00000000000E+00 0.  1.
          1   -1    0    0  501    0  0.00000000000E+00 -0.00000000000E+00 -0.35755159446E+03  0.35755159446E+03  0.00000000000E+00 0. -1.
          5    1    1    2  502    0 -0.12248634026E+03  0.16418533749E+03 -0.11473679027E+03  0.23483259918E+03  0.47000000000E+01 0.  1.
         -5    1    1    2    0  502 -0.83882360772E+02  0.51354471850E+02  0.23666789662E+02  0.10127062338E+03  0.47000000000E+01 0.  1.
        -11    1    1    2    0    0  0.51424981593E+02 -0.11681530965E+03  0.24321936025E+02  0.12993037317E+03  0.00000000000E+00 0.  1.
         11    1    1    2    0    0  0.15494371944E+03 -0.98724499688E+02  0.14066995932E+01  0.18372822820E+03  0.00000000000E+00 0. -1.
<mgrwt>
<rscale>  0 0.32076256E+03</rscale>
<asrwt>0</asrwt>
<pdfrwt beam="2">  1        1 0.55007938E-01 0.32352995E+03</pdfrwt>
<pdfrwt beam="1">  1       -1 0.44955420E-01 0.32352995E+03</pdfrwt>
<totfact> 0.35123005E+02</totfact>
</mgrwt>
</event>
<event>
 6    1  0.5818426E-006  0.1266456E+03  0.7546771E-02  0.1247713E+00
          2   -1    0    0  501    0  0.00000000000E+00  0.00000000000E+00  0.97735577295E+02  0.97735577295E+02  0.00000000000E+00 0. -1.
         -2   -1    0    0    0  501 -0.00000000000E+00 -0.00000000000E+00 -0.12590024472E+03  0.12590024472E+03  0.00000000000E+00 0.  1.
          5    1    1    2  502    0  0.52302822021E+02 -0.12372390687E+02 -0.63948709121E+02  0.83667129991E+02  0.47000000000E+01 0.  1.
         -5    1    1    2    0  502 -0.33259123425E+02  0.52132407808E+01  0.32281194321E+02  0.46877635150E+02  0.47000000000E+01 0.  1.
        -11    1    1    2    0    0  0.16656414793E+02 -0.11014138024E+02 -0.33211356924E+02  0.38752311143E+02  0.00000000000E+00 0.  1.
         11    1    1    2    0    0 -0.35700113389E+02  0.18173287930E+02  0.36714204300E+02  0.54338745731E+02  0.00000000000E+00 0. -1.
<mgrwt>
<rscale>  0 0.11724454E+03</rscale>
<asrwt>0</asrwt>
<pdfrwt beam="1">  1        2 0.15036243E-01 0.12664559E+03</pdfrwt>
<pdfrwt beam="2">  1       -2 0.19369268E-01 0.12664559E+03</pdfrwt>
<totfact> 0.80987386E+03</totfact>
</mgrwt>
</event>
<event>
 6    1  0.5818426E-006  0.1267394E+03  0.7546771E-02  0.1248346E+00
         -2   -1    0    0    0  501 -0.00000000000E+00  0.00000000000E+00  0.49654488336E+02  0.49654488336E+02  0.00000000000E+00 0.  1.
          2   -1    0    0  501    0  0.00000000000E+00 -0.00000000000E+00 -0.24455196152E+03  0.24455196152E+03  0.00000000000E+00 0. -1.
          5    1    1    2  502    0  0.33881359399E+02 -0.46251295041E+02 -0.72216979045E+02  0.92328277738E+02  0.47000000000E+01 0. -1.
         -5    1    1    2    0  502 -0.17192129734E+02  0.58896517673E+02 -0.21069104322E+02  0.65041265945E+02  0.47000000000E+01 0. -1.
        -11    1    1    2    0    0 -0.30983506327E+01  0.33398041333E+02 -0.12838512275E+02  0.35914570010E+02  0.00000000000E+00 0.  1.
         11    1    1    2    0    0 -0.13590879032E+02 -0.46043263965E+02 -0.88772877542E+02  0.10092233616E+03  0.00000000000E+00 0. -1.
<mgrwt>
<rscale>  0 0.11687328E+03</rscale>
<asrwt>0</asrwt>
<pdfrwt beam="2">  1        2 0.37623378E-01 0.12673942E+03</pdfrwt>
<pdfrwt beam="1">  1       -2 0.76391521E-02 0.12673942E+03</pdfrwt>
<totfact> 0.12978692E+04</totfact>
</mgrwt>
</event>
<event>
 6    1  0.5818426E-006  0.2889997E+03  0.7546771E-02  0.1090873E+00
         -4   -1    0    0    0  501 -0.00000000000E+00  0.00000000000E+00  0.12965224152E+04  0.12965224152E+04  0.00000000000E+00 0.  1.
          4   -1    0    0  501    0  0.00000000000E+00 -0.00000000000E+00 -0.16104781184E+02  0.16104781184E+02  0.00000000000E+00 0. -1.
          5    1    1    2  502    0 -0.36639401021E+02  0.27302075196E+01  0.12140987371E+03  0.12693442077E+03  0.47000000000E+01 0. -1.
         -5    1    1    2    0  502  0.50799428494E+02  0.47689482428E+02  0.93998741295E+03  0.94257800482E+03  0.47000000000E+01 0.  1.
        -11    1    1    2    0    0  0.20350301426E+02 -0.34976443294E+02  0.19305195592E+03  0.19724741833E+03  0.00000000000E+00 0.  1.
         11    1    1    2    0    0 -0.34510328899E+02 -0.15443246654E+02  0.25968391418E+02  0.45867352450E+02  0.00000000000E+00 0. -1.
<mgrwt>
<rscale>  0 0.28899972E+03</rscale>
<asrwt>0</asrwt>
<pdfrwt beam="2">  1        4 0.24776597E-02 0.28899972E+03</pdfrwt>
<pdfrwt beam="1">  1       -4 0.19946490E+00 0.28899972E+03</pdfrwt>
<totfact> 0.19844696E+02</totfact>
</mgrwt>
</event>
<event>
 6    1  0.5818426E-006  0.2092310E+03  0.7546771E-02  0.1146175E+00
          2   -1    0    0  501    0  0.00000000000E+00  0.00000000000E+00  0.12770505319E+04  0.12770505319E+04  0.00000000000E+00 0. -1.
         -2   -1    0    0    0  501 -0.00000000000E+00 -0.00000000000E+00 -0.32289465808E+02  0.32289465808E+02  0.00000000000E+00 0.  1.
          5    1    1    2  502    0 -0.12546991773E+03 -0.57455998014E+01  0.20632751336E+03  0.24159645059E+03  0.47000000000E+01 0. -1.
         -5    1    1    2    0  502 -0.36165134811E+02 -0.39278052560E+02  0.32595136506E+03  0.33032872229E+03  0.47000000000E+01 0. -1.
        -11    1    1    2    0    0  0.54791374522E+02  0.35529847669E+02  0.13392128450E+03  0.14899454768E+03  0.00000000000E+00 0.  1.
         11    1    1    2    0    0  0.10684367802E+03  0.94938046929E+01  0.57856090316E+03  0.58842027712E+03  0.00000000000E+00 0. -1.
<mgrwt>
<rscale>  0 0.20428320E+03</rscale>
<asrwt>0</asrwt>
<pdfrwt beam="1">  1        2 0.19646927E+00 0.20923097E+03</pdfrwt>
<pdfrwt beam="2">  1       -2 0.49676111E-02 0.20923097E+03</pdfrwt>
<totfact> 0.35589680E+03</totfact>
</mgrwt>
</event>
<event>
 6    1  0.5818426E-006  0.1332949E+03  0.7546771E-02  0.1234664E+00
          1   -1    0    0  501    0  0.00000000000E+00  0.00000000000E+00  0.27256857339E+02  0.27256857339E+02  0.00000000000E+00 0. -1.
         -1   -1    0    0    0  501 -0.00000000000E+00 -0.00000000000E+00 -0.51677164754E+03  0.51677164754E+03  0.00000000000E+00 0.  1.
          5    1    1    2  502    0  0.20657447246E+02 -0.32841353111E+02 -0.14109473542E+03  0.14640730502E+03  0.47000000000E+01 0.  1.
         -5    1    1    2    0  502 -0.49536442898E+02  0.69029301188E+02 -0.12512829460E+03  0.15132112776E+03  0.47000000000E+01 0.  1.
        -11    1    1    2    0    0  0.83491869548E+01 -0.53428524956E+02 -0.20907437885E+03  0.21595465287E+03  0.00000000000E+00 0.  1.
         11    1    1    2    0    0  0.20529808697E+02  0.17240576879E+02 -0.14217381326E+02  0.30345419226E+02  0.00000000000E+00 0. -1.
<mgrwt>
<rscale>  0 0.12525951E+03</rscale>
<asrwt>0</asrwt>
<pdfrwt beam="1">  1        1 0.41933629E-02 0.13329485E+03</pdfrwt>
<pdfrwt beam="2">  1       -1 0.79503327E-01 0.13329485E+03</pdfrwt>
<totfact> 0.33784220E+03</totfact>
</mgrwt>
</event>
<event>
 6    1  0.5818426E-006  0.1267024E+03  0.7546771E-02  0.1247594E+00
          2   -1    0    0  501    0  0.00000000000E+00  0.00000000000E+00  0.45376734707E+03  0.45376734707E+03  0.00000000000E+00 0. -1.
         -2   -1    0    0    0  501 -0.00000000000E+00 -0.00000000000E+00 -0.29171185232E+02  0.29171185232E+02  0.00000000000E+00 0.  1.
          5    1    1    2  502    0  0.35215646181E+02 -0.27082836617E+02  0.12729025631E+03  0.13490189446E+03  0.47000000000E+01 0.  1.
         -5    1    1    2    0  502 -0.46942146045E+02  0.44124851803E+02  0.44006192599E+02  0.78161388223E+02  0.47000000000E+01 0.  1.
        -11    1    1    2    0    0  0.37868002688E+02  0.23534466330E+02  0.11140730327E+03  0.11999768312E+03  0.00000000000E+00 0. -1.
         11    1    1    2    0    0 -0.26141502824E+02 -0.40576481516E+02  0.14189240966E+03  0.14987756650E+03  0.00000000000E+00 0.  1.
<mgrwt>
<rscale>  0 0.11731481E+03</rscale>
<asrwt>0</asrwt>
<pdfrwt beam="1">  1        2 0.69810356E-01 0.12670236E+03</pdfrwt>
<pdfrwt beam="2">  1       -2 0.44878750E-02 0.12670236E+03</pdfrwt>
<totfact> 0.15044196E+04</totfact>
</mgrwt>
</event>
<event>
 6    1  0.5818426E-006  0.1727273E+03  0.7546771E-02  0.1180978E+00
          1   -1    0    0  501    0  0.00000000000E+00  0.00000000000E+00  0.19248352604E+03  0.19248352604E+03  0.00000000000E+00 0. -1.
         -1   -1    0    0    0  501 -0.00000000000E+00 -0.00000000000E+00 -0.13729246882E+03  0.13729246882E+03  0.00000000000E+00 0.  1.
          5    1    1    2  502    0  0.10214134093E+02  0.55704936951E+02 -0.55950204818E+01  0.57103089147E+02  0.47000000000E+01 0.  1.
         -5    1    1    2    0  502  0.10772614403E+03 -0.38464973940E+02  0.20068089165E+02  0.11622949080E+03  0.47000000000E+01 0.  1.
        -11    1    1    2    0    0 -0.30391870693E+02  0.36037654249E+02  0.29989578190E+01  0.47237401241E+02  0.00000000000E+00 0.  1.
         11    1    1    2    0    0 -0.87548407430E+02 -0.53277617261E+02  0.37719030715E+02  0.10920601367E+03  0.00000000000E+00 0. -1.
<mgrwt>
<rscale>  0 0.16703291E+03</rscale>
<asrwt>0</asrwt>
<pdfrwt beam="1">  1        1 0.29612850E-01 0.17272728E+03</pdfrwt>
<pdfrwt beam="2">  1       -1 0.21121918E-01 0.17272728E+03</pdfrwt>
<totfact> 0.27791380E+03</totfact>
</mgrwt>
</event>
<event>
 6    1  0.5818426E-006  0.1520178E+03  0.7546771E-02  0.1207098E+00
          2   -1    0    0  501    0  0.00000000000E+00  0.00000000000E+00  0.56524900619E+03  0.56524900619E+03  0.00000000000E+00 0. -1.
         -2   -1    0    0    0  501 -0.00000000000E+00 -0.00000000000E+00 -0.39528175720E+02  0.39528175720E+02  0.00000000000E+00 0.  1.
          5    1    1    2  502    0 -0.88759677381E+02  0.17840334930E+02  0.62819382698E+02  0.11029470849E+03  0.47000000000E+01 0.  1.
         -5    1    1    2    0  502  0.25155539382E+02  0.40826043481E+02  0.10867137499E+03  0.11887440738E+03  0.47000000000E+01 0.  1.
        -11    1    1    2    0    0  0.49333554597E+02 -0.35187573222E+02  0.33863742637E+03  0.34401638254E+03  0.00000000000E+00 0. -1.
         11    1    1    2    0    0  0.14270583402E+02 -0.23478805189E+02  0.15592646410E+02  0.31591683491E+02  0.00000000000E+00 0.  1.
<mgrwt>
<rscale>  0 0.14473380E+03</rscale>
<asrwt>0</asrwt>
<pdfrwt beam="1">  1        2 0.86961380E-01 0.15201777E+03</pdfrwt>
<pdfrwt beam="2">  1       -2 0.60812582E-02 0.15201777E+03</pdfrwt>
<totfact> 0.75690390E+03</totfact>
</mgrwt>
</event>
<event>
 6    1  0.5818426E-006  0.1815605E+03  0.7546771E-02  0.1172064E+00
         -2   -1    0    0    0  501 -0.00000000000E+00  0.00000000000E+00  0.12533407390E+03  0.12533407390E+03  0.00000000000E+00 0.  1.
          2   -1    0    0  501    0  0.00000000000E+00 -0.00000000000E+00 -0.34246756480E+03  0.34246756480E+03  0.00000000000E+00 0. -1.
          5    1    1    2  502    0 -0.44021187885E+02  0.35817402181E+02  0.14633055081E+02  0.58795982709E+02  0.47000000000E+01 0. -1.
         -5    1    1    2    0  502  0.85726916494E+02  0.89075880127E+02  0.49154041164E+01  0.12381384345E+03  0.47000000000E+01 0. -1.
        -11    1    1    2    0    0 -0.58606244984E+02 -0.36355758062E+02 -0.10126343826E+03  0.12251823139E+03  0.00000000000E+00 0. -1.
         11    1    1    2    0    0  0.16900516375E+02 -0.88537524246E+02 -0.13541851184E+03  0.16267358114E+03  0.00000000000E+00 0.  1.
<mgrwt>
<rscale>  0 0.17566710E+03</rscale>
<asrwt>0</asrwt>
<pdfrwt beam="2">  1        2 0.52687317E-01 0.18156048E+03</pdfrwt>
<pdfrwt beam="1">  1       -2 0.19282165E-01 0.18156048E+03</pdfrwt>
<totfact> 0.20900431E+03</totfact>
</mgrwt>
</event>
<event>
 6    1  0.5818426E-006  0.1453007E+03  0.7546771E-02  0.1218715E+00
         -2   -1    0    0    0  501 -0.00000000000E+00  0.00000000000E+00  0.38200573771E+02  0.38200573771E+02  0.00000000000E+00 0.  1.
          2   -1    0    0  501    0  0.00000000000E+00 -0.00000000000E+00 -0.48564477366E+03  0.48564477366E+03  0.00000000000E+00 0. -1.
          5    1    1    2  502    0 -0.91891506309E+02 -0.23960767001E+02 -0.81092468316E+02  0.12496497791E+03  0.47000000000E+01 0. -1.
         -5    1    1    2    0  502  0.19548495781E+02  0.39910865186E+02 -0.82590140707E+02  0.93905496054E+02  0.47000000000E+01 0. -1.
        -11    1    1    2    0    0 -0.10400469856E+01  0.26554941877E+02 -0.57551494972E+02  0.63391018365E+02  0.00000000000E+00 0.  1.
         11    1    1    2    0    0  0.73383057513E+02 -0.42505040063E+02 -0.22621009590E+03  0.24158385510E+03  0.00000000000E+00 0. -1.
<mgrwt>
<rscale>  0 0.13607140E+03</rscale>
<asrwt>0</asrwt>
<pdfrwt beam="2">  1        2 0.74714584E-01 0.14530068E+03</pdfrwt>
<pdfrwt beam="1">  1       -2 0.58770111E-02 0.14530068E+03</pdfrwt>
<totfact> 0.94101299E+03</totfact>
</mgrwt>
</event>
<event>
 6    1  0.5818426E-006  0.2239366E+03  0.7546771E-02  0.1134551E+00
         -1   -1    0    0    0  501 -0.00000000000E+00  0.00000000000E+00  0.16130955622E+03  0.16130955622E+03  0.00000000000E+00 0.  1.
          1   -1    0    0  501    0  0.00000000000E+00 -0.00000000000E+00 -0.28636568327E+03  0.28636568327E+03  0.00000000000E+00 0. -1.
          5    1    1    2  502    0 -0.87579078277E+01  0.10572590015E+03 -0.10336121717E+03  0.14819007432E+03  0.47000000000E+01 0.  1.
         -5    1    1    2    0  502  0.32566548727E+02  0.78536389833E+02  0.25515302514E+02  0.88891311647E+02  0.47000000000E+01 0.  1.
        -11    1    1    2    0    0 -0.30837051289E+02 -0.59548101737E+02 -0.53109573988E+02  0.85542544981E+02  0.00000000000E+00 0. -1.
         11    1    1    2    0    0  0.70284103903E+01 -0.12471418824E+03  0.58993615996E+01  0.12505130854E+03  0.00000000000E+00 0.  1.
<mgrwt>
<rscale>  0 0.21910692E+03</rscale>
<asrwt>0</asrwt>
<pdfrwt beam="2">  1        1 0.44056259E-01 0.22393659E+03</pdfrwt>
<pdfrwt beam="1">  1       -1 0.24816855E-01 0.22393659E+03</pdfrwt>
<totfact> 0.13064188E+03</totfact>
</mgrwt>
</event>
<event>
 6    1  0.5818426E-006  0.1365448E+03  0.7546771E-02  0.1227741E+00
          2   -1    0    0  501    0  0.00000000000E+00  0.00000000000E+00  0.25639695712E+03  0.25639695712E+03  0.00000000000E+00 0. -1.
         -2   -1    0    0    0  501 -0.00000000000E+00 -0.00000000000E+00 -0.12167607676E+03  0.12167607676E+03  0.00000000000E+00 0.  1.
          5    1    1    2  502    0 -0.42881988422E+02 -0.42053813082E+02 -0.15726633914E+02  0.62263995535E+02  0.47000000000E+01 0. -1.
         -5    1    1    2    0  502  0.72712770376E+02 -0.14452918204E+02 -0.47806630792E+02  0.88337974666E+02  0.47000000000E+01 0.  1.
        -11    1    1    2    0    0 -0.48187069560E+02  0.99717012851E+01  0.46570388889E+02  0.67751233351E+02  0.00000000000E+00 0.  1.
         11    1    1    2    0    0  0.18356287605E+02  0.46535030001E+02  0.15168375617E+03  0.15971983033E+03  0.00000000000E+00 0. -1.
<mgrwt>
<rscale>  0 0.12980810E+03</rscale>
<asrwt>0</asrwt>
<pdfrwt beam="1">  1        2 0.39445686E-01 0.13654478E+03</pdfrwt>
<pdfrwt beam="2">  1       -2 0.18719396E-01 0.13654478E+03</pdfrwt>
<totfact> 0.29583603E+03</totfact>
</mgrwt>
</event>
<event>
 6    1  0.5818426E-006  0.2009193E+03  0.7546771E-02  0.1152841E+00
         -1   -1    0    0    0  501 -0.00000000000E+00  0.00000000000E+00  0.54675193557E+02  0.54675193557E+02  0.00000000000E+00 0.  1.
          1   -1    0    0  501    0  0.00000000000E+00 -0.00000000000E+00 -0.71044582108E+03  0.71044582108E+03  0.00000000000E+00 0. -1.
          5    1    1    2  502    0 -0.11354710465E+03 -0.50624748307E+02 -0.20869436387E+03  0.24296344915E+03  0.47000000000E+01 0. -1.
         -5    1    1    2    0  502 -0.43755717755E+02  0.51547475008E+02 -0.48191860062E+02  0.83163996971E+02  0.47000000000E+01 0. -1.
        -11    1    1    2    0    0  0.10300818198E+03 -0.34328072478E+02 -0.17268862235E+03  0.20398642700E+03  0.00000000000E+00 0.  1.
         11    1    1    2    0    0  0.54294640424E+02  0.33405345778E+02 -0.22619578125E+03  0.23500714151E+03  0.00000000000E+00 0. -1.
<mgrwt>
<rscale>  0 0.19636738E+03</rscale>
<asrwt>0</asrwt>
<pdfrwt beam="2">  1        1 0.10929935E+00 0.20091933E+03</pdfrwt>
<pdfrwt beam="1">  1       -1 0.84115688E-02 0.20091933E+03</pdfrwt>
<totfact> 0.21838319E+03</totfact>
</mgrwt>
</event>
<event>
 6    1  0.5818426E-006  0.2841347E+03  0.7546771E-02  0.1093452E+00
         -1   -1    0    0    0  501 -0.00000000000E+00  0.00000000000E+00  0.45419934784E+03  0.45419934784E+03  0.00000000000E+00 0.  1.
          1   -1    0    0  501    0  0.00000000000E+00 -0.00000000000E+00 -0.44436727573E+02  0.44436727573E+02  0.00000000000E+00 0. -1.
          5    1    1    2  502    0  0.36975070268E+01  0.82811201868E+01 -0.83915755794E+01  0.13219570737E+02  0.47000000000E+01 0.  1.
         -5    1    1    2    0  502 -0.36246291092E+02 -0.77898032142E+02  0.31740886082E+03  0.32886527934E+03  0.47000000000E+01 0.  1.
        -11    1    1    2    0    0  0.55260545816E+02  0.47571188234E+02  0.29622797380E+02  0.78703595842E+02  0.00000000000E+00 0.  1.
         11    1    1    2    0    0 -0.22711761750E+02  0.22045723722E+02  0.71122537646E+02  0.77847629492E+02  0.00000000000E+00 0. -1.
<mgrwt>
<rscale>  0 0.28413471E+03</rscale>
<asrwt>0</asrwt>
<pdfrwt beam="2">  1        1 0.68364199E-02 0.28413471E+03</pdfrwt>
<pdfrwt beam="1">  1       -1 0.69876820E-01 0.28413471E+03</pdfrwt>
<totfact> 0.23188991E+03</totfact>
</mgrwt>
</event>
<event>
 6    1  0.5818426E-006  0.1411237E+03  0.7546771E-02  0.1222694E+00
          1   -1    0    0  501    0  0.00000000000E+00  0.00000000000E+00  0.11191715312E+03  0.11191715312E+03  0.00000000000E+00 0. -1.
         -1   -1    0    0    0  501 -0.00000000000E+00 -0.00000000000E+00 -0.14413868004E+03  0.14413868004E+03  0.00000000000E+00 0.  1.
          5    1    1    2  502    0 -0.70596680517E+02 -0.67839969292E+02 -0.40051126046E+02  0.10588831584E+03  0.47000000000E+01 0.  1.
         -5    1    1    2    0  502  0.16189480444E+02  0.31392980863E+02  0.12762508683E+02  0.37849572684E+02  0.47000000000E+01 0.  1.
        -11    1    1    2    0    0 -0.18097703087E+02  0.24949652359E+02 -0.20836171142E+02  0.37204274455E+02  0.00000000000E+00 0.  1.
         11    1    1    2    0    0  0.72504903161E+02  0.11497336070E+02  0.15903261578E+02  0.75113670180E+02  0.00000000000E+00 0. -1.
<mgrwt>
<rscale>  0 0.13326237E+03</rscale>
<asrwt>0</asrwt>
<pdfrwt beam="1">  1        1 0.17218024E-01 0.14112375E+03</pdfrwt>
<pdfrwt beam="2">  1       -1 0.22175182E-01 0.14112375E+03</pdfrwt>
<totfact> 0.50541016E+03</totfact>
</mgrwt>
</event>
<event>
 6    1  0.5818426E-006  0.1901595E+03  0.7546771E-02  0.1162766E+00
         -4   -1    0    0    0  501 -0.00000000000E+00  0.00000000000E+00  0.68574522533E+03  0.68574522533E+03  0.00000000000E+00 0.  1.
          4   -1    0    0  501    0  0.00000000000E+00 -0.00000000000E+00 -0.64084084985E+02  0.64084084985E+02  0.00000000000E+00 0. -1.
          5    1    1    2  502    0 -0.70037370677E+02 -0.55684615126E+02  0.12189938141E+03  0.15128634717E+03  0.47000000000E+01 0.  1.
         -5    1    1    2    0  502 -0.16075446161E+02 -0.58859856043E+02  0.39039541056E+03  0.39516271232E+03  0.47000000000E+01 0.  1.
        -11    1    1    2    0    0  0.74313991177E+02  0.24700646129E+02  0.68227493680E+02  0.10386376701E+03  0.00000000000E+00 0.  1.
         11    1    1    2    0    0  0.11798825661E+02  0.89843825039E+02  0.41138854698E+02  0.99516483813E+02  0.00000000000E+00 0. -1.
<mgrwt>
<rscale>  0 0.18530474E+03</rscale>
<asrwt>0</asrwt>
<pdfrwt beam="2">  1        4 0.98590905E-02 0.19015946E+03</pdfrwt>
<pdfrwt beam="1">  1       -4 0.10549926E+00 0.19015946E+03</pdfrwt>
<totfact> 0.10349308E+02</totfact>
</mgrwt>
</event>
<event>
 6    1  0.5818426E-006  0.1585741E+03  0.7546771E-02  0.1197178E+00
          3   -1    0    0  501    0  0.00000000000E+00  0.00000000000E+00  0.56477778684E+03  0.56477778684E+03  0.00000000000E+00 0. -1.
         -3   -1    0    0    0  501 -0.00000000000E+00 -0.00000000000E+00 -0.40533899838E+02  0.40533899838E+02  0.00000000000E+00 0.  1.
          5    1    1    2  502    0 -0.41986920459E+01 -0.38353840088E+02  0.10139929082E+02  0.40169070517E+02  0.47000000000E+01 0. -1.
         -5    1    1    2    0  502 -0.93052640781E+02  0.30667024561E+02  0.20334141182E+03  0.22576332765E+03  0.47000000000E+01 0. -1.
        -11    1    1    2    0    0  0.88959756987E+02  0.33078223256E+02  0.15812434270E+03  0.18442156861E+03  0.00000000000E+00 0.  1.
         11    1    1    2    0    0  0.82915758398E+01 -0.25391407729E+02  0.15263820341E+03  0.15495771990E+03  0.00000000000E+00 0. -1.
<mgrwt>
<rscale>  0 0.15271363E+03</rscale>
<asrwt>0</asrwt>
<pdfrwt beam="1">  1        3 0.86888885E-01 0.15857414E+03</pdfrwt>
<pdfrwt beam="2">  1       -3 0.62359850E-02 0.15857414E+03</pdfrwt>
<totfact> 0.47218043E+02</totfact>
</mgrwt>
</event>
<event>
 6    1  0.5818426E-006  0.2267292E+03  0.7546771E-02  0.1132129E+00
         -3   -1    0    0    0  501 -0.00000000000E+00  0.00000000000E+00  0.38819145089E+03  0.38819145089E+03  0.00000000000E+00 0.  1.
          3   -1    0    0  501    0  0.00000000000E+00 -0.00000000000E+00 -0.30531080830E+03  0.30531080830E+03  0.00000000000E+00 0. -1.
          5    1    1    2  502    0  0.64188181589E+02 -0.11761339760E+02  0.12716534236E+03  0.14300897198E+03  0.47000000000E+01 0.  1.
         -5    1    1    2    0  502  0.78382031621E+02  0.13607978618E+03  0.18300112481E+03  0.24119069793E+03  0.47000000000E+01 0.  1.
        -11    1    1    2    0    0 -0.79698253666E+02 -0.43283838882E+02 -0.47651006883E+02  0.10244960128E+03  0.00000000000E+00 0.  1.
         11    1    1    2    0    0 -0.62871959543E+02 -0.81034607534E+02 -0.17963481770E+03  0.20685298800E+03  0.00000000000E+00 0. -1.
<mgrwt>
<rscale>  0 0.22236869E+03</rscale>
<asrwt>0</asrwt>
<pdfrwt beam="2">  1        3 0.46970894E-01 0.22672924E+03</pdfrwt>
<pdfrwt beam="1">  1       -3 0.59721761E-01 0.22672924E+03</pdfrwt>
<totfact> 0.30997440E+01</totfact>
</mgrwt>
</event>
<event>
 6    1  0.5818426E-006  0.2285069E+03  0.7546771E-02  0.1129956E+00
         -2   -1    0    0    0  501 -0.00000000000E+00  0.00000000000E+00  0.95601744994E+02  0.95601744994E+02  0.00000000000E+00 0. -1.
          2   -1    0    0  501    0  0.00000000000E+00 -0.00000000000E+00 -0.81272699027E+03  0.81272699027E+03  0.00000000000E+00 0.  1.
          5    1    1    2  502    0  0.14862549625E+03  0.77974905528E+02 -0.17702850634E+02  0.16883454904E+03  0.47000000000E+01 0. -1.
         -5    1    1    2    0  502  0.20021418838E+02  0.12287564925E+02 -0.73318989795E+02  0.77133687379E+02  0.47000000000E+01 0. -1.
        -11    1    1    2    0    0 -0.26558956500E+02  0.18903112861E+02 -0.15365036986E+03  0.15707050011E+03  0.00000000000E+00 0.  1.
         11    1    1    2    0    0 -0.14208795859E+03 -0.10916558331E+03 -0.47245303499E+03  0.50528999874E+03  0.00000000000E+00 0. -1.
<mgrwt>
<rscale>  0 0.22535003E+03</rscale>
<asrwt>0</asrwt>
<pdfrwt beam="2">  1        2 0.12503492E+00 0.22850689E+03</pdfrwt>
<pdfrwt beam="1">  1       -2 0.14707961E-01 0.22850689E+03</pdfrwt>
<totfact> 0.12305941E+03</totfact>
</mgrwt>
</event>
<event>
 6    1  0.5818426E-006  0.1253404E+03  0.7546771E-02  0.1246861E+00
         -2   -1    0    0    0  501 -0.00000000000E+00  0.00000000000E+00  0.24429583546E+02  0.24429583546E+02  0.00000000000E+00 0.  1.
          2   -1    0    0  501    0  0.00000000000E+00 -0.00000000000E+00 -0.56074361901E+03  0.56074361901E+03  0.00000000000E+00 0. -1.
          5    1    1    2  502    0  0.37175071236E+02  0.12029143553E+02 -0.15027100231E+03  0.15533882436E+03  0.47000000000E+01 0. -1.
         -5    1    1    2    0  502 -0.65631321505E+02  0.77640316074E+01 -0.59632639731E+02  0.89139734522E+02  0.47000000000E+01 0.  1.
        -11    1    1    2    0    0 -0.26628199955E+02  0.16324993314E+02 -0.12191402140E+03  0.12585148014E+03  0.00000000000E+00 0.  1.
         11    1    1    2    0    0  0.55084450224E+02 -0.36118168475E+02 -0.20449637202E+03  0.21484316354E+03  0.00000000000E+00 0. -1.
<mgrwt>
<rscale>  0 0.11774701E+03</rscale>
<asrwt>0</asrwt>
<pdfrwt beam="2">  1        2 0.86268246E-01 0.12534044E+03</pdfrwt>
<pdfrwt beam="1">  1       -2 0.37583976E-02 0.12534044E+03</pdfrwt>
<totfact> 0.15506525E+04</totfact>
</mgrwt>
</event>
<event>
 6    1  0.5818426E-006  0.1354086E+03  0.7546771E-02  0.1231192E+00
         -1   -1    0    0    0  501 -0.00000000000E+00  0.00000000000E+00  0.31109927782E+03  0.31109927782E+03  0.00000000000E+00 0.  1.
          1   -1    0    0  501    0  0.00000000000E+00 -0.00000000000E+00 -0.65769740758E+02  0.65769740758E+02  0.00000000000E+00 0. -1.
          5    1    1    2  502    0 -0.20482200737E+02 -0.59085015055E+01  0.20758558207E+03  0.20873019624E+03  0.47000000000E+01 0. -1.
         -5    1    1    2    0  502  0.31935923156E+02 -0.44910281395E+02  0.25657027895E+02  0.60968923586E+02  0.47000000000E+01 0. -1.
        -11    1    1    2    0    0 -0.27107774516E+01 -0.14385888896E+02 -0.26951764460E+02  0.30670828506E+02  0.00000000000E+00 0. -1.
         11    1    1    2    0    0 -0.87429449677E+01  0.65204671796E+02  0.39038691555E+02  0.76499070249E+02  0.00000000000E+00 0.  1.
<mgrwt>
<rscale>  0 0.12751405E+03</rscale>
<asrwt>0</asrwt>
<pdfrwt beam="2">  1        1 0.10118422E-01 0.13540864E+03</pdfrwt>
<pdfrwt beam="1">  1       -1 0.47861427E-01 0.13540864E+03</pdfrwt>
<totfact> 0.27181499E+03</totfact>
</mgrwt>
</event>
<event>
 6    1  0.5818426E-006  0.1293980E+03  0.7546771E-02  0.1242550E+00
         -2   -1    0    0    0  501 -0.00000000000E+00  0.00000000000E+00  0.12154022098E+03  0.12154022098E+03  0.00000000000E+00 0.  1.
          2   -1    0    0  501    0  0.00000000000E+00 -0.00000000000E+00 -0.11622344428E+03  0.11622344428E+03  0.00000000000E+00 0. -1.
          5    1    1    2  502    0  0.30075273694E+02  0.43925838544E+02 -0.22215008328E+02  0.57875711439E+02  0.47000000000E+01 0.  1.
         -5    1    1    2    0  502  0.32938128493E+01 -0.46602816623E+02  0.61457442418E+02  0.77341961113E+02  0.47000000000E+01 0.  1.
        -11    1    1    2    0    0 -0.11626978506E+02  0.44715729090E+02 -0.29928642565E+02  0.55049129902E+02  0.00000000000E+00 0. -1.
         11    1    1    2    0    0 -0.21742108037E+02 -0.42038751011E+02 -0.39970148266E+01  0.47496862801E+02  0.00000000000E+00 0.  1.
<mgrwt>
<rscale>  0 0.12033242E+03</rscale>
<asrwt>0</asrwt>
<pdfrwt beam="2">  1        2 0.17880530E-01 0.12939803E+03</pdfrwt>
<pdfrwt beam="1">  1       -2 0.18698495E-01 0.12939803E+03</pdfrwt>
<totfact> 0.70444583E+03</totfact>
</mgrwt>
</event>
<event>
 6    1  0.5818426E-006  0.1700090E+03  0.7546771E-02  0.1183994E+00
          2   -1    0    0  501    0  0.00000000000E+00  0.00000000000E+00  0.75611104312E+02  0.75611104312E+02  0.00000000000E+00 0. -1.
         -2   -1    0    0    0  501 -0.00000000000E+00 -0.00000000000E+00 -0.33507706414E+03  0.33507706414E+03  0.00000000000E+00 0.  1.
          5    1    1    2  502    0  0.81757195345E+01  0.60564414958E+02 -0.35052233841E+02  0.70609063486E+02  0.47000000000E+01 0. -1.
         -5    1    1    2    0  502  0.10299471595E+03 -0.30241732060E+02 -0.95331495846E+02  0.14364072533E+03  0.47000000000E+01 0. -1.
        -11    1    1    2    0    0 -0.12613547786E+03 -0.34830878520E+02 -0.10521622383E+03  0.16791010282E+03  0.00000000000E+00 0.  1.
         11    1    1    2    0    0  0.14965042372E+02  0.45081956217E+01 -0.23866006311E+02  0.28528276818E+02  0.00000000000E+00 0. -1.
<mgrwt>
<rscale>  0 0.16423790E+03</rscale>
<asrwt>0</asrwt>
<pdfrwt beam="1">  1        2 0.11632478E-01 0.17000899E+03</pdfrwt>
<pdfrwt beam="2">  1       -2 0.51550317E-01 0.17000899E+03</pdfrwt>
<totfact> 0.18765633E+03</totfact>
</mgrwt>
</event>
<event>
 6    1  0.5818426E-006  0.1622537E+03  0.7546771E-02  0.1194347E+00
          1   -1    0    0  501    0  0.00000000000E+00  0.00000000000E+00  0.90289665000E+03  0.90289665000E+03  0.00000000000E+00 0. -1.
         -1   -1    0    0    0  501 -0.00000000000E+00 -0.00000000000E+00 -0.34985991119E+02  0.34985991119E+02  0.00000000000E+00 0.  1.
          5    1    1    2  502    0 -0.18577748326E+02 -0.37815880531E+02  0.18983334794E+03  0.19450954615E+03  0.47000000000E+01 0. -1.
         -5    1    1    2    0  502  0.77367992723E+01 -0.65053480184E+02  0.16029030084E+02  0.67607937052E+02  0.47000000000E+01 0. -1.
        -11    1    1    2    0    0 -0.27831701289E+02  0.60880328543E+01  0.93533772807E+02  0.97776451133E+02  0.00000000000E+00 0.  1.
         11    1    1    2    0    0  0.38672650343E+02  0.96781327860E+02  0.56851450805E+03  0.57798870679E+03  0.00000000000E+00 0. -1.
<mgrwt>
<rscale>  0 0.15509660E+03</rscale>
<asrwt>0</asrwt>
<pdfrwt beam="1">  1        1 0.13890716E+00 0.16225368E+03</pdfrwt>
<pdfrwt beam="2">  1       -1 0.53824609E-02 0.16225368E+03</pdfrwt>
<totfact> 0.29554592E+03</totfact>
</mgrwt>
</event>
<event>
 6    1  0.5818426E-006  0.1467801E+03  0.7546771E-02  0.1214212E+00
          1   -1    0    0  501    0  0.00000000000E+00  0.00000000000E+00  0.61606019145E+02  0.61606019145E+02  0.00000000000E+00 0. -1.
         -1   -1    0    0    0  501 -0.00000000000E+00 -0.00000000000E+00 -0.33589217658E+03  0.33589217658E+03  0.00000000000E+00 0.  1.
          5    1    1    2  502    0 -0.42039590185E+02  0.10620089138E+02 -0.77970467011E+02  0.89339784878E+02  0.47000000000E+01 0.  1.
         -5    1    1    2    0  502  0.55088855361E+02 -0.86447224144E+02 -0.14668388519E+03  0.17901440367E+03  0.47000000000E+01 0.  1.
        -11    1    1    2    0    0 -0.24100828315E+02  0.80111913916E+02 -0.67641874903E+02  0.10758341841E+03  0.00000000000E+00 0.  1.
         11    1    1    2    0    0  0.11051563139E+02 -0.42847789100E+01  0.18010069672E+02  0.21560588761E+02  0.00000000000E+00 0. -1.
<mgrwt>
<rscale>  0 0.13934557E+03</rscale>
<asrwt>0</asrwt>
<pdfrwt beam="1">  1        1 0.94778493E-02 0.14678008E+03</pdfrwt>
<pdfrwt beam="2">  1       -1 0.51675718E-01 0.14678008E+03</pdfrwt>
<totfact> 0.25877780E+03</totfact>
</mgrwt>
</event>
<event>
 6    1  0.5818426E-006  0.2779525E+03  0.7546771E-02  0.1096813E+00
          2   -1    0    0  501    0  0.00000000000E+00  0.00000000000E+00  0.31405499369E+03  0.31405499369E+03  0.00000000000E+00 0. -1.
         -2   -1    0    0    0  501 -0.00000000000E+00 -0.00000000000E+00 -0.61500062966E+02  0.61500062966E+02  0.00000000000E+00 0.  1.
          5    1    1    2  502    0  0.31301305743E+02 -0.89140685374E+01  0.98674498433E+02  0.10400951399E+03  0.47000000000E+01 0.  1.
         -5    1    1    2    0  502 -0.25741928617E+02 -0.73916962860E+02  0.53822278962E+01  0.78596581761E+02  0.47000000000E+01 0.  1.
        -11    1    1    2    0    0 -0.46974924389E+02  0.37752726054E+02  0.89733851980E+02  0.10809290466E+03  0.00000000000E+00 0.  1.
         11    1    1    2    0    0  0.41415547264E+02  0.45078305343E+02  0.58764352419E+02  0.84856056254E+02  0.00000000000E+00 0. -1.
<mgrwt>
<rscale>  0 0.27795253E+03</rscale>
<asrwt>0</asrwt>
<pdfrwt beam="1">  1        2 0.48316152E-01 0.27795253E+03</pdfrwt>
<pdfrwt beam="2">  1       -2 0.94615484E-02 0.27795253E+03</pdfrwt>
<totfact> 0.74897585E+03</totfact>
</mgrwt>
</event>
<event>
 6    1  0.5818426E-006  0.1518830E+03  0.7546771E-02  0.1207014E+00
          2   -1    0    0  501    0  0.00000000000E+00  0.00000000000E+00  0.57760389306E+02  0.57760389306E+02  0.00000000000E+00 0. -1.
         -2   -1    0    0    0  501 -0.00000000000E+00 -0.00000000000E+00 -0.34431514988E+03  0.34431514988E+03  0.00000000000E+00 0.  1.
          5    1    1    2  502    0 -0.41713778380E+02 -0.32723963075E+01 -0.11435284491E+03  0.12185815945E+03  0.47000000000E+01 0.  1.
         -5    1    1    2    0  502  0.47304410703E+02 -0.82825931819E+02 -0.78492253838E+02  0.12361620511E+03  0.47000000000E+01 0.  1.
        -11    1    1    2    0    0  0.35735013031E+02  0.71985203334E+02 -0.71685825321E+02  0.10769270267E+03  0.00000000000E+00 0.  1.
         11    1    1    2    0    0 -0.41325645354E+02  0.14113124793E+02 -0.22023836501E+02  0.48908471961E+02  0.00000000000E+00 0. -1.
<mgrwt>
<rscale>  0 0.14479906E+03</rscale>
<asrwt>0</asrwt>
<pdfrwt beam="1">  1        2 0.88862135E-02 0.15188295E+03</pdfrwt>
<pdfrwt beam="2">  1       -2 0.52971563E-01 0.15188295E+03</pdfrwt>
<totfact> 0.24614606E+03</totfact>
</mgrwt>
</event>
<event>
 6    1  0.5818426E-006  0.1340498E+03  0.7546771E-02  0.1304322E+00
         -2   -1    0    0    0  501 -0.00000000000E+00  0.00000000000E+00  0.17375045971E+02  0.17375045971E+02  0.00000000000E+00 0.  1.
          2   -1    0    0  501    0  0.00000000000E+00 -0.00000000000E+00 -0.37582690684E+03  0.37582690684E+03  0.00000000000E+00 0. -1.
          5    1    1    2  502    0 -0.47203813247E+02 -0.25160516791E+02 -0.21622144123E+03  0.22278925745E+03  0.47000000000E+01 0. -1.
         -5    1    1    2    0  502  0.60108045238E+02  0.28846843874E+01 -0.64747368357E+02  0.88518982232E+02  0.47000000000E+01 0.  1.
        -11    1    1    2    0    0 -0.10447049168E+02  0.12168851820E+02 -0.49938615694E+02  0.52450806747E+02  0.00000000000E+00 0. -1.
         11    1    1    2    0    0 -0.24571828229E+01  0.10106980583E+02 -0.27544435587E+02  0.29442906374E+02  0.00000000000E+00 0.  1.
<mgrwt>
<rscale>  0 0.89395512E+02</rscale>
<asrwt>0</asrwt>
<pdfrwt beam="2">  1        2 0.57819522E-01 0.13404980E+03</pdfrwt>
<pdfrwt beam="1">  1       -2 0.26730841E-02 0.13404980E+03</pdfrwt>
<totfact> 0.39771602E+04</totfact>
</mgrwt>
</event>
<event>
 6    1  0.5818426E-006  0.3007819E+03  0.7546771E-02  0.1086624E+00
          3   -1    0    0  501    0  0.00000000000E+00  0.00000000000E+00  0.50505918045E+03  0.50505918045E+03  0.00000000000E+00 0. -1.
         -3   -1    0    0    0  501 -0.00000000000E+00 -0.00000000000E+00 -0.19034377817E+03  0.19034377817E+03  0.00000000000E+00 0.  1.
          5    1    1    2  502    0 -0.75663315493E+01 -0.13654985470E+03 -0.16667192829E+02  0.13785136020E+03  0.47000000000E+01 0.  1.
         -5    1    1    2    0  502  0.89116325297E+02 -0.12458006075E+03  0.66410507398E+02  0.16701603655E+03  0.47000000000E+01 0.  1.
        -11    1    1    2    0    0 -0.41419164877E+02  0.27378550687E+02  0.42598900404E+02  0.65420169463E+02  0.00000000000E+00 0. -1.
         11    1    1    2    0    0 -0.40130828870E+02  0.23375136476E+03  0.22237318730E+03  0.32511539242E+03  0.00000000000E+00 0.  1.
<mgrwt>
<rscale>  0 0.29724795E+03</rscale>
<asrwt>0</asrwt>
<pdfrwt beam="1">  1        3 0.77701412E-01 0.30078187E+03</pdfrwt>
<pdfrwt beam="2">  1       -3 0.29283658E-01 0.30078187E+03</pdfrwt>
<totfact> 0.44804933E+01</totfact>
</mgrwt>
</event>
<event>
 6    1  0.5818426E-006  0.1420178E+03  0.7546771E-02  0.1222072E+00
          1   -1    0    0  501    0  0.00000000000E+00  0.00000000000E+00  0.43327366757E+03  0.43327366757E+03  0.00000000000E+00 0. -1.
         -1   -1    0    0    0  501 -0.00000000000E+00 -0.00000000000E+00 -0.47276351902E+02  0.47276351902E+02  0.00000000000E+00 0.  1.
          5    1    1    2  502    0  0.34796760578E+02 -0.51008323771E+01 -0.10412206774E+02  0.36977521382E+02  0.47000000000E+01 0. -1.
         -5    1    1    2    0  502 -0.34616450971E+02  0.72511156078E+02  0.11075669778E+03  0.13691348559E+03  0.47000000000E+01 0. -1.
        -11    1    1    2    0    0 -0.12032176652E+02 -0.17541772302E+02  0.56583759812E+01  0.22011457681E+02  0.00000000000E+00 0.  1.
         11    1    1    2    0    0  0.11851867046E+02 -0.49868551399E+02  0.27999444868E+03  0.28464755482E+03  0.00000000000E+00 0. -1.
<mgrwt>
<rscale>  0 0.13369630E+03</rscale>
<asrwt>0</asrwt>
<pdfrwt beam="1">  1        1 0.66657484E-01 0.14201783E+03</pdfrwt>
<pdfrwt beam="2">  1       -1 0.72732852E-02 0.14201783E+03</pdfrwt>
<totfact> 0.52446909E+03</totfact>
</mgrwt>
</event>
<event>
 6    1  0.5818426E-006  0.1326655E+03  0.7546771E-02  0.1236579E+00
          1   -1    0    0  501    0  0.00000000000E+00  0.00000000000E+00  0.24182765149E+03  0.24182765149E+03  0.00000000000E+00 0. -1.
         -1   -1    0    0    0  501 -0.00000000000E+00 -0.00000000000E+00 -0.58060372110E+02  0.58060372110E+02  0.00000000000E+00 0.  1.
          5    1    1    2  502    0  0.67202719918E+02  0.23212016419E+02  0.16696383333E+02  0.73183758355E+02  0.47000000000E+01 0.  1.
         -5    1    1    2    0  502 -0.48362995291E+02  0.17032557804E+02  0.63828749188E+02  0.82007844514E+02  0.47000000000E+01 0.  1.
        -11    1    1    2    0    0 -0.55412369692E+02 -0.29718791593E+02  0.57638466144E+02  0.85299062527E+02  0.00000000000E+00 0.  1.
         11    1    1    2    0    0  0.36572645065E+02 -0.10525782630E+02  0.45603680717E+02  0.59397358207E+02  0.00000000000E+00 0. -1.
<mgrwt>
<rscale>  0 0.12403884E+03</rscale>
<asrwt>0</asrwt>
<pdfrwt beam="1">  1        1 0.37204254E-01 0.13266551E+03</pdfrwt>
<pdfrwt beam="2">  1       -1 0.89323651E-02 0.13266551E+03</pdfrwt>
<totfact> 0.79218726E+03</totfact>
</mgrwt>
</event>
<event>
 6    1  0.5818426E-006  0.1408656E+03  0.7546771E-02  0.1223071E+00
         -2   -1    0    0    0  501 -0.00000000000E+00  0.00000000000E+00  0.20503313834E+02  0.20503313834E+02  0.00000000000E+00 0.  1.
          2   -1    0    0  501    0  0.00000000000E+00 -0.00000000000E+00 -0.82723128612E+03  0.82723128612E+03  0.00000000000E+00 0. -1.
          5    1    1    2  502    0 -0.25021570403E+02  0.21307710166E+02 -0.36134247539E+02  0.49070065652E+02  0.47000000000E+01 0.  1.
         -5    1    1    2    0  502  0.86347308409E+02 -0.42664597224E+02 -0.30928411569E+03  0.32396740537E+03  0.47000000000E+01 0.  1.
        -11    1    1    2    0    0  0.13329917207E+01 -0.29870715343E+02 -0.15616312421E+03  0.15899986750E+03  0.00000000000E+00 0. -1.
         11    1    1    2    0    0 -0.62658729726E+02  0.51227602402E+02 -0.30514648485E+03  0.31569726143E+03  0.00000000000E+00 0.  1.
<mgrwt>
<rscale>  0 0.13299981E+03</rscale>
<asrwt>0</asrwt>
<pdfrwt beam="2">  1        2 0.12726633E+00 0.14086557E+03</pdfrwt>
<pdfrwt beam="1">  1       -2 0.31543564E-02 0.14086557E+03</pdfrwt>
<totfact> 0.12799251E+04</totfact>
</mgrwt>
</event>
<event>
 6    1  0.5818426E-006  0.1612714E+03  0.7546771E-02  0.1194565E+00
         -1   -1    0    0    0  501 -0.00000000000E+00  0.00000000000E+00  0.22441732718E+03  0.22441732718E+03  0.00000000000E+00 0.  1.
          1   -1    0    0  501    0  0.00000000000E+00 -0.00000000000E+00 -0.99716553142E+02  0.99716553142E+02  0.00000000000E+00 0. -1.
          5    1    1    2  502    0  0.37144051816E+02 -0.18835970091E+02 -0.29947907584E+02  0.51511566888E+02  0.47000000000E+01 0.  1.
         -5    1    1    2    0  502  0.21034496267E+02 -0.64824060759E+02  0.10766615579E+03  0.12750960744E+03  0.47000000000E+01 0.  1.
        -11    1    1    2    0    0  0.18522631894E+02  0.26637702434E+02 -0.98622209107E+01  0.33910448014E+02  0.00000000000E+00 0. -1.
         11    1    1    2    0    0 -0.76701179977E+02  0.57022328416E+02  0.56844746743E+02  0.11120225798E+03  0.00000000000E+00 0.  1.
<mgrwt>
<rscale>  0 0.15491121E+03</rscale>
<asrwt>0</asrwt>
<pdfrwt beam="2">  1        1 0.15341008E-01 0.16127137E+03</pdfrwt>
<pdfrwt beam="1">  1       -1 0.34525742E-01 0.16127137E+03</pdfrwt>
<totfact> 0.28231986E+03</totfact>
</mgrwt>
</event>
<event>
 6    1  0.5818426E-006  0.1381280E+03  0.7546771E-02  0.1227590E+00
          2   -1    0    0  501    0  0.00000000000E+00  0.00000000000E+00  0.13038139728E+02  0.13038139728E+02  0.00000000000E+00 0. -1.
         -2   -1    0    0    0  501 -0.00000000000E+00 -0.00000000000E+00 -0.11819044053E+04  0.11819044053E+04  0.00000000000E+00 0.  1.
          5    1    1    2  502    0  0.38472479531E+02 -0.11693813239E+02 -0.16564714423E+03  0.17052255963E+03  0.47000000000E+01 0. -1.
         -5    1    1    2    0  502 -0.95673127344E+02 -0.17930441766E+01 -0.56538940995E+03  0.57344907114E+03  0.47000000000E+01 0. -1.
        -11    1    1    2    0    0  0.86622965246E+01 -0.36822574243E+02 -0.13710331798E+03  0.14222607762E+03  0.00000000000E+00 0.  1.
         11    1    1    2    0    0  0.48538351289E+02  0.50309431658E+02 -0.30072639341E+03  0.30874483665E+03  0.00000000000E+00 0. -1.
<mgrwt>
<rscale>  0 0.12990959E+03</rscale>
<asrwt>0</asrwt>
<pdfrwt beam="1">  1        2 0.20058683E-02 0.13812800E+03</pdfrwt>
<pdfrwt beam="2">  1       -2 0.18183139E+00 0.13812800E+03</pdfrwt>
<totfact> 0.99933613E+02</totfact>
</mgrwt>
</event>
<event>
 6    1  0.5818426E-006  0.2749465E+03  0.7546771E-02  0.1098481E+00
          2   -1    0    0  501    0  0.00000000000E+00  0.00000000000E+00  0.24845899949E+03  0.24845899949E+03  0.00000000000E+00 0. -1.
         -2   -1    0    0    0  501 -0.00000000000E+00 -0.00000000000E+00 -0.76064450337E+02  0.76064450337E+02  0.00000000000E+00 0.  1.
          5    1    1    2  502    0 -0.16114292776E+02  0.20385644880E+01  0.99492378443E+02  0.10091902469E+03  0.47000000000E+01 0. -1.
         -5    1    1    2    0  502  0.30645651694E+02 -0.75677485597E+02 -0.67374708045E+01  0.82059254852E+02  0.47000000000E+01 0.  1.
        -11    1    1    2    0    0  0.27037983591E+02  0.58633380237E+02  0.20554151405E+02  0.67759862564E+02  0.00000000000E+00 0.  1.
         11    1    1    2    0    0 -0.41569342510E+02  0.15005540872E+02  0.59085490106E+02  0.73785307715E+02  0.00000000000E+00 0. -1.
<mgrwt>
<rscale>  0 0.27494652E+03</rscale>
<asrwt>0</asrwt>
<pdfrwt beam="1">  1        2 0.38224461E-01 0.27494652E+03</pdfrwt>
<pdfrwt beam="2">  1       -2 0.11702223E-01 0.27494652E+03</pdfrwt>
<totfact> 0.68626089E+03</totfact>
</mgrwt>
</event>
<event>
 6    1  0.5818426E-006  0.1975342E+03  0.7546771E-02  0.1160494E+00
          3   -1    0    0  501    0  0.00000000000E+00  0.00000000000E+00  0.44628695086E+02  0.44628695086E+02  0.00000000000E+00 0. -1.
         -3   -1    0    0    0  501 -0.00000000000E+00 -0.00000000000E+00 -0.73643465496E+03  0.73643465496E+03  0.00000000000E+00 0.  1.
          5    1    1    2  502    0  0.70554012379E+02 -0.48509171255E+02 -0.11536761673E+03  0.14374555766E+03  0.47000000000E+01 0. -1.
         -5    1    1    2    0  502 -0.70743745265E+02 -0.83719008416E+02 -0.20875645635E+03  0.23582811099E+03  0.47000000000E+01 0.  1.
        -11    1    1    2    0    0  0.29559948596E+02  0.72785003298E+02 -0.28433067373E+03  0.29498369326E+03  0.00000000000E+00 0.  1.
         11    1    1    2    0    0 -0.29370215711E+02  0.59443176374E+02 -0.83351213059E+02  0.10650598813E+03  0.00000000000E+00 0. -1.
<mgrwt>
<rscale>  0 0.18776373E+03</rscale>
<asrwt>0</asrwt>
<pdfrwt beam="1">  1        3 0.68659530E-02 0.19753419E+03</pdfrwt>
<pdfrwt beam="2">  1       -3 0.11329764E+00 0.19753419E+03</pdfrwt>
<totfact> 0.22617519E+02</totfact>
</mgrwt>
</event>
<event>
 6    1  0.5818426E-006  0.2122428E+03  0.7546771E-02  0.1143554E+00
          1   -1    0    0  501    0  0.00000000000E+00  0.00000000000E+00  0.14248078666E+03  0.14248078666E+03  0.00000000000E+00 0. -1.
         -1   -1    0    0    0  501 -0.00000000000E+00 -0.00000000000E+00 -0.30838122710E+03  0.30838122710E+03  0.00000000000E+00 0.  1.
          5    1    1    2  502    0 -0.82797716879E+02 -0.48864868801E+01 -0.10037446352E+02  0.83679029653E+02  0.47000000000E+01 0. -1.
         -5    1    1    2    0  502 -0.58035710267E+02 -0.93030170167E+02 -0.13219410306E+03  0.17181422267E+03  0.47000000000E+01 0. -1.
        -11    1    1    2    0    0  0.13737877032E+03  0.63873865142E+02 -0.41085104691E+02  0.15697382906E+03  0.00000000000E+00 0.  1.
         11    1    1    2    0    0  0.34546568241E+01  0.34042791906E+02  0.17416213662E+02  0.38394932385E+02  0.00000000000E+00 0. -1.
<mgrwt>
<rscale>  0 0.20750843E+03</rscale>
<asrwt>0</asrwt>
<pdfrwt beam="1">  1        1 0.21920121E-01 0.21224276E+03</pdfrwt>
<pdfrwt beam="2">  1       -1 0.47443266E-01 0.21224276E+03</pdfrwt>
<totfact> 0.10234024E+03</totfact>
</mgrwt>
</event>
<event>
 6    1  0.5818426E-006  0.1454859E+03  0.7546771E-02  0.1215733E+00
         -1   -1    0    0    0  501 -0.00000000000E+00  0.00000000000E+00  0.83482084514E+02  0.83482084514E+02  0.00000000000E+00 0.  1.
          1   -1    0    0  501    0  0.00000000000E+00 -0.00000000000E+00 -0.21084720063E+03  0.21084720063E+03  0.00000000000E+00 0. -1.
          5    1    1    2  502    0 -0.10299130570E+02 -0.10233381580E+03 -0.28796796303E+02  0.10690943561E+03  0.47000000000E+01 0.  1.
         -5    1    1    2    0  502  0.27455323575E+02  0.29841075571E+02 -0.26826743998E+02  0.48847198255E+02  0.47000000000E+01 0.  1.
        -11    1    1    2    0    0  0.14194227500E+02  0.51501405864E+02  0.43933668672E+01  0.53601982918E+02  0.00000000000E+00 0.  1.
         11    1    1    2    0    0 -0.31350420505E+02  0.20991334361E+02 -0.76134942680E+02  0.84970668356E+02  0.00000000000E+00 0. -1.
<mgrwt>
<rscale>  0 0.13822818E+03</rscale>
<asrwt>0</asrwt>
<pdfrwt beam="2">  1        1 0.32438031E-01 0.14548591E+03</pdfrwt>
<pdfrwt beam="1">  1       -1 0.12843398E-01 0.14548591E+03</pdfrwt>
<totfact> 0.54122430E+03</totfact>
</mgrwt>
</event>
<event>
 6    1  0.5818426E-006  0.1291738E+03  0.7546771E-02  0.1233005E+00
          2   -1    0    0  501    0  0.00000000000E+00  0.00000000000E+00  0.88441049877E+02  0.88441049877E+02  0.00000000000E+00 0. -1.
         -2   -1    0    0    0  501 -0.00000000000E+00 -0.00000000000E+00 -0.18018558147E+03  0.18018558147E+03  0.00000000000E+00 0.  1.
          5    1    1    2  502    0  0.48673787734E+02 -0.33379203014E+02 -0.36262278468E+02  0.69428752300E+02  0.47000000000E+01 0.  1.
         -5    1    1    2    0  502 -0.69278985220E+02  0.82043676697E+01 -0.38486364925E+02  0.79813405685E+02  0.47000000000E+01 0.  1.
        -11    1    1    2    0    0  0.37531388306E+02 -0.31082151100E+02 -0.32562371277E+02  0.58608986071E+02  0.00000000000E+00 0.  1.
         11    1    1    2    0    0 -0.16926190820E+02  0.56256986444E+02  0.15566483081E+02  0.60775487287E+02  0.00000000000E+00 0. -1.
<mgrwt>
<rscale>  0 0.12632990E+03</rscale>
<asrwt>0</asrwt>
<pdfrwt beam="1">  1        2 0.13606315E-01 0.12917377E+03</pdfrwt>
<pdfrwt beam="2">  1       -2 0.27720858E-01 0.12917377E+03</pdfrwt>
<totfact> 0.49136619E+03</totfact>
</mgrwt>
</event>
<event>
 6    1  0.5818426E-006  0.1137931E+03  0.7546771E-02  0.1264864E+00
         -2   -1    0    0    0  501 -0.00000000000E+00  0.00000000000E+00  0.34380767946E+02  0.34380767946E+02  0.00000000000E+00 0.  1.
          2   -1    0    0  501    0  0.00000000000E+00 -0.00000000000E+00 -0.40243664709E+03  0.40243664709E+03  0.00000000000E+00 0. -1.
          5    1    1    2  502    0  0.12836637583E+01  0.43638329750E+02 -0.10381333046E+03  0.11271756384E+03  0.47000000000E+01 0. -1.
         -5    1    1    2    0  502 -0.17261493233E+01 -0.32023391681E+02  0.10893292703E+02  0.34194020415E+02  0.47000000000E+01 0.  1.
        -11    1    1    2    0    0  0.41176863715E+02  0.53991351220E+01 -0.83578580349E+02  0.93327722883E+02  0.00000000000E+00 0.  1.
         11    1    1    2    0    0 -0.40734378150E+02 -0.17014073192E+02 -0.19155726104E+03  0.19657810790E+03  0.00000000000E+00 0. -1.
<mgrwt>
<rscale>  0 0.10771338E+03</rscale>
<asrwt>0</asrwt>
<pdfrwt beam="2">  1        2 0.61913330E-01 0.11379315E+03</pdfrwt>
<pdfrwt beam="1">  1       -2 0.52893489E-02 0.11379315E+03</pdfrwt>
<totfact> 0.13262992E+04</totfact>
</mgrwt>
</event>
<event>
 6    1  0.5818426E-006  0.1319331E+03  0.7546771E-02  0.1258237E+00
          1   -1    0    0  501    0  0.00000000000E+00  0.00000000000E+00  0.96234677664E+03  0.96234677664E+03  0.00000000000E+00 0. -1.
         -1   -1    0    0    0  501 -0.00000000000E+00 -0.00000000000E+00 -0.10342784403E+02  0.10342784403E+02  0.00000000000E+00 0.  1.
          5    1    1    2  502    0 -0.40922143548E+01  0.32538545625E+02  0.37138615291E+02  0.49768161664E+02  0.47000000000E+01 0. -1.
         -5    1    1    2    0  502  0.10897095786E+02  0.90979317911E+01  0.63611340086E+03  0.63628913853E+03  0.47000000000E+01 0. -1.
        -11    1    1    2    0    0 -0.18155395180E+02 -0.62718318938E+00  0.37641424253E+02  0.41795795873E+02  0.00000000000E+00 0. -1.
         11    1    1    2    0    0  0.11350513748E+02 -0.41009294227E+02  0.24111055183E+03  0.24483646497E+03  0.00000000000E+00 0.  1.
<mgrwt>
<rscale>  0 0.11126947E+03</rscale>
<asrwt>0</asrwt>
<pdfrwt beam="1">  1        1 0.14805328E+00 0.13193310E+03</pdfrwt>
<pdfrwt beam="2">  1       -1 0.15911984E-02 0.13193310E+03</pdfrwt>
<totfact> 0.15622775E+04</totfact>
</mgrwt>
</event>
<event>
 6    1  0.5818426E-006  0.1830418E+03  0.7546771E-02  0.1170193E+00
         -2   -1    0    0    0  501 -0.00000000000E+00  0.00000000000E+00  0.98796982423E+02  0.98796982423E+02  0.00000000000E+00 0.  1.
          2   -1    0    0  501    0  0.00000000000E+00 -0.00000000000E+00 -0.44846474417E+03  0.44846474417E+03  0.00000000000E+00 0. -1.
          5    1    1    2  502    0  0.49807884811E+01 -0.24135634460E+02 -0.19988196548E+01  0.25167883993E+02  0.47000000000E+01 0.  1.
         -5    1    1    2    0  502 -0.21888962536E+01  0.15781759843E+03 -0.23454115395E+02  0.15963511885E+03  0.47000000000E+01 0.  1.
        -11    1    1    2    0    0 -0.36377465429E+01 -0.14621343780E+03 -0.27282476878E+03  0.30955606448E+03  0.00000000000E+00 0.  1.
         11    1    1    2    0    0  0.84585431537E+00  0.12531473827E+02 -0.51390057912E+02  0.52902659272E+02  0.00000000000E+00 0. -1.
<mgrwt>
<rscale>  0 0.17755248E+03</rscale>
<asrwt>0</asrwt>
<pdfrwt beam="2">  1        2 0.68994574E-01 0.18304179E+03</pdfrwt>
<pdfrwt beam="1">  1       -2 0.15199536E-01 0.18304179E+03</pdfrwt>
<totfact> 0.23248398E+03</totfact>
</mgrwt>
</event>
<event>
 6    1  0.5818426E-006  0.3460380E+03  0.7546771E-02  0.1065392E+00
          2   -1    0    0  501    0  0.00000000000E+00  0.00000000000E+00  0.13643926252E+04  0.13643926252E+04  0.00000000000E+00 0. -1.
         -2   -1    0    0    0  501 -0.00000000000E+00 -0.00000000000E+00 -0.15889112485E+03  0.15889112485E+03  0.00000000000E+00 0.  1.
          5    1    1    2  502    0  0.32287306677E+03  0.26990890665E+02  0.69293189806E+02  0.33135956540E+03  0.47000000000E+01 0.  1.
         -5    1    1    2    0  502 -0.37192017462E+00 -0.16453463249E+02  0.19386434583E+02  0.25860754501E+02  0.47000000000E+01 0.  1.
        -11    1    1    2    0    0 -0.28484088878E+02 -0.28268091555E+02  0.11274265710E+03  0.11967178051E+03  0.00000000000E+00 0.  1.
         11    1    1    2    0    0 -0.29401705772E+03  0.17730664140E+02  0.10040792189E+04  0.10463916497E+04  0.00000000000E+00 0. -1.
<mgrwt>
<rscale>  0 0.34331660E+03</rscale>
<asrwt>0</asrwt>
<pdfrwt beam="1">  1        2 0.20990655E+00 0.34603798E+03</pdfrwt>
<pdfrwt beam="2">  1       -2 0.24444789E-01 0.34603798E+03</pdfrwt>
<totfact> 0.23832124E+02</totfact>
</mgrwt>
</event>
<event>
 6    1  0.5818426E-006  0.1361117E+03  0.7546771E-02  0.1230051E+00
          1   -1    0    0  501    0  0.00000000000E+00  0.00000000000E+00  0.33259585603E+03  0.33259585603E+03  0.00000000000E+00 0. -1.
         -1   -1    0    0    0  501 -0.00000000000E+00 -0.00000000000E+00 -0.45496704548E+02  0.45496704548E+02  0.00000000000E+00 0.  1.
          5    1    1    2  502    0  0.18083704942E+02  0.15724815701E+02  0.14044062997E+03  0.14254806474E+03  0.47000000000E+01 0. -1.
         -5    1    1    2    0  502 -0.28957664897E+02  0.37032125158E+02 -0.73572321847E+01  0.47813633155E+02  0.47000000000E+01 0. -1.
        -11    1    1    2    0    0  0.45135405582E+02 -0.42210309643E+02  0.13177043698E+03  0.14554161996E+03  0.00000000000E+00 0. -1.
         11    1    1    2    0    0 -0.34261445628E+02 -0.10546631216E+02  0.22245316714E+02  0.42189242731E+02  0.00000000000E+00 0.  1.
<mgrwt>
<rscale>  0 0.12826631E+03</rscale>
<asrwt>0</asrwt>
<pdfrwt beam="1">  1        1 0.51168592E-01 0.13611166E+03</pdfrwt>
<pdfrwt beam="2">  1       -1 0.69994932E-02 0.13611166E+03</pdfrwt>
<totfact> 0.77264968E+03</totfact>
</mgrwt>
</event>
<event>
 6    1  0.5818426E-006  0.1482007E+03  0.7546771E-02  0.1211475E+00
         -2   -1    0    0    0  501 -0.00000000000E+00  0.00000000000E+00  0.71020749955E+02  0.71020749955E+02  0.00000000000E+00 0.  1.
          2   -1    0    0  501    0  0.00000000000E+00 -0.00000000000E+00 -0.29094802288E+03  0.29094802288E+03  0.00000000000E+00 0. -1.
          5    1    1    2  502    0 -0.29923870898E+02  0.57701899375E+01  0.17733937938E+02  0.35571276280E+02  0.47000000000E+01 0.  1.
         -5    1    1    2    0  502  0.78691697762E+02  0.57146471911E+02 -0.76625601323E+02  0.12390187782E+03  0.47000000000E+01 0.  1.
        -11    1    1    2    0    0 -0.16116545854E+02  0.24121245095E+02 -0.48682304794E+02  0.56670488927E+02  0.00000000000E+00 0. -1.
         11    1    1    2    0    0 -0.32651281011E+02 -0.87037906944E+02 -0.11235330475E+03  0.14582512981E+03  0.00000000000E+00 0.  1.
<mgrwt>
<rscale>  0 0.14138690E+03</rscale>
<asrwt>0</asrwt>
<pdfrwt beam="2">  1        2 0.44761235E-01 0.14820074E+03</pdfrwt>
<pdfrwt beam="1">  1       -2 0.10926269E-01 0.14820074E+03</pdfrwt>
<totfact> 0.62438211E+03</totfact>
</mgrwt>
</event>
<event>
 6    1  0.5818426E-006  0.1280749E+03  0.7546771E-02  0.1239575E+00
          1   -1    0    0  501    0  0.00000000000E+00  0.00000000000E+00  0.77053747031E+03  0.77053747031E+03  0.00000000000E+00 0. -1.
         -1   -1    0    0    0  501 -0.00000000000E+00 -0.00000000000E+00 -0.21400848962E+02  0.21400848962E+02  0.00000000000E+00 0.  1.
          5    1    1    2  502    0 -0.37625446302E+02  0.25563830673E+02  0.73875283285E+02  0.86884009625E+02  0.47000000000E+01 0. -1.
         -5    1    1    2    0  502  0.81105213556E+02  0.86286843744E+01  0.16770636145E+03  0.18654764413E+03  0.47000000000E+01 0.  1.
        -11    1    1    2    0    0  0.75568829113E+01  0.25425745482E+02  0.99597425928E+02  0.10306901699E+03  0.00000000000E+00 0.  1.
         11    1    1    2    0    0 -0.51036650166E+02 -0.59618260529E+02  0.40795755069E+03  0.41543764852E+03  0.00000000000E+00 0. -1.
<mgrwt>
<rscale>  0 0.12216022E+03</rscale>
<asrwt>0</asrwt>
<pdfrwt beam="1">  1        1 0.11854420E+00 0.12807489E+03</pdfrwt>
<pdfrwt beam="2">  1       -1 0.32924389E-02 0.12807489E+03</pdfrwt>
<totfact> 0.77070206E+03</totfact>
</mgrwt>
</event>
<event>
 6    1  0.5818426E-006  0.1274019E+03  0.7546771E-02  0.1247176E+00
          1   -1    0    0  501    0  0.00000000000E+00  0.00000000000E+00  0.36353324718E+03  0.36353324718E+03  0.00000000000E+00 0. -1.
         -1   -1    0    0    0  501 -0.00000000000E+00 -0.00000000000E+00 -0.51704866448E+02  0.51704866448E+02  0.00000000000E+00 0.  1.
          5    1    1    2  502    0 -0.24695198651E+01  0.55876463544E+02  0.22232094600E+02  0.60370802022E+02  0.47000000000E+01 0.  1.
         -5    1    1    2    0  502 -0.18592860449E+02 -0.68636949371E+02  0.26509358510E+02  0.76036579139E+02  0.47000000000E+01 0.  1.
        -11    1    1    2    0    0  0.40314895630E+02 -0.19598464192E+02  0.78094249086E+02  0.90045001797E+02  0.00000000000E+00 0.  1.
         11    1    1    2    0    0 -0.19252515316E+02  0.32358950020E+02  0.18499267854E+03  0.18878573067E+03  0.00000000000E+00 0. -1.
<mgrwt>
<rscale>  0 0.11756074E+03</rscale>
<asrwt>0</asrwt>
<pdfrwt beam="1">  1        1 0.55928190E-01 0.12740190E+03</pdfrwt>
<pdfrwt beam="2">  1       -1 0.79545951E-02 0.12740190E+03</pdfrwt>
<totfact> 0.56826826E+03</totfact>
</mgrwt>
</event>
<event>
 6    1  0.5818426E-006  0.1310313E+03  0.7546771E-02  0.1239364E+00
         -1   -1    0    0    0  501 -0.00000000000E+00  0.00000000000E+00  0.55599372656E+02  0.55599372656E+02  0.00000000000E+00 0.  1.
          1   -1    0    0  501    0  0.00000000000E+00 -0.00000000000E+00 -0.23900342187E+03  0.23900342187E+03  0.00000000000E+00 0. -1.
          5    1    1    2  502    0 -0.39325497738E+02  0.52634346597E+02 -0.10395098467E+03  0.12306407448E+03  0.47000000000E+01 0.  1.
         -5    1    1    2    0  502  0.44615577865E+02 -0.13695307673E+02 -0.46759371512E+01  0.47138791125E+02  0.47000000000E+01 0.  1.
        -11    1    1    2    0    0  0.21866588532E+02 -0.55543481713E+02 -0.70350742026E+02  0.92262955505E+02  0.00000000000E+00 0. -1.
         11    1    1    2    0    0 -0.27156668660E+02  0.16604442789E+02 -0.44263853716E+01  0.32136973418E+02  0.00000000000E+00 0.  1.
<mgrwt>
<rscale>  0 0.12229154E+03</rscale>
<asrwt>0</asrwt>
<pdfrwt beam="2">  1        1 0.36769757E-01 0.13103132E+03</pdfrwt>
<pdfrwt beam="1">  1       -1 0.85537497E-02 0.13103132E+03</pdfrwt>
<totfact> 0.85745727E+03</totfact>
</mgrwt>
</event>
<event>
 6    1  0.5818426E-006  0.1996128E+03  0.7546771E-02  0.1165678E+00
          1   -1    0    0  501    0  0.00000000000E+00  0.00000000000E+00  0.38665789335E+03  0.38665789335E+03  0.00000000000E+00 0. -1.
         -1   -1    0    0    0  501 -0.00000000000E+00 -0.00000000000E+00 -0.80225359657E+02  0.80225359657E+02  0.00000000000E+00 0.  1.
          5    1    1    2  502    0  0.65617479715E+02 -0.89769525207E+02  0.53053286405E+02  0.12329218344E+03  0.47000000000E+01 0. -1.
         -5    1    1    2    0  502 -0.86103533259E+02 -0.14203862857E+02  0.61384873824E+02  0.10679775697E+03  0.47000000000E+01 0.  1.
        -11    1    1    2    0    0  0.23008575817E+02  0.21493877109E+02  0.12952261489E+03  0.13329474514E+03  0.00000000000E+00 0. -1.
         11    1    1    2    0    0 -0.25225222728E+01  0.82479510954E+02  0.62471758584E+02  0.10349856746E+03  0.00000000000E+00 0.  1.
<mgrwt>
<rscale>  0 0.18221332E+03</rscale>
<asrwt>0</asrwt>
<pdfrwt beam="1">  1        1 0.59485829E-01 0.19961285E+03</pdfrwt>
<pdfrwt beam="2">  1       -1 0.12342363E-01 0.19961285E+03</pdfrwt>
<totfact> 0.27386148E+03</totfact>
</mgrwt>
</event>
<event>
 6    1  0.5818426E-006  0.1337762E+03  0.7546771E-02  0.1234493E+00
         -4   -1    0    0    0  501 -0.00000000000E+00  0.00000000000E+00  0.21283947860E+03  0.21283947860E+03  0.00000000000E+00 0.  1.
          4   -1    0    0  501    0  0.00000000000E+00 -0.00000000000E+00 -0.72043555080E+02  0.72043555080E+02  0.00000000000E+00 0. -1.
          5    1    1    2  502    0  0.66024271135E+02 -0.53291331005E+02  0.68852469267E+02  0.10937057586E+03  0.47000000000E+01 0.  1.
         -5    1    1    2    0  502 -0.47119946987E+02  0.95373714610E+01  0.50951142143E+02  0.70209399258E+02  0.47000000000E+01 0.  1.
        -11    1    1    2    0    0 -0.27635393748E+01 -0.28417794604E+02  0.47774822959E+00  0.28555847797E+02  0.00000000000E+00 0. -1.
         11    1    1    2    0    0 -0.16140784774E+02  0.72171754148E+02  0.20514563883E+02  0.76747210771E+02  0.00000000000E+00 0.  1.
<mgrwt>
<rscale>  0 0.12536978E+03</rscale>
<asrwt>0</asrwt>
<pdfrwt beam="2">  1        4 0.11083624E-01 0.13377616E+03</pdfrwt>
<pdfrwt beam="1">  1       -4 0.32744535E-01 0.13377616E+03</pdfrwt>
<totfact> 0.94308782E+02</totfact>
</mgrwt>
</event>
<event>
 6    1  0.5818426E-006  0.1505933E+03  0.7546771E-02  0.1209077E+00
         -2   -1    0    0    0  501 -0.00000000000E+00  0.00000000000E+00  0.53537680700E+02  0.53537680700E+02  0.00000000000E+00 0.  1.
          2   -1    0    0  501    0  0.00000000000E+00 -0.00000000000E+00 -0.36775543647E+03  0.36775543647E+03  0.00000000000E+00 0. -1.
          5    1    1    2  502    0 -0.36721773658E+02  0.33344371339E+02 -0.61196679573E+02  0.78914253157E+02  0.47000000000E+01 0.  1.
         -5    1    1    2    0  502  0.93591466968E+02  0.28453071882E+02 -0.64743238563E+02  0.11739981656E+03  0.47000000000E+01 0.  1.
        -11    1    1    2    0    0 -0.68413015590E+02 -0.10035508945E+02 -0.12036880053E+03  0.13881534599E+03  0.00000000000E+00 0.  1.
         11    1    1    2    0    0  0.11543322279E+02 -0.51761934276E+02 -0.67909037110E+02  0.86163701466E+02  0.00000000000E+00 0. -1.
<mgrwt>
<rscale>  0 0.14320786E+03</rscale>
<asrwt>0</asrwt>
<pdfrwt beam="2">  1        2 0.56577759E-01 0.15059333E+03</pdfrwt>
<pdfrwt beam="1">  1       -2 0.82365664E-02 0.15059333E+03</pdfrwt>
<totfact> 0.75871756E+03</totfact>
</mgrwt>
</event>
<event>
 6    1  0.5818426E-006  0.2380094E+03  0.7546771E-02  0.1121126E+00
         -2   -1    0    0    0  501 -0.00000000000E+00  0.00000000000E+00  0.34248861117E+03  0.34248861117E+03  0.00000000000E+00 0. -1.
          2   -1    0    0  501    0  0.00000000000E+00 -0.00000000000E+00 -0.41350609841E+02  0.41350609841E+02  0.00000000000E+00 0.  1.
          5    1    1    2  502    0  0.47845784212E+01  0.57619205882E+01  0.23386775693E+03  0.23403484709E+03  0.47000000000E+01 0. -1.
         -5    1    1    2    0  502 -0.23760614003E+02 -0.22973772006E+02  0.11702092530E+01  0.33403897493E+02  0.47000000000E+01 0. -1.
        -11    1    1    2    0    0 -0.21337621046E+02  0.42115840022E+01  0.70533979215E+02  0.73811067840E+02  0.00000000000E+00 0. -1.
         11    1    1    2    0    0  0.40313656627E+02  0.13000267416E+02 -0.44339440756E+01  0.42589408585E+02  0.00000000000E+00 0.  1.
<mgrwt>
<rscale>  0 0.23800935E+03</rscale>
<asrwt>0</asrwt>
<pdfrwt beam="2">  1        2 0.63616325E-02 0.23800935E+03</pdfrwt>
<pdfrwt beam="1">  1       -2 0.52690554E-01 0.23800935E+03</pdfrwt>
<totfact> 0.39060586E+03</totfact>
</mgrwt>
</event>
<event>
 6    1  0.5818426E-006  0.5577518E+03  0.7546771E-02  0.9997154E-01
          1   -1    0    0  501    0  0.00000000000E+00  0.00000000000E+00  0.22067929949E+03  0.22067929949E+03  0.00000000000E+00 0. -1.
         -1   -1    0    0    0  501 -0.00000000000E+00 -0.00000000000E+00 -0.35241988562E+03  0.35241988562E+03  0.00000000000E+00 0.  1.
          5    1    1    2  502    0  0.18486286851E+03 -0.16084600175E+02 -0.25417228939E+03  0.31473582130E+03  0.47000000000E+01 0.  1.
         -5    1    1    2    0  502 -0.10035972509E+02 -0.18933143555E+02 -0.28354093596E+01  0.22120447901E+02  0.47000000000E+01 0.  1.
        -11    1    1    2    0    0 -0.10591649107E+03  0.16415913806E+02  0.12527168254E+03  0.16486594479E+03  0.00000000000E+00 0.  1.
         11    1    1    2    0    0 -0.68910404934E+02  0.18601829923E+02 -0.45699164155E-02  0.71376971115E+02  0.00000000000E+00 0. -1.
<mgrwt>
<rscale>  0 0.55775182E+03</rscale>
<asrwt>0</asrwt>
<pdfrwt beam="1">  1        1 0.33950662E-01 0.55775182E+03</pdfrwt>
<pdfrwt beam="2">  1       -1 0.54218444E-01 0.55775182E+03</pdfrwt>
<totfact> 0.45493339E+02</totfact>
</mgrwt>
</event>
<event>
 6    1  0.5818426E-006  0.1304084E+03  0.7546771E-02  0.1240646E+00
          2   -1    0    0  501    0  0.00000000000E+00  0.00000000000E+00  0.58740701628E+02  0.58740701628E+02  0.00000000000E+00 0. -1.
         -2   -1    0    0    0  501 -0.00000000000E+00 -0.00000000000E+00 -0.34489387188E+03  0.34489387188E+03  0.00000000000E+00 0.  1.
          5    1    1    2  502    0 -0.13190897992E+02  0.48956392646E+01 -0.27974635399E+03  0.28013939324E+03  0.47000000000E+01 0. -1.
         -5    1    1    2    0  502 -0.23799942077E+02 -0.12899598014E+01  0.42503264399E+01  0.24662856971E+02  0.47000000000E+01 0. -1.
        -11    1    1    2    0    0  0.23603670815E+02 -0.76841583349E+01 -0.50680348375E+02  0.56432944958E+02  0.00000000000E+00 0.  1.
         11    1    1    2    0    0  0.13387169253E+02  0.40784788717E+01  0.40023205677E+02  0.42399378335E+02  0.00000000000E+00 0. -1.
<mgrwt>
<rscale>  0 0.12149797E+03</rscale>
<asrwt>0</asrwt>
<pdfrwt beam="1">  1        2 0.90370312E-02 0.13040840E+03</pdfrwt>
<pdfrwt beam="2">  1       -2 0.53060594E-01 0.13040840E+03</pdfrwt>
<totfact> 0.23820412E+03</totfact>
</mgrwt>
</event>
<event>
 6    1  0.5818426E-006  0.1378926E+03  0.7546771E-02  0.1232343E+00
         -2   -1    0    0    0  501 -0.00000000000E+00  0.00000000000E+00  0.43575091299E+02  0.43575091299E+02  0.00000000000E+00 0.  1.
          2   -1    0    0  501    0  0.00000000000E+00 -0.00000000000E+00 -0.32176111036E+03  0.32176111036E+03  0.00000000000E+00 0. -1.
          5    1    1    2  502    0 -0.34026148297E+02  0.57929104305E+02 -0.15221677894E+03  0.16644998554E+03  0.47000000000E+01 0.  1.
         -5    1    1    2    0  502 -0.18529956550E+02 -0.32924397740E+02  0.11476607605E+01  0.38089137316E+02  0.47000000000E+01 0.  1.
        -11    1    1    2    0    0 -0.12568328513E+02 -0.22835519038E+02 -0.12398026971E+02  0.28864076014E+02  0.00000000000E+00 0.  1.
         11    1    1    2    0    0  0.65124433360E+02 -0.21691875269E+01 -0.11471887391E+03  0.13193300279E+03  0.00000000000E+00 0. -1.
<mgrwt>
<rscale>  0 0.12676093E+03</rscale>
<asrwt>0</asrwt>
<pdfrwt beam="2">  1        2 0.49501709E-01 0.13789262E+03</pdfrwt>
<pdfrwt beam="1">  1       -2 0.67038603E-02 0.13789262E+03</pdfrwt>
<totfact> 0.11933026E+04</totfact>
</mgrwt>
</event>
<event>
 6    1  0.7448399E-006  0.3356362E+03  0.7546771E-02  0.1069776E+00
         -2   -1    0    0    0  501 -0.00000000000E+00  0.00000000000E+00  0.49695580110E+02  0.49695580110E+02  0.00000000000E+00 0.  1.
          2   -1    0    0  501    0  0.00000000000E+00 -0.00000000000E+00 -0.22769351673E+04  0.22769351673E+04  0.00000000000E+00 0. -1.
          5    1    1    2  502    0  0.35446462489E+02 -0.16532928925E+03 -0.45021342628E+03  0.48094120721E+03  0.47000000000E+01 0.  1.
         -5    1    1    2    0  502 -0.86767468173E+02 -0.14190351461E+03 -0.46520380229E+03  0.49406666418E+03  0.47000000000E+01 0.  1.
        -11    1    1    2    0    0  0.14398572960E+02  0.11682276538E+03 -0.69894683008E+03  0.70878878990E+03  0.00000000000E+00 0.  1.
         11    1    1    2    0    0  0.36922432725E+02  0.19041003848E+03 -0.61287552855E+03  0.64283408613E+03  0.00000000000E+00 0. -1.
<mgrwt>
<rscale>  0 0.33309502E+03</rscale>
<asrwt>0</asrwt>
<pdfrwt beam="2">  1        2 0.35029767E+00 0.33563618E+03</pdfrwt>
<pdfrwt beam="1">  1       -2 0.76454748E-02 0.33563618E+03</pdfrwt>
<totfact> 0.53232654E+02</totfact>
</mgrwt>
</event>
<event>
 6    1  0.5818426E-006  0.1274401E+03  0.7546771E-02  0.1249347E+00
          1   -1    0    0  501    0  0.00000000000E+00  0.00000000000E+00  0.31380143131E+03  0.31380143131E+03  0.00000000000E+00 0. -1.
         -1   -1    0    0    0  501 -0.00000000000E+00 -0.00000000000E+00 -0.45809093760E+03  0.45809093760E+03  0.00000000000E+00 0.  1.
          5    1    1    2  502    0  0.44663079776E+02 -0.47417885706E+01 -0.35671062512E+03  0.35955783308E+03  0.47000000000E+01 0. -1.
         -5    1    1    2    0  502 -0.52963235553E+02 -0.19759255857E+01 -0.85988187809E+02  0.10111907360E+03  0.47000000000E+01 0.  1.
        -11    1    1    2    0    0 -0.35019997071E+02  0.22028758110E+01  0.65877722867E+02  0.74639984103E+02  0.00000000000E+00 0.  1.
         11    1    1    2    0    0  0.43320152848E+02  0.45148383452E+01  0.23253158377E+03  0.23657547814E+03  0.00000000000E+00 0. -1.
<mgrwt>
<rscale>  0 0.11628928E+03</rscale>
<asrwt>0</asrwt>
<pdfrwt beam="1">  1        1 0.48277143E-01 0.12744008E+03</pdfrwt>
<pdfrwt beam="2">  1       -1 0.70475529E-01 0.12744008E+03</pdfrwt>
<totfact> 0.18050604E+02</totfact>
</mgrwt>
</event>
<event>
 6    1  0.5818426E-006  0.2408503E+03  0.7546771E-02  0.1121884E+00
          2   -1    0    0  501    0  0.00000000000E+00  0.00000000000E+00  0.74734364029E+03  0.74734364029E+03  0.00000000000E+00 0. -1.
         -2   -1    0    0    0  501 -0.00000000000E+00 -0.00000000000E+00 -0.73205613268E+02  0.73205613268E+02  0.00000000000E+00 0.  1.
          5    1    1    2  502    0 -0.26507606847E+02  0.20464829815E+03  0.33667151146E+03  0.39490932603E+03  0.47000000000E+01 0.  1.
         -5    1    1    2    0  502  0.33661124885E+02  0.11088298959E+01  0.45035499353E+02  0.56432145398E+02  0.47000000000E+01 0.  1.
        -11    1    1    2    0    0  0.40316259264E+02 -0.94357686569E+02  0.15676109083E+03  0.18735744814E+03  0.00000000000E+00 0.  1.
         11    1    1    2    0    0 -0.47469777302E+02 -0.11139944148E+03  0.13566992538E+03  0.18185033398E+03  0.00000000000E+00 0. -1.
<mgrwt>
<rscale>  0 0.23688730E+03</rscale>
<asrwt>0</asrwt>
<pdfrwt beam="1">  1        2 0.11497594E+00 0.24085033E+03</pdfrwt>
<pdfrwt beam="2">  1       -2 0.11262403E-01 0.24085033E+03</pdfrwt>
<totfact> 0.21131216E+03</totfact>
</mgrwt>
</event>
<event>
 6    1  0.6106960E-006  0.4577031E+03  0.7546771E-02  0.1025449E+00
          1   -1    0    0  501    0  0.00000000000E+00  0.00000000000E+00  0.45054350558E+03  0.45054350558E+03  0.00000000000E+00 0. -1.
         -1   -1    0    0    0  501 -0.00000000000E+00 -0.00000000000E+00 -0.11624412073E+03  0.11624412073E+03  0.00000000000E+00 0.  1.
          5    1    1    2  502    0  0.25364348990E+02 -0.21361824729E+02  0.18540516685E+02  0.38282091301E+02  0.47000000000E+01 0.  1.
         -5    1    1    2    0  502 -0.13633097946E+03 -0.90972182907E+02  0.56581304855E-01  0.16396392050E+03  0.47000000000E+01 0.  1.
        -11    1    1    2    0    0  0.71164554813E+02  0.95238946480E+01  0.13346765260E+03  0.15155432268E+03  0.00000000000E+00 0.  1.
         11    1    1    2    0    0  0.39802075655E+02  0.10281011299E+03  0.18223463427E+03  0.21298729184E+03  0.00000000000E+00 0. -1.
<mgrwt>
<rscale>  0 0.45770311E+03</rscale>
<asrwt>0</asrwt>
<pdfrwt beam="1">  1        1 0.69314385E-01 0.45770311E+03</pdfrwt>
<pdfrwt beam="2">  1       -1 0.17883711E-01 0.45770311E+03</pdfrwt>
<totfact> 0.12595645E+03</totfact>
</mgrwt>
</event>
<event>
 6    1  0.5818426E-006  0.1371148E+03  0.7546771E-02  0.1228604E+00
         -1   -1    0    0    0  501 -0.00000000000E+00  0.00000000000E+00  0.20516972310E+02  0.20516972310E+02  0.00000000000E+00 0.  1.
          1   -1    0    0  501    0  0.00000000000E+00 -0.00000000000E+00 -0.73322596157E+03  0.73322596157E+03  0.00000000000E+00 0. -1.
          5    1    1    2  502    0  0.95318538602E+00  0.48069638685E+02 -0.65685581494E+02  0.81537012098E+02  0.47000000000E+01 0. -1.
         -5    1    1    2    0  502 -0.56585571689E+02 -0.39099046048E+02 -0.33319232850E+03  0.34024973196E+03  0.47000000000E+01 0. -1.
        -11    1    1    2    0    0 -0.25335520477E+02  0.44181872287E+01 -0.87728966306E+02  0.91420897531E+02  0.00000000000E+00 0.  1.
         11    1    1    2    0    0  0.80967906780E+02 -0.13388779865E+02 -0.22610211296E+03  0.24053529229E+03  0.00000000000E+00 0. -1.
<mgrwt>
<rscale>  0 0.12922887E+03</rscale>
<asrwt>0</asrwt>
<pdfrwt beam="2">  1        1 0.11280397E+00 0.13711481E+03</pdfrwt>
<pdfrwt beam="1">  1       -1 0.31564579E-02 0.13711481E+03</pdfrwt>
<totfact> 0.88502023E+03</totfact>
</mgrwt>
</event>
<event>
 6    1  0.5818426E-006  0.3072854E+03  0.7546771E-02  0.1081654E+00
         -2   -1    0    0    0  501 -0.00000000000E+00  0.00000000000E+00  0.65992286051E+02  0.65992286051E+02  0.00000000000E+00 0.  1.
          2   -1    0    0  501    0  0.00000000000E+00 -0.00000000000E+00 -0.35770965797E+03  0.35770965797E+03  0.00000000000E+00 0. -1.
          5    1    1    2  502    0 -0.70078845464E+02  0.15360983396E+02  0.29347008084E+02  0.77655272042E+02  0.47000000000E+01 0.  1.
         -5    1    1    2    0  502  0.58057219841E+01 -0.14569375404E+02 -0.65456755038E+02  0.67473327231E+02  0.47000000000E+01 0.  1.
        -11    1    1    2    0    0  0.15207907212E+02  0.33984545854E+02 -0.39617953492E+02  0.54367380271E+02  0.00000000000E+00 0.  1.
         11    1    1    2    0    0  0.49065216268E+02 -0.34776153845E+02 -0.21598967147E+03  0.22420596448E+03  0.00000000000E+00 0. -1.
<mgrwt>
<rscale>  0 0.30728539E+03</rscale>
<asrwt>0</asrwt>
<pdfrwt beam="2">  1        2 0.55032254E-01 0.30728539E+03</pdfrwt>
<pdfrwt beam="1">  1       -2 0.10152660E-01 0.30728539E+03</pdfrwt>
<totfact> 0.58367198E+03</totfact>
</mgrwt>
</event>
<event>
 6    1  0.5818426E-006  0.1480778E+03  0.7546771E-02  0.1208445E+00
          1   -1    0    0  501    0  0.00000000000E+00  0.00000000000E+00  0.31307842123E+03  0.31307842123E+03  0.00000000000E+00 0. -1.
         -1   -1    0    0    0  501 -0.00000000000E+00 -0.00000000000E+00 -0.67329587698E+02  0.67329587698E+02  0.00000000000E+00 0.  1.
          5    1    1    2  502    0 -0.40043373627E+02 -0.67917109472E+02  0.76194795345E+02  0.10974489678E+03  0.47000000000E+01 0. -1.
         -5    1    1    2    0  502 -0.47726146888E+02  0.31846334124E+02  0.17503869301E+01  0.57594513179E+02  0.47000000000E+01 0.  1.
        -11    1    1    2    0    0  0.68328682896E+02 -0.50426585149E+01  0.14873043129E+03  0.16375279693E+03  0.00000000000E+00 0. -1.
         11    1    1    2    0    0  0.19440837619E+02  0.41113433863E+02  0.19073219969E+02  0.49315802045E+02  0.00000000000E+00 0.  1.
<mgrwt>
<rscale>  0 0.14369282E+03</rscale>
<asrwt>0</asrwt>
<pdfrwt beam="1">  1        1 0.48165910E-01 0.14807777E+03</pdfrwt>
<pdfrwt beam="2">  1       -1 0.10358398E-01 0.14807777E+03</pdfrwt>
<totfact> 0.46226135E+03</totfact>
</mgrwt>
</event>
<event>
 6    1  0.5818426E-006  0.2695304E+03  0.7546771E-02  0.1101549E+00
         -2   -1    0    0    0  501 -0.00000000000E+00  0.00000000000E+00  0.65677613887E+02  0.65677613887E+02  0.00000000000E+00 0.  1.
          2   -1    0    0  501    0  0.00000000000E+00 -0.00000000000E+00 -0.27652735113E+03  0.27652735113E+03  0.00000000000E+00 0. -1.
          5    1    1    2  502    0 -0.32241686458E+02 -0.70015149691E+02 -0.16473475103E+01  0.77242807339E+02  0.47000000000E+01 0. -1.
         -5    1    1    2    0  502 -0.15127027031E+02  0.84686513786E+01 -0.10002678029E+03  0.10162672768E+03  0.47000000000E+01 0. -1.
        -11    1    1    2    0    0 -0.76444335815E+01  0.63709513747E+02 -0.74257756642E+02  0.98140480578E+02  0.00000000000E+00 0.  1.
         11    1    1    2    0    0  0.55013147070E+02 -0.21630154348E+01 -0.34917852805E+02  0.65194949427E+02  0.00000000000E+00 0. -1.
<mgrwt>
<rscale>  0 0.26953038E+03</rscale>
<asrwt>0</asrwt>
<pdfrwt beam="2">  1        2 0.42542669E-01 0.26953038E+03</pdfrwt>
<pdfrwt beam="1">  1       -2 0.10104248E-01 0.26953038E+03</pdfrwt>
<totfact> 0.77287327E+03</totfact>
</mgrwt>
</event>
<event>
 6    1  0.5818426E-006  0.1474084E+03  0.7546771E-02  0.1211927E+00
         -2   -1    0    0    0  501 -0.00000000000E+00  0.00000000000E+00  0.43896680377E+02  0.43896680377E+02  0.00000000000E+00 0.  1.
          2   -1    0    0  501    0  0.00000000000E+00 -0.00000000000E+00 -0.44097291763E+03  0.44097291763E+03  0.00000000000E+00 0. -1.
          5    1    1    2  502    0 -0.13801923271E+01  0.11485976136E+02 -0.14949515940E+03  0.15001575005E+03  0.47000000000E+01 0. -1.
         -5    1    1    2    0  502  0.63965288756E+00  0.66654408304E+02 -0.10688819196E+02  0.67672447555E+02  0.47000000000E+01 0. -1.
        -11    1    1    2    0    0  0.13581763655E+02 -0.98506258502E+02 -0.18767174534E+03  0.21238792636E+03  0.00000000000E+00 0.  1.
         11    1    1    2    0    0 -0.12841224215E+02  0.20365874061E+02 -0.49220513315E+02  0.54793474033E+02  0.00000000000E+00 0. -1.
<mgrwt>
<rscale>  0 0.14104716E+03</rscale>
<asrwt>0</asrwt>
<pdfrwt beam="2">  1        2 0.67841990E-01 0.14740843E+03</pdfrwt>
<pdfrwt beam="1">  1       -2 0.67533352E-02 0.14740843E+03</pdfrwt>
<totfact> 0.84658296E+03</totfact>
</mgrwt>
</event>
<event>
 6    1  0.5818426E-006  0.1294995E+03  0.7546771E-02  0.1260479E+00
          1   -1    0    0  501    0  0.00000000000E+00  0.00000000000E+00  0.27117777984E+03  0.27117777984E+03  0.00000000000E+00 0. -1.
         -1   -1    0    0    0  501 -0.00000000000E+00 -0.00000000000E+00 -0.35916291794E+02  0.35916291794E+02  0.00000000000E+00 0.  1.
          5    1    1    2  502    0 -0.23782275164E+02  0.99980242754E+01  0.15472619232E+03  0.15693260239E+03  0.47000000000E+01 0. -1.
         -5    1    1    2    0  502  0.28302699741E+02  0.23547326308E+02 -0.88242417155E+01  0.38150709440E+02  0.47000000000E+01 0. -1.
        -11    1    1    2    0    0 -0.22357362787E+02 -0.27480048184E+02  0.21176816880E+02  0.41273021359E+02  0.00000000000E+00 0.  1.
         11    1    1    2    0    0  0.17836938210E+02 -0.60653024002E+01  0.68182720555E+02  0.70737738444E+02  0.00000000000E+00 0. -1.
<mgrwt>
<rscale>  0 0.11004921E+03</rscale>
<asrwt>0</asrwt>
<pdfrwt beam="1">  1        1 0.41719657E-01 0.12949950E+03</pdfrwt>
<pdfrwt beam="2">  1       -1 0.55255835E-02 0.12949950E+03</pdfrwt>
<totfact> 0.14097556E+04</totfact>
</mgrwt>
</event>
<event>
 6    1  0.5818426E-006  0.1322762E+03  0.7546771E-02  0.1235460E+00
          2   -1    0    0  501    0  0.00000000000E+00  0.00000000000E+00  0.31101359423E+02  0.31101359423E+02  0.00000000000E+00 0. -1.
         -2   -1    0    0    0  501 -0.00000000000E+00 -0.00000000000E+00 -0.45366145889E+03  0.45366145889E+03  0.00000000000E+00 0.  1.
          5    1    1    2  502    0  0.76206513036E+02 -0.20471580325E+02 -0.11630069369E+03  0.14062168959E+03  0.47000000000E+01 0.  1.
         -5    1    1    2    0  502 -0.34691764154E+02  0.32658205242E+02 -0.13722049156E+03  0.14533282552E+03  0.47000000000E+01 0.  1.
        -11    1    1    2    0    0 -0.42570035257E+02 -0.43412399937E+02 -0.15088156812E+03  0.16267173069E+03  0.00000000000E+00 0.  1.
         11    1    1    2    0    0  0.10552863742E+01  0.31225775021E+02 -0.18157346093E+02  0.36136572501E+02  0.00000000000E+00 0. -1.
<mgrwt>
<rscale>  0 0.12475012E+03</rscale>
<asrwt>0</asrwt>
<pdfrwt beam="1">  1        2 0.47848244E-02 0.13227620E+03</pdfrwt>
<pdfrwt beam="2">  1       -2 0.69794072E-01 0.13227620E+03</pdfrwt>
<totfact> 0.30509679E+03</totfact>
</mgrwt>
</event>
<event>
 6    1  0.5818426E-006  0.2614670E+03  0.7546771E-02  0.1106265E+00
         -2   -1    0    0    0  501 -0.00000000000E+00  0.00000000000E+00  0.10924617226E+03  0.10924617226E+03  0.00000000000E+00 0.  1.
          2   -1    0    0  501    0  0.00000000000E+00 -0.00000000000E+00 -0.15644715992E+03  0.15644715992E+03  0.00000000000E+00 0. -1.
          5    1    1    2  502    0 -0.27335085632E+02 -0.29982134426E+02  0.28506216429E+02  0.49807927746E+02  0.47000000000E+01 0. -1.
         -5    1    1    2    0  502  0.86726289593E+02  0.14763076192E+02 -0.17606302094E+02  0.89841357952E+02  0.47000000000E+01 0. -1.
        -11    1    1    2    0    0 -0.13802344050E+02  0.45606194229E+02 -0.20932825855E+01  0.47694983859E+02  0.00000000000E+00 0.  1.
         11    1    1    2    0    0 -0.45588859910E+02 -0.30387135995E+02 -0.56007619413E+02  0.78349062625E+02  0.00000000000E+00 0. -1.
<mgrwt>
<rscale>  0 0.26146704E+03</rscale>
<asrwt>0</asrwt>
<pdfrwt beam="2">  1        2 0.24068794E-01 0.26146704E+03</pdfrwt>
<pdfrwt beam="1">  1       -2 0.16807103E-01 0.26146704E+03</pdfrwt>
<totfact> 0.62848809E+03</totfact>
</mgrwt>
</event>
<event>
 6    1  0.5818426E-006  0.1282440E+03  0.7546771E-02  0.1245155E+00
         -2   -1    0    0    0  501 -0.00000000000E+00  0.00000000000E+00  0.19893672086E+02  0.19893672086E+02  0.00000000000E+00 0.  1.
          2   -1    0    0  501    0  0.00000000000E+00 -0.00000000000E+00 -0.67907278149E+03  0.67907278149E+03  0.00000000000E+00 0. -1.
          5    1    1    2  502    0  0.29514239619E+02 -0.82681546998E+01 -0.61536422935E+01  0.31613447074E+02  0.47000000000E+01 0. -1.
         -5    1    1    2    0  502 -0.18488245692E+02  0.34732815046E+02 -0.26967219395E+03  0.27256809399E+03  0.47000000000E+01 0. -1.
        -11    1    1    2    0    0 -0.47583755299E+02 -0.40646565745E+00 -0.15830097413E+03  0.16529844946E+03  0.00000000000E+00 0.  1.
         11    1    1    2    0    0  0.36557761372E+02 -0.26058194689E+02 -0.22505229903E+03  0.22948646305E+03  0.00000000000E+00 0. -1.
<mgrwt>
<rscale>  0 0.11876088E+03</rscale>
<asrwt>0</asrwt>
<pdfrwt beam="2">  1        2 0.10447271E+00 0.12824398E+03</pdfrwt>
<pdfrwt beam="1">  1       -2 0.30605656E-02 0.12824398E+03</pdfrwt>
<totfact> 0.16892367E+04</totfact>
</mgrwt>
</event>
<event>
 6    1  0.5818426E-006  0.2082127E+03  0.7546771E-02  0.1146483E+00
          1   -1    0    0  501    0  0.00000000000E+00  0.00000000000E+00  0.59259457669E+03  0.59259457669E+03  0.00000000000E+00 0. -1.
         -1   -1    0    0    0  501 -0.00000000000E+00 -0.00000000000E+00 -0.87756143903E+02  0.87756143903E+02  0.00000000000E+00 0.  1.
          5    1    1    2  502    0 -0.10231177270E+03  0.46209005644E+02  0.19986972165E+02  0.11412510719E+03  0.47000000000E+01 0. -1.
         -5    1    1    2    0  502 -0.63801014572E+02 -0.57821653615E+02  0.76840081581E+02  0.11550065465E+03  0.47000000000E+01 0. -1.
        -11    1    1    2    0    0  0.14526357469E+03 -0.10843684919E+02  0.38717051149E+03  0.41366664912E+03  0.00000000000E+00 0. -1.
         11    1    1    2    0    0  0.20849212582E+02  0.22456332889E+02  0.20840867554E+02  0.37058309629E+02  0.00000000000E+00 0.  1.
<mgrwt>
<rscale>  0 0.20390768E+03</rscale>
<asrwt>0</asrwt>
<pdfrwt beam="1">  1        1 0.91168394E-01 0.20821266E+03</pdfrwt>
<pdfrwt beam="2">  1       -1 0.13500946E-01 0.20821266E+03</pdfrwt>
<totfact> 0.13578507E+03</totfact>
</mgrwt>
</event>
<event>
 6    1  0.5818426E-006  0.1378699E+03  0.7546771E-02  0.1236150E+00
         -1   -1    0    0    0  501 -0.00000000000E+00  0.00000000000E+00  0.12541878043E+03  0.12541878043E+03  0.00000000000E+00 0.  1.
          1   -1    0    0  501    0  0.00000000000E+00 -0.00000000000E+00 -0.12178153183E+03  0.12178153183E+03  0.00000000000E+00 0. -1.
          5    1    1    2  502    0  0.98651109514E+01  0.60436057215E+02  0.42368574651E+02  0.74612489194E+02  0.47000000000E+01 0. -1.
         -5    1    1    2    0  502  0.80289578978E+01 -0.70496265924E+02  0.54558072760E+01  0.71316502348E+02  0.47000000000E+01 0.  1.
        -11    1    1    2    0    0  0.11278739394E+02  0.35547773709E+02 -0.49706438215E+02  0.62141646084E+02  0.00000000000E+00 0. -1.
         11    1    1    2    0    0 -0.29172808243E+02 -0.25487565000E+02  0.55193048891E+01  0.39129674633E+02  0.00000000000E+00 0.  1.
<mgrwt>
<rscale>  0 0.12431080E+03</rscale>
<asrwt>0</asrwt>
<pdfrwt beam="2">  1        1 0.18735620E-01 0.13786986E+03</pdfrwt>
<pdfrwt beam="1">  1       -1 0.19295197E-01 0.13786986E+03</pdfrwt>
<totfact> 0.56676693E+03</totfact>
</mgrwt>
</event>
<event>
 6    1  0.5818426E-006  0.1661457E+03  0.7546771E-02  0.1205916E+00
          1   -1    0    0  501    0  0.00000000000E+00  0.00000000000E+00  0.79308130196E+03  0.79308130196E+03  0.00000000000E+00 0. -1.
         -1   -1    0    0    0  501 -0.00000000000E+00 -0.00000000000E+00 -0.27233937507E+02  0.27233937507E+02  0.00000000000E+00 0.  1.
          5    1    1    2  502    0  0.92566275196E+01 -0.92374330659E+02  0.15070369882E+03  0.17706608076E+03  0.47000000000E+01 0. -1.
         -5    1    1    2    0  502 -0.31286260145E+02  0.65613401042E+02  0.13724206619E+03  0.15537510484E+03  0.47000000000E+01 0.  1.
        -11    1    1    2    0    0  0.37740796567E+02  0.54253617479E+02  0.34262044252E+03  0.34893637008E+03  0.00000000000E+00 0.  1.
         11    1    1    2    0    0 -0.15711163942E+02 -0.27492687862E+02  0.13528115692E+03  0.13893768379E+03  0.00000000000E+00 0. -1.
<mgrwt>
<rscale>  0 0.14565538E+03</rscale>
<asrwt>0</asrwt>
<pdfrwt beam="1">  1        1 0.12201249E+00 0.16614565E+03</pdfrwt>
<pdfrwt beam="2">  1       -1 0.41898371E-02 0.16614565E+03</pdfrwt>
<totfact> 0.52493766E+03</totfact>
</mgrwt>
</event>
<event>
 6    1  0.5818426E-006  0.1868795E+03  0.7546771E-02  0.1166356E+00
         -2   -1    0    0    0  501 -0.00000000000E+00  0.00000000000E+00  0.33270961845E+03  0.33270961845E+03  0.00000000000E+00 0. -1.
          2   -1    0    0  501    0  0.00000000000E+00 -0.00000000000E+00 -0.10780053397E+03  0.10780053397E+03  0.00000000000E+00 0.  1.
          5    1    1    2  502    0 -0.32007820645E+02 -0.46805119492E+02  0.39484748506E+02  0.69255722924E+02  0.47000000000E+01 0.  1.
         -5    1    1    2    0  502 -0.10470548948E+03  0.71469596365E+02  0.15815776969E+03  0.20274889111E+03  0.47000000000E+01 0.  1.
        -11    1    1    2    0    0  0.40965141632E+02  0.20641290804E+00 -0.33055719022E+02  0.52639015903E+02  0.00000000000E+00 0.  1.
         11    1    1    2    0    0  0.95748168497E+02 -0.24870889781E+02  0.60322285308E+02  0.11586652249E+03  0.00000000000E+00 0. -1.
<mgrwt>
<rscale>  0 0.18150325E+03</rscale>
<asrwt>0</asrwt>
<pdfrwt beam="2">  1        2 0.16584698E-01 0.18687949E+03</pdfrwt>
<pdfrwt beam="1">  1       -2 0.51186095E-01 0.18687949E+03</pdfrwt>
<totfact> 0.12522211E+03</totfact>
</mgrwt>
</event>
<event>
 6    1  0.5818426E-006  0.1272273E+03  0.7546771E-02  0.1249797E+00
          1   -1    0    0  501    0  0.00000000000E+00  0.00000000000E+00  0.55974411559E+02  0.55974411559E+02  0.00000000000E+00 0. -1.
         -1   -1    0    0    0  501 -0.00000000000E+00 -0.00000000000E+00 -0.21184377082E+03  0.21184377082E+03  0.00000000000E+00 0.  1.
          5    1    1    2  502    0  0.10905443672E+02  0.54584481016E+02 -0.31704956333E+02  0.64231522833E+02  0.47000000000E+01 0. -1.
         -5    1    1    2    0  502 -0.34243389835E+02 -0.58665123316E+02 -0.80210765792E+02  0.10521436874E+03  0.47000000000E+01 0. -1.
        -11    1    1    2    0    0  0.20136601560E+02 -0.81869976419E+01  0.22167346051E+02  0.31046753191E+02  0.00000000000E+00 0. -1.
         11    1    1    2    0    0  0.32013446038E+01  0.12267639942E+02 -0.66120983186E+02  0.67325537610E+02  0.00000000000E+00 0.  1.
<mgrwt>
<rscale>  0 0.11602836E+03</rscale>
<asrwt>0</asrwt>
<pdfrwt beam="1">  1        1 0.86114479E-02 0.12722728E+03</pdfrwt>
<pdfrwt beam="2">  1       -1 0.32591350E-01 0.12722728E+03</pdfrwt>
<totfact> 0.65702824E+03</totfact>
</mgrwt>
</event>
<event>
 6    1  0.5818426E-006  0.1701295E+03  0.7546771E-02  0.1184321E+00
         -1   -1    0    0    0  501 -0.00000000000E+00  0.00000000000E+00  0.43690918178E+03  0.43690918178E+03  0.00000000000E+00 0.  1.
          1   -1    0    0  501    0  0.00000000000E+00 -0.00000000000E+00 -0.60014421978E+02  0.60014421978E+02  0.00000000000E+00 0. -1.
          5    1    1    2  502    0  0.39142340135E+02  0.16715436980E+02  0.17019809221E+03  0.17550216300E+03  0.47000000000E+01 0.  1.
         -5    1    1    2    0  502  0.55939392398E+02 -0.82104491999E+02  0.82994736197E+02  0.12953987596E+03  0.47000000000E+01 0.  1.
        -11    1    1    2    0    0 -0.10885414044E+03  0.39741098618E+02  0.10972854296E+03  0.15958988675E+03  0.00000000000E+00 0. -1.
         11    1    1    2    0    0  0.13772407908E+02  0.25647956401E+02  0.13973388430E+02  0.32291678051E+02  0.00000000000E+00 0.  1.
<mgrwt>
<rscale>  0 0.16393843E+03</rscale>
<asrwt>0</asrwt>
<pdfrwt beam="2">  1        1 0.92329883E-02 0.17012947E+03</pdfrwt>
<pdfrwt beam="1">  1       -1 0.67216795E-01 0.17012947E+03</pdfrwt>
<totfact> 0.16360945E+03</totfact>
</mgrwt>
</event>
<event>
 6    1  0.5818426E-006  0.2049911E+03  0.7546771E-02  0.1150378E+00
         -1   -1    0    0    0  501 -0.00000000000E+00  0.00000000000E+00  0.87794323857E+02  0.87794323857E+02  0.00000000000E+00 0.  1.
          1   -1    0    0  501    0  0.00000000000E+00 -0.00000000000E+00 -0.42888700304E+03  0.42888700304E+03  0.00000000000E+00 0. -1.
          5    1    1    2  502    0 -0.11708212919E+02 -0.25113455794E+02  0.54254911835E+01  0.28623309841E+02  0.47000000000E+01 0.  1.
         -5    1    1    2    0  502  0.13648440291E+03 -0.78949041245E+02 -0.19272368311E+03  0.24904909432E+03  0.47000000000E+01 0.  1.
        -11    1    1    2    0    0 -0.10883648636E+03  0.11728334396E+03 -0.12262879992E+03  0.20159014387E+03  0.00000000000E+00 0.  1.
         11    1    1    2    0    0 -0.15939703627E+02 -0.13220846917E+02 -0.31165687331E+02  0.37418778864E+02  0.00000000000E+00 0. -1.
<mgrwt>
<rscale>  0 0.19924494E+03</rscale>
<asrwt>0</asrwt>
<pdfrwt beam="2">  1        1 0.65982615E-01 0.20499110E+03</pdfrwt>
<pdfrwt beam="1">  1       -1 0.13506819E-01 0.20499110E+03</pdfrwt>
<totfact> 0.20840718E+03</totfact>
</mgrwt>
</event>
<event>
 6    1  0.5818426E-006  0.1511155E+03  0.7546771E-02  0.1208356E+00
         -2   -1    0    0    0  501 -0.00000000000E+00  0.00000000000E+00  0.21282151513E+03  0.21282151513E+03  0.00000000000E+00 0.  1.
          2   -1    0    0  501    0  0.00000000000E+00 -0.00000000000E+00 -0.14567552213E+03  0.14567552213E+03  0.00000000000E+00 0. -1.
          5    1    1    2  502    0 -0.53851619034E+02 -0.34988937284E+02  0.65160235646E+02  0.91608781862E+02  0.47000000000E+01 0. -1.
         -5    1    1    2    0  502  0.72047423761E+02 -0.47971884786E+02  0.82144975509E+02  0.11942369950E+03  0.47000000000E+01 0. -1.
        -11    1    1    2    0    0 -0.63695124293E+01  0.59389589320E+02  0.34155680828E+01  0.59827753706E+02  0.00000000000E+00 0.  1.
         11    1    1    2    0    0 -0.11826292298E+02  0.23571232749E+02 -0.83574786242E+02  0.87636802191E+02  0.00000000000E+00 0. -1.
<mgrwt>
<rscale>  0 0.14376066E+03</rscale>
<asrwt>0</asrwt>
<pdfrwt beam="2">  1        2 0.22411619E-01 0.15111546E+03</pdfrwt>
<pdfrwt beam="1">  1       -2 0.32741771E-01 0.15111546E+03</pdfrwt>
<totfact> 0.20681606E+03</totfact>
</mgrwt>
</event>
<event>
 6    1  0.5818426E-006  0.1387537E+03  0.7546771E-02  0.1227239E+00
          3   -1    0    0  501    0  0.00000000000E+00  0.00000000000E+00  0.49246673887E+03  0.49246673887E+03  0.00000000000E+00 0. -1.
         -3   -1    0    0    0  501 -0.00000000000E+00 -0.00000000000E+00 -0.34246669373E+02  0.34246669373E+02  0.00000000000E+00 0.  1.
          5    1    1    2  502    0  0.51637978764E+02  0.10428759626E+01  0.14336867497E+03  0.15246060279E+03  0.47000000000E+01 0. -1.
         -5    1    1    2    0  502 -0.29063216041E+02  0.54810873710E+02  0.28519315200E+02  0.68442265765E+02  0.47000000000E+01 0. -1.
        -11    1    1    2    0    0 -0.40654612061E+02 -0.29126791630E+01  0.19078912241E+03  0.19509426032E+03  0.00000000000E+00 0. -1.
         11    1    1    2    0    0  0.18079849339E+02 -0.52941070510E+02  0.95542956913E+02  0.11071627936E+03  0.00000000000E+00 0.  1.
<mgrwt>
<rscale>  0 0.13014608E+03</rscale>
<asrwt>0</asrwt>
<pdfrwt beam="1">  1        3 0.75764108E-01 0.13875372E+03</pdfrwt>
<pdfrwt beam="2">  1       -3 0.52687187E-02 0.13875372E+03</pdfrwt>
<totfact> 0.81704808E+02</totfact>
</mgrwt>
</event>
<event>
 6    1  0.5818426E-006  0.1370926E+03  0.7546771E-02  0.1230023E+00
          2   -1    0    0  501    0  0.00000000000E+00  0.00000000000E+00  0.27953530359E+03  0.27953530359E+03  0.00000000000E+00 0. -1.
         -2   -1    0    0    0  501 -0.00000000000E+00 -0.00000000000E+00 -0.52835087663E+02  0.52835087663E+02  0.00000000000E+00 0.  1.
          5    1    1    2  502    0 -0.31376698957E+02 -0.25288711180E+02 -0.94054016582E+01  0.41648141986E+02  0.47000000000E+01 0.  1.
         -5    1    1    2    0  502 -0.15794875718E+02  0.56046447013E+02  0.12384459539E+03  0.13693157462E+03  0.47000000000E+01 0.  1.
        -11    1    1    2    0    0 -0.41596344845E+01 -0.26839664100E+02 -0.32240624026E+01  0.27350771588E+02  0.00000000000E+00 0.  1.
         11    1    1    2    0    0  0.51331209159E+02 -0.39180717330E+01  0.11548508460E+03  0.12643990306E+03  0.00000000000E+00 0. -1.
<mgrwt>
<rscale>  0 0.12828506E+03</rscale>
<asrwt>0</asrwt>
<pdfrwt beam="1">  1        2 0.43005430E-01 0.13709262E+03</pdfrwt>
<pdfrwt beam="2">  1       -2 0.81284752E-02 0.13709262E+03</pdfrwt>
<totfact> 0.10297847E+04</totfact>
</mgrwt>
</event>
<event>
 6    1  0.5818426E-006  0.1388947E+03  0.7546771E-02  0.1235172E+00
          1   -1    0    0  501    0  0.00000000000E+00  0.00000000000E+00  0.21180635613E+03  0.21180635613E+03  0.00000000000E+00 0. -1.
         -1   -1    0    0    0  501 -0.00000000000E+00 -0.00000000000E+00 -0.78279778495E+02  0.78279778495E+02  0.00000000000E+00 0.  1.
          5    1    1    2  502    0  0.57627695492E+02 -0.27758963702E+02  0.94608339608E+01  0.64831386941E+02  0.47000000000E+01 0. -1.
         -5    1    1    2    0  502 -0.67212164424E+02  0.32050429527E+02  0.40959426291E+01  0.74723301757E+02  0.47000000000E+01 0.  1.
        -11    1    1    2    0    0 -0.36055546855E+02 -0.12753000485E+02  0.82298660920E+02  0.90750818562E+02  0.00000000000E+00 0.  1.
         11    1    1    2    0    0  0.45640015787E+02  0.84615346605E+01  0.37671140125E+02  0.59780627365E+02  0.00000000000E+00 0. -1.
<mgrwt>
<rscale>  0 0.12493450E+03</rscale>
<asrwt>0</asrwt>
<pdfrwt beam="1">  1        1 0.32585593E-01 0.13889465E+03</pdfrwt>
<pdfrwt beam="2">  1       -1 0.12043043E-01 0.13889465E+03</pdfrwt>
<totfact> 0.59286054E+03</totfact>
</mgrwt>
</event>
<event>
 6    1  0.5818426E-006  0.1314656E+03  0.7546771E-02  0.1243447E+00
          2   -1    0    0  501    0  0.00000000000E+00  0.00000000000E+00  0.67839128742E+03  0.67839128742E+03  0.00000000000E+00 0. -1.
         -2   -1    0    0    0  501 -0.00000000000E+00 -0.00000000000E+00 -0.18249386032E+02  0.18249386032E+02  0.00000000000E+00 0.  1.
          5    1    1    2  502    0 -0.58521904087E+02 -0.29475700748E+02  0.12729883287E+03  0.14325052545E+03  0.47000000000E+01 0.  1.
         -5    1    1    2    0  502  0.49588192999E+02 -0.10258390006E+02  0.28496071236E+03  0.28946316007E+03  0.47000000000E+01 0.  1.
        -11    1    1    2    0    0  0.44469151044E+02  0.22864150418E+02  0.16026875363E+03  0.16788790355E+03  0.00000000000E+00 0. -1.
         11    1    1    2    0    0 -0.35535439955E+02  0.16869940335E+02  0.87613602530E+02  0.96039084377E+02  0.00000000000E+00 0.  1.
<mgrwt>
<rscale>  0 0.11978814E+03</rscale>
<asrwt>0</asrwt>
<pdfrwt beam="1">  1        2 0.10436787E+00 0.13146559E+03</pdfrwt>
<pdfrwt beam="2">  1       -2 0.28075984E-02 0.13146559E+03</pdfrwt>
<totfact> 0.19232490E+04</totfact>
</mgrwt>
</event>
<event>
 6    1  0.5818426E-006  0.2007347E+03  0.7546771E-02  0.1153937E+00
          2   -1    0    0  501    0  0.00000000000E+00  0.00000000000E+00  0.36292945215E+03  0.36292945215E+03  0.00000000000E+00 0. -1.
         -2   -1    0    0    0  501 -0.00000000000E+00 -0.00000000000E+00 -0.99517870526E+02  0.99517870526E+02  0.00000000000E+00 0.  1.
          5    1    1    2  502    0 -0.95796115364E+01 -0.13014983789E+03  0.11238345662E+03  0.17228720376E+03  0.47000000000E+01 0.  1.
         -5    1    1    2    0  502 -0.64161624520E+02 -0.85330083084E+01  0.18999721998E+02  0.67621045007E+02  0.47000000000E+01 0.  1.
        -11    1    1    2    0    0  0.61567547544E+02  0.72351862451E+02  0.12158046480E+03  0.15429570419E+03  0.00000000000E+00 0. -1.
         11    1    1    2    0    0  0.12173688512E+02  0.66330983745E+02  0.10447938204E+02  0.68243369710E+02  0.00000000000E+00 0.  1.
<mgrwt>
<rscale>  0 0.19510424E+03</rscale>
<asrwt>0</asrwt>
<pdfrwt beam="1">  1        2 0.55835300E-01 0.20073472E+03</pdfrwt>
<pdfrwt beam="2">  1       -2 0.15310442E-01 0.20073472E+03</pdfrwt>
<totfact> 0.28977058E+03</totfact>
</mgrwt>
</event>
<event>
 6    1  0.5818426E-006  0.1415883E+03  0.7546771E-02  0.1232274E+00
          2   -1    0    0  501    0  0.00000000000E+00  0.00000000000E+00  0.91718030337E+02  0.91718030337E+02  0.00000000000E+00 0. -1.
         -2   -1    0    0    0  501 -0.00000000000E+00 -0.00000000000E+00 -0.21705003743E+03  0.21705003743E+03  0.00000000000E+00 0.  1.
          5    1    1    2  502    0 -0.20770928414E+02  0.31508529380E+02 -0.15673951998E+03  0.16128727790E+03  0.47000000000E+01 0. -1.
         -5    1    1    2    0  502  0.19714245477E+02 -0.46525213831E+02 -0.11109811590E+01  0.50759937706E+02  0.47000000000E+01 0.  1.
        -11    1    1    2    0    0  0.45294167774E+02  0.96351515259E+01  0.19922092660E+02  0.50411184822E+02  0.00000000000E+00 0. -1.
         11    1    1    2    0    0 -0.44237484837E+02  0.53815329253E+01  0.12596401380E+02  0.46309667339E+02  0.00000000000E+00 0.  1.
<mgrwt>
<rscale>  0 0.12680568E+03</rscale>
<asrwt>0</asrwt>
<pdfrwt beam="1">  1        2 0.14110466E-01 0.14158828E+03</pdfrwt>
<pdfrwt beam="2">  1       -2 0.33392313E-01 0.14158828E+03</pdfrwt>
<totfact> 0.33846551E+03</totfact>
</mgrwt>
</event>
<event>
 6    1  0.1545265E-005  0.4369005E+03  0.7546771E-02  0.1031702E+00
          1   -1    0    0  501    0  0.00000000000E+00  0.00000000000E+00  0.36029734024E+03  0.36029734024E+03  0.00000000000E+00 0. -1.
         -1   -1    0    0    0  501 -0.00000000000E+00 -0.00000000000E+00 -0.13244755309E+03  0.13244755309E+03  0.00000000000E+00 0.  1.
          5    1    1    2  502    0  0.62836297518E+01  0.37736429871E+02  0.35248681441E+02  0.52231041399E+02  0.47000000000E+01 0. -1.
         -5    1    1    2    0  502 -0.14578062076E+03  0.52056285790E+02 -0.19466653112E+02  0.15608615205E+03  0.47000000000E+01 0. -1.
        -11    1    1    2    0    0  0.92536107550E+02 -0.63006110382E+02  0.69048067213E+02  0.13153074444E+03  0.00000000000E+00 0.  1.
         11    1    1    2    0    0  0.46960883454E+02 -0.26786605280E+02  0.14301969160E+03  0.15289695544E+03  0.00000000000E+00 0. -1.
<mgrwt>
<rscale>  0 0.43690045E+03</rscale>
<asrwt>0</asrwt>
<pdfrwt beam="1">  1        1 0.55430360E-01 0.43690045E+03</pdfrwt>
<pdfrwt beam="2">  1       -1 0.20376547E-01 0.43690045E+03</pdfrwt>
<totfact> 0.13620658E+03</totfact>
</mgrwt>
</event>
<event>
 6    1  0.5818426E-006  0.2788287E+03  0.7546771E-02  0.1098155E+00
         -2   -1    0    0    0  501 -0.00000000000E+00  0.00000000000E+00  0.12674913991E+03  0.12674913991E+03  0.00000000000E+00 0.  1.
          2   -1    0    0  501    0  0.00000000000E+00 -0.00000000000E+00 -0.63419460416E+03  0.63419460416E+03  0.00000000000E+00 0. -1.
          5    1    1    2  502    0  0.73363679356E+02 -0.20652207440E+03 -0.15571852831E+03  0.26889393210E+03  0.47000000000E+01 0. -1.
         -5    1    1    2    0  502  0.47859171843E+02 -0.11248693381E+02  0.21376797865E+01  0.49433724391E+02  0.47000000000E+01 0. -1.
        -11    1    1    2    0    0 -0.12898095556E+03  0.16072516984E+03 -0.29862631593E+03  0.36283101257E+03  0.00000000000E+00 0.  1.
         11    1    1    2    0    0  0.77581043586E+01  0.57045597938E+02 -0.55238299801E+02  0.79785074997E+02  0.00000000000E+00 0. -1.
<mgrwt>
<rscale>  0 0.27553191E+03</rscale>
<asrwt>0</asrwt>
<pdfrwt beam="2">  1        2 0.97568401E-01 0.27882866E+03</pdfrwt>
<pdfrwt beam="1">  1       -2 0.19499868E-01 0.27882866E+03</pdfrwt>
<totfact> 0.10394602E+03</totfact>
</mgrwt>
</event>
<event>
 6    1  0.5818426E-006  0.1339918E+03  0.7546771E-02  0.1234297E+00
          2   -1    0    0  501    0  0.00000000000E+00  0.00000000000E+00  0.96063882172E+03  0.96063882172E+03  0.00000000000E+00 0. -1.
         -2   -1    0    0    0  501 -0.00000000000E+00 -0.00000000000E+00 -0.14884567763E+02  0.14884567763E+02  0.00000000000E+00 0.  1.
          5    1    1    2  502    0  0.51311320373E+02 -0.19164013452E+02  0.10093195074E+03  0.11493241358E+03  0.47000000000E+01 0.  1.
         -5    1    1    2    0  502 -0.51385299293E+02 -0.29090698968E+02  0.36918028867E+03  0.37390225099E+03  0.47000000000E+01 0.  1.
        -11    1    1    2    0    0  0.45426898113E+02  0.22432302922E+02  0.25131671985E+03  0.25637259012E+03  0.00000000000E+00 0.  1.
         11    1    1    2    0    0 -0.45352919193E+02  0.25822409498E+02  0.22432529469E+03  0.23031613480E+03  0.00000000000E+00 0. -1.
<mgrwt>
<rscale>  0 0.12549558E+03</rscale>
<asrwt>0</asrwt>
<pdfrwt beam="1">  1        2 0.14779054E+00 0.13399183E+03</pdfrwt>
<pdfrwt beam="2">  1       -2 0.22899343E-02 0.13399183E+03</pdfrwt>
<totfact> 0.16784073E+04</totfact>
</mgrwt>
</event>
<event>
 6    1  0.5818426E-006  0.1790646E+03  0.7546771E-02  0.1174335E+00
         -2   -1    0    0    0  501 -0.00000000000E+00  0.00000000000E+00  0.49800212111E+03  0.49800212111E+03  0.00000000000E+00 0.  1.
          2   -1    0    0  501    0  0.00000000000E+00 -0.00000000000E+00 -0.62764396996E+02  0.62764396996E+02  0.00000000000E+00 0. -1.
          5    1    1    2  502    0  0.90389739232E+02  0.93586206757E+02  0.25023047757E+03  0.28207457340E+03  0.47000000000E+01 0.  1.
         -5    1    1    2    0  502 -0.40436585281E+02  0.24498397026E+02  0.65806379852E+02  0.81165623975E+02  0.47000000000E+01 0.  1.
        -11    1    1    2    0    0 -0.12979694563E+02 -0.85454195428E+02  0.23030650870E+02  0.89450002050E+02  0.00000000000E+00 0. -1.
         11    1    1    2    0    0 -0.36973459388E+02 -0.32630408355E+02  0.96170215820E+02  0.10807631868E+03  0.00000000000E+00 0.  1.
<mgrwt>
<rscale>  0 0.17341270E+03</rscale>
<asrwt>0</asrwt>
<pdfrwt beam="2">  1        2 0.96560614E-02 0.17906464E+03</pdfrwt>
<pdfrwt beam="1">  1       -2 0.76615708E-01 0.17906464E+03</pdfrwt>
<totfact> 0.10344242E+03</totfact>
</mgrwt>
</event>
<event>
 6    1  0.5818426E-006  0.1315110E+03  0.7546771E-02  0.1238309E+00
          1   -1    0    0  501    0  0.00000000000E+00  0.00000000000E+00  0.33294056950E+03  0.33294056950E+03  0.00000000000E+00 0. -1.
         -1   -1    0    0    0  501 -0.00000000000E+00 -0.00000000000E+00 -0.41147633320E+02  0.41147633320E+02  0.00000000000E+00 0.  1.
          5    1    1    2  502    0 -0.80525244794E+02  0.20463939861E+02  0.91378725379E+02  0.12359307964E+03  0.47000000000E+01 0. -1.
         -5    1    1    2    0  502  0.47839944411E+02  0.40455926604E+01  0.48833814599E+02  0.68642978880E+02  0.47000000000E+01 0. -1.
        -11    1    1    2    0    0  0.23960595235E+02  0.33809478637E+02  0.59485507350E+02  0.72496320971E+02  0.00000000000E+00 0. -1.
         11    1    1    2    0    0  0.87247051480E+01 -0.58319011158E+02  0.92094888850E+02  0.10935582332E+03  0.00000000000E+00 0.  1.
<mgrwt>
<rscale>  0 0.12294964E+03</rscale>
<asrwt>0</asrwt>
<pdfrwt beam="1">  1        1 0.51221624E-01 0.13151101E+03</pdfrwt>
<pdfrwt beam="2">  1       -1 0.63304054E-02 0.13151101E+03</pdfrwt>
<totfact> 0.89463551E+03</totfact>
</mgrwt>
</event>
<event>
 6    1  0.5818426E-006  0.1318087E+03  0.7546771E-02  0.1237627E+00
          1   -1    0    0  501    0  0.00000000000E+00  0.00000000000E+00  0.25244128075E+03  0.25244128075E+03  0.00000000000E+00 0. -1.
         -1   -1    0    0    0  501 -0.00000000000E+00 -0.00000000000E+00 -0.54713929486E+02  0.54713929486E+02  0.00000000000E+00 0.  1.
          5    1    1    2  502    0 -0.30472490062E+02  0.38543360717E+02  0.62578493236E+01  0.49753532379E+02  0.47000000000E+01 0.  1.
         -5    1    1    2    0  502  0.67964213715E+02 -0.18596179093E+02  0.85276701894E+02  0.11072108249E+03  0.47000000000E+01 0.  1.
        -11    1    1    2    0    0  0.36693741327E+01  0.32119236718E+02  0.50883246346E+02  0.60284446025E+02  0.00000000000E+00 0. -1.
         11    1    1    2    0    0 -0.41161097785E+02 -0.52066418342E+02  0.55309553698E+02  0.86396149336E+02  0.00000000000E+00 0.  1.
<mgrwt>
<rscale>  0 0.12337763E+03</rscale>
<asrwt>0</asrwt>
<pdfrwt beam="1">  1        1 0.38837119E-01 0.13180868E+03</pdfrwt>
<pdfrwt beam="2">  1       -1 0.84175277E-02 0.13180868E+03</pdfrwt>
<totfact> 0.82145744E+03</totfact>
</mgrwt>
</event>
<event>
 6    1  0.5818426E-006  0.1386955E+03  0.7546771E-02  0.1227315E+00
         -3   -1    0    0    0  501 -0.00000000000E+00  0.00000000000E+00  0.16016202088E+03  0.16016202088E+03  0.00000000000E+00 0.  1.
          3   -1    0    0  501    0  0.00000000000E+00 -0.00000000000E+00 -0.95917443198E+02  0.95917443198E+02  0.00000000000E+00 0. -1.
          5    1    1    2  502    0 -0.15204436584E+02 -0.57172352229E+02  0.29030153992E+02  0.66065820149E+02  0.47000000000E+01 0. -1.
         -5    1    1    2    0  502  0.70716960852E+02  0.34315799707E+02  0.22529393911E+02  0.81903151659E+02  0.47000000000E+01 0. -1.
        -11    1    1    2    0    0  0.43615099810E+01  0.33860917729E+02  0.29318871818E+02  0.45002008438E+02  0.00000000000E+00 0.  1.
         11    1    1    2    0    0 -0.59874034249E+02 -0.11004365207E+02 -0.16633842037E+02  0.63108483834E+02  0.00000000000E+00 0. -1.
<mgrwt>
<rscale>  0 0.13009514E+03</rscale>
<asrwt>0</asrwt>
<pdfrwt beam="2">  1        3 0.14756530E-01 0.13869546E+03</pdfrwt>
<pdfrwt beam="1">  1       -3 0.24640311E-01 0.13869546E+03</pdfrwt>
<totfact> 0.13593066E+03</totfact>
</mgrwt>
</event>
<event>
 6    1  0.5818426E-006  0.1254838E+03  0.7546771E-02  0.1250639E+00
          2   -1    0    0  501    0  0.00000000000E+00  0.00000000000E+00  0.63847040244E+03  0.63847040244E+03  0.00000000000E+00 0. -1.
         -2   -1    0    0    0  501 -0.00000000000E+00 -0.00000000000E+00 -0.18216214578E+02  0.18216214578E+02  0.00000000000E+00 0.  1.
          5    1    1    2  502    0  0.41825034333E+02 -0.28623195348E+02  0.28378968891E+03  0.28831805067E+03  0.47000000000E+01 0.  1.
         -5    1    1    2    0  502 -0.36037440553E+02  0.38158070155E+02  0.74051232777E+02  0.90886800557E+02  0.47000000000E+01 0.  1.
        -11    1    1    2    0    0  0.28178916199E+02  0.15825313574E+02  0.41820226483E+02  0.52852844870E+02  0.00000000000E+00 0.  1.
         11    1    1    2    0    0 -0.33966509979E+02 -0.25360188380E+02  0.22059303969E+03  0.22462892092E+03  0.00000000000E+00 0. -1.
<mgrwt>
<rscale>  0 0.11554157E+03</rscale>
<asrwt>0</asrwt>
<pdfrwt beam="1">  1        2 0.98226199E-01 0.12548384E+03</pdfrwt>
<pdfrwt beam="2">  1       -2 0.28024950E-02 0.12548384E+03</pdfrwt>
<totfact> 0.20612033E+04</totfact>
</mgrwt>
</event>
<event>
 6    1  0.5818426E-006  0.1383968E+03  0.7546771E-02  0.1226990E+00
         -1   -1    0    0    0  501 -0.00000000000E+00  0.00000000000E+00  0.84646118908E+02  0.84646118908E+02  0.00000000000E+00 0.  1.
          1   -1    0    0  501    0  0.00000000000E+00 -0.00000000000E+00 -0.19894854766E+03  0.19894854766E+03  0.00000000000E+00 0. -1.
          5    1    1    2  502    0 -0.41905874647E+02  0.31944560138E+02  0.46833258117E+02  0.70654096259E+02  0.47000000000E+01 0. -1.
         -5    1    1    2    0  502  0.53323596406E+01  0.14864621057E+02 -0.67251869738E+02  0.69240847783E+02  0.47000000000E+01 0. -1.
        -11    1    1    2    0    0  0.17266472730E+02  0.27083559344E+02 -0.23043669825E+02  0.39530507033E+02  0.00000000000E+00 0. -1.
         11    1    1    2    0    0  0.19307042276E+02 -0.73892740539E+02 -0.70840147303E+02  0.10416921549E+03  0.00000000000E+00 0.  1.
<mgrwt>
<rscale>  0 0.13031446E+03</rscale>
<asrwt>0</asrwt>
<pdfrwt beam="2">  1        1 0.30607469E-01 0.13839681E+03</pdfrwt>
<pdfrwt beam="1">  1       -1 0.13022480E-01 0.13839681E+03</pdfrwt>
<totfact> 0.56765119E+03</totfact>
</mgrwt>
</event>
<event>
 6    1  0.5818426E-006  0.2701324E+03  0.7546771E-02  0.1103775E+00
          1   -1    0    0  501    0  0.00000000000E+00  0.00000000000E+00  0.93990350795E+02  0.93990350795E+02  0.00000000000E+00 0. -1.
         -1   -1    0    0    0  501 -0.00000000000E+00 -0.00000000000E+00 -0.77285833424E+03  0.77285833424E+03  0.00000000000E+00 0.  1.
          5    1    1    2  502    0  0.99902160190E+02 -0.59534597967E+02 -0.30799995112E+03  0.32925805967E+03  0.47000000000E+01 0.  1.
         -5    1    1    2    0  502  0.53403952482E+02 -0.12443062665E+03 -0.14721115271E+03  0.20007042878E+03  0.47000000000E+01 0.  1.
        -11    1    1    2    0    0 -0.13291242349E+03  0.18868099068E+03 -0.19570674320E+03  0.30260098793E+03  0.00000000000E+00 0. -1.
         11    1    1    2    0    0 -0.20393689182E+02 -0.47157660575E+01 -0.27950136409E+02  0.34919208658E+02  0.00000000000E+00 0.  1.
<mgrwt>
<rscale>  0 0.26568556E+03</rscale>
<asrwt>0</asrwt>
<pdfrwt beam="1">  1        1 0.14460054E-01 0.27013237E+03</pdfrwt>
<pdfrwt beam="2">  1       -1 0.11890128E+00 0.27013237E+03</pdfrwt>
<totfact> 0.26520573E+02</totfact>
</mgrwt>
</event>
<event>
 6    1  0.5818426E-006  0.2010198E+03  0.7546771E-02  0.1153120E+00
         -2   -1    0    0    0  501 -0.00000000000E+00  0.00000000000E+00  0.48911842718E+02  0.48911842718E+02  0.00000000000E+00 0.  1.
          2   -1    0    0  501    0  0.00000000000E+00 -0.00000000000E+00 -0.75408218388E+03  0.75408218388E+03  0.00000000000E+00 0. -1.
          5    1    1    2  502    0 -0.11041281707E+03 -0.61842017874E+01 -0.23780953274E+03  0.26230649703E+03  0.47000000000E+01 0.  1.
         -5    1    1    2    0  502 -0.20177921721E+02 -0.81732003604E+02 -0.10014279696E+03  0.13091195026E+03  0.47000000000E+01 0.  1.
        -11    1    1    2    0    0  0.63619163363E+02  0.24179883300E+02 -0.25728409320E+03  0.26613374329E+03  0.00000000000E+00 0. -1.
         11    1    1    2    0    0  0.66971575428E+02  0.63736322092E+02 -0.10993391827E+03  0.14364183602E+03  0.00000000000E+00 0.  1.
<mgrwt>
<rscale>  0 0.19604395E+03</rscale>
<asrwt>0</asrwt>
<pdfrwt beam="2">  1        2 0.11601263E+00 0.20101983E+03</pdfrwt>
<pdfrwt beam="1">  1       -2 0.75248995E-02 0.20101983E+03</pdfrwt>
<totfact> 0.39342991E+03</totfact>
</mgrwt>
</event>
<event>
 6    1  0.5818426E-006  0.2410300E+03  0.7546771E-02  0.1119109E+00
          2   -1    0    0  501    0  0.00000000000E+00  0.00000000000E+00  0.16650021109E+03  0.16650021109E+03  0.00000000000E+00 0. -1.
         -2   -1    0    0    0  501 -0.00000000000E+00 -0.00000000000E+00 -0.87230287241E+02  0.87230287241E+02  0.00000000000E+00 0.  1.
          5    1    1    2  502    0 -0.23807365650E+02  0.17703625549E+02 -0.30486461128E+02  0.42798636998E+02  0.47000000000E+01 0. -1.
         -5    1    1    2    0  502  0.68946488832E+02  0.19206236320E+02  0.71077886764E+02  0.10097848198E+03  0.47000000000E+01 0. -1.
        -11    1    1    2    0    0  0.61011366802E+01 -0.49699335818E+02  0.17271542769E+02  0.52967480959E+02  0.00000000000E+00 0. -1.
         11    1    1    2    0    0 -0.51240259862E+02  0.12789473950E+02  0.21406955448E+02  0.56985898398E+02  0.00000000000E+00 0.  1.
<mgrwt>
<rscale>  0 0.24102997E+03</rscale>
<asrwt>0</asrwt>
<pdfrwt beam="1">  1        2 0.25615417E-01 0.24102997E+03</pdfrwt>
<pdfrwt beam="2">  1       -2 0.13420044E-01 0.24102997E+03</pdfrwt>
<totfact> 0.84694855E+03</totfact>
</mgrwt>
</event>
<event>
 6    1  0.5818426E-006  0.2417590E+03  0.7546771E-02  0.1118627E+00
          1   -1    0    0  501    0  0.00000000000E+00  0.00000000000E+00  0.74322958138E+02  0.74322958138E+02  0.00000000000E+00 0. -1.
         -1   -1    0    0    0  501 -0.00000000000E+00 -0.00000000000E+00 -0.19659945955E+03  0.19659945955E+03  0.00000000000E+00 0.  1.
          5    1    1    2  502    0 -0.44334849751E+02 -0.34019375501E+02 -0.12086345457E+03  0.13324023965E+03  0.47000000000E+01 0.  1.
         -5    1    1    2    0  502  0.13223119571E+01  0.22893652570E+02  0.22064663317E+02  0.32168419361E+02  0.47000000000E+01 0.  1.
        -11    1    1    2    0    0  0.14492560024E+02  0.20646884846E+02  0.32996474239E+02  0.41534268527E+02  0.00000000000E+00 0. -1.
         11    1    1    2    0    0  0.28519977770E+02 -0.95211619136E+01 -0.56474184398E+02  0.63979490148E+02  0.00000000000E+00 0.  1.
<mgrwt>
<rscale>  0 0.24175900E+03</rscale>
<asrwt>0</asrwt>
<pdfrwt beam="1">  1        1 0.11434301E-01 0.24175900E+03</pdfrwt>
<pdfrwt beam="2">  1       -1 0.30246070E-01 0.24175900E+03</pdfrwt>
<totfact> 0.53223104E+03</totfact>
</mgrwt>
</event>
<event>
 6    1  0.5818426E-006  0.1406917E+03  0.7546771E-02  0.1223006E+00
         -2   -1    0    0    0  501 -0.00000000000E+00  0.00000000000E+00  0.32897793357E+03  0.32897793357E+03  0.00000000000E+00 0.  1.
          2   -1    0    0  501    0  0.00000000000E+00 -0.00000000000E+00 -0.48862601157E+02  0.48862601157E+02  0.00000000000E+00 0. -1.
          5    1    1    2  502    0  0.47873266256E+02 -0.14278321238E+02  0.85401852852E+00  0.50185051828E+02  0.47000000000E+01 0. -1.
         -5    1    1    2    0  502  0.16206264905E+02  0.22114195484E+02  0.16489354905E+03  0.16722336315E+03  0.47000000000E+01 0. -1.
        -11    1    1    2    0    0 -0.11181483113E+02  0.39150399177E+02  0.52553512516E+02  0.66480455760E+02  0.00000000000E+00 0.  1.
         11    1    1    2    0    0 -0.52898048047E+02 -0.46986273423E+02  0.61814252323E+02  0.93951663996E+02  0.00000000000E+00 0. -1.
<mgrwt>
<rscale>  0 0.13304517E+03</rscale>
<asrwt>0</asrwt>
<pdfrwt beam="2">  1        2 0.75173235E-02 0.14069173E+03</pdfrwt>
<pdfrwt beam="1">  1       -2 0.50611988E-01 0.14069173E+03</pdfrwt>
<totfact> 0.33104152E+03</totfact>
</mgrwt>
</event>
<event>
 6    1  0.5818426E-006  0.1269576E+03  0.7546771E-02  0.1247152E+00
         -1   -1    0    0    0  501 -0.00000000000E+00  0.00000000000E+00  0.11993357779E+03  0.11993357779E+03  0.00000000000E+00 0.  1.
          1   -1    0    0  501    0  0.00000000000E+00 -0.00000000000E+00 -0.10121156024E+03  0.10121156024E+03  0.00000000000E+00 0. -1.
          5    1    1    2  502    0  0.18907152823E+02  0.48870211972E+02  0.29653685911E+01  0.52694036256E+02  0.47000000000E+01 0. -1.
         -5    1    1    2    0  502 -0.22038072110E+02 -0.70789694817E+02  0.87405130959E+01  0.74802032618E+02  0.47000000000E+01 0. -1.
        -11    1    1    2    0    0 -0.65436272580E+01  0.51407288476E+02  0.25258838706E+02  0.57650128351E+02  0.00000000000E+00 0.  1.
         11    1    1    2    0    0  0.96745465448E+01 -0.29487805632E+02 -0.18242702843E+02  0.35998940802E+02  0.00000000000E+00 0. -1.
<mgrwt>
<rscale>  0 0.11757479E+03</rscale>
<asrwt>0</asrwt>
<pdfrwt beam="2">  1        1 0.15571009E-01 0.12695755E+03</pdfrwt>
<pdfrwt beam="1">  1       -1 0.18451320E-01 0.12695755E+03</pdfrwt>
<totfact> 0.76726139E+03</totfact>
</mgrwt>
</event>
<event>
 6    1  0.5818426E-006  0.1707606E+03  0.7546771E-02  0.1183281E+00
          3   -1    0    0  501    0  0.00000000000E+00  0.00000000000E+00  0.52569341153E+03  0.52569341153E+03  0.00000000000E+00 0. -1.
         -3   -1    0    0    0  501 -0.00000000000E+00 -0.00000000000E+00 -0.49137775138E+02  0.49137775138E+02  0.00000000000E+00 0.  1.
          5    1    1    2  502    0  0.30620792553E+02 -0.63373019545E+02  0.38813939772E+02  0.80513256446E+02  0.47000000000E+01 0.  1.
         -5    1    1    2    0  502 -0.51639070723E+01 -0.50132939599E+02  0.24943569134E+03  0.25451960963E+03  0.47000000000E+01 0.  1.
        -11    1    1    2    0    0 -0.39233945266E+02  0.11080850474E+03  0.11251786145E+03  0.16272091546E+03  0.00000000000E+00 0.  1.
         11    1    1    2    0    0  0.13777059785E+02  0.26974543996E+01  0.75788143827E+02  0.77077405128E+02  0.00000000000E+00 0. -1.
<mgrwt>
<rscale>  0 0.16489299E+03</rscale>
<asrwt>0</asrwt>
<pdfrwt beam="1">  1        3 0.80875906E-01 0.17076057E+03</pdfrwt>
<pdfrwt beam="2">  1       -3 0.75596581E-02 0.17076057E+03</pdfrwt>
<totfact> 0.40870107E+02</totfact>
</mgrwt>
</event>
<event>
 6    1  0.5818426E-006  0.2285082E+03  0.7546771E-02  0.1130850E+00
         -1   -1    0    0    0  501 -0.00000000000E+00  0.00000000000E+00  0.15383893490E+03  0.15383893490E+03  0.00000000000E+00 0.  1.
          1   -1    0    0  501    0  0.00000000000E+00 -0.00000000000E+00 -0.47722489427E+03  0.47722489427E+03  0.00000000000E+00 0. -1.
          5    1    1    2  502    0 -0.34834216237E+02  0.34828125773E+02  0.45317458012E+02  0.67098308224E+02  0.47000000000E+01 0. -1.
         -5    1    1    2    0  502 -0.15643960785E+03 -0.32632309469E+02 -0.27012615592E+02  0.16214188209E+03  0.47000000000E+01 0. -1.
        -11    1    1    2    0    0  0.13427944808E+03  0.27021839660E+02 -0.16836833814E+03  0.21704618698E+03  0.00000000000E+00 0.  1.
         11    1    1    2    0    0  0.56994376007E+02 -0.29217655964E+02 -0.17332246365E+03  0.18477745187E+03  0.00000000000E+00 0. -1.
<mgrwt>
<rscale>  0 0.22411787E+03</rscale>
<asrwt>0</asrwt>
<pdfrwt beam="2">  1        1 0.73419214E-01 0.22850820E+03</pdfrwt>
<pdfrwt beam="1">  1       -1 0.23667528E-01 0.22850820E+03</pdfrwt>
<totfact> 0.73631319E+02</totfact>
</mgrwt>
</event>
<event>
 6    1  0.5818426E-006  0.3860397E+03  0.7546771E-02  0.1048724E+00
         -4   -1    0    0    0  501 -0.00000000000E+00  0.00000000000E+00  0.21057990791E+03  0.21057990791E+03  0.00000000000E+00 0.  1.
          4   -1    0    0  501    0  0.00000000000E+00 -0.00000000000E+00 -0.17692409529E+03  0.17692409529E+03  0.00000000000E+00 0. -1.
          5    1    1    2  502    0 -0.16958387172E+02  0.21899696337E+02 -0.10959278521E+01  0.28115381075E+02  0.47000000000E+01 0. -1.
         -5    1    1    2    0  502  0.13705580844E+02 -0.97142989572E+02  0.15925228807E+03  0.18710420793E+03  0.47000000000E+01 0. -1.
        -11    1    1    2    0    0 -0.56514580181E+01  0.33124515359E+02 -0.12478857204E+03  0.12923374253E+03  0.00000000000E+00 0. -1.
         11    1    1    2    0    0  0.89042643454E+01  0.42118777875E+02  0.28802443971E+00  0.43050671671E+02  0.00000000000E+00 0.  1.
<mgrwt>
<rscale>  0 0.38603969E+03</rscale>
<asrwt>0</asrwt>
<pdfrwt beam="2">  1        4 0.27219092E-01 0.38603969E+03</pdfrwt>
<pdfrwt beam="1">  1       -4 0.32396909E-01 0.38603969E+03</pdfrwt>
<totfact> 0.22739804E+02</totfact>
</mgrwt>
</event>
<event>
 6    1  0.5818426E-006  0.1745845E+03  0.7546771E-02  0.1179696E+00
          1   -1    0    0  501    0  0.00000000000E+00  0.00000000000E+00  0.94751251690E+03  0.94751251690E+03  0.00000000000E+00 0. -1.
         -1   -1    0    0    0  501 -0.00000000000E+00 -0.00000000000E+00 -0.30998206364E+02  0.30998206364E+02  0.00000000000E+00 0.  1.
          5    1    1    2  502    0 -0.60170099025E+02 -0.21423388409E+02  0.26521962440E+03  0.27284233828E+03  0.47000000000E+01 0.  1.
         -5    1    1    2    0  502 -0.11545593074E+02 -0.77132721505E+02  0.69047975179E+02  0.10427113849E+03  0.47000000000E+01 0.  1.
        -11    1    1    2    0    0  0.17227380765E+02  0.94056000482E+02  0.35308144152E+03  0.36580024360E+03  0.00000000000E+00 0.  1.
         11    1    1    2    0    0  0.54488311334E+02  0.45001094310E+01  0.22916526943E+03  0.23559700289E+03  0.00000000000E+00 0. -1.
<mgrwt>
<rscale>  0 0.16824010E+03</rscale>
<asrwt>0</asrwt>
<pdfrwt beam="1">  1        1 0.14577113E+00 0.17458450E+03</pdfrwt>
<pdfrwt beam="2">  1       -1 0.47689556E-02 0.17458450E+03</pdfrwt>
<totfact> 0.32773475E+03</totfact>
</mgrwt>
</event>
<event>
 6    1  0.5818426E-006  0.1322903E+03  0.7546771E-02  0.1237501E+00
          2   -1    0    0  501    0  0.00000000000E+00  0.00000000000E+00  0.43455349100E+02  0.43455349100E+02  0.00000000000E+00 0. -1.
         -2   -1    0    0    0  501 -0.00000000000E+00 -0.00000000000E+00 -0.33225544186E+03  0.33225544186E+03  0.00000000000E+00 0.  1.
          5    1    1    2  502    0  0.80435752362E+02 -0.15757200407E+02 -0.13227497698E+03  0.15568223777E+03  0.47000000000E+01 0.  1.
         -5    1    1    2    0  502 -0.39654238515E+02  0.30373193699E+02 -0.77428635525E+02  0.92261980940E+02  0.47000000000E+01 0.  1.
        -11    1    1    2    0    0 -0.33532957807E+02  0.35422696934E+02 -0.47853517415E+02  0.68331441126E+02  0.00000000000E+00 0.  1.
         11    1    1    2    0    0 -0.72485560393E+01 -0.50038690226E+02 -0.31242962837E+02  0.59435131118E+02  0.00000000000E+00 0. -1.
<mgrwt>
<rscale>  0 0.12345657E+03</rscale>
<asrwt>0</asrwt>
<pdfrwt beam="1">  1        2 0.66854382E-02 0.13229033E+03</pdfrwt>
<pdfrwt beam="2">  1       -2 0.51116223E-01 0.13229033E+03</pdfrwt>
<totfact> 0.37518182E+03</totfact>
</mgrwt>
</event>
<event>
 6    1  0.5818426E-006  0.2241369E+03  0.7546771E-02  0.1134230E+00
         -2   -1    0    0    0  501 -0.00000000000E+00  0.00000000000E+00  0.15162780235E+03  0.15162780235E+03  0.00000000000E+00 0.  1.
          2   -1    0    0  501    0  0.00000000000E+00 -0.00000000000E+00 -0.33889649358E+03  0.33889649358E+03  0.00000000000E+00 0. -1.
          5    1    1    2  502    0 -0.14408016063E+03  0.52185011368E+02 -0.19088896661E+03  0.24483270957E+03  0.47000000000E+01 0.  1.
         -5    1    1    2    0  502 -0.34846303445E+02 -0.11843340746E+01  0.16784154391E+02  0.38980320029E+02  0.47000000000E+01 0.  1.
        -11    1    1    2    0    0  0.43812946432E+02 -0.53577288928E+02 -0.17908349648E+02  0.71489923423E+02  0.00000000000E+00 0. -1.
         11    1    1    2    0    0  0.13511351764E+03  0.25766116342E+01  0.47444706439E+01  0.13522134291E+03  0.00000000000E+00 0.  1.
<mgrwt>
<rscale>  0 0.21953585E+03</rscale>
<asrwt>0</asrwt>
<pdfrwt beam="2">  1        2 0.52137922E-01 0.22413690E+03</pdfrwt>
<pdfrwt beam="1">  1       -2 0.23327354E-01 0.22413690E+03</pdfrwt>
<totfact> 0.15313556E+03</totfact>
</mgrwt>
</event>
<event>
 6    1  0.5818426E-006  0.2837722E+03  0.7546771E-02  0.1093646E+00
          2   -1    0    0  501    0  0.00000000000E+00  0.00000000000E+00  0.21586930126E+03  0.21586930126E+03  0.00000000000E+00 0.  1.
         -2   -1    0    0    0  501 -0.00000000000E+00 -0.00000000000E+00 -0.93258615842E+02  0.93258615842E+02  0.00000000000E+00 0. -1.
          5    1    1    2  502    0  0.94575157485E+02  0.12679900321E+02 -0.27498546862E+02  0.99415795349E+02  0.47000000000E+01 0.  1.
         -5    1    1    2    0  502 -0.14715102001E+02 -0.25864784352E+01  0.48209928009E+02  0.50690346776E+02  0.47000000000E+01 0.  1.
        -11    1    1    2    0    0 -0.82833262486E+01  0.26666504579E+02  0.64511424554E+02  0.70295375795E+02  0.00000000000E+00 0.  1.
         11    1    1    2    0    0 -0.71576729235E+02 -0.36759926464E+02  0.37387879712E+02  0.88726399177E+02  0.00000000000E+00 0. -1.
<mgrwt>
<rscale>  0 0.28377225E+03</rscale>
<asrwt>0</asrwt>
<pdfrwt beam="1">  1        2 0.33210662E-01 0.28377225E+03</pdfrwt>
<pdfrwt beam="2">  1       -2 0.14347479E-01 0.28377225E+03</pdfrwt>
<totfact> 0.57436055E+03</totfact>
</mgrwt>
</event>
<event>
 6    1  0.5818426E-006  0.1273417E+03  0.7546771E-02  0.1245845E+00
          2   -1    0    0  501    0  0.00000000000E+00  0.00000000000E+00  0.34713185211E+02  0.34713185211E+02  0.00000000000E+00 0. -1.
         -2   -1    0    0    0  501 -0.00000000000E+00 -0.00000000000E+00 -0.38669462678E+03  0.38669462678E+03  0.00000000000E+00 0.  1.
          5    1    1    2  502    0  0.15275846853E+02 -0.48337308937E+02 -0.18810604366E+03  0.19487385816E+03  0.47000000000E+01 0. -1.
         -5    1    1    2    0  502 -0.39510220888E+02  0.46463559021E+02 -0.70182522221E+02  0.93099926406E+02  0.47000000000E+01 0. -1.
        -11    1    1    2    0    0  0.15315320803E+02 -0.42185525362E+02 -0.25095172620E+02  0.51419308535E+02  0.00000000000E+00 0.  1.
         11    1    1    2    0    0  0.89190532331E+01  0.44059275279E+02 -0.68597703068E+02  0.82014718891E+02  0.00000000000E+00 0. -1.
<mgrwt>
<rscale>  0 0.11834957E+03</rscale>
<asrwt>0</asrwt>
<pdfrwt beam="1">  1        2 0.53404904E-02 0.12734173E+03</pdfrwt>
<pdfrwt beam="2">  1       -2 0.59491477E-01 0.12734173E+03</pdfrwt>
<totfact> 0.36781293E+03</totfact>
</mgrwt>
</event>
<event>
 6    1  0.5818426E-006  0.1479732E+03  0.7546771E-02  0.1211773E+00
         -2   -1    0    0    0  501 -0.00000000000E+00  0.00000000000E+00  0.42467740154E+02  0.42467740154E+02  0.00000000000E+00 0. -1.
          2   -1    0    0  501    0  0.00000000000E+00 -0.00000000000E+00 -0.56835402149E+03  0.56835402149E+03  0.00000000000E+00 0.  1.
          5    1    1    2  502    0 -0.12156837641E+02  0.36342933514E+02 -0.10327407510E+03  0.11025525885E+03  0.47000000000E+01 0.  1.
         -5    1    1    2    0  502 -0.65692883506E+02 -0.50835446895E+02 -0.28666318154E+02  0.87997985209E+02  0.47000000000E+01 0.  1.
        -11    1    1    2    0    0  0.11477250875E+02 -0.90442733856E+01 -0.24832764074E+01  0.14822038674E+02  0.00000000000E+00 0. -1.
         11    1    1    2    0    0  0.66372470271E+02  0.23536786767E+02 -0.39146261168E+03  0.39774647891E+03  0.00000000000E+00 0.  1.
<mgrwt>
<rscale>  0 0.14116240E+03</rscale>
<asrwt>0</asrwt>
<pdfrwt beam="2">  1        2 0.87439081E-01 0.14797325E+03</pdfrwt>
<pdfrwt beam="1">  1       -2 0.65334984E-02 0.14797325E+03</pdfrwt>
<totfact> 0.67329171E+03</totfact>
</mgrwt>
</event>
<event>
 6    1  0.5818426E-006  0.1406922E+03  0.7546771E-02  0.1223270E+00
          1   -1    0    0  501    0  0.00000000000E+00  0.00000000000E+00  0.26703692987E+02  0.26703692987E+02  0.00000000000E+00 0. -1.
         -1   -1    0    0    0  501 -0.00000000000E+00 -0.00000000000E+00 -0.68909824852E+03  0.68909824852E+03  0.00000000000E+00 0.  1.
          5    1    1    2  502    0 -0.62421594413E+02  0.53905068822E+02 -0.20197649662E+03  0.21821733910E+03  0.47000000000E+01 0. -1.
         -5    1    1    2    0  502  0.43782934639E+02  0.79185083800E+01 -0.29186632283E+03  0.29527561455E+03  0.47000000000E+01 0. -1.
        -11    1    1    2    0    0  0.23209613246E+02 -0.12235134307E+01 -0.11277362138E+00  0.23242113717E+02  0.00000000000E+00 0. -1.
         11    1    1    2    0    0 -0.45709534732E+01 -0.60600063771E+02 -0.16843896246E+03  0.17906687415E+03  0.00000000000E+00 0.  1.
<mgrwt>
<rscale>  0 0.13286165E+03</rscale>
<asrwt>0</asrwt>
<pdfrwt beam="1">  1        1 0.41082606E-02 0.14069216E+03</pdfrwt>
<pdfrwt beam="2">  1       -1 0.10601511E+00 0.14069216E+03</pdfrwt>
<totfact> 0.18829641E+03</totfact>
</mgrwt>
</event>
<event>
 6    1  0.5818426E-006  0.1711831E+03  0.7546771E-02  0.1183662E+00
         -2   -1    0    0    0  501 -0.00000000000E+00  0.00000000000E+00  0.56510313126E+02  0.56510313126E+02  0.00000000000E+00 0. -1.
          2   -1    0    0  501    0  0.00000000000E+00 -0.00000000000E+00 -0.45747941445E+03  0.45747941445E+03  0.00000000000E+00 0.  1.
          5    1    1    2  502    0 -0.68307590970E+02 -0.89375131526E+02 -0.10591255832E+03  0.15457490459E+03  0.47000000000E+01 0.  1.
         -5    1    1    2    0  502 -0.38978233834E+02  0.42811650193E+02 -0.68401621101E+02  0.89738575175E+02  0.47000000000E+01 0.  1.
        -11    1    1    2    0    0  0.37060040109E+02 -0.24892319912E+02 -0.87195631107E+02  0.97959952264E+02  0.00000000000E+00 0.  1.
         11    1    1    2    0    0  0.70225784695E+02  0.71455801245E+02 -0.13945929080E+03  0.17171629555E+03  0.00000000000E+00 0. -1.
<mgrwt>
<rscale>  0 0.16454229E+03</rscale>
<asrwt>0</asrwt>
<pdfrwt beam="2">  1        2 0.70381451E-01 0.17118307E+03</pdfrwt>
<pdfrwt beam="1">  1       -2 0.86938940E-02 0.17118307E+03</pdfrwt>
<totfact> 0.55521181E+03</totfact>
</mgrwt>
</event>
<event>
 6    1  0.5818426E-006  0.1281417E+03  0.7546771E-02  0.1243957E+00
          2   -1    0    0  501    0  0.00000000000E+00  0.00000000000E+00  0.31957627450E+03  0.31957627450E+03  0.00000000000E+00 0. -1.
         -2   -1    0    0    0  501 -0.00000000000E+00 -0.00000000000E+00 -0.56209673186E+02  0.56209673186E+02  0.00000000000E+00 0.  1.
          5    1    1    2  502    0 -0.93701889645E+01 -0.70543002214E+01  0.86433160130E+02  0.87351844645E+02  0.47000000000E+01 0. -1.
         -5    1    1    2    0  502 -0.18838024004E+02  0.63341962190E+01 -0.43283647025E+02  0.47859766923E+02  0.47000000000E+01 0. -1.
        -11    1    1    2    0    0 -0.10454041295E+02 -0.39536895713E+02  0.86752816427E+02  0.95908833066E+02  0.00000000000E+00 0. -1.
         11    1    1    2    0    0  0.38662254263E+02  0.40256999716E+02  0.13346427178E+03  0.14466550305E+03  0.00000000000E+00 0.  1.
<mgrwt>
<rscale>  0 0.11948017E+03</rscale>
<asrwt>0</asrwt>
<pdfrwt beam="1">  1        2 0.49165580E-01 0.12814172E+03</pdfrwt>
<pdfrwt beam="2">  1       -2 0.86476422E-02 0.12814172E+03</pdfrwt>
<totfact> 0.80801636E+03</totfact>
</mgrwt>
</event>
<event>
 6    1  0.5818426E-006  0.1180165E+03  0.7546771E-02  0.1254937E+00
         -2   -1    0    0    0  501 -0.00000000000E+00  0.00000000000E+00  0.14818077359E+03  0.14818077359E+03  0.00000000000E+00 0.  1.
          2   -1    0    0  501    0  0.00000000000E+00 -0.00000000000E+00 -0.81694525889E+02  0.81694525889E+02  0.00000000000E+00 0. -1.
          5    1    1    2  502    0 -0.32843173158E+02  0.37581104264E+02 -0.62442243564E+01  0.50518251737E+02  0.47000000000E+01 0. -1.
         -5    1    1    2    0  502  0.37153249504E+02 -0.35986422265E+02  0.59437523480E+02  0.78932222404E+02  0.47000000000E+01 0.  1.
        -11    1    1    2    0    0  0.32680031027E+02 -0.18454496619E+02  0.37546997216E+02  0.53087944708E+02  0.00000000000E+00 0.  1.
         11    1    1    2    0    0 -0.36990107372E+02  0.16859814620E+02 -0.24254048639E+02  0.47336880631E+02  0.00000000000E+00 0. -1.
<mgrwt>
<rscale>  0 0.11309874E+03</rscale>
<asrwt>0</asrwt>
<pdfrwt beam="2">  1        2 0.12568389E-01 0.11801652E+03</pdfrwt>
<pdfrwt beam="1">  1       -2 0.22797042E-01 0.11801652E+03</pdfrwt>
<totfact> 0.75421152E+03</totfact>
</mgrwt>
</event>
<event>
 6    1  0.5818426E-006  0.1269730E+03  0.7546771E-02  0.1247003E+00
         -1   -1    0    0    0  501 -0.00000000000E+00  0.00000000000E+00  0.80739122058E+02  0.80739122058E+02  0.00000000000E+00 0.  1.
          1   -1    0    0  501    0  0.00000000000E+00 -0.00000000000E+00 -0.15925053903E+03  0.15925053903E+03  0.00000000000E+00 0. -1.
          5    1    1    2  502    0  0.27120525932E+02 -0.54764181871E+02  0.16680946523E+02  0.63521512260E+02  0.47000000000E+01 0. -1.
         -5    1    1    2    0  502 -0.48098838667E+01  0.54531694405E+02 -0.34034554901E+02  0.64631893094E+02  0.47000000000E+01 0. -1.
        -11    1    1    2    0    0 -0.12327072293E+02 -0.25276560889E+02  0.14307818761E+02  0.31552732360E+02  0.00000000000E+00 0.  1.
         11    1    1    2    0    0 -0.99835697730E+01  0.25509048355E+02 -0.75465627352E+02  0.80283523372E+02  0.00000000000E+00 0. -1.
<mgrwt>
<rscale>  0 0.11766313E+03</rscale>
<asrwt>0</asrwt>
<pdfrwt beam="2">  1        1 0.24500083E-01 0.12697302E+03</pdfrwt>
<pdfrwt beam="1">  1       -1 0.12421403E-01 0.12697302E+03</pdfrwt>
<totfact> 0.80153029E+03</totfact>
</mgrwt>
</event>
<event>
 6    1  0.5818426E-006  0.1434282E+03  0.7546771E-02  0.1214918E+00
          1   -1    0    0  501    0  0.00000000000E+00  0.00000000000E+00  0.67000677636E+02  0.67000677636E+02  0.00000000000E+00 0. -1.
         -1   -1    0    0    0  501 -0.00000000000E+00 -0.00000000000E+00 -0.40517227036E+03  0.40517227036E+03  0.00000000000E+00 0.  1.
          5    1    1    2  502    0 -0.37410583674E+02  0.13001634232E+02 -0.53297625409E+02  0.66568169104E+02  0.47000000000E+01 0. -1.
         -5    1    1    2    0  502  0.85771460461E+02  0.48161578998E+02 -0.25899454451E+03  0.27708580838E+03  0.47000000000E+01 0.  1.
        -11    1    1    2    0    0 -0.43831630228E+02 -0.46783462768E+02 -0.62119669095E+02  0.89267897284E+02  0.00000000000E+00 0.  1.
         11    1    1    2    0    0 -0.45292465590E+01 -0.14379750462E+02  0.36240246293E+02  0.39251073222E+02  0.00000000000E+00 0. -1.
<mgrwt>
<rscale>  0 0.13882595E+03</rscale>
<asrwt>0</asrwt>
<pdfrwt beam="1">  1        1 0.10307797E-01 0.14342823E+03</pdfrwt>
<pdfrwt beam="2">  1       -1 0.62334195E-01 0.14342823E+03</pdfrwt>
<totfact> 0.16257051E+03</totfact>
</mgrwt>
</event>
<event>
 6    1  0.5818426E-006  0.1302574E+03  0.7546771E-02  0.1241674E+00
          4   -1    0    0  501    0  0.00000000000E+00  0.00000000000E+00  0.18069091245E+03  0.18069091245E+03  0.00000000000E+00 0. -1.
         -4   -1    0    0    0  501 -0.00000000000E+00 -0.00000000000E+00 -0.75495332479E+02  0.75495332479E+02  0.00000000000E+00 0.  1.
          5    1    1    2  502    0  0.75507022180E+02 -0.19745074663E+02 -0.42157492242E+01  0.78300963682E+02  0.47000000000E+01 0. -1.
         -5    1    1    2    0  502 -0.38871285017E+02  0.19389243436E+02  0.33886685345E+02  0.55293010440E+02  0.47000000000E+01 0. -1.
        -11    1    1    2    0    0  0.24084805153E+02 -0.18501420321E+02  0.11826615301E+02  0.32592165050E+02  0.00000000000E+00 0.  1.
         11    1    1    2    0    0 -0.60720542316E+02  0.18857251549E+02  0.63698028546E+02  0.90000105754E+02  0.00000000000E+00 0. -1.
<mgrwt>
<rscale>  0 0.12086686E+03</rscale>
<asrwt>0</asrwt>
<pdfrwt beam="1">  1        4 0.27798602E-01 0.13025738E+03</pdfrwt>
<pdfrwt beam="2">  1       -4 0.11614667E-01 0.13025738E+03</pdfrwt>
<totfact> 0.11801191E+03</totfact>
</mgrwt>
</event>
<event>
 6    1  0.5818426E-006  0.1892481E+03  0.7546771E-02  0.1164386E+00
          1   -1    0    0  501    0  0.00000000000E+00  0.00000000000E+00  0.25808256024E+03  0.25808256024E+03  0.00000000000E+00 0. -1.
         -1   -1    0    0    0  501 -0.00000000000E+00 -0.00000000000E+00 -0.13606935494E+03  0.13606935494E+03  0.00000000000E+00 0.  1.
          5    1    1    2  502    0 -0.21568525381E+02  0.96525848539E+01 -0.19969923940E+02  0.31293154901E+02  0.47000000000E+01 0.  1.
         -5    1    1    2    0  502 -0.96044628587E+02 -0.89401199436E+02  0.14455028257E+03  0.19527933667E+03  0.47000000000E+01 0.  1.
        -11    1    1    2    0    0  0.95725043895E+02  0.95595158085E+02  0.13801693134E+02  0.13598604712E+03  0.00000000000E+00 0.  1.
         11    1    1    2    0    0  0.21888110073E+02 -0.15846543503E+02 -0.16368846463E+02  0.31593376491E+02  0.00000000000E+00 0. -1.
<mgrwt>
<rscale>  0 0.18357604E+03</rscale>
<asrwt>0</asrwt>
<pdfrwt beam="1">  1        1 0.39705009E-01 0.18924806E+03</pdfrwt>
<pdfrwt beam="2">  1       -1 0.20933747E-01 0.18924806E+03</pdfrwt>
<totfact> 0.19606830E+03</totfact>
</mgrwt>
</event>
<event>
 6    1  0.5818426E-006  0.2044383E+03  0.7546771E-02  0.1150234E+00
          2   -1    0    0  501    0  0.00000000000E+00  0.00000000000E+00  0.71328133480E+03  0.71328133480E+03  0.00000000000E+00 0. -1.
         -2   -1    0    0    0  501 -0.00000000000E+00 -0.00000000000E+00 -0.53277518462E+02  0.53277518462E+02  0.00000000000E+00 0.  1.
          5    1    1    2  502    0  0.87910208063E+01 -0.45675079727E+02  0.13570569968E+03  0.14353265092E+03  0.47000000000E+01 0.  1.
         -5    1    1    2    0  502 -0.14055639953E+03 -0.48179769335E+02  0.19394100927E+03  0.24436161053E+03  0.47000000000E+01 0.  1.
        -11    1    1    2    0    0  0.29857575092E+02  0.25438093515E+02  0.18168423763E+03  0.18587020631E+03  0.00000000000E+00 0. -1.
         11    1    1    2    0    0  0.10190780363E+03  0.68416755547E+02  0.14867286976E+03  0.19279438550E+03  0.00000000000E+00 0.  1.
<mgrwt>
<rscale>  0 0.19941411E+03</rscale>
<asrwt>0</asrwt>
<pdfrwt beam="1">  1        2 0.10973558E+00 0.20443827E+03</pdfrwt>
<pdfrwt beam="2">  1       -2 0.81965418E-02 0.20443827E+03</pdfrwt>
<totfact> 0.36886392E+03</totfact>
</mgrwt>
</event>
<event>
 6    1  0.5818426E-006  0.3414485E+03  0.7546771E-02  0.1066181E+00
          2   -1    0    0  501    0  0.00000000000E+00  0.00000000000E+00  0.85210627558E+02  0.85210627558E+02  0.00000000000E+00 0. -1.
         -2   -1    0    0    0  501 -0.00000000000E+00 -0.00000000000E+00 -0.34205565921E+03  0.34205565921E+03  0.00000000000E+00 0.  1.
          5    1    1    2  502    0 -0.23001252927E+02 -0.12987990767E+03 -0.12563150123E+03  0.18221748586E+03  0.47000000000E+01 0.  1.
         -5    1    1    2    0  502 -0.27151087388E+02  0.20337948989E+02 -0.79193297851E+02  0.86281412483E+02  0.47000000000E+01 0.  1.
        -11    1    1    2    0    0  0.20538186138E+01  0.61588091674E+02 -0.65056380254E+02  0.89608279856E+02  0.00000000000E+00 0. -1.
         11    1    1    2    0    0  0.48098521701E+02  0.47953867011E+02  0.13036147682E+02  0.69159108565E+02  0.00000000000E+00 0.  1.
<mgrwt>
<rscale>  0 0.34144855E+03</rscale>
<asrwt>0</asrwt>
<pdfrwt beam="1">  1        2 0.13109327E-01 0.34144855E+03</pdfrwt>
<pdfrwt beam="2">  1       -2 0.52623947E-01 0.34144855E+03</pdfrwt>
<totfact> 0.15959092E+03</totfact>
</mgrwt>
</event>
<event>
 6    1  0.5818426E-006  0.1451825E+03  0.7546771E-02  0.1216580E+00
          2   -1    0    0  501    0  0.00000000000E+00  0.00000000000E+00  0.60708063879E+03  0.60708063879E+03  0.00000000000E+00 0. -1.
         -2   -1    0    0    0  501 -0.00000000000E+00 -0.00000000000E+00 -0.31873799991E+02  0.31873799991E+02  0.00000000000E+00 0.  1.
          5    1    1    2  502    0  0.97464214798E+02 -0.17481012852E+02  0.20296703147E+03  0.22588174969E+03  0.47000000000E+01 0.  1.
         -5    1    1    2    0  502 -0.23702069825E+02  0.14262434101E+02  0.62038700184E+01  0.28736442780E+02  0.47000000000E+01 0.  1.
        -11    1    1    2    0    0 -0.88720266969E+02  0.12286099532E+02  0.34747033025E+03  0.35882846099E+03  0.00000000000E+00 0. -1.
         11    1    1    2    0    0  0.14958121995E+02 -0.90675207811E+01  0.18565607062E+02  0.25507785328E+02  0.00000000000E+00 0.  1.
<mgrwt>
<rscale>  0 0.13761082E+03</rscale>
<asrwt>0</asrwt>
<pdfrwt beam="1">  1        2 0.93397013E-01 0.14518250E+03</pdfrwt>
<pdfrwt beam="2">  1       -2 0.49036620E-02 0.14518250E+03</pdfrwt>
<totfact> 0.96367462E+03</totfact>
</mgrwt>
</event>
<event>
 6    1  0.5818426E-006  0.1369343E+03  0.7546771E-02  0.1229234E+00
          1   -1    0    0  501    0  0.00000000000E+00  0.00000000000E+00  0.52514052159E+03  0.52514052159E+03  0.00000000000E+00 0. -1.
         -1   -1    0    0    0  501 -0.00000000000E+00 -0.00000000000E+00 -0.31815401829E+02  0.31815401829E+02  0.00000000000E+00 0.  1.
          5    1    1    2  502    0  0.39492082392E+02 -0.65712385010E+02  0.15623809729E+03  0.17409817679E+03  0.47000000000E+01 0.  1.
         -5    1    1    2    0  502 -0.45911268444E+02  0.10164436580E+02  0.26267617820E+02  0.54066977787E+02  0.47000000000E+01 0.  1.
        -11    1    1    2    0    0  0.39371202879E+02  0.62172917719E+02  0.21556795356E+03  0.22778302376E+03  0.00000000000E+00 0.  1.
         11    1    1    2    0    0 -0.32952016827E+02 -0.66249692889E+01  0.95251451089E+02  0.10100774508E+03  0.00000000000E+00 0. -1.
<mgrwt>
<rscale>  0 0.12880901E+03</rscale>
<asrwt>0</asrwt>
<pdfrwt beam="1">  1        1 0.80790843E-01 0.13693430E+03</pdfrwt>
<pdfrwt beam="2">  1       -1 0.48946776E-02 0.13693430E+03</pdfrwt>
<totfact> 0.73632182E+03</totfact>
</mgrwt>
</event>
<event>
 6    1  0.5818426E-006  0.2610418E+03  0.7546771E-02  0.1106519E+00
         -2   -1    0    0    0  501 -0.00000000000E+00  0.00000000000E+00  0.76852168768E+02  0.76852168768E+02  0.00000000000E+00 0.  1.
          2   -1    0    0  501    0  0.00000000000E+00 -0.00000000000E+00 -0.22166855164E+03  0.22166855164E+03  0.00000000000E+00 0. -1.
          5    1    1    2  502    0  0.24261684278E+02 -0.46030132768E+02 -0.85943073561E+02  0.10057685787E+03  0.47000000000E+01 0. -1.
         -5    1    1    2    0  502 -0.15788653812E+02 -0.19826035872E+02  0.40559967742E+02  0.48057822160E+02  0.47000000000E+01 0. -1.
        -11    1    1    2    0    0 -0.48552476448E+02  0.26086456986E+02 -0.56711522566E+02  0.79082507542E+02  0.00000000000E+00 0.  1.
         11    1    1    2    0    0  0.40079445982E+02  0.39769711654E+02 -0.42721754489E+02  0.70803532835E+02  0.00000000000E+00 0. -1.
<mgrwt>
<rscale>  0 0.26104183E+03</rscale>
<asrwt>0</asrwt>
<pdfrwt beam="2">  1        2 0.34102854E-01 0.26104183E+03</pdfrwt>
<pdfrwt beam="1">  1       -2 0.11823411E-01 0.26104183E+03</pdfrwt>
<totfact> 0.76222096E+03</totfact>
</mgrwt>
</event>
<event>
 6    1  0.5818426E-006  0.1585436E+03  0.7546771E-02  0.1198192E+00
         -1   -1    0    0    0  501 -0.00000000000E+00  0.00000000000E+00  0.64549148977E+02  0.64549148977E+02  0.00000000000E+00 0.  1.
          1   -1    0    0  501    0  0.00000000000E+00 -0.00000000000E+00 -0.33060000088E+03  0.33060000088E+03  0.00000000000E+00 0. -1.
          5    1    1    2  502    0  0.46259238577E+02 -0.16472563160E+02 -0.36780087889E+02  0.61531515144E+02  0.47000000000E+01 0.  1.
         -5    1    1    2    0  502 -0.11576995692E+02  0.10763624649E+03 -0.11343934025E+03  0.15687626431E+03  0.47000000000E+01 0.  1.
        -11    1    1    2    0    0  0.29728116929E+02 -0.18521816480E+02 -0.20038797667E+02  0.40353091998E+02  0.00000000000E+00 0.  1.
         11    1    1    2    0    0 -0.64410359814E+02 -0.72641866852E+02 -0.95792626096E+02  0.13638827840E+03  0.00000000000E+00 0. -1.
<mgrwt>
<rscale>  0 0.15187170E+03</rscale>
<asrwt>0</asrwt>
<pdfrwt beam="2">  1        1 0.50861539E-01 0.15854363E+03</pdfrwt>
<pdfrwt beam="1">  1       -1 0.99306383E-02 0.15854363E+03</pdfrwt>
<totfact> 0.46243322E+03</totfact>
</mgrwt>
</event>
<event>
 6    1  0.5818426E-006  0.2973172E+03  0.7546771E-02  0.1086589E+00
          1   -1    0    0  501    0  0.00000000000E+00  0.00000000000E+00  0.10992428364E+03  0.10992428364E+03  0.00000000000E+00 0. -1.
         -1   -1    0    0    0  501 -0.00000000000E+00 -0.00000000000E+00 -0.20104185589E+03  0.20104185589E+03  0.00000000000E+00 0.  1.
          5    1    1    2  502    0 -0.19932526655E+02  0.94229617171E+02 -0.82775874955E+02  0.12708446737E+03  0.47000000000E+01 0.  1.
         -5    1    1    2    0  502  0.13594772206E+02  0.73340546715E+01  0.37090829567E+02  0.40452760440E+02  0.47000000000E+01 0.  1.
        -11    1    1    2    0    0  0.56565353493E+01 -0.39858152027E+02 -0.66911401942E+02  0.78088439510E+02  0.00000000000E+00 0.  1.
         11    1    1    2    0    0  0.68121909938E+00 -0.61705519816E+02  0.21478875082E+02  0.65340472221E+02  0.00000000000E+00 0. -1.
<mgrwt>
<rscale>  0 0.29731722E+03</rscale>
<asrwt>0</asrwt>
<pdfrwt beam="1">  1        1 0.16911428E-01 0.29731722E+03</pdfrwt>
<pdfrwt beam="2">  1       -1 0.30929516E-01 0.29731722E+03</pdfrwt>
<totfact> 0.30785702E+03</totfact>
</mgrwt>
</event>
<event>
 6    1  0.5818426E-006  0.2744742E+03  0.7546771E-02  0.1098746E+00
         -1   -1    0    0    0  501 -0.00000000000E+00  0.00000000000E+00  0.39211954666E+02  0.39211954666E+02  0.00000000000E+00 0.  1.
          1   -1    0    0  501    0  0.00000000000E+00 -0.00000000000E+00 -0.48031313792E+03  0.48031313792E+03  0.00000000000E+00 0. -1.
          5    1    1    2  502    0 -0.54277634540E+02  0.62957669545E+02 -0.16678656642E+03  0.18641238828E+03  0.47000000000E+01 0. -1.
         -5    1    1    2    0  502  0.11486998307E+02 -0.43586573515E+02 -0.44329076205E+02  0.63394775164E+02  0.47000000000E+01 0. -1.
        -11    1    1    2    0    0 -0.45890762228E+02  0.63681153495E+01 -0.55431011651E+02  0.72243421871E+02  0.00000000000E+00 0.  1.
         11    1    1    2    0    0  0.88681398461E+02 -0.25739211379E+02 -0.17455452898E+03  0.19747450727E+03  0.00000000000E+00 0. -1.
<mgrwt>
<rscale>  0 0.27447417E+03</rscale>
<asrwt>0</asrwt>
<pdfrwt beam="2">  1        1 0.73894330E-01 0.27447417E+03</pdfrwt>
<pdfrwt beam="1">  1       -1 0.60326083E-02 0.27447417E+03</pdfrwt>
<totfact> 0.62823712E+03</totfact>
</mgrwt>
</event>
<event>
 6    1  0.5818426E-006  0.1459236E+03  0.7546771E-02  0.1215219E+00
         -4   -1    0    0    0  501 -0.00000000000E+00  0.00000000000E+00  0.18790178719E+04  0.18790178719E+04  0.00000000000E+00 0. -1.
          4   -1    0    0  501    0  0.00000000000E+00 -0.00000000000E+00 -0.11672010366E+02  0.11672010366E+02  0.00000000000E+00 0.  1.
          5    1    1    2  502    0 -0.61347794725E+02  0.20235166592E+02  0.44652889916E+03  0.45120190787E+03  0.47000000000E+01 0.  1.
         -5    1    1    2    0  502  0.76532331864E+01 -0.73008101471E+02  0.98599435027E+03  0.98873439488E+03  0.47000000000E+01 0.  1.
        -11    1    1    2    0    0  0.74903790378E+02  0.59927143520E+02  0.33580116761E+03  0.34923382498E+03  0.00000000000E+00 0.  1.
         11    1    1    2    0    0 -0.21209228839E+02 -0.71542086415E+01  0.99021444452E+02  0.10151975448E+03  0.00000000000E+00 0. -1.
<mgrwt>
<rscale>  0 0.13860460E+03</rscale>
<asrwt>0</asrwt>
<pdfrwt beam="2">  1        4 0.17956954E-02 0.14592360E+03</pdfrwt>
<pdfrwt beam="1">  1       -4 0.28907943E+00 0.14592360E+03</pdfrwt>
<totfact> 0.88965436E+01</totfact>
</mgrwt>
</event>
<event>
 6    1  0.5818426E-006  0.1260285E+03  0.7546771E-02  0.1249562E+00
         -2   -1    0    0    0  501 -0.00000000000E+00  0.00000000000E+00  0.62583938622E+03  0.62583938622E+03  0.00000000000E+00 0.  1.
          2   -1    0    0  501    0  0.00000000000E+00 -0.00000000000E+00 -0.19345025475E+02  0.19345025475E+02  0.00000000000E+00 0. -1.
          5    1    1    2  502    0 -0.25339592696E+02 -0.17912021844E+02  0.21857680441E+02  0.38246355105E+02  0.47000000000E+01 0.  1.
         -5    1    1    2    0  502  0.40975052355E+02  0.21449796196E+02  0.38201504412E+03  0.38483325299E+03  0.47000000000E+01 0.  1.
        -11    1    1    2    0    0 -0.35275500344E+02  0.17540592713E+02  0.18313200420E+03  0.18732155316E+03  0.00000000000E+00 0.  1.
         11    1    1    2    0    0  0.19640040684E+02 -0.21078367065E+02  0.19489631989E+02  0.34783250441E+02  0.00000000000E+00 0. -1.
<mgrwt>
<rscale>  0 0.11616429E+03</rscale>
<asrwt>0</asrwt>
<pdfrwt beam="2">  1        2 0.29761582E-02 0.12602848E+03</pdfrwt>
<pdfrwt beam="1">  1       -2 0.96282967E-01 0.12602848E+03</pdfrwt>
<totfact> 0.28134673E+03</totfact>
</mgrwt>
</event>
<event>
 6    1  0.5818426E-006  0.1506697E+03  0.7546771E-02  0.1208631E+00
         -1   -1    0    0    0  501 -0.00000000000E+00  0.00000000000E+00  0.10465391861E+04  0.10465391861E+04  0.00000000000E+00 0.  1.
          1   -1    0    0  501    0  0.00000000000E+00 -0.00000000000E+00 -0.21513612708E+02  0.21513612708E+02  0.00000000000E+00 0. -1.
          5    1    1    2  502    0  0.36170007293E+02 -0.63914799657E+02  0.23708885493E+03  0.24824702652E+03  0.47000000000E+01 0. -1.
         -5    1    1    2    0  502  0.44786909249E+02  0.41050793874E+02  0.53061037308E+03  0.53409783087E+03  0.47000000000E+01 0. -1.
        -11    1    1    2    0    0 -0.73092029818E+02 -0.94868537981E+01  0.96262334872E+02  0.12123894726E+03  0.00000000000E+00 0. -1.
         11    1    1    2    0    0 -0.78648867244E+01  0.32350859581E+02  0.16106401047E+03  0.16446899412E+03  0.00000000000E+00 0.  1.
<mgrwt>
<rscale>  0 0.14354978E+03</rscale>
<asrwt>0</asrwt>
<pdfrwt beam="2">  1        1 0.33097874E-02 0.15066974E+03</pdfrwt>
<pdfrwt beam="1">  1       -1 0.16100599E+00 0.15066974E+03</pdfrwt>
<totfact> 0.91533534E+02</totfact>
</mgrwt>
</event>
<event>
 6    1  0.5818426E-006  0.1330260E+03  0.7546771E-02  0.1230269E+00
          3   -1    0    0  501    0  0.00000000000E+00  0.00000000000E+00  0.61650635868E+02  0.61650635868E+02  0.00000000000E+00 0. -1.
         -3   -1    0    0    0  501 -0.00000000000E+00 -0.00000000000E+00 -0.25262518254E+03  0.25262518254E+03  0.00000000000E+00 0.  1.
          5    1    1    2  502    0 -0.15875377061E+02  0.29669351825E+02 -0.10067247812E+03  0.10625128651E+03  0.47000000000E+01 0. -1.
         -5    1    1    2    0  502 -0.29187634961E+02 -0.36066433063E+02  0.18430515797E+02  0.50144586359E+02  0.47000000000E+01 0. -1.
        -11    1    1    2    0    0  0.25388304963E+02  0.14886380182E+02 -0.12660255102E+03  0.12997836846E+03  0.00000000000E+00 0.  1.
         11    1    1    2    0    0  0.19674707060E+02 -0.84892989440E+01  0.17869966669E+02  0.27901577074E+02  0.00000000000E+00 0. -1.
<mgrwt>
<rscale>  0 0.12812241E+03</rscale>
<asrwt>0</asrwt>
<pdfrwt beam="1">  1        3 0.94847131E-02 0.13302605E+03</pdfrwt>
<pdfrwt beam="2">  1       -3 0.38865413E-01 0.13302605E+03</pdfrwt>
<totfact> 0.12141021E+03</totfact>
</mgrwt>
</event>
<event>
 6    1  0.5818426E-006  0.1496264E+03  0.7546771E-02  0.1210246E+00
         -3   -1    0    0    0  501 -0.00000000000E+00  0.00000000000E+00  0.84611069738E+02  0.84611069738E+02  0.00000000000E+00 0.  1.
          3   -1    0    0  501    0  0.00000000000E+00 -0.00000000000E+00 -0.24696915646E+03  0.24696915646E+03  0.00000000000E+00 0. -1.
          5    1    1    2  502    0 -0.55066469596E+02 -0.14681312118E+02 -0.45000904653E+02  0.72766945922E+02  0.47000000000E+01 0. -1.
         -5    1    1    2    0  502  0.42854044678E+02 -0.66664324102E+02  0.12448378625E+02  0.80359525780E+02  0.47000000000E+01 0. -1.
        -11    1    1    2    0    0 -0.17124346569E+02 -0.10191925579E+02 -0.43334367828E+01  0.20393559443E+02  0.00000000000E+00 0.  1.
         11    1    1    2    0    0  0.29336771487E+02  0.91537561799E+02 -0.12547212391E+03  0.15806019506E+03  0.00000000000E+00 0. -1.
<mgrwt>
<rscale>  0 0.14231608E+03</rscale>
<asrwt>0</asrwt>
<pdfrwt beam="2">  1        3 0.37995255E-01 0.14962637E+03</pdfrwt>
<pdfrwt beam="1">  1       -3 0.13017088E-01 0.14962637E+03</pdfrwt>
<totfact> 0.76161817E+02</totfact>
</mgrwt>
</event>
<event>
 6    1  0.5818426E-006  0.1293842E+03  0.7546771E-02  0.1243733E+00
          1   -1    0    0  501    0  0.00000000000E+00  0.00000000000E+00  0.35227602699E+03  0.35227602699E+03  0.00000000000E+00 0. -1.
         -1   -1    0    0    0  501 -0.00000000000E+00 -0.00000000000E+00 -0.40705858950E+02  0.40705858950E+02  0.00000000000E+00 0.  1.
          5    1    1    2  502    0  0.28506162216E+02 -0.69969248696E+02  0.99649859250E+02  0.12514184550E+03  0.47000000000E+01 0. -1.
         -5    1    1    2    0  502 -0.13639617891E+02  0.40055968386E+02  0.83325094594E+01  0.43382490632E+02  0.47000000000E+01 0. -1.
        -11    1    1    2    0    0 -0.22758363751E+02  0.59058495576E+02  0.12158133281E+03  0.13706884952E+03  0.00000000000E+00 0.  1.
         11    1    1    2    0    0  0.78918194255E+01 -0.29145215266E+02  0.82006466523E+02  0.87388700290E+02  0.00000000000E+00 0. -1.
<mgrwt>
<rscale>  0 0.11961529E+03</rscale>
<asrwt>0</asrwt>
<pdfrwt beam="1">  1        1 0.54196310E-01 0.12938416E+03</pdfrwt>
<pdfrwt beam="2">  1       -1 0.62624401E-02 0.12938416E+03</pdfrwt>
<totfact> 0.84648708E+03</totfact>
</mgrwt>
</event>
<event>
 6    1  0.5818426E-006  0.1265033E+03  0.7546771E-02  0.1247995E+00
         -1   -1    0    0    0  501 -0.00000000000E+00  0.00000000000E+00  0.58990527521E+02  0.58990527521E+02  0.00000000000E+00 0.  1.
          1   -1    0    0  501    0  0.00000000000E+00 -0.00000000000E+00 -0.20391220373E+03  0.20391220373E+03  0.00000000000E+00 0. -1.
          5    1    1    2  502    0  0.28746292042E+02 -0.41736684894E+02 -0.60372804750E+02  0.78963698783E+02  0.47000000000E+01 0.  1.
         -5    1    1    2    0  502 -0.33626184817E+02  0.60541969237E+02 -0.25574372727E+02  0.73974244740E+02  0.47000000000E+01 0.  1.
        -11    1    1    2    0    0  0.14799190936E+02  0.14280238412E+02  0.16886793894E+02  0.26610243695E+02  0.00000000000E+00 0.  1.
         11    1    1    2    0    0 -0.99192981605E+01 -0.33085522756E+02 -0.75861292624E+02  0.83354544031E+02  0.00000000000E+00 0. -1.
<mgrwt>
<rscale>  0 0.11707894E+03</rscale>
<asrwt>0</asrwt>
<pdfrwt beam="2">  1        1 0.31371108E-01 0.12650335E+03</pdfrwt>
<pdfrwt beam="1">  1       -1 0.90754658E-02 0.12650335E+03</pdfrwt>
<totfact> 0.95154232E+03</totfact>
</mgrwt>
</event>
<event>
 6    1  0.5818426E-006  0.1570472E+03  0.7546771E-02  0.1200078E+00
         -2   -1    0    0    0  501 -0.00000000000E+00  0.00000000000E+00  0.38115354190E+02  0.38115354190E+02  0.00000000000E+00 0. -1.
          2   -1    0    0  501    0  0.00000000000E+00 -0.00000000000E+00 -0.59616607506E+03  0.59616607506E+03  0.00000000000E+00 0.  1.
          5    1    1    2  502    0 -0.82479526295E+02 -0.63166550533E+02 -0.10344977138E+03  0.14668616350E+03  0.47000000000E+01 0.  1.
         -5    1    1    2    0  502  0.38700391382E+02 -0.21228391732E+02 -0.10749389721E+03  0.11629872246E+03  0.47000000000E+01 0.  1.
        -11    1    1    2    0    0  0.37381672091E+02 -0.87586636117E+01 -0.10620199483E+03  0.11292903658E+03  0.00000000000E+00 0.  1.
         11    1    1    2    0    0  0.63974628221E+01  0.93153605877E+02 -0.24090505745E+03  0.25836750671E+03  0.00000000000E+00 0. -1.
<mgrwt>
<rscale>  0 0.15032182E+03</rscale>
<asrwt>0</asrwt>
<pdfrwt beam="2">  1        2 0.91717853E-01 0.15704719E+03</pdfrwt>
<pdfrwt beam="1">  1       -2 0.58639010E-02 0.15704719E+03</pdfrwt>
<totfact> 0.75446095E+03</totfact>
</mgrwt>
</event>
<event>
 6    1  0.5818426E-006  0.1375648E+03  0.7546771E-02  0.1227954E+00
          1   -1    0    0  501    0  0.00000000000E+00  0.00000000000E+00  0.69161191741E+03  0.69161191741E+03  0.00000000000E+00 0. -1.
         -1   -1    0    0    0  501 -0.00000000000E+00 -0.00000000000E+00 -0.22560091482E+02  0.22560091482E+02  0.00000000000E+00 0.  1.
          5    1    1    2  502    0  0.29333638343E+02  0.94995772477E+01  0.20222926368E+02  0.37172046718E+02  0.47000000000E+01 0. -1.
         -5    1    1    2    0  502 -0.63684820717E+02 -0.55531895906E+02  0.29193659035E+03  0.30395494837E+03  0.47000000000E+01 0. -1.
        -11    1    1    2    0    0  0.43953570167E+02  0.56895428336E+02  0.34940875955E+03  0.35672887092E+03  0.00000000000E+00 0. -1.
         11    1    1    2    0    0 -0.96023877923E+01 -0.10863109678E+02  0.74835496558E+01  0.16316142885E+02  0.00000000000E+00 0.  1.
<mgrwt>
<rscale>  0 0.12966470E+03</rscale>
<asrwt>0</asrwt>
<pdfrwt beam="1">  1        1 0.10640182E+00 0.13756476E+03</pdfrwt>
<pdfrwt beam="2">  1       -1 0.34707838E-02 0.13756476E+03</pdfrwt>
<totfact> 0.83817016E+03</totfact>
</mgrwt>
</event>
<event>
 6    1  0.5818426E-006  0.6522945E+03  0.7546771E-02  0.1038958E+00
          2   -1    0    0  501    0  0.00000000000E+00  0.00000000000E+00  0.84213241896E+03  0.84213241896E+03  0.00000000000E+00 0. -1.
         -2   -1    0    0    0  501 -0.00000000000E+00 -0.00000000000E+00 -0.19202755437E+03  0.19202755437E+03  0.00000000000E+00 0.  1.
          5    1    1    2  502    0 -0.20439332675E+03 -0.23339876224E+03  0.32016881988E+03  0.44584950091E+03  0.47000000000E+01 0. -1.
         -5    1    1    2    0  502  0.22929716155E+03  0.21015849789E+03  0.86672932643E+02  0.32292115103E+03  0.47000000000E+01 0.  1.
        -11    1    1    2    0    0  0.29585163349E+02 -0.15432831018E+02  0.12682664269E+03  0.13114286660E+03  0.00000000000E+00 0. -1.
         11    1    1    2    0    0 -0.54488998154E+02  0.38673095370E+02  0.11643646937E+03  0.13424645479E+03  0.00000000000E+00 0.  1.
<mgrwt>
<rscale>  0 0.41423692E+03</rscale>
<asrwt>0</asrwt>
<pdfrwt beam="1">  1        2 0.12955883E+00 0.65229449E+03</pdfrwt>
<pdfrwt beam="2">  1       -2 0.29542701E-01 0.65229449E+03</pdfrwt>
<totfact> 0.34285381E+02</totfact>
</mgrwt>
</event>
<event>
 6    1  0.5818426E-006  0.2669114E+03  0.7546771E-02  0.1105154E+00
          2   -1    0    0  501    0  0.00000000000E+00  0.00000000000E+00  0.37783975367E+03  0.37783975367E+03  0.00000000000E+00 0. -1.
         -2   -1    0    0    0  501 -0.00000000000E+00 -0.00000000000E+00 -0.22724520534E+03  0.22724520534E+03  0.00000000000E+00 0.  1.
          5    1    1    2  502    0 -0.76214385413E+01  0.11321149710E+03 -0.91646493439E+02  0.14593183052E+03  0.47000000000E+01 0. -1.
         -5    1    1    2    0  502 -0.43960208343E+02  0.11689193657E+03  0.28865652426E+02  0.12826355929E+03  0.47000000000E+01 0. -1.
        -11    1    1    2    0    0 -0.26198298568E+02 -0.67036766652E+02  0.54110003704E+02  0.90045385400E+02  0.00000000000E+00 0. -1.
         11    1    1    2    0    0  0.77779945452E+02 -0.16306666701E+03  0.15926538564E+03  0.24084418379E+03  0.00000000000E+00 0.  1.
<mgrwt>
<rscale>  0 0.26333761E+03</rscale>
<asrwt>0</asrwt>
<pdfrwt beam="1">  1        2 0.58129193E-01 0.26691137E+03</pdfrwt>
<pdfrwt beam="2">  1       -2 0.34960801E-01 0.26691137E+03</pdfrwt>
<totfact> 0.65654694E+02</totfact>
</mgrwt>
</event>
<event>
 6    1  0.5818426E-006  0.2771475E+03  0.7546771E-02  0.1099227E+00
         -2   -1    0    0    0  501 -0.00000000000E+00  0.00000000000E+00  0.46491072091E+02  0.46491072091E+02  0.00000000000E+00 0.  1.
          2   -1    0    0  501    0  0.00000000000E+00 -0.00000000000E+00 -0.16263787256E+04  0.16263787256E+04  0.00000000000E+00 0. -1.
          5    1    1    2  502    0 -0.21439870389E+03 -0.91490477784E+02 -0.63357587552E+03  0.67511316962E+03  0.47000000000E+01 0. -1.
         -5    1    1    2    0  502 -0.21890927413E+02  0.18313606314E+02 -0.21081885166E+02  0.35792970837E+02  0.47000000000E+01 0. -1.
        -11    1    1    2    0    0  0.60440711577E+02  0.62360717804E+02 -0.28538321753E+03  0.29830440759E+03  0.00000000000E+00 0.  1.
         11    1    1    2    0    0  0.17584891973E+03  0.10816153667E+02 -0.63984667528E+03  0.66365924962E+03  0.00000000000E+00 0. -1.
<mgrwt>
<rscale>  0 0.27361727E+03</rscale>
<asrwt>0</asrwt>
<pdfrwt beam="2">  1        2 0.25021211E+00 0.27714754E+03</pdfrwt>
<pdfrwt beam="1">  1       -2 0.71524726E-02 0.27714754E+03</pdfrwt>
<totfact> 0.13169468E+03</totfact>
</mgrwt>
</event>
<event>
 6    1  0.5818426E-006  0.1352407E+03  0.7546771E-02  0.1228466E+00
          4   -1    0    0  501    0  0.00000000000E+00  0.00000000000E+00  0.40958676862E+02  0.40958676862E+02  0.00000000000E+00 0. -1.
         -4   -1    0    0    0  501 -0.00000000000E+00 -0.00000000000E+00 -0.48638169890E+03  0.48638169890E+03  0.00000000000E+00 0.  1.
          5    1    1    2  502    0  0.25604393043E+02 -0.59808761363E+02 -0.11934119888E+03  0.13600398755E+03  0.47000000000E+01 0. -1.
         -5    1    1    2    0  502 -0.61581504491E+02  0.11261811445E+01 -0.24377637811E+03  0.25148073983E+03  0.47000000000E+01 0.  1.
        -11    1    1    2    0    0  0.59906347935E+02  0.50178405691E+02 -0.33876211732E+02  0.85171830095E+02  0.00000000000E+00 0. -1.
         11    1    1    2    0    0 -0.23929236486E+02  0.85041745281E+01 -0.48429233311E+02  0.54683818285E+02  0.00000000000E+00 0.  1.
<mgrwt>
<rscale>  0 0.12932124E+03</rscale>
<asrwt>0</asrwt>
<pdfrwt beam="1">  1        4 0.63013349E-02 0.13524067E+03</pdfrwt>
<pdfrwt beam="2">  1       -4 0.74827954E-01 0.13524067E+03</pdfrwt>
<totfact> 0.44842679E+02</totfact>
</mgrwt>
</event>
<event>
 6    1  0.5818426E-006  0.4089423E+03  0.7546771E-02  0.1040727E+00
         -2   -1    0    0    0  501 -0.00000000000E+00  0.00000000000E+00  0.34525284519E+02  0.34525284519E+02  0.00000000000E+00 0.  1.
          2   -1    0    0  501    0  0.00000000000E+00 -0.00000000000E+00 -0.12109514345E+04  0.12109514345E+04  0.00000000000E+00 0. -1.
          5    1    1    2  502    0 -0.69599277363E+00  0.31377137656E+02 -0.12718542214E+03  0.13108482283E+03  0.47000000000E+01 0.  1.
         -5    1    1    2    0  502  0.16272932802E+03 -0.34189444062E+02 -0.31750767460E+03  0.35844520601E+03  0.47000000000E+01 0.  1.
        -11    1    1    2    0    0 -0.39960257235E+02 -0.37010296354E+02 -0.13536536918E+03  0.14591219061E+03  0.00000000000E+00 0.  1.
         11    1    1    2    0    0 -0.12207307801E+03  0.39822602761E+02 -0.59636768402E+03  0.61003449952E+03  0.00000000000E+00 0. -1.
<mgrwt>
<rscale>  0 0.40894226E+03</rscale>
<asrwt>0</asrwt>
<pdfrwt beam="2">  1        2 0.18630024E+00 0.40894226E+03</pdfrwt>
<pdfrwt beam="1">  1       -2 0.53115816E-02 0.40894226E+03</pdfrwt>
<totfact> 0.35258825E+03</totfact>
</mgrwt>
</event>
<event>
 6    1  0.5818426E-006  0.1389530E+03  0.7546771E-02  0.1226722E+00
         -1   -1    0    0    0  501 -0.00000000000E+00  0.00000000000E+00  0.17375522871E+03  0.17375522871E+03  0.00000000000E+00 0.  1.
          1   -1    0    0  501    0  0.00000000000E+00 -0.00000000000E+00 -0.87937984805E+02  0.87937984805E+02  0.00000000000E+00 0. -1.
          5    1    1    2  502    0  0.13464745967E+02 -0.84897560873E+02  0.67775941739E+02  0.10956533898E+03  0.47000000000E+01 0.  1.
         -5    1    1    2    0  502  0.90620961356E+00  0.25943870206E+02 -0.24466602592E+02  0.35980692872E+02  0.47000000000E+01 0.  1.
        -11    1    1    2    0    0 -0.50304673965E+02  0.48186578147E+02  0.20314845588E+02  0.72561694354E+02  0.00000000000E+00 0.  1.
         11    1    1    2    0    0  0.35933718385E+02  0.10767112519E+02  0.22193059164E+02  0.43585487310E+02  0.00000000000E+00 0. -1.
<mgrwt>
<rscale>  0 0.13049579E+03</rscale>
<asrwt>0</asrwt>
<pdfrwt beam="2">  1        1 0.13528921E-01 0.13895304E+03</pdfrwt>
<pdfrwt beam="1">  1       -1 0.26731574E-01 0.13895304E+03</pdfrwt>
<totfact> 0.50780091E+03</totfact>
</mgrwt>
</event>
<event>
 6    1  0.5818426E-006  0.1421983E+03  0.7546771E-02  0.1221047E+00
          1   -1    0    0  501    0  0.00000000000E+00  0.00000000000E+00  0.75358344451E+03  0.75358344451E+03  0.00000000000E+00 0. -1.
         -1   -1    0    0    0  501 -0.00000000000E+00 -0.00000000000E+00 -0.21833554178E+02  0.21833554178E+02  0.00000000000E+00 0.  1.
          5    1    1    2  502    0 -0.49225777186E+02  0.31047063177E+02  0.26198023033E+03  0.26840795136E+03  0.47000000000E+01 0. -1.
         -5    1    1    2    0  502  0.59394188080E+02  0.35974749392E+02  0.11402663761E+03  0.13358898254E+03  0.47000000000E+01 0. -1.
        -11    1    1    2    0    0 -0.24888903528E+02 -0.81951854169E+02  0.32577636986E+03  0.33684685998E+03  0.00000000000E+00 0. -1.
         11    1    1    2    0    0  0.14720492634E+02  0.14930041600E+02  0.29966652539E+02  0.36573204808E+02  0.00000000000E+00 0.  1.
<mgrwt>
<rscale>  0 0.13441576E+03</rscale>
<asrwt>0</asrwt>
<pdfrwt beam="1">  1        1 0.11593589E+00 0.14219835E+03</pdfrwt>
<pdfrwt beam="2">  1       -1 0.33590089E-02 0.14219835E+03</pdfrwt>
<totfact> 0.77807215E+03</totfact>
</mgrwt>
</event>
<event>
 6    1  0.5818426E-006  0.1604196E+03  0.7546771E-02  0.1201720E+00
         -2   -1    0    0    0  501 -0.00000000000E+00  0.00000000000E+00  0.13507039606E+03  0.13507039606E+03  0.00000000000E+00 0.  1.
          2   -1    0    0  501    0  0.00000000000E+00 -0.00000000000E+00 -0.15852521067E+03  0.15852521067E+03  0.00000000000E+00 0. -1.
          5    1    1    2  502    0 -0.15499165422E+02 -0.35237954438E+01 -0.54709733326E+02  0.57165428221E+02  0.47000000000E+01 0. -1.
         -5    1    1    2    0  502 -0.54265595285E+02  0.34442216464E+02  0.84053997269E+02  0.10591593631E+03  0.47000000000E+01 0.  1.
        -11    1    1    2    0    0  0.57560568236E+02 -0.33815755992E+02 -0.77816315769E+02  0.10252854904E+03  0.00000000000E+00 0. -1.
         11    1    1    2    0    0  0.12204192471E+02  0.28973349719E+01  0.25017237217E+02  0.27985693162E+02  0.00000000000E+00 0.  1.
<mgrwt>
<rscale>  0 0.14898945E+03</rscale>
<asrwt>0</asrwt>
<pdfrwt beam="2">  1        2 0.24388494E-01 0.16041959E+03</pdfrwt>
<pdfrwt beam="1">  1       -2 0.20780061E-01 0.16041959E+03</pdfrwt>
<totfact> 0.42110300E+03</totfact>
</mgrwt>
</event>
<event>
 6    1  0.5818426E-006  0.1524327E+03  0.7546771E-02  0.1205476E+00
         -2   -1    0    0    0  501 -0.00000000000E+00  0.00000000000E+00  0.35785878629E+03  0.35785878629E+03  0.00000000000E+00 0.  1.
          2   -1    0    0  501    0  0.00000000000E+00 -0.00000000000E+00 -0.77555563136E+02  0.77555563136E+02  0.00000000000E+00 0. -1.
          5    1    1    2  502    0  0.10847703977E+03  0.15302672586E+02  0.13908354155E+03  0.17710946185E+03  0.47000000000E+01 0.  1.
         -5    1    1    2    0  502 -0.21250510390E+02 -0.13813647944E+02  0.12659107411E+03  0.12918897440E+03  0.47000000000E+01 0.  1.
        -11    1    1    2    0    0 -0.10209820515E+03  0.14598177839E+02  0.66977863424E+00  0.10313873614E+03  0.00000000000E+00 0. -1.
         11    1    1    2    0    0  0.14871675764E+02 -0.16087202481E+02  0.13958828859E+02  0.25977177037E+02  0.00000000000E+00 0.  1.
<mgrwt>
<rscale>  0 0.14599978E+03</rscale>
<asrwt>0</asrwt>
<pdfrwt beam="2">  1        2 0.11931625E-01 0.15243271E+03</pdfrwt>
<pdfrwt beam="1">  1       -2 0.55055197E-01 0.15243271E+03</pdfrwt>
<totfact> 0.15868063E+03</totfact>
</mgrwt>
</event>
<event>
 6    1  0.5818426E-006  0.1265255E+03  0.7546771E-02  0.1247608E+00
          2   -1    0    0  501    0  0.00000000000E+00  0.00000000000E+00  0.27561183165E+03  0.27561183165E+03  0.00000000000E+00 0. -1.
         -2   -1    0    0    0  501 -0.00000000000E+00 -0.00000000000E+00 -0.49636706870E+02  0.49636706870E+02  0.00000000000E+00 0.  1.
          5    1    1    2  502    0 -0.68756480140E+02 -0.58122755142E+01  0.22361065999E+02  0.72686610738E+02  0.47000000000E+01 0.  1.
         -5    1    1    2    0  502  0.50944148559E+02  0.13989078619E+02  0.50937119465E+02  0.73536934478E+02  0.47000000000E+01 0.  1.
        -11    1    1    2    0    0  0.45973782012E+02 -0.61713185539E+01  0.14106799424E+03  0.14849866263E+03  0.00000000000E+00 0. -1.
         11    1    1    2    0    0 -0.28161450431E+02 -0.20054845509E+01  0.11608945083E+02  0.30526330677E+02  0.00000000000E+00 0.  1.
<mgrwt>
<rscale>  0 0.11730610E+03</rscale>
<asrwt>0</asrwt>
<pdfrwt beam="1">  1        2 0.42401819E-01 0.12652550E+03</pdfrwt>
<pdfrwt beam="2">  1       -2 0.76364166E-02 0.12652550E+03</pdfrwt>
<totfact> 0.11437344E+04</totfact>
</mgrwt>
</event>
<event>
 6    1  0.5818426E-006  0.1789181E+03  0.7546771E-02  0.1197837E+00
         -2   -1    0    0    0  501 -0.00000000000E+00  0.00000000000E+00  0.10916241474E+03  0.10916241474E+03  0.00000000000E+00 0.  1.
          2   -1    0    0  501    0  0.00000000000E+00 -0.00000000000E+00 -0.26995787871E+03  0.26995787871E+03  0.00000000000E+00 0. -1.
          5    1    1    2  502    0 -0.60604864622E+01 -0.28255638709E+02 -0.75186377029E+02  0.80685760241E+02  0.47000000000E+01 0. -1.
         -5    1    1    2    0  502  0.13496863050E+02  0.36956284093E+02  0.90611286711E+02  0.98896044034E+02  0.47000000000E+01 0.  1.
        -11    1    1    2    0    0 -0.13093665602E+02  0.34551579592E+02 -0.32047214682E+02  0.48910936406E+02  0.00000000000E+00 0. -1.
         11    1    1    2    0    0  0.56572890140E+01 -0.43252224976E+02 -0.14417315897E+03  0.15062755277E+03  0.00000000000E+00 0.  1.
<mgrwt>
<rscale>  0 0.15216546E+03</rscale>
<asrwt>0</asrwt>
<pdfrwt beam="2">  1        2 0.41531981E-01 0.17891813E+03</pdfrwt>
<pdfrwt beam="1">  1       -2 0.16794218E-01 0.17891813E+03</pdfrwt>
<totfact> 0.33980442E+03</totfact>
</mgrwt>
</event>
<event>
 6    1  0.5818426E-006  0.2509322E+03  0.7546771E-02  0.1112717E+00
         -2   -1    0    0    0  501 -0.00000000000E+00  0.00000000000E+00  0.71353351296E+03  0.71353351296E+03  0.00000000000E+00 0.  1.
          2   -1    0    0  501    0  0.00000000000E+00 -0.00000000000E+00 -0.22061667932E+02  0.22061667932E+02  0.00000000000E+00 0. -1.
          5    1    1    2  502    0 -0.25439871572E+02  0.34301618929E+02  0.12835095482E+03  0.13535082463E+03  0.47000000000E+01 0.  1.
         -5    1    1    2    0  502  0.56071657984E+02 -0.68172858676E+02  0.37780632249E+03  0.38800937721E+03  0.47000000000E+01 0.  1.
        -11    1    1    2    0    0  0.22837134523E+02  0.42216956794E+02  0.10422474029E+03  0.11474581754E+03  0.00000000000E+00 0.  1.
         11    1    1    2    0    0 -0.53468920935E+02 -0.83457170474E+01  0.81089827430E+02  0.97489161509E+02  0.00000000000E+00 0. -1.
<mgrwt>
<rscale>  0 0.25093218E+03</rscale>
<asrwt>0</asrwt>
<pdfrwt beam="2">  1        2 0.33941033E-02 0.25093218E+03</pdfrwt>
<pdfrwt beam="1">  1       -2 0.10977437E+00 0.25093218E+03</pdfrwt>
<totfact> 0.18131076E+03</totfact>
</mgrwt>
</event>
<event>
 6    1  0.5818426E-006  0.1187419E+03  0.7546771E-02  0.1256570E+00
         -3   -1    0    0    0  501 -0.00000000000E+00  0.00000000000E+00  0.76308327946E+02  0.76308327946E+02  0.00000000000E+00 0.  1.
          3   -1    0    0  501    0  0.00000000000E+00 -0.00000000000E+00 -0.16177732983E+03  0.16177732983E+03  0.00000000000E+00 0. -1.
          5    1    1    2  502    0  0.23761885713E+02  0.52520831243E+01 -0.60489953696E+02  0.65370758661E+02  0.47000000000E+01 0. -1.
         -5    1    1    2    0  502 -0.13745844213E+02  0.24019258022E+02  0.46373178663E+02  0.54207330578E+02  0.47000000000E+01 0.  1.
        -11    1    1    2    0    0  0.15827461977E+02 -0.31852848204E+02  0.67472865153E+01  0.36202739768E+02  0.00000000000E+00 0. -1.
         11    1    1    2    0    0 -0.25843503478E+02  0.25815070575E+01 -0.78099513365E+02  0.82304828768E+02  0.00000000000E+00 0.  1.
<mgrwt>
<rscale>  0 0.11218853E+03</rscale>
<asrwt>0</asrwt>
<pdfrwt beam="2">  1        3 0.24888820E-01 0.11874189E+03</pdfrwt>
<pdfrwt beam="1">  1       -3 0.11739743E-01 0.11874189E+03</pdfrwt>
<totfact> 0.19121763E+03</totfact>
</mgrwt>
</event>
<event>
 6    1  0.5818426E-006  0.1496637E+03  0.7546771E-02  0.1210586E+00
          2   -1    0    0  501    0  0.00000000000E+00  0.00000000000E+00  0.91831340528E+02  0.91831340528E+02  0.00000000000E+00 0. -1.
         -2   -1    0    0    0  501 -0.00000000000E+00 -0.00000000000E+00 -0.21144496169E+03  0.21144496169E+03  0.00000000000E+00 0.  1.
          5    1    1    2  502    0 -0.83992317149E+02  0.75161545001E+02 -0.55952054375E+02  0.12592334802E+03  0.47000000000E+01 0. -1.
         -5    1    1    2    0  502  0.25363451825E+02 -0.17400659463E+02 -0.44601262350E+02  0.54382444239E+02  0.47000000000E+01 0. -1.
        -11    1    1    2    0    0  0.41318310310E+02 -0.45872126592E+02  0.30708488754E+02  0.68952636255E+02  0.00000000000E+00 0. -1.
         11    1    1    2    0    0  0.17310555013E+02 -0.11888758947E+02 -0.49768793189E+02  0.54017873705E+02  0.00000000000E+00 0.  1.
<mgrwt>
<rscale>  0 0.14205854E+03</rscale>
<asrwt>0</asrwt>
<pdfrwt beam="1">  1        2 0.14127899E-01 0.14966365E+03</pdfrwt>
<pdfrwt beam="2">  1       -2 0.32529994E-01 0.14966365E+03</pdfrwt>
<totfact> 0.35567894E+03</totfact>
</mgrwt>
</event>
<event>
 6    1  0.5818426E-006  0.4322040E+03  0.7546771E-02  0.1080200E+00
          2   -1    0    0  501    0  0.00000000000E+00  0.00000000000E+00  0.15028107857E+03  0.15028107857E+03  0.00000000000E+00 0. -1.
         -2   -1    0    0    0  501 -0.00000000000E+00 -0.00000000000E+00 -0.51851199153E+03  0.51851199153E+03  0.00000000000E+00 0.  1.
          5    1    1    2  502    0 -0.11918072754E+03  0.13688752590E+03 -0.27905051457E+01  0.18158226093E+03  0.47000000000E+01 0. -1.
         -5    1    1    2    0  502  0.47013602442E+02 -0.13916797673E+03 -0.33882625262E+03  0.36932820638E+03  0.47000000000E+01 0.  1.
        -11    1    1    2    0    0  0.52221481370E+02  0.44101814903E+02 -0.12875767542E+02  0.69554572704E+02  0.00000000000E+00 0.  1.
         11    1    1    2    0    0  0.19945643733E+02 -0.41821364075E+02 -0.13738387649E+02  0.48328030088E+02  0.00000000000E+00 0. -1.
<mgrwt>
<rscale>  0 0.31030514E+03</rscale>
<asrwt>0</asrwt>
<pdfrwt beam="1">  1        2 0.23120166E-01 0.43220404E+03</pdfrwt>
<pdfrwt beam="2">  1       -2 0.79771074E-01 0.43220404E+03</pdfrwt>
<totfact> 0.33780615E+02</totfact>
</mgrwt>
</event>
<event>
 6    1  0.5818426E-006  0.2160011E+03  0.7546771E-02  0.1136900E+00
          4   -1    0    0  501    0  0.00000000000E+00  0.00000000000E+00  0.35282224794E+02  0.35282224794E+02  0.00000000000E+00 0. -1.
         -4   -1    0    0    0  501 -0.00000000000E+00 -0.00000000000E+00 -0.33059468970E+03  0.33059468970E+03  0.00000000000E+00 0.  1.
          5    1    1    2  502    0  0.13763565657E+02 -0.66367851176E+01  0.15428785262E+02  0.22217562219E+02  0.47000000000E+01 0. -1.
         -5    1    1    2    0  502 -0.50925799976E+01  0.18095475942E+01 -0.20464337091E+03  0.20476866970E+03  0.47000000000E+01 0. -1.
        -11    1    1    2    0    0  0.39229075702E+02  0.42585072557E+01 -0.32720828635E+02  0.51261173329E+02  0.00000000000E+00 0.  1.
         11    1    1    2    0    0 -0.47900061361E+02  0.56873026766E+00 -0.73377050622E+02  0.87629509245E+02  0.00000000000E+00 0. -1.
<mgrwt>
<rscale>  0 0.21600108E+03</rscale>
<asrwt>0</asrwt>
<pdfrwt beam="1">  1        4 0.54280346E-02 0.21600108E+03</pdfrwt>
<pdfrwt beam="2">  1       -4 0.50860722E-01 0.21600108E+03</pdfrwt>
<totfact> 0.14155497E+03</totfact>
</mgrwt>
</event>
<event>
 6    1  0.5818426E-006  0.6552513E+03  0.7546771E-02  0.9796975E-01
         -2   -1    0    0    0  501 -0.00000000000E+00  0.00000000000E+00  0.25288404720E+03  0.25288404720E+03  0.00000000000E+00 0.  1.
          2   -1    0    0  501    0  0.00000000000E+00 -0.00000000000E+00 -0.42445770106E+03  0.42445770106E+03  0.00000000000E+00 0. -1.
          5    1    1    2  502    0 -0.13236659221E+02 -0.29212970428E+02  0.64565830166E+01  0.33051236782E+02  0.47000000000E+01 0. -1.
         -5    1    1    2    0  502  0.12204682469E+03 -0.49469785975E+02  0.19660955848E+03  0.23668564728E+03  0.47000000000E+01 0.  1.
        -11    1    1    2    0    0 -0.62554741347E+02  0.92299440545E+02 -0.28014962215E+03  0.30152295631E+03  0.00000000000E+00 0. -1.
         11    1    1    2    0    0 -0.46255424120E+02 -0.13616684142E+02 -0.94490173207E+02  0.10608190788E+03  0.00000000000E+00 0.  1.
<mgrwt>
<rscale>  0 0.65525135E+03</rscale>
<asrwt>0</asrwt>
<pdfrwt beam="2">  1        2 0.65301184E-01 0.65525135E+03</pdfrwt>
<pdfrwt beam="1">  1       -2 0.38905238E-01 0.65525135E+03</pdfrwt>
<totfact> 0.46790809E+02</totfact>
</mgrwt>
</event>
<event>
 6    1  0.5818426E-006  0.2168103E+03  0.7546771E-02  0.1148303E+00
         -2   -1    0    0    0  501 -0.00000000000E+00  0.00000000000E+00  0.16841241421E+03  0.16841241421E+03  0.00000000000E+00 0.  1.
          2   -1    0    0  501    0  0.00000000000E+00 -0.00000000000E+00 -0.25620223985E+03  0.25620223985E+03  0.00000000000E+00 0. -1.
          5    1    1    2  502    0  0.12716104503E+03 -0.27627438366E+02 -0.33129039745E+01  0.13025464313E+03  0.47000000000E+01 0. -1.
         -5    1    1    2    0  502 -0.91792639537E+00  0.80044637293E+02  0.40096498145E+02  0.89653810358E+02  0.47000000000E+01 0.  1.
        -11    1    1    2    0    0 -0.36497501540E+02  0.43588313649E+01 -0.82793947099E+02  0.90586448797E+02  0.00000000000E+00 0.  1.
         11    1    1    2    0    0 -0.89745617099E+02 -0.56776030292E+02 -0.41779472708E+02  0.11411975177E+03  0.00000000000E+00 0. -1.
<mgrwt>
<rscale>  0 0.20171202E+03</rscale>
<asrwt>0</asrwt>
<pdfrwt beam="2">  1        2 0.39415729E-01 0.21681027E+03</pdfrwt>
<pdfrwt beam="1">  1       -2 0.25909602E-01 0.21681027E+03</pdfrwt>
<totfact> 0.17190134E+03</totfact>
</mgrwt>
</event>
<event>
 6    1  0.5818426E-006  0.1426402E+03  0.7546771E-02  0.1220442E+00
          1   -1    0    0  501    0  0.00000000000E+00  0.00000000000E+00  0.82655197333E+03  0.82655197333E+03  0.00000000000E+00 0. -1.
         -1   -1    0    0    0  501 -0.00000000000E+00 -0.00000000000E+00 -0.20020740836E+02  0.20020740836E+02  0.00000000000E+00 0.  1.
          5    1    1    2  502    0  0.22016568314E+02  0.43990618634E+02  0.27843702682E+03  0.28278820999E+03  0.47000000000E+01 0.  1.
         -5    1    1    2    0  502 -0.75581947258E+02 -0.95380413977E+00  0.13821738526E+03  0.15760607882E+03  0.47000000000E+01 0.  1.
        -11    1    1    2    0    0  0.69379415373E+01  0.15054976940E+02  0.10645695917E+02  0.19700715850E+02  0.00000000000E+00 0.  1.
         11    1    1    2    0    0  0.46627437407E+02 -0.58091791435E+02  0.37923112450E+03  0.38647770950E+03  0.00000000000E+00 0. -1.
<mgrwt>
<rscale>  0 0.13484293E+03</rscale>
<asrwt>0</asrwt>
<pdfrwt beam="1">  1        1 0.12716182E+00 0.14264021E+03</pdfrwt>
<pdfrwt beam="2">  1       -1 0.30801146E-02 0.14264021E+03</pdfrwt>
<totfact> 0.76883079E+03</totfact>
</mgrwt>
</event>
<event>
 6    1  0.5818426E-006  0.1793011E+03  0.7546771E-02  0.1173688E+00
          1   -1    0    0  501    0  0.00000000000E+00  0.00000000000E+00  0.14874529957E+03  0.14874529957E+03  0.00000000000E+00 0. -1.
         -1   -1    0    0    0  501 -0.00000000000E+00 -0.00000000000E+00 -0.25597863598E+03  0.25597863598E+03  0.00000000000E+00 0.  1.
          5    1    1    2  502    0 -0.10390245446E+02  0.34697565146E+02 -0.13416624720E+03  0.13904873288E+03  0.47000000000E+01 0.  1.
         -5    1    1    2    0  502 -0.71945691648E+02  0.64030515077E+02 -0.22413561815E+02  0.98997712908E+02  0.47000000000E+01 0.  1.
        -11    1    1    2    0    0  0.43750511836E+02 -0.11009677693E+03  0.30963287219E+02  0.12245053178E+03  0.00000000000E+00 0.  1.
         11    1    1    2    0    0  0.38585425258E+02  0.11368696712E+02  0.18383185384E+02  0.44226957980E+02  0.00000000000E+00 0. -1.
<mgrwt>
<rscale>  0 0.17405099E+03</rscale>
<asrwt>0</asrwt>
<pdfrwt beam="1">  1        1 0.22883893E-01 0.17930107E+03</pdfrwt>
<pdfrwt beam="2">  1       -1 0.39381328E-01 0.17930107E+03</pdfrwt>
<totfact> 0.13482901E+03</totfact>
</mgrwt>
</event>
<event>
 6    1  0.5818426E-006  0.1362170E+03  0.7546771E-02  0.1230724E+00
          1   -1    0    0  501    0  0.00000000000E+00  0.00000000000E+00  0.13060490899E+03  0.13060490899E+03  0.00000000000E+00 0. -1.
         -1   -1    0    0    0  501 -0.00000000000E+00 -0.00000000000E+00 -0.16152501137E+03  0.16152501137E+03  0.00000000000E+00 0.  1.
          5    1    1    2  502    0 -0.93168512758E+02  0.38214591018E+01 -0.84440811028E+02  0.12588612269E+03  0.47000000000E+01 0. -1.
         -5    1    1    2    0  502  0.38803657741E+02 -0.54669201539E+01 -0.12848406116E+02  0.41506416489E+02  0.47000000000E+01 0. -1.
        -11    1    1    2    0    0  0.16244799221E+02 -0.42903480857E+02  0.38158468975E+02  0.59671357668E+02  0.00000000000E+00 0. -1.
         11    1    1    2    0    0  0.38120055795E+02  0.44548941909E+02  0.28210645790E+02  0.65066023506E+02  0.00000000000E+00 0.  1.
<mgrwt>
<rscale>  0 0.12782182E+03</rscale>
<asrwt>0</asrwt>
<pdfrwt beam="1">  1        1 0.20093063E-01 0.13621700E+03</pdfrwt>
<pdfrwt beam="2">  1       -1 0.24850002E-01 0.13621700E+03</pdfrwt>
<totfact> 0.34383095E+03</totfact>
</mgrwt>
</event>
<event>
 6    1  0.5818426E-006  0.1237643E+03  0.7546771E-02  0.1248708E+00
          2   -1    0    0  501    0  0.00000000000E+00  0.00000000000E+00  0.90809717312E+02  0.90809717312E+02  0.00000000000E+00 0. -1.
         -2   -1    0    0    0  501 -0.00000000000E+00 -0.00000000000E+00 -0.13610743849E+03  0.13610743849E+03  0.00000000000E+00 0.  1.
          5    1    1    2  502    0  0.58546149021E+02  0.40900474328E+02  0.13321650689E+02  0.72801488601E+02  0.47000000000E+01 0. -1.
         -5    1    1    2    0  502 -0.40491697495E+02 -0.14615082075E+02 -0.28613859162E+02  0.51903960603E+02  0.47000000000E+01 0.  1.
        -11    1    1    2    0    0  0.91688917382E+01  0.31541247171E+02 -0.17008795140E+02  0.36989430395E+02  0.00000000000E+00 0. -1.
         11    1    1    2    0    0 -0.27223343264E+02 -0.57826639424E+02 -0.12996717563E+02  0.65222276202E+02  0.00000000000E+00 0.  1.
<mgrwt>
<rscale>  0 0.11666197E+03</rscale>
<asrwt>0</asrwt>
<pdfrwt beam="1">  1        2 0.13970726E-01 0.12376428E+03</pdfrwt>
<pdfrwt beam="2">  1       -2 0.20939606E-01 0.12376428E+03</pdfrwt>
<totfact> 0.77233650E+03</totfact>
</mgrwt>
</event>
<event>
 6    1  0.5818426E-006  0.1273700E+03  0.7546771E-02  0.1245822E+00
         -1   -1    0    0    0  501 -0.00000000000E+00  0.00000000000E+00  0.18453621187E+03  0.18453621187E+03  0.00000000000E+00 0.  1.
          1   -1    0    0  501    0  0.00000000000E+00 -0.00000000000E+00 -0.68843271373E+02  0.68843271373E+02  0.00000000000E+00 0. -1.
          5    1    1    2  502    0  0.44876299885E+02  0.39561443713E+02  0.14610874580E+01  0.60026784826E+02  0.47000000000E+01 0. -1.
         -5    1    1    2    0  502 -0.35713344915E+02 -0.16890437012E+02  0.85194463229E+02  0.94026147599E+02  0.47000000000E+01 0. -1.
        -11    1    1    2    0    0  0.26006997835E+02  0.85446312953E+01  0.42373760164E+02  0.50447103096E+02  0.00000000000E+00 0.  1.
         11    1    1    2    0    0 -0.35169952804E+02 -0.31215637996E+02 -0.13336370350E+02  0.48879447725E+02  0.00000000000E+00 0. -1.
<mgrwt>
<rscale>  0 0.11836324E+03</rscale>
<asrwt>0</asrwt>
<pdfrwt beam="2">  1        1 0.10591273E-01 0.12737002E+03</pdfrwt>
<pdfrwt beam="1">  1       -1 0.28390186E-01 0.12737002E+03</pdfrwt>
<totfact> 0.62966511E+03</totfact>
</mgrwt>
</event>
<event>
 6    1  0.5818426E-006  0.1286459E+03  0.7546771E-02  0.1243912E+00
         -1   -1    0    0    0  501 -0.00000000000E+00  0.00000000000E+00  0.21785893207E+03  0.21785893207E+03  0.00000000000E+00 0.  1.
          1   -1    0    0  501    0  0.00000000000E+00 -0.00000000000E+00 -0.78670530682E+02  0.78670530682E+02  0.00000000000E+00 0. -1.
          5    1    1    2  502    0 -0.21825664463E+02  0.42591190806E+02  0.23307555398E+02  0.53438762169E+02  0.47000000000E+01 0. -1.
         -5    1    1    2    0  502  0.52213873178E+02 -0.43448720112E+02  0.12951293422E+03  0.14632077761E+03  0.47000000000E+01 0. -1.
        -11    1    1    2    0    0 -0.34929773823E+02 -0.13165818244E+02  0.31780607353E+02  0.49024839348E+02  0.00000000000E+00 0.  1.
         11    1    1    2    0    0  0.45415651083E+01  0.14023347550E+02 -0.45412695581E+02  0.47745083622E+02  0.00000000000E+00 0. -1.
<mgrwt>
<rscale>  0 0.11950717E+03</rscale>
<asrwt>0</asrwt>
<pdfrwt beam="2">  1        1 0.12103159E-01 0.12864592E+03</pdfrwt>
<pdfrwt beam="1">  1       -1 0.33516758E-01 0.12864592E+03</pdfrwt>
<totfact> 0.39981240E+03</totfact>
</mgrwt>
</event>
<event>
 6    1  0.5818426E-006  0.1774533E+03  0.7546771E-02  0.1175199E+00
         -1   -1    0    0    0  501 -0.00000000000E+00  0.00000000000E+00  0.32765070904E+02  0.32765070904E+02  0.00000000000E+00 0.  1.
          1   -1    0    0  501    0  0.00000000000E+00 -0.00000000000E+00 -0.98362838648E+03  0.98362838648E+03  0.00000000000E+00 0. -1.
          5    1    1    2  502    0 -0.35097429782E+02  0.67872468690E+01 -0.96706692504E+02  0.10320935361E+03  0.47000000000E+01 0. -1.
         -5    1    1    2    0  502  0.39112168091E+02 -0.13268015068E+03 -0.22364040086E+03  0.26300361779E+03  0.47000000000E+01 0. -1.
        -11    1    1    2    0    0 -0.16073834721E+01  0.10501243470E+03 -0.61538268820E+03  0.62428042422E+03  0.00000000000E+00 0. -1.
         11    1    1    2    0    0 -0.24073548375E+01  0.20880469114E+02 -0.15133534018E+02  0.25900061769E+02  0.00000000000E+00 0.  1.
<mgrwt>
<rscale>  0 0.17256535E+03</rscale>
<asrwt>0</asrwt>
<pdfrwt beam="2">  1        1 0.15132743E+00 0.17745332E+03</pdfrwt>
<pdfrwt beam="1">  1       -1 0.50407806E-02 0.17745332E+03</pdfrwt>
<totfact> 0.28362926E+03</totfact>
</mgrwt>
</event>
<event>
 6    1  0.5921999E-006  0.1588131E+03  0.7546771E-02  0.1197935E+00
         -1   -1    0    0    0  501 -0.00000000000E+00  0.00000000000E+00  0.60809350901E+02  0.60809350901E+02  0.00000000000E+00 0.  1.
          1   -1    0    0  501    0  0.00000000000E+00 -0.00000000000E+00 -0.35931941714E+03  0.35931941714E+03  0.00000000000E+00 0. -1.
          5    1    1    2  502    0  0.19029032720E+02  0.44554266624E+02 -0.29057669515E+02  0.56688842979E+02  0.47000000000E+01 0.  1.
         -5    1    1    2    0  502  0.71464112010E+02 -0.82070918930E+02 -0.10180215971E+03  0.14909233636E+03  0.47000000000E+01 0.  1.
        -11    1    1    2    0    0 -0.74450561604E+02 -0.12094444383E+02 -0.12904206659E+03  0.14946911607E+03  0.00000000000E+00 0. -1.
         11    1    1    2    0    0 -0.16042583126E+02  0.49611096689E+02 -0.38608170421E+02  0.64878472634E+02  0.00000000000E+00 0.  1.
<mgrwt>
<rscale>  0 0.15208412E+03</rscale>
<asrwt>0</asrwt>
<pdfrwt beam="2">  1        1 0.55279911E-01 0.15881309E+03</pdfrwt>
<pdfrwt beam="1">  1       -1 0.93552846E-02 0.15881309E+03</pdfrwt>
<totfact> 0.45646570E+03</totfact>
</mgrwt>
</event>
<event>
 6    1  0.5818426E-006  0.1306867E+03  0.7546771E-02  0.1240607E+00
          2   -1    0    0  501    0  0.00000000000E+00  0.00000000000E+00  0.26187504626E+03  0.26187504626E+03  0.00000000000E+00 0. -1.
         -2   -1    0    0    0  501 -0.00000000000E+00 -0.00000000000E+00 -0.63184538189E+02  0.63184538189E+02  0.00000000000E+00 0.  1.
          5    1    1    2  502    0 -0.57322032552E+02 -0.18692780084E+02 -0.64655840441E+01  0.60820467116E+02  0.47000000000E+01 0. -1.
         -5    1    1    2    0  502  0.57974091998E+02 -0.19439123275E+02  0.42925373032E+02  0.74856880156E+02  0.47000000000E+01 0. -1.
        -11    1    1    2    0    0  0.43299920892E+02  0.30216589552E+02  0.81138203978E+02  0.96805648482E+02  0.00000000000E+00 0.  1.
         11    1    1    2    0    0 -0.43951980338E+02  0.79153138072E+01  0.81092515106E+02  0.92576588696E+02  0.00000000000E+00 0. -1.
<mgrwt>
<rscale>  0 0.12152232E+03</rscale>
<asrwt>0</asrwt>
<pdfrwt beam="1">  1        2 0.40288468E-01 0.13068675E+03</pdfrwt>
<pdfrwt beam="2">  1       -2 0.97206983E-02 0.13068675E+03</pdfrwt>
<totfact> 0.83252041E+03</totfact>
</mgrwt>
</event>
<event>
 6    1  0.5818426E-006  0.1260910E+03  0.7546771E-02  0.1249028E+00
         -1   -1    0    0    0  501 -0.00000000000E+00  0.00000000000E+00  0.23532435772E+03  0.23532435772E+03  0.00000000000E+00 0.  1.
          1   -1    0    0  501    0  0.00000000000E+00 -0.00000000000E+00 -0.51216589942E+02  0.51216589942E+02  0.00000000000E+00 0. -1.
          5    1    1    2  502    0  0.29359150921E+02  0.31373429331E+02  0.40519600082E+01  0.43413824880E+02  0.47000000000E+01 0. -1.
         -5    1    1    2    0  502 -0.44730182306E+02 -0.37525628286E+02  0.11968064899E+03  0.13324604959E+03  0.47000000000E+01 0. -1.
        -11    1    1    2    0    0  0.52932706609E+02 -0.33709706490E+01  0.35955891512E+02  0.64078553405E+02  0.00000000000E+00 0. -1.
         11    1    1    2    0    0 -0.37561675225E+02  0.95231696046E+01  0.24419267259E+02  0.45802519783E+02  0.00000000000E+00 0.  1.
<mgrwt>
<rscale>  0 0.11647513E+03</rscale>
<asrwt>0</asrwt>
<pdfrwt beam="2">  1        1 0.78794755E-02 0.12609105E+03</pdfrwt>
<pdfrwt beam="1">  1       -1 0.36203747E-01 0.12609105E+03</pdfrwt>
<totfact> 0.61781445E+03</totfact>
</mgrwt>
</event>
<event>
 6    1  0.5818426E-006  0.2664153E+03  0.7546771E-02  0.1103349E+00
          2   -1    0    0  501    0  0.00000000000E+00  0.00000000000E+00  0.26709273277E+03  0.26709273277E+03  0.00000000000E+00 0. -1.
         -2   -1    0    0    0  501 -0.00000000000E+00 -0.00000000000E+00 -0.66434895024E+02  0.66434895024E+02  0.00000000000E+00 0.  1.
          5    1    1    2  502    0 -0.84406793045E+01 -0.85870920668E+02  0.21772477695E+02  0.89113359652E+02  0.47000000000E+01 0. -1.
         -5    1    1    2    0  502 -0.14202058042E+02  0.26957287424E+02  0.75035604115E+02  0.81122288446E+02  0.47000000000E+01 0. -1.
        -11    1    1    2    0    0 -0.40507945790E+02  0.30812187407E+02  0.20144268560E+02  0.54736424078E+02  0.00000000000E+00 0.  1.
         11    1    1    2    0    0  0.63150683137E+02  0.28101445837E+02  0.83705487377E+02  0.10855555562E+03  0.00000000000E+00 0. -1.
<mgrwt>
<rscale>  0 0.26641530E+03</rscale>
<asrwt>0</asrwt>
<pdfrwt beam="1">  1        2 0.41091189E-01 0.26641530E+03</pdfrwt>
<pdfrwt beam="2">  1       -2 0.10220753E-01 0.26641530E+03</pdfrwt>
<totfact> 0.78741295E+03</totfact>
</mgrwt>
</event>
<event>
 6    1  0.5818426E-006  0.1608486E+03  0.7546771E-02  0.1194916E+00
         -1   -1    0    0    0  501 -0.00000000000E+00  0.00000000000E+00  0.44406161831E+02  0.44406161831E+02  0.00000000000E+00 0.  1.
          1   -1    0    0  501    0  0.00000000000E+00 -0.00000000000E+00 -0.50499261969E+03  0.50499261969E+03  0.00000000000E+00 0. -1.
          5    1    1    2  502    0  0.15104943584E+02 -0.69365456619E+02 -0.21621865727E+03  0.22762320542E+03  0.47000000000E+01 0. -1.
         -5    1    1    2    0  502 -0.35420510292E+02 -0.29809742726E+02 -0.63209547094E+01  0.46960385212E+02  0.47000000000E+01 0. -1.
        -11    1    1    2    0    0  0.53412997779E+02  0.47337825496E+02 -0.16189812078E+03  0.17693168050E+03  0.00000000000E+00 0. -1.
         11    1    1    2    0    0 -0.33097431071E+02  0.51837373849E+02 -0.76148725098E+02  0.97883510384E+02  0.00000000000E+00 0.  1.
<mgrwt>
<rscale>  0 0.15461345E+03</rscale>
<asrwt>0</asrwt>
<pdfrwt beam="2">  1        1 0.77691172E-01 0.16084859E+03</pdfrwt>
<pdfrwt beam="1">  1       -1 0.68317172E-02 0.16084859E+03</pdfrwt>
<totfact> 0.47567992E+03</totfact>
</mgrwt>
</event>
<event>
 6    1  0.5818426E-006  0.1331664E+03  0.7546771E-02  0.1235585E+00
          1   -1    0    0  501    0  0.00000000000E+00  0.00000000000E+00  0.64704712988E+02  0.64704712988E+02  0.00000000000E+00 0. -1.
         -1   -1    0    0    0  501 -0.00000000000E+00 -0.00000000000E+00 -0.22200619736E+03  0.22200619736E+03  0.00000000000E+00 0.  1.
          5    1    1    2  502    0 -0.27255661742E+02 -0.59322682114E+02 -0.12904036776E+03  0.14469125137E+03  0.47000000000E+01 0. -1.
         -5    1    1    2    0  502 -0.56135659563E+01  0.27239381836E+02  0.13813348695E+02  0.31406920379E+02  0.47000000000E+01 0. -1.
        -11    1    1    2    0    0 -0.16897264724E+01 -0.26248619990E+02  0.66374573665E+01  0.27127496516E+02  0.00000000000E+00 0. -1.
         11    1    1    2    0    0  0.34558954171E+02  0.58331920269E+02 -0.48711922669E+02  0.83485242083E+02  0.00000000000E+00 0.  1.
<mgrwt>
<rscale>  0 0.12467032E+03</rscale>
<asrwt>0</asrwt>
<pdfrwt beam="1">  1        1 0.99545713E-02 0.13316644E+03</pdfrwt>
<pdfrwt beam="2">  1       -1 0.34154799E-01 0.13316644E+03</pdfrwt>
<totfact> 0.50196957E+03</totfact>
</mgrwt>
</event>
<event>
 6    1  0.5818426E-006  0.1541296E+03  0.7546771E-02  0.1200134E+00
         -1   -1    0    0    0  501 -0.00000000000E+00  0.00000000000E+00  0.11665988736E+03  0.11665988736E+03  0.00000000000E+00 0.  1.
          1   -1    0    0  501    0  0.00000000000E+00 -0.00000000000E+00 -0.28934945490E+03  0.28934945490E+03  0.00000000000E+00 0. -1.
          5    1    1    2  502    0 -0.10504497582E+02  0.39584715873E+02 -0.19219316418E+00  0.41224035930E+02  0.47000000000E+01 0. -1.
         -5    1    1    2    0  502 -0.95163067504E+02 -0.58045417281E+02  0.33167228686E+02  0.11639344888E+03  0.47000000000E+01 0.  1.
        -11    1    1    2    0    0  0.33892980075E+02 -0.29662213302E+02 -0.11321019250E+03  0.12184058717E+03  0.00000000000E+00 0.  1.
         11    1    1    2    0    0  0.71774585011E+02  0.48122914711E+02 -0.92454410561E+02  0.12655127027E+03  0.00000000000E+00 0. -1.
<mgrwt>
<rscale>  0 0.15027658E+03</rscale>
<asrwt>0</asrwt>
<pdfrwt beam="2">  1        1 0.44515300E-01 0.15412955E+03</pdfrwt>
<pdfrwt beam="1">  1       -1 0.17947675E-01 0.15412955E+03</pdfrwt>
<totfact> 0.21648282E+03</totfact>
</mgrwt>
</event>
<event>
 6    1  0.5818426E-006  0.1438248E+03  0.7546771E-02  0.1218454E+00
          1   -1    0    0  501    0  0.00000000000E+00  0.00000000000E+00  0.19518775038E+03  0.19518775038E+03  0.00000000000E+00 0. -1.
         -1   -1    0    0    0  501 -0.00000000000E+00 -0.00000000000E+00 -0.86910606526E+02  0.86910606526E+02  0.00000000000E+00 0.  1.
          5    1    1    2  502    0  0.72473669090E+02  0.78380779971E+02  0.37071497008E+02  0.11310333890E+03  0.47000000000E+01 0.  1.
         -5    1    1    2    0  502 -0.29626716879E+02 -0.21593892814E+02  0.11868870726E+02  0.38820080528E+02  0.47000000000E+01 0.  1.
        -11    1    1    2    0    0 -0.33719945463E+02  0.25973310552E+01  0.61355961086E+02  0.70059509072E+02  0.00000000000E+00 0. -1.
         11    1    1    2    0    0 -0.91270067482E+01 -0.59384218213E+02 -0.20191849627E+01  0.60115428409E+02  0.00000000000E+00 0.  1.
<mgrwt>
<rscale>  0 0.13625837E+03</rscale>
<asrwt>0</asrwt>
<pdfrwt beam="1">  1        1 0.30028885E-01 0.14382477E+03</pdfrwt>
<pdfrwt beam="2">  1       -1 0.13370863E-01 0.14382477E+03</pdfrwt>
<totfact> 0.55925493E+03</totfact>
</mgrwt>
</event>
<event>
 6    1  0.5818426E-006  0.1595624E+03  0.7546771E-02  0.1196707E+00
         -2   -1    0    0    0  501 -0.00000000000E+00  0.00000000000E+00  0.20559826614E+02  0.20559826614E+02  0.00000000000E+00 0.  1.
          2   -1    0    0  501    0  0.00000000000E+00 -0.00000000000E+00 -0.10619506534E+04  0.10619506534E+04  0.00000000000E+00 0. -1.
          5    1    1    2  502    0  0.11643462070E+02 -0.59232913438E+02 -0.15830892805E+03  0.16949311179E+03  0.47000000000E+01 0.  1.
         -5    1    1    2    0  502  0.86239527076E+02  0.43301118077E+02 -0.36804508452E+03  0.38051480536E+03  0.47000000000E+01 0.  1.
        -11    1    1    2    0    0 -0.14986433746E+02 -0.30880121006E+02 -0.78022544644E+02  0.85239031802E+02  0.00000000000E+00 0. -1.
         11    1    1    2    0    0 -0.82896555399E+02  0.46811916367E+02 -0.43701426952E+03  0.44726353101E+03  0.00000000000E+00 0.  1.
<mgrwt>
<rscale>  0 0.15310615E+03</rscale>
<asrwt>0</asrwt>
<pdfrwt beam="2">  1        2 0.16337701E+00 0.15956241E+03</pdfrwt>
<pdfrwt beam="1">  1       -2 0.31630505E-02 0.15956241E+03</pdfrwt>
<totfact> 0.91850683E+03</totfact>
</mgrwt>
</event>
<event>
 6    1  0.5818426E-006  0.1259165E+03  0.7546771E-02  0.1249422E+00
         -1   -1    0    0    0  501 -0.00000000000E+00  0.00000000000E+00  0.27212971563E+03  0.27212971563E+03  0.00000000000E+00 0. -1.
          1   -1    0    0  501    0  0.00000000000E+00 -0.00000000000E+00 -0.47804381533E+02  0.47804381533E+02  0.00000000000E+00 0.  1.
          5    1    1    2  502    0  0.24695561199E+01 -0.82666443942E+01 -0.18885065343E+02  0.21287832440E+02  0.47000000000E+01 0.  1.
         -5    1    1    2    0  502  0.52207371942E+01 -0.48932849712E+01  0.19512115890E+03  0.19530887585E+03  0.47000000000E+01 0.  1.
        -11    1    1    2    0    0  0.34671571460E+02  0.14248634580E+02 -0.22304217252E+01  0.37551514429E+02  0.00000000000E+00 0.  1.
         11    1    1    2    0    0 -0.42361864774E+02 -0.10887052142E+01  0.50319662270E+02  0.65785874450E+02  0.00000000000E+00 0. -1.
<mgrwt>
<rscale>  0 0.11624575E+03</rscale>
<asrwt>0</asrwt>
<pdfrwt beam="2">  1        1 0.73545204E-02 0.12591653E+03</pdfrwt>
<pdfrwt beam="1">  1       -1 0.41866109E-01 0.12591653E+03</pdfrwt>
<totfact> 0.52608585E+03</totfact>
</mgrwt>
</event>
<event>
 6    1  0.5818426E-006  0.1250861E+03  0.7546771E-02  0.1250255E+00
         -1   -1    0    0    0  501 -0.00000000000E+00  0.00000000000E+00  0.46089279672E+02  0.46089279672E+02  0.00000000000E+00 0.  1.
          1   -1    0    0  501    0  0.00000000000E+00 -0.00000000000E+00 -0.26462520270E+03  0.26462520270E+03  0.00000000000E+00 0. -1.
          5    1    1    2  502    0  0.43888838018E+02 -0.41341035035E+02 -0.36944634645E+02  0.70868239074E+02  0.47000000000E+01 0. -1.
         -5    1    1    2    0  502 -0.48593672164E+02  0.40766223734E+02 -0.59309619381E+02  0.86965228242E+02  0.47000000000E+01 0. -1.
        -11    1    1    2    0    0 -0.13591858571E+02  0.38551223830E+02 -0.92905870939E+02  0.10150091789E+03  0.00000000000E+00 0.  1.
         11    1    1    2    0    0  0.18296692717E+02 -0.37976412528E+02 -0.29375798063E+02  0.51380097166E+02  0.00000000000E+00 0. -1.
<mgrwt>
<rscale>  0 0.11576290E+03</rscale>
<asrwt>0</asrwt>
<pdfrwt beam="2">  1        1 0.40711569E-01 0.12508606E+03</pdfrwt>
<pdfrwt beam="1">  1       -1 0.70906584E-02 0.12508606E+03</pdfrwt>
<totfact> 0.99914660E+03</totfact>
</mgrwt>
</event>
<event>
 6    1  0.5818426E-006  0.4152092E+03  0.7546771E-02  0.1038637E+00
         -4   -1    0    0    0  501 -0.00000000000E+00  0.00000000000E+00  0.34478026948E+03  0.34478026948E+03  0.00000000000E+00 0.  1.
          4   -1    0    0  501    0  0.00000000000E+00 -0.00000000000E+00 -0.12500617276E+03  0.12500617276E+03  0.00000000000E+00 0. -1.
          5    1    1    2  502    0  0.15915195282E+03  0.55792574607E+02  0.14616239106E+03  0.22322116842E+03  0.47000000000E+01 0.  1.
         -5    1    1    2    0  502 -0.16521220237E+02  0.58780426173E+01  0.63913338385E+02  0.66441755897E+02  0.47000000000E+01 0.  1.
        -11    1    1    2    0    0 -0.90886153187E+02  0.10006444616E+02  0.63964958297E+01  0.91658807181E+02  0.00000000000E+00 0. -1.
         11    1    1    2    0    0 -0.51744579400E+02 -0.71677061841E+02  0.33018714478E+01  0.88464710741E+02  0.00000000000E+00 0.  1.
<mgrwt>
<rscale>  0 0.41520916E+03</rscale>
<asrwt>0</asrwt>
<pdfrwt beam="2">  1        4 0.19231719E-01 0.41520916E+03</pdfrwt>
<pdfrwt beam="1">  1       -4 0.53043118E-01 0.41520916E+03</pdfrwt>
<totfact> 0.16177768E+02</totfact>
</mgrwt>
</event>
<event>
 6    1  0.5818426E-006  0.1983529E+03  0.7546771E-02  0.1155581E+00
         -2   -1    0    0    0  501 -0.00000000000E+00  0.00000000000E+00  0.10529093985E+03  0.10529093985E+03  0.00000000000E+00 0.  1.
          2   -1    0    0  501    0  0.00000000000E+00 -0.00000000000E+00 -0.33757190681E+03  0.33757190681E+03  0.00000000000E+00 0. -1.
          5    1    1    2  502    0 -0.30320275271E+02 -0.33124659173E+02  0.22613907970E+02  0.50497930368E+02  0.47000000000E+01 0.  1.
         -5    1    1    2    0  502 -0.10586418253E+03 -0.38790957809E+02 -0.14063362987E+03  0.18031048611E+03  0.47000000000E+01 0.  1.
        -11    1    1    2    0    0  0.83944241693E+02  0.61811121814E+02 -0.11951063070E+03  0.15858764562E+03  0.00000000000E+00 0. -1.
         11    1    1    2    0    0  0.52240216110E+02  0.10104495168E+02  0.52493856452E+01  0.53466784563E+02  0.00000000000E+00 0.  1.
<mgrwt>
<rscale>  0 0.19322896E+03</rscale>
<asrwt>0</asrwt>
<pdfrwt beam="2">  1        2 0.51934140E-01 0.19835289E+03</pdfrwt>
<pdfrwt beam="1">  1       -2 0.16198606E-01 0.19835289E+03</pdfrwt>
<totfact> 0.28519542E+03</totfact>
</mgrwt>
</event>
<event>
 6    1  0.5818426E-006  0.1369758E+03  0.7546771E-02  0.1230387E+00
         -4   -1    0    0    0  501 -0.00000000000E+00  0.00000000000E+00  0.13328361426E+03  0.13328361426E+03  0.00000000000E+00 0.  1.
          4   -1    0    0  501    0  0.00000000000E+00 -0.00000000000E+00 -0.10973889866E+03  0.10973889866E+03  0.00000000000E+00 0. -1.
          5    1    1    2  502    0 -0.88341639193E+02  0.19330852201E+02 -0.69441895344E+01  0.90819815186E+02  0.47000000000E+01 0. -1.
         -5    1    1    2    0  502  0.34237301592E+02 -0.19200050593E+02  0.26382034307E+02  0.47528270505E+02  0.47000000000E+01 0.  1.
        -11    1    1    2    0    0  0.73688733453E+02 -0.66202851409E+01 -0.16186137038E+02  0.75735385689E+02  0.00000000000E+00 0. -1.
         11    1    1    2    0    0 -0.19584395852E+02  0.64894835327E+01  0.20293007867E+02  0.28939041547E+02  0.00000000000E+00 0.  1.
<mgrwt>
<rscale>  0 0.12804403E+03</rscale>
<asrwt>0</asrwt>
<pdfrwt beam="2">  1        4 0.16882907E-01 0.13697578E+03</pdfrwt>
<pdfrwt beam="1">  1       -4 0.20505171E-01 0.13697578E+03</pdfrwt>
<totfact> 0.10899968E+03</totfact>
</mgrwt>
</event>
<event>
 6    1  0.5818426E-006  0.3796908E+03  0.7546771E-02  0.1051048E+00
          2   -1    0    0  501    0  0.00000000000E+00  0.00000000000E+00  0.18527323044E+03  0.18527323044E+03  0.00000000000E+00 0. -1.
         -2   -1    0    0    0  501 -0.00000000000E+00 -0.00000000000E+00 -0.19453037980E+03  0.19453037980E+03  0.00000000000E+00 0.  1.
          5    1    1    2  502    0 -0.59478890181E+01  0.16037387044E+01 -0.46174450857E+02  0.46820073404E+02  0.47000000000E+01 0.  1.
         -5    1    1    2    0  502  0.15053050983E+03  0.46184432664E+02 -0.79526186010E+01  0.15772688532E+03  0.47000000000E+01 0.  1.
        -11    1    1    2    0    0 -0.14507568594E-02 -0.21385429949E+02 -0.65429230066E+00  0.21395436771E+02  0.00000000000E+00 0.  1.
         11    1    1    2    0    0 -0.14458117005E+03 -0.26402741420E+02  0.45524212400E+02  0.15386121475E+03  0.00000000000E+00 0. -1.
<mgrwt>
<rscale>  0 0.37969078E+03</rscale>
<asrwt>0</asrwt>
<pdfrwt beam="1">  1        2 0.28503574E-01 0.37969078E+03</pdfrwt>
<pdfrwt beam="2">  1       -2 0.29927751E-01 0.37969078E+03</pdfrwt>
<totfact> 0.19187513E+03</totfact>
</mgrwt>
</event>
<event>
 6    1  0.5818426E-006  0.3659409E+03  0.7546771E-02  0.1056256E+00
          2   -1    0    0  501    0  0.00000000000E+00  0.00000000000E+00  0.43521649347E+03  0.43521649347E+03  0.00000000000E+00 0.  1.
         -2   -1    0    0    0  501 -0.00000000000E+00 -0.00000000000E+00 -0.76923072933E+02  0.76923072933E+02  0.00000000000E+00 0. -1.
          5    1    1    2  502    0 -0.18110317250E+02  0.69903738348E+01  0.72830967215E+02  0.75520121178E+02  0.47000000000E+01 0.  1.
         -5    1    1    2    0  502 -0.58114610748E+01  0.10978559128E+03 -0.47386321004E+01  0.11014169858E+03  0.47000000000E+01 0.  1.
        -11    1    1    2    0    0  0.36406778742E+02 -0.55040177839E+02  0.23025625208E+03  0.23952623308E+03  0.00000000000E+00 0.  1.
         11    1    1    2    0    0 -0.12485000417E+02 -0.61735787275E+02  0.59944833351E+02  0.86951513565E+02  0.00000000000E+00 0. -1.
<mgrwt>
<rscale>  0 0.36594092E+03</rscale>
<asrwt>0</asrwt>
<pdfrwt beam="1">  1        2 0.66956383E-01 0.36594092E+03</pdfrwt>
<pdfrwt beam="2">  1       -2 0.11834319E-01 0.36594092E+03</pdfrwt>
<totfact> 0.36945262E+03</totfact>
</mgrwt>
</event>
<event>
 6    1  0.5818426E-006  0.2272042E+03  0.7546771E-02  0.1165411E+00
         -1   -1    0    0    0  501 -0.00000000000E+00  0.00000000000E+00  0.67291945719E+02  0.67291945719E+02  0.00000000000E+00 0.  1.
          1   -1    0    0  501    0  0.00000000000E+00 -0.00000000000E+00 -0.39743944134E+03  0.39743944134E+03  0.00000000000E+00 0. -1.
          5    1    1    2  502    0 -0.10760931338E+00 -0.10969310233E+03 -0.17962485165E+03  0.21052260119E+03  0.47000000000E+01 0. -1.
         -5    1    1    2    0  502  0.92590368566E+01  0.85855459743E+02 -0.13213460395E+02  0.87484714476E+02  0.47000000000E+01 0.  1.
        -11    1    1    2    0    0 -0.48408458139E+02  0.74385016264E+01 -0.52232812106E+02  0.71602910460E+02  0.00000000000E+00 0. -1.
         11    1    1    2    0    0  0.39257030595E+02  0.16399140964E+02 -0.85076371465E+02  0.95121160933E+02  0.00000000000E+00 0.  1.
<mgrwt>
<rscale>  0 0.18249388E+03</rscale>
<asrwt>0</asrwt>
<pdfrwt beam="2">  1        1 0.61144530E-01 0.22720419E+03</pdfrwt>
<pdfrwt beam="1">  1       -1 0.10352607E-01 0.22720419E+03</pdfrwt>
<totfact> 0.34904005E+03</totfact>
</mgrwt>
</event>
<event>
 6    1  0.5818426E-006  0.1300042E+03  0.7546771E-02  0.1240891E+00
         -4   -1    0    0    0  501 -0.00000000000E+00  0.00000000000E+00  0.39924957881E+02  0.39924957881E+02  0.00000000000E+00 0. -1.
          4   -1    0    0  501    0  0.00000000000E+00 -0.00000000000E+00 -0.32754711308E+03  0.32754711308E+03  0.00000000000E+00 0.  1.
          5    1    1    2  502    0 -0.14103272868E+02  0.32738476441E+02 -0.15551154759E+03  0.15961403942E+03  0.47000000000E+01 0. -1.
         -5    1    1    2    0  502 -0.19109547735E+02 -0.46184068566E+02 -0.10576778713E+02  0.51304008146E+02  0.47000000000E+01 0. -1.
        -11    1    1    2    0    0  0.55421007199E+02  0.76996633572E+01 -0.12133360092E+03  0.13361368032E+03  0.00000000000E+00 0.  1.
         11    1    1    2    0    0 -0.22208186597E+02  0.57459287673E+01 -0.20022797073E+00  0.22940343078E+02  0.00000000000E+00 0. -1.
<mgrwt>
<rscale>  0 0.12134743E+03</rscale>
<asrwt>0</asrwt>
<pdfrwt beam="2">  1        4 0.50391863E-01 0.13000419E+03</pdfrwt>
<pdfrwt beam="1">  1       -4 0.61423012E-02 0.13000419E+03</pdfrwt>
<totfact> 0.10673154E+03</totfact>
</mgrwt>
</event>
<event>
 6    1  0.5818426E-006  0.1280693E+03  0.7546771E-02  0.1244800E+00
          1   -1    0    0  501    0  0.00000000000E+00  0.00000000000E+00  0.21899962046E+03  0.21899962046E+03  0.00000000000E+00 0. -1.
         -1   -1    0    0    0  501 -0.00000000000E+00 -0.00000000000E+00 -0.70077277541E+02  0.70077277541E+02  0.00000000000E+00 0.  1.
          5    1    1    2  502    0 -0.21205264102E+02  0.13999875295E+02 -0.48004283128E+02  0.54517528672E+02  0.47000000000E+01 0.  1.
         -5    1    1    2    0  502 -0.24876851052E+01 -0.28744337559E+02  0.69428325827E+02  0.75331321149E+02  0.47000000000E+01 0.  1.
        -11    1    1    2    0    0 -0.18797811132E+02  0.39930289440E+02  0.44703727583E+02  0.62818858458E+02  0.00000000000E+00 0.  1.
         11    1    1    2    0    0  0.42490760339E+02 -0.25185827177E+02  0.82794572636E+02  0.96409189722E+02  0.00000000000E+00 0. -1.
<mgrwt>
<rscale>  0 0.11897356E+03</rscale>
<asrwt>0</asrwt>
<pdfrwt beam="1">  1        1 0.33692249E-01 0.12806926E+03</pdfrwt>
<pdfrwt beam="2">  1       -1 0.10781120E-01 0.12806926E+03</pdfrwt>
<totfact> 0.67073055E+03</totfact>
</mgrwt>
</event>
<event>
 6    1  0.5818426E-006  0.1367210E+03  0.7546771E-02  0.1229824E+00
         -2   -1    0    0    0  501 -0.00000000000E+00  0.00000000000E+00  0.69304107403E+02  0.69304107403E+02  0.00000000000E+00 0.  1.
          2   -1    0    0  501    0  0.00000000000E+00 -0.00000000000E+00 -0.23455799344E+03  0.23455799344E+03  0.00000000000E+00 0. -1.
          5    1    1    2  502    0 -0.10909067776E+02 -0.47500040742E+02 -0.11042585814E+03  0.12079412973E+03  0.47000000000E+01 0.  1.
         -5    1    1    2    0  502  0.62263216300E+02  0.26682858374E+02 -0.27047609366E+02  0.73091355216E+02  0.47000000000E+01 0.  1.
        -11    1    1    2    0    0 -0.69767676582E+02 -0.10013951609E+02 -0.17495910299E+02  0.72621724020E+02  0.00000000000E+00 0. -1.
         11    1    1    2    0    0  0.18413528059E+02  0.30831133977E+02 -0.10284508232E+02  0.37354891882E+02  0.00000000000E+00 0.  1.
<mgrwt>
<rscale>  0 0.12841687E+03</rscale>
<asrwt>0</asrwt>
<pdfrwt beam="2">  1        2 0.36085845E-01 0.13672098E+03</pdfrwt>
<pdfrwt beam="1">  1       -2 0.10662170E-01 0.13672098E+03</pdfrwt>
<totfact> 0.81210688E+03</totfact>
</mgrwt>
</event>
<event>
 6    1  0.5818426E-006  0.1367638E+03  0.7546771E-02  0.1228707E+00
          1   -1    0    0  501    0  0.00000000000E+00  0.00000000000E+00  0.10079941356E+04  0.10079941356E+04  0.00000000000E+00 0. -1.
         -1   -1    0    0    0  501 -0.00000000000E+00 -0.00000000000E+00 -0.15251684041E+02  0.15251684041E+02  0.00000000000E+00 0.  1.
          5    1    1    2  502    0 -0.15691936807E+02 -0.43655888264E+02  0.70218604404E+02  0.84290069791E+02  0.47000000000E+01 0. -1.
         -5    1    1    2    0  502  0.62575489014E+02  0.13858120207E+02  0.41068390041E+03  0.41568148308E+03  0.47000000000E+01 0. -1.
        -11    1    1    2    0    0 -0.22201854944E+02  0.62235066249E+02  0.36243863446E+03  0.36841266208E+03  0.00000000000E+00 0.  1.
         11    1    1    2    0    0 -0.24681697263E+02 -0.32437298191E+02  0.14940131233E+03  0.15486160474E+03  0.00000000000E+00 0. -1.
<mgrwt>
<rscale>  0 0.12916004E+03</rscale>
<asrwt>0</asrwt>
<pdfrwt beam="1">  1        1 0.15507597E+00 0.13676379E+03</pdfrwt>
<pdfrwt beam="2">  1       -1 0.23464137E-02 0.13676379E+03</pdfrwt>
<totfact> 0.82794372E+03</totfact>
</mgrwt>
</event>
<event>
 6    1  0.5818426E-006  0.3007398E+03  0.7546771E-02  0.1084871E+00
          1   -1    0    0  501    0  0.00000000000E+00  0.00000000000E+00  0.31110936669E+03  0.31110936669E+03  0.00000000000E+00 0. -1.
         -1   -1    0    0    0  501 -0.00000000000E+00 -0.00000000000E+00 -0.72678988062E+02  0.72678988062E+02  0.00000000000E+00 0.  1.
          5    1    1    2  502    0  0.72013613975E+02  0.52772036886E+02 -0.33357390689E+01  0.89465443776E+02  0.47000000000E+01 0. -1.
         -5    1    1    2    0  502 -0.20506330303E+02 -0.34240923146E+02  0.28574003866E+02  0.49310385288E+02  0.47000000000E+01 0. -1.
        -11    1    1    2    0    0  0.83464203144E+01 -0.50826072921E+02  0.74887928088E+02  0.90890891700E+02  0.00000000000E+00 0.  1.
         11    1    1    2    0    0 -0.59853703987E+02  0.32294959180E+02  0.13830418575E+03  0.15412163399E+03  0.00000000000E+00 0. -1.
<mgrwt>
<rscale>  0 0.30073985E+03</rscale>
<asrwt>0</asrwt>
<pdfrwt beam="1">  1        1 0.47862979E-01 0.30073985E+03</pdfrwt>
<pdfrwt beam="2">  1       -1 0.11181383E-01 0.30073985E+03</pdfrwt>
<totfact> 0.42733411E+03</totfact>
</mgrwt>
</event>
<event>
 6    1  0.5818426E-006  0.1278312E+03  0.7546771E-02  0.1244818E+00
         -2   -1    0    0    0  501 -0.00000000000E+00  0.00000000000E+00  0.64175820109E+02  0.64175820109E+02  0.00000000000E+00 0.  1.
          2   -1    0    0  501    0  0.00000000000E+00 -0.00000000000E+00 -0.20742618580E+03  0.20742618580E+03  0.00000000000E+00 0. -1.
          5    1    1    2  502    0 -0.41592260828E+02 -0.29673376874E+02  0.21861391908E+02  0.55771282145E+02  0.47000000000E+01 0. -1.
         -5    1    1    2    0  502  0.15774207631E+02  0.36747769675E+02 -0.70133874454E+02  0.80870727389E+02  0.47000000000E+01 0. -1.
        -11    1    1    2    0    0 -0.52760336222E+01 -0.44626152031E+02 -0.59973441471E+02  0.74940934460E+02  0.00000000000E+00 0. -1.
         11    1    1    2    0    0  0.31094086819E+02  0.37551759230E+02 -0.35004441677E+02  0.60019061918E+02  0.00000000000E+00 0.  1.
<mgrwt>
<rscale>  0 0.11896305E+03</rscale>
<asrwt>0</asrwt>
<pdfrwt beam="2">  1        2 0.31911721E-01 0.12783116E+03</pdfrwt>
<pdfrwt beam="1">  1       -2 0.98732031E-02 0.12783116E+03</pdfrwt>
<totfact> 0.10403812E+04</totfact>
</mgrwt>
</event>
<event>
 6    1  0.5818426E-006  0.1482140E+03  0.7546771E-02  0.1212103E+00
          1   -1    0    0  501    0  0.00000000000E+00  0.00000000000E+00  0.33148285359E+03  0.33148285359E+03  0.00000000000E+00 0. -1.
         -1   -1    0    0    0  501 -0.00000000000E+00 -0.00000000000E+00 -0.55034695845E+02  0.55034695845E+02  0.00000000000E+00 0.  1.
          5    1    1    2  502    0  0.40785874318E+02  0.48231534362E+02 -0.38679884430E+00  0.63340414145E+02  0.47000000000E+01 0.  1.
         -5    1    1    2    0  502  0.10926752827E+02  0.12331231633E+02  0.13751826516E+03  0.13858144340E+03  0.47000000000E+01 0.  1.
        -11    1    1    2    0    0 -0.14360916599E+02 -0.20937995984E+02 -0.87326149079E+01  0.26849472332E+02  0.00000000000E+00 0.  1.
         11    1    1    2    0    0 -0.37351710546E+02 -0.39624770011E+02  0.14804930633E+03  0.15774621956E+03  0.00000000000E+00 0. -1.
<mgrwt>
<rscale>  0 0.14091510E+03</rscale>
<asrwt>0</asrwt>
<pdfrwt beam="1">  1        1 0.50997361E-01 0.14821403E+03</pdfrwt>
<pdfrwt beam="2">  1       -1 0.84668765E-02 0.14821403E+03</pdfrwt>
<totfact> 0.58546460E+03</totfact>
</mgrwt>
</event>
<event>
 6    1  0.5818426E-006  0.1349531E+03  0.7546771E-02  0.1232077E+00
         -1   -1    0    0    0  501 -0.00000000000E+00  0.00000000000E+00  0.65093521528E+02  0.65093521528E+02  0.00000000000E+00 0.  1.
          1   -1    0    0  501    0  0.00000000000E+00 -0.00000000000E+00 -0.24444276756E+03  0.24444276756E+03  0.00000000000E+00 0. -1.
          5    1    1    2  502    0  0.57010500538E+01  0.53284779465E+02 -0.92184733034E+01  0.54578749935E+02  0.47000000000E+01 0. -1.
         -5    1    1    2    0  502  0.43617970991E+02 -0.65764568659E+02 -0.44120191051E+02  0.90532795951E+02  0.47000000000E+01 0. -1.
        -11    1    1    2    0    0 -0.28316091183E+02 -0.20981743911E+02 -0.11924348299E+03  0.12434244180E+03  0.00000000000E+00 0. -1.
         11    1    1    2    0    0 -0.21002929862E+02  0.33461533104E+02 -0.67670986799E+01  0.40082301394E+02  0.00000000000E+00 0.  1.
<mgrwt>
<rscale>  0 0.12693454E+03</rscale>
<asrwt>0</asrwt>
<pdfrwt beam="2">  1        1 0.37606580E-01 0.13495313E+03</pdfrwt>
<pdfrwt beam="1">  1       -1 0.10014388E-01 0.13495313E+03</pdfrwt>
<totfact> 0.65768513E+03</totfact>
</mgrwt>
</event>
<event>
 6    1  0.5818426E-006  0.1266106E+03  0.7546771E-02  0.1246716E+00
          2   -1    0    0  501    0  0.00000000000E+00  0.00000000000E+00  0.31109364344E+03  0.31109364344E+03  0.00000000000E+00 0.  1.
         -2   -1    0    0    0  501 -0.00000000000E+00 -0.00000000000E+00 -0.40818994413E+02  0.40818994413E+02  0.00000000000E+00 0. -1.
          5    1    1    2  502    0  0.54205565086E+02  0.77773111971E+01  0.74665833339E+02  0.92713572490E+02  0.47000000000E+01 0. -1.
         -5    1    1    2    0  502 -0.67781512438E+02  0.71185891402E+01  0.47343952132E+02  0.83117672869E+02  0.47000000000E+01 0. -1.
        -11    1    1    2    0    0  0.17206782491E+02  0.35055237388E+02  0.35834208665E+02  0.53000316439E+02  0.00000000000E+00 0. -1.
         11    1    1    2    0    0 -0.36308351388E+01 -0.49951137725E+02  0.11243065489E+03  0.12308107606E+03  0.00000000000E+00 0.  1.
<mgrwt>
<rscale>  0 0.11783288E+03</rscale>
<asrwt>0</asrwt>
<pdfrwt beam="1">  1        2 0.47860559E-01 0.12661058E+03</pdfrwt>
<pdfrwt beam="2">  1       -2 0.62798455E-02 0.12661058E+03</pdfrwt>
<totfact> 0.13565960E+04</totfact>
</mgrwt>
</event>
<event>
 6    1  0.5818426E-006  0.1829806E+03  0.7546771E-02  0.1196628E+00
          4   -1    0    0  501    0  0.00000000000E+00  0.00000000000E+00  0.53274864130E+02  0.53274864130E+02  0.00000000000E+00 0. -1.
         -4   -1    0    0    0  501 -0.00000000000E+00 -0.00000000000E+00 -0.72592284522E+03  0.72592284522E+03  0.00000000000E+00 0.  1.
          5    1    1    2  502    0 -0.34076312761E+02  0.60585354387E+02 -0.12593409167E+03  0.14392103982E+03  0.47000000000E+01 0. -1.
         -5    1    1    2    0  502  0.85418242341E+02 -0.98409542572E+00 -0.53827605700E+03  0.54503252023E+03  0.47000000000E+01 0.  1.
        -11    1    1    2    0    0 -0.45741548603E+02 -0.23311294874E+02  0.39510936267E+01  0.51490939768E+02  0.00000000000E+00 0. -1.
         11    1    1    2    0    0 -0.56003809767E+01 -0.36289964087E+02 -0.12388926046E+02  0.38753209533E+02  0.00000000000E+00 0.  1.
<mgrwt>
<rscale>  0 0.15317285E+03</rscale>
<asrwt>0</asrwt>
<pdfrwt beam="1">  1        4 0.81961330E-02 0.18298056E+03</pdfrwt>
<pdfrwt beam="2">  1       -4 0.11168044E+00 0.18298056E+03</pdfrwt>
<totfact> 0.12270949E+02</totfact>
</mgrwt>
</event>
<event>
 6    1  0.5818426E-006  0.1388208E+03  0.7546771E-02  0.1232816E+00
         -1   -1    0    0    0  501 -0.00000000000E+00  0.00000000000E+00  0.11749668050E+04  0.11749668050E+04  0.00000000000E+00 0.  1.
          1   -1    0    0  501    0  0.00000000000E+00 -0.00000000000E+00 -0.24793127865E+02  0.24793127865E+02  0.00000000000E+00 0. -1.
          5    1    1    2  502    0 -0.33529593156E+01 -0.13995010483E+02  0.90196327164E+01  0.17622327568E+02  0.47000000000E+01 0. -1.
         -5    1    1    2    0  502 -0.29098095498E+02  0.10667328774E+02  0.10486789256E+04  0.10491473061E+04  0.47000000000E+01 0.  1.
        -11    1    1    2    0    0  0.25518040313E+02 -0.24975400778E+02  0.97126201723E+02  0.10348159298E+03  0.00000000000E+00 0.  1.
         11    1    1    2    0    0  0.69330145009E+01  0.28303082486E+02 -0.46510828634E+01  0.29508706174E+02  0.00000000000E+00 0. -1.
<mgrwt>
<rscale>  0 0.12645270E+03</rscale>
<asrwt>0</asrwt>
<pdfrwt beam="2">  1        1 0.38143283E-02 0.13882079E+03</pdfrwt>
<pdfrwt beam="1">  1       -1 0.18076408E+00 0.13882079E+03</pdfrwt>
<totfact> 0.54502404E+02</totfact>
</mgrwt>
</event>
<event>
 6    1  0.5818426E-006  0.1250461E+03  0.7546771E-02  0.1250450E+00
         -2   -1    0    0    0  501 -0.00000000000E+00  0.00000000000E+00  0.25866443729E+03  0.25866443729E+03  0.00000000000E+00 0.  1.
          2   -1    0    0  501    0  0.00000000000E+00 -0.00000000000E+00 -0.45472167538E+02  0.45472167538E+02  0.00000000000E+00 0. -1.
          5    1    1    2  502    0 -0.88791588257E+01  0.44890371937E+02  0.10762586690E+00  0.46000940614E+02  0.47000000000E+01 0. -1.
         -5    1    1    2    0  502  0.56969132010E+01 -0.46219477964E+02  0.11419304347E+03  0.12341327376E+03  0.47000000000E+01 0. -1.
        -11    1    1    2    0    0  0.22423987022E+02 -0.31302977574E+02  0.86798594992E+02  0.94956346241E+02  0.00000000000E+00 0.  1.
         11    1    1    2    0    0 -0.19241741398E+02  0.32632083602E+02  0.12093005424E+02  0.39766044214E+02  0.00000000000E+00 0. -1.
<mgrwt>
<rscale>  0 0.11565038E+03</rscale>
<asrwt>0</asrwt>
<pdfrwt beam="2">  1        2 0.69957182E-02 0.12504612E+03</pdfrwt>
<pdfrwt beam="1">  1       -2 0.39794528E-01 0.12504612E+03</pdfrwt>
<totfact> 0.57250974E+03</totfact>
</mgrwt>
</event>
<event>
 6    1  0.5818426E-006  0.1254218E+03  0.7546771E-02  0.1249199E+00
         -1   -1    0    0    0  501 -0.00000000000E+00  0.00000000000E+00  0.86481682315E+02  0.86481682315E+02  0.00000000000E+00 0.  1.
          1   -1    0    0  501    0  0.00000000000E+00 -0.00000000000E+00 -0.25772705788E+03  0.25772705788E+03  0.00000000000E+00 0. -1.
          5    1    1    2  502    0 -0.57791841814E+02 -0.23672058748E+02 -0.66992951528E+00  0.62632277231E+02  0.47000000000E+01 0. -1.
         -5    1    1    2    0  502  0.51125746408E+02  0.31351454432E+02  0.24910533467E+02  0.65110523868E+02  0.47000000000E+01 0. -1.
        -11    1    1    2    0    0 -0.16459470774E+02 -0.33745406537E+02 -0.16783183339E+03  0.17198020508E+03  0.00000000000E+00 0. -1.
         11    1    1    2    0    0  0.23125566180E+02  0.26066010853E+02 -0.27654146130E+02  0.44485734018E+02  0.00000000000E+00 0.  1.
<mgrwt>
<rscale>  0 0.11637536E+03</rscale>
<asrwt>0</asrwt>
<pdfrwt beam="2">  1        1 0.39650317E-01 0.12542175E+03</pdfrwt>
<pdfrwt beam="1">  1       -1 0.13304874E-01 0.12542175E+03</pdfrwt>
<totfact> 0.39624845E+03</totfact>
</mgrwt>
</event>
<event>
 6    1  0.5818426E-006  0.1543485E+03  0.7546771E-02  0.1203510E+00
          1   -1    0    0  501    0  0.00000000000E+00  0.00000000000E+00  0.17099743287E+03  0.17099743287E+03  0.00000000000E+00 0. -1.
         -1   -1    0    0    0  501 -0.00000000000E+00 -0.00000000000E+00 -0.56232722918E+03  0.56232722918E+03  0.00000000000E+00 0.  1.
          5    1    1    2  502    0 -0.38356379855E+02 -0.91911131138E+02 -0.23784671294E+03  0.25789923761E+03  0.47000000000E+01 0.  1.
         -5    1    1    2    0  502 -0.23553303794E+02  0.25834356759E+02 -0.28739116377E+03  0.28954782528E+03  0.47000000000E+01 0.  1.
        -11    1    1    2    0    0  0.16318215701E+02 -0.83585966048E+01  0.82635027581E+02  0.84644539601E+02  0.00000000000E+00 0. -1.
         11    1    1    2    0    0  0.45591467948E+02  0.74435370983E+02  0.51273052826E+02  0.10123305957E+03  0.00000000000E+00 0.  1.
<mgrwt>
<rscale>  0 0.14755461E+03</rscale>
<asrwt>0</asrwt>
<pdfrwt beam="1">  1        1 0.26307297E-01 0.15434850E+03</pdfrwt>
<pdfrwt beam="2">  1       -1 0.86511882E-01 0.15434850E+03</pdfrwt>
<totfact> 0.25167814E+02</totfact>
</mgrwt>
</event>
<event>
 6    1  0.5818426E-006  0.1308829E+03  0.7546771E-02  0.1240515E+00
          1   -1    0    0  501    0  0.00000000000E+00  0.00000000000E+00  0.10143981237E+03  0.10143981237E+03  0.00000000000E+00 0. -1.
         -1   -1    0    0    0  501 -0.00000000000E+00 -0.00000000000E+00 -0.13128059882E+03  0.13128059882E+03  0.00000000000E+00 0.  1.
          5    1    1    2  502    0  0.45604040940E+02  0.65798835699E+02 -0.24461896194E+02  0.83843244778E+02  0.47000000000E+01 0. -1.
         -5    1    1    2    0  502 -0.10583412586E+02 -0.49134071970E+02 -0.93839345372E+01  0.51345047256E+02  0.47000000000E+01 0. -1.
        -11    1    1    2    0    0 -0.47841123939E+02 -0.18653014150E+02 -0.31150662040E+02  0.60058902939E+02  0.00000000000E+00 0.  1.
         11    1    1    2    0    0  0.12820495585E+02  0.19882504208E+01  0.35155706320E+02  0.37473216217E+02  0.00000000000E+00 0. -1.
<mgrwt>
<rscale>  0 0.12157870E+03</rscale>
<asrwt>0</asrwt>
<pdfrwt beam="1">  1        1 0.15606125E-01 0.13088290E+03</pdfrwt>
<pdfrwt beam="2">  1       -1 0.20197015E-01 0.13088290E+03</pdfrwt>
<totfact> 0.66364571E+03</totfact>
</mgrwt>
</event>
<event>
 6    1  0.5818426E-006  0.2676428E+03  0.7546771E-02  0.1102636E+00
         -2   -1    0    0    0  501 -0.00000000000E+00  0.00000000000E+00  0.65250161821E+02  0.65250161821E+02  0.00000000000E+00 0.  1.
          2   -1    0    0  501    0  0.00000000000E+00 -0.00000000000E+00 -0.27445402139E+03  0.27445402139E+03  0.00000000000E+00 0. -1.
          5    1    1    2  502    0  0.37597809399E+01  0.17410416450E+02  0.30023404616E+02  0.35224329354E+02  0.47000000000E+01 0.  1.
         -5    1    1    2    0  502 -0.56922195416E+02 -0.52308051770E+02 -0.86115009365E+02  0.11581948648E+03  0.47000000000E+01 0.  1.
        -11    1    1    2    0    0  0.53895218557E+02 -0.29721892805E+01 -0.13745786512E+03  0.14767597359E+03  0.00000000000E+00 0. -1.
         11    1    1    2    0    0 -0.73280408066E+00  0.37869824600E+02 -0.15654389700E+02  0.40984393785E+02  0.00000000000E+00 0.  1.
<mgrwt>
<rscale>  0 0.26764282E+03</rscale>
<asrwt>0</asrwt>
<pdfrwt beam="2">  1        2 0.42223695E-01 0.26764282E+03</pdfrwt>
<pdfrwt beam="1">  1       -2 0.10038487E-01 0.26764282E+03</pdfrwt>
<totfact> 0.78706239E+03</totfact>
</mgrwt>
</event>
<event>
 6    1  0.5818426E-006  0.1405450E+03  0.7546771E-02  0.1222883E+00
         -2   -1    0    0    0  501 -0.00000000000E+00  0.00000000000E+00  0.76966322155E+02  0.76966322155E+02  0.00000000000E+00 0.  1.
          2   -1    0    0  501    0  0.00000000000E+00 -0.00000000000E+00 -0.25694579535E+03  0.25694579535E+03  0.00000000000E+00 0. -1.
          5    1    1    2  502    0  0.14764417656E+02 -0.44344837394E+02 -0.17439949117E+02  0.50106830447E+02  0.47000000000E+01 0. -1.
         -5    1    1    2    0  502 -0.78906499347E+02  0.47929032775E+02 -0.87234770105E+01  0.92852662175E+02  0.47000000000E+01 0. -1.
        -11    1    1    2    0    0  0.87870796708E+02 -0.52347751433E+01 -0.10799383363E+03  0.13932461336E+03  0.00000000000E+00 0.  1.
         11    1    1    2    0    0 -0.23728715017E+02  0.16505797623E+01 -0.45822213442E+02  0.51628011530E+02  0.00000000000E+00 0. -1.
<mgrwt>
<rscale>  0 0.13313055E+03</rscale>
<asrwt>0</asrwt>
<pdfrwt beam="2">  1        2 0.39530123E-01 0.14054498E+03</pdfrwt>
<pdfrwt beam="1">  1       -2 0.11840973E-01 0.14054498E+03</pdfrwt>
<totfact> 0.62492805E+03</totfact>
</mgrwt>
</event>
<event>
 6    1  0.5818426E-006  0.1943718E+03  0.7546771E-02  0.1159171E+00
         -1   -1    0    0    0  501 -0.00000000000E+00  0.00000000000E+00  0.39730513252E+03  0.39730513252E+03  0.00000000000E+00 0.  1.
          1   -1    0    0  501    0  0.00000000000E+00 -0.00000000000E+00 -0.11597803641E+03  0.11597803641E+03  0.00000000000E+00 0. -1.
          5    1    1    2  502    0  0.53846560336E+01 -0.20676176851E+02  0.10330400489E+03  0.10559501047E+03  0.47000000000E+01 0.  1.
         -5    1    1    2    0  502  0.12682881371E+03  0.89043948893E+02  0.17405625209E+03  0.23309234589E+03  0.47000000000E+01 0.  1.
        -11    1    1    2    0    0 -0.14350812206E+03 -0.52172312772E+02 -0.52890343736E+01  0.15278908732E+03  0.00000000000E+00 0.  1.
         11    1    1    2    0    0  0.11294652322E+02 -0.16195459271E+02  0.92558735094E+01  0.21806725258E+02  0.00000000000E+00 0. -1.
<mgrwt>
<rscale>  0 0.18921495E+03</rscale>
<asrwt>0</asrwt>
<pdfrwt beam="2">  1        1 0.17842775E-01 0.19437184E+03</pdfrwt>
<pdfrwt beam="1">  1       -1 0.61123866E-01 0.19437184E+03</pdfrwt>
<totfact> 0.82881067E+02</totfact>
</mgrwt>
</event>
<event>
 6    1  0.5818426E-006  0.2042368E+03  0.7546771E-02  0.1150278E+00
          2   -1    0    0  501    0  0.00000000000E+00  0.00000000000E+00  0.18005997731E+04  0.18005997731E+04  0.00000000000E+00 0. -1.
         -2   -1    0    0    0  501 -0.00000000000E+00 -0.00000000000E+00 -0.21649117230E+02  0.21649117230E+02  0.00000000000E+00 0.  1.
          5    1    1    2  502    0 -0.72074664673E+02  0.28442706680E+02  0.51885395866E+03  0.52462869276E+03  0.47000000000E+01 0.  1.
         -5    1    1    2    0  502 -0.73266777453E+02 -0.98900137470E+02  0.55980235414E+03  0.57319283279E+03  0.47000000000E+01 0.  1.
        -11    1    1    2    0    0  0.54823215148E+02  0.59091892706E+02  0.19566791613E+03  0.21162081680E+03  0.00000000000E+00 0.  1.
         11    1    1    2    0    0  0.90518226978E+02  0.11365538084E+02  0.50462642694E+03  0.51280654796E+03  0.00000000000E+00 0. -1.
<mgrwt>
<rscale>  0 0.19936237E+03</rscale>
<asrwt>0</asrwt>
<pdfrwt beam="1">  1        2 0.27701523E+00 0.20423678E+03</pdfrwt>
<pdfrwt beam="2">  1       -2 0.33306348E-02 0.20423678E+03</pdfrwt>
<totfact> 0.34221148E+03</totfact>
</mgrwt>
</event>
<event>
 6    1  0.5818426E-006  0.2287453E+03  0.7546771E-02  0.1131067E+00
         -2   -1    0    0    0  501 -0.00000000000E+00  0.00000000000E+00  0.26946562302E+03  0.26946562302E+03  0.00000000000E+00 0.  1.
          2   -1    0    0  501    0  0.00000000000E+00 -0.00000000000E+00 -0.21063595934E+03  0.21063595934E+03  0.00000000000E+00 0. -1.
          5    1    1    2  502    0 -0.63159091788E+02 -0.10696610390E+03  0.12489265154E+03  0.17621317393E+03  0.47000000000E+01 0.  1.
         -5    1    1    2    0  502 -0.82130846181E+02 -0.17896994393E+02 -0.45093515763E+00  0.84190686214E+02  0.47000000000E+01 0.  1.
        -11    1    1    2    0    0  0.45480081328E+02  0.83206659915E+02 -0.58263845285E+02  0.11129448198E+03  0.00000000000E+00 0. -1.
         11    1    1    2    0    0  0.99809856640E+02  0.41656438382E+02 -0.73482074155E+01  0.10840324023E+03  0.00000000000E+00 0.  1.
<mgrwt>
<rscale>  0 0.22382008E+03</rscale>
<asrwt>0</asrwt>
<pdfrwt beam="2">  1        2 0.32405532E-01 0.22874534E+03</pdfrwt>
<pdfrwt beam="1">  1       -2 0.41456250E-01 0.22874534E+03</pdfrwt>
<totfact> 0.89425848E+02</totfact>
</mgrwt>
</event>
<event>
 6    1  0.5818426E-006  0.1307270E+03  0.7546771E-02  0.1240661E+00
          1   -1    0    0  501    0  0.00000000000E+00  0.00000000000E+00  0.49073835167E+03  0.49073835167E+03  0.00000000000E+00 0. -1.
         -1   -1    0    0    0  501 -0.00000000000E+00 -0.00000000000E+00 -0.27257590317E+02  0.27257590317E+02  0.00000000000E+00 0.  1.
          5    1    1    2  502    0  0.34527658363E+02 -0.23700137386E+02  0.19159741433E+03  0.19617725374E+03  0.47000000000E+01 0.  1.
         -5    1    1    2    0  502 -0.72343764360E+02  0.17740809909E+02  0.11462875005E+03  0.13678522185E+03  0.47000000000E+01 0.  1.
        -11    1    1    2    0    0 -0.97525519852E+01 -0.27867038788E+02  0.19391592542E+02  0.35323051713E+02  0.00000000000E+00 0.  1.
         11    1    1    2    0    0  0.47568657981E+02  0.33826366266E+02  0.13786300443E+03  0.14971041469E+03  0.00000000000E+00 0. -1.
<mgrwt>
<rscale>  0 0.12148908E+03</rscale>
<asrwt>0</asrwt>
<pdfrwt beam="1">  1        1 0.75498202E-01 0.13072699E+03</pdfrwt>
<pdfrwt beam="2">  1       -1 0.41934758E-02 0.13072699E+03</pdfrwt>
<totfact> 0.10073394E+04</totfact>
</mgrwt>
</event>
<event>
 6    1  0.5818426E-006  0.1486112E+03  0.7546771E-02  0.1211858E+00
         -2   -1    0    0    0  501 -0.00000000000E+00  0.00000000000E+00  0.78632144372E+02  0.78632144372E+02  0.00000000000E+00 0.  1.
          2   -1    0    0  501    0  0.00000000000E+00 -0.00000000000E+00 -0.39286839601E+03  0.39286839601E+03  0.00000000000E+00 0. -1.
          5    1    1    2  502    0  0.99736314187E+01 -0.55348556364E+02 -0.18171825822E+02  0.59289470135E+02  0.47000000000E+01 0.  1.
         -5    1    1    2    0  502  0.70387809826E+02  0.56066109266E+02  0.25026610506E+01  0.90145469618E+02  0.47000000000E+01 0.  1.
        -11    1    1    2    0    0 -0.14178287771E+02 -0.29488249477E+01  0.17017650101E+01  0.14581337964E+02  0.00000000000E+00 0.  1.
         11    1    1    2    0    0 -0.66183153474E+02  0.22312720450E+01 -0.30026885187E+03  0.30748426266E+03  0.00000000000E+00 0. -1.
<mgrwt>
<rscale>  0 0.14109868E+03</rscale>
<asrwt>0</asrwt>
<pdfrwt beam="2">  1        2 0.60441291E-01 0.14861117E+03</pdfrwt>
<pdfrwt beam="1">  1       -2 0.12097253E-01 0.14861117E+03</pdfrwt>
<totfact> 0.38558999E+03</totfact>
</mgrwt>
</event>
<event>
 6    1  0.5818426E-006  0.1853505E+03  0.7546771E-02  0.1167826E+00
         -1   -1    0    0    0  501 -0.00000000000E+00  0.00000000000E+00  0.17604413309E+04  0.17604413309E+04  0.00000000000E+00 0.  1.
          1   -1    0    0  501    0  0.00000000000E+00 -0.00000000000E+00 -0.28202521959E+02  0.28202521959E+02  0.00000000000E+00 0. -1.
          5    1    1    2  502    0 -0.14987322812E+02 -0.50101592137E+02  0.71391937438E+03  0.71584757630E+03  0.47000000000E+01 0.  1.
         -5    1    1    2    0  502  0.11129832020E+03 -0.47121485864E+02  0.73631022021E+03  0.74617865213E+03  0.47000000000E+01 0.  1.
        -11    1    1    2    0    0 -0.52974089220E+02  0.29546636119E+02  0.42710163290E+02  0.74185011174E+02  0.00000000000E+00 0. -1.
         11    1    1    2    0    0 -0.43336908167E+02  0.67676441883E+02  0.23929905103E+03  0.25243261323E+03  0.00000000000E+00 0.  1.
<mgrwt>
<rscale>  0 0.17997672E+03</rscale>
<asrwt>0</asrwt>
<pdfrwt beam="2">  1        1 0.43388509E-02 0.18535052E+03</pdfrwt>
<pdfrwt beam="1">  1       -1 0.27083704E+00 0.18535052E+03</pdfrwt>
<totfact> 0.12044649E+02</totfact>
</mgrwt>
</event>
<event>
 6    1  0.5818426E-006  0.1711597E+03  0.7546771E-02  0.1187579E+00
         -1   -1    0    0    0  501 -0.00000000000E+00  0.00000000000E+00  0.60005339222E+02  0.60005339222E+02  0.00000000000E+00 0.  1.
          1   -1    0    0  501    0  0.00000000000E+00 -0.00000000000E+00 -0.45684347977E+03  0.45684347977E+03  0.00000000000E+00 0. -1.
          5    1    1    2  502    0  0.13222723600E+02  0.31128724400E+02 -0.13461031830E+03  0.13887356010E+03  0.47000000000E+01 0. -1.
         -5    1    1    2    0  502 -0.86734341571E+01  0.67266535889E+02  0.15400865480E+02  0.69708621906E+02  0.47000000000E+01 0.  1.
        -11    1    1    2    0    0 -0.24699229873E+02 -0.10696364222E+03 -0.24979141235E+03  0.27284981656E+03  0.00000000000E+00 0.  1.
         11    1    1    2    0    0  0.20149940430E+02  0.85683819356E+01 -0.27837275373E+02  0.35416820418E+02  0.00000000000E+00 0. -1.
<mgrwt>
<rscale>  0 0.16099450E+03</rscale>
<asrwt>0</asrwt>
<pdfrwt beam="2">  1        1 0.70283613E-01 0.17115967E+03</pdfrwt>
<pdfrwt beam="1">  1       -1 0.92315905E-02 0.17115967E+03</pdfrwt>
<totfact> 0.34434355E+03</totfact>
</mgrwt>
</event>
<event>
 6    1  0.5818426E-006  0.2170031E+03  0.7546771E-02  0.1139681E+00
         -2   -1    0    0    0  501 -0.00000000000E+00  0.00000000000E+00  0.75614355242E+03  0.75614355242E+03  0.00000000000E+00 0. -1.
          2   -1    0    0  501    0  0.00000000000E+00 -0.00000000000E+00 -0.65365075926E+02  0.65365075926E+02  0.00000000000E+00 0.  1.
          5    1    1    2  502    0  0.11479530642E+03  0.11954066739E+03  0.41697426988E+03  0.44872883268E+03  0.47000000000E+01 0. -1.
         -5    1    1    2    0  502  0.38468834101E+02 -0.30232902395E+02  0.85891971983E+02  0.98961610918E+02  0.47000000000E+01 0. -1.
        -11    1    1    2    0    0 -0.11753769611E+03 -0.17601620119E+02  0.10619395688E+03  0.15938031094E+03  0.00000000000E+00 0. -1.
         11    1    1    2    0    0 -0.35726444410E+02 -0.71706144873E+02  0.81718277757E+02  0.11443787381E+03  0.00000000000E+00 0.  1.
<mgrwt>
<rscale>  0 0.21239828E+03</rscale>
<asrwt>0</asrwt>
<pdfrwt beam="2">  1        2 0.10056166E-01 0.21700314E+03</pdfrwt>
<pdfrwt beam="1">  1       -2 0.11632977E+00 0.21700314E+03</pdfrwt>
<totfact> 0.38018486E+02</totfact>
</mgrwt>
</event>
<event>
 6    1  0.5818426E-006  0.1376005E+03  0.7546771E-02  0.1227958E+00
          2   -1    0    0  501    0  0.00000000000E+00  0.00000000000E+00  0.13406436271E+03  0.13406436271E+03  0.00000000000E+00 0. -1.
         -2   -1    0    0    0  501 -0.00000000000E+00 -0.00000000000E+00 -0.12942244891E+03  0.12942244891E+03  0.00000000000E+00 0.  1.
          5    1    1    2  502    0 -0.19695622980E+02  0.83504722453E+00  0.33430337599E+02  0.39093379751E+02  0.47000000000E+01 0. -1.
         -5    1    1    2    0  502  0.56431399152E+02  0.43416068768E+02 -0.77606801992E+02  0.10542468190E+03  0.47000000000E+01 0. -1.
        -11    1    1    2    0    0 -0.48318851931E+02 -0.20519906891E+02 -0.10951094704E+02  0.53625595624E+02  0.00000000000E+00 0. -1.
         11    1    1    2    0    0  0.11583075760E+02 -0.23731209102E+02  0.59769472894E+02  0.65343154343E+02  0.00000000000E+00 0.  1.
<mgrwt>
<rscale>  0 0.12966229E+03</rscale>
<asrwt>0</asrwt>
<pdfrwt beam="1">  1        2 0.20625287E-01 0.13760055E+03</pdfrwt>
<pdfrwt beam="2">  1       -2 0.19911146E-01 0.13760055E+03</pdfrwt>
<totfact> 0.54116147E+03</totfact>
</mgrwt>
</event>
<event>
 6    1  0.5818426E-006  0.1303078E+03  0.7546771E-02  0.1242341E+00
         -1   -1    0    0    0  501 -0.00000000000E+00  0.00000000000E+00  0.22576845172E+03  0.22576845172E+03  0.00000000000E+00 0.  1.
          1   -1    0    0  501    0  0.00000000000E+00 -0.00000000000E+00 -0.59374135507E+02  0.59374135507E+02  0.00000000000E+00 0. -1.
          5    1    1    2  502    0 -0.35835446555E+02  0.21092439710E+02  0.13654227824E+02  0.44018157392E+02  0.47000000000E+01 0.  1.
         -5    1    1    2    0  502  0.68900996643E+02 -0.37288202146E+02  0.11394782869E+03  0.13836168191E+03  0.47000000000E+01 0.  1.
        -11    1    1    2    0    0  0.13186833423E+01 -0.33786551048E+02  0.19844283819E+02  0.39205427657E+02  0.00000000000E+00 0.  1.
         11    1    1    2    0    0 -0.34384233430E+02  0.49982313484E+02  0.18947975881E+02  0.63557320269E+02  0.00000000000E+00 0. -1.
<mgrwt>
<rscale>  0 0.12045946E+03</rscale>
<asrwt>0</asrwt>
<pdfrwt beam="2">  1        1 0.91344825E-02 0.13030779E+03</pdfrwt>
<pdfrwt beam="1">  1       -1 0.34733607E-01 0.13030779E+03</pdfrwt>
<totfact> 0.54591871E+03</totfact>
</mgrwt>
</event>
<event>
 6    1  0.5818426E-006  0.1252988E+03  0.7546771E-02  0.1248459E+00
          4   -1    0    0  501    0  0.00000000000E+00  0.00000000000E+00  0.14538977572E+03  0.14538977572E+03  0.00000000000E+00 0. -1.
         -4   -1    0    0    0  501 -0.00000000000E+00 -0.00000000000E+00 -0.86199707231E+02  0.86199707231E+02  0.00000000000E+00 0.  1.
          5    1    1    2  502    0 -0.42530002713E+02  0.35902918650E+02 -0.29377245893E+02  0.63110484665E+02  0.47000000000E+01 0. -1.
         -5    1    1    2    0  502  0.35473957315E+02 -0.30669951572E+02  0.41459295811E+02  0.62769505225E+02  0.47000000000E+01 0. -1.
        -11    1    1    2    0    0  0.42341927516E+02  0.24030463066E+02  0.21768621542E+02  0.53330805964E+02  0.00000000000E+00 0. -1.
         11    1    1    2    0    0 -0.35285882117E+02 -0.29263430144E+02  0.25339397033E+02  0.52378687102E+02  0.00000000000E+00 0.  1.
<mgrwt>
<rscale>  0 0.11680743E+03</rscale>
<asrwt>0</asrwt>
<pdfrwt beam="1">  1        4 0.22367658E-01 0.12529883E+03</pdfrwt>
<pdfrwt beam="2">  1       -4 0.13261493E-01 0.12529883E+03</pdfrwt>
<totfact> 0.13916481E+03</totfact>
</mgrwt>
</event>
<event>
 6    1  0.5818426E-006  0.1275914E+03  0.7546771E-02  0.1246310E+00
         -2   -1    0    0    0  501 -0.00000000000E+00  0.00000000000E+00  0.57772371974E+02  0.57772371974E+02  0.00000000000E+00 0.  1.
          2   -1    0    0  501    0  0.00000000000E+00 -0.00000000000E+00 -0.22302085038E+03  0.22302085038E+03  0.00000000000E+00 0. -1.
          5    1    1    2  502    0 -0.66082926754E+02 -0.30122917970E+02 -0.14815621474E+02  0.74269347884E+02  0.47000000000E+01 0.  1.
         -5    1    1    2    0  502  0.41300668218E+02  0.23774335944E+02 -0.48543629100E+02  0.68187522107E+02  0.47000000000E+01 0.  1.
        -11    1    1    2    0    0  0.42637017767E+02  0.38022750576E+02 -0.59406404414E+02  0.82418236640E+02  0.00000000000E+00 0.  1.
         11    1    1    2    0    0 -0.17854759231E+02 -0.31674168550E+02 -0.42482823419E+02  0.55918115724E+02  0.00000000000E+00 0. -1.
<mgrwt>
<rscale>  0 0.11807321E+03</rscale>
<asrwt>0</asrwt>
<pdfrwt beam="2">  1        2 0.34310900E-01 0.12759140E+03</pdfrwt>
<pdfrwt beam="1">  1       -2 0.88880573E-02 0.12759140E+03</pdfrwt>
<totfact> 0.11339459E+04</totfact>
</mgrwt>
</event>
<event>
 6    1  0.5818426E-006  0.1316158E+03  0.7546771E-02  0.1238853E+00
         -1   -1    0    0    0  501 -0.00000000000E+00  0.00000000000E+00  0.94335090341E+03  0.94335090341E+03  0.00000000000E+00 0.  1.
          1   -1    0    0  501    0  0.00000000000E+00 -0.00000000000E+00 -0.14283094185E+02  0.14283094185E+02  0.00000000000E+00 0. -1.
          5    1    1    2  502    0 -0.15015205958E+02  0.62417442126E+02  0.39513532008E+03  0.40034410782E+03  0.47000000000E+01 0.  1.
         -5    1    1    2    0  502  0.37643444022E+02 -0.27986507799E+02  0.81732479024E+02  0.94353386924E+02  0.47000000000E+01 0.  1.
        -11    1    1    2    0    0 -0.56061570273E+02 -0.83159415248E+01  0.26365261805E+03  0.26967528168E+03  0.00000000000E+00 0. -1.
         11    1    1    2    0    0  0.33433332210E+02 -0.26114992802E+02  0.18854739208E+03  0.19326122118E+03  0.00000000000E+00 0.  1.
<mgrwt>
<rscale>  0 0.12260961E+03</rscale>
<asrwt>0</asrwt>
<pdfrwt beam="2">  1        1 0.21973999E-02 0.13161578E+03</pdfrwt>
<pdfrwt beam="1">  1       -1 0.14513086E+00 0.13161578E+03</pdfrwt>
<totfact> 0.21099179E+03</totfact>
</mgrwt>
</event>
<event>
 6    1  0.5818426E-006  0.1319322E+03  0.7546771E-02  0.1238267E+00
          1   -1    0    0  501    0  0.00000000000E+00  0.00000000000E+00  0.33251138236E+03  0.33251138236E+03  0.00000000000E+00 0. -1.
         -1   -1    0    0    0  501 -0.00000000000E+00 -0.00000000000E+00 -0.71730842089E+02  0.71730842089E+02  0.00000000000E+00 0.  1.
          5    1    1    2  502    0 -0.10046089486E+02 -0.15065426823E+02  0.62923023306E+02  0.65645166321E+02  0.47000000000E+01 0. -1.
         -5    1    1    2    0  502  0.28286482228E+02 -0.23162053786E+02 -0.55354114480E+02  0.66503938247E+02  0.47000000000E+01 0. -1.
        -11    1    1    2    0    0  0.27468384119E+02  0.14042955232E+02  0.17901349066E+03  0.18165226824E+03  0.00000000000E+00 0.  1.
         11    1    1    2    0    0 -0.45708776861E+02  0.24184525377E+02  0.74198140783E+02  0.90440851641E+02  0.00000000000E+00 0. -1.
<mgrwt>
<rscale>  0 0.12297561E+03</rscale>
<asrwt>0</asrwt>
<pdfrwt beam="1">  1        1 0.51155596E-01 0.13193217E+03</pdfrwt>
<pdfrwt beam="2">  1       -1 0.11035514E-01 0.13193217E+03</pdfrwt>
<totfact> 0.38695087E+03</totfact>
</mgrwt>
</event>
<event>
 6    1  0.5818426E-006  0.1322443E+03  0.7546771E-02  0.1237569E+00
         -3   -1    0    0    0  501 -0.00000000000E+00  0.00000000000E+00  0.14422300338E+03  0.14422300338E+03  0.00000000000E+00 0.  1.
          3   -1    0    0  501    0  0.00000000000E+00 -0.00000000000E+00 -0.96911935198E+02  0.96911935198E+02  0.00000000000E+00 0. -1.
          5    1    1    2  502    0 -0.54869175149E+02 -0.77093194962E+01 -0.18311960588E+02  0.58544665762E+02  0.47000000000E+01 0. -1.
         -5    1    1    2    0  502  0.36320395511E+02 -0.31273440716E+02  0.66711351650E+02  0.82278148151E+02  0.47000000000E+01 0. -1.
        -11    1    1    2    0    0  0.88153031802E+01  0.21837681760E+02 -0.45770552365E+02  0.51473657133E+02  0.00000000000E+00 0. -1.
         11    1    1    2    0    0  0.97334764580E+01  0.17145078452E+02  0.44682229489E+02  0.48838467536E+02  0.00000000000E+00 0.  1.
<mgrwt>
<rscale>  0 0.12341410E+03</rscale>
<asrwt>0</asrwt>
<pdfrwt beam="2">  1        3 0.14909528E-01 0.13224433E+03</pdfrwt>
<pdfrwt beam="1">  1       -3 0.22188154E-01 0.13224433E+03</pdfrwt>
<totfact> 0.15990686E+03</totfact>
</mgrwt>
</event>
<event>
 6    1  0.5818426E-006  0.3310359E+03  0.7546771E-02  0.1070679E+00
         -2   -1    0    0    0  501 -0.00000000000E+00  0.00000000000E+00  0.64955427773E+02  0.64955427773E+02  0.00000000000E+00 0.  1.
          2   -1    0    0  501    0  0.00000000000E+00 -0.00000000000E+00 -0.42176902750E+03  0.42176902750E+03  0.00000000000E+00 0. -1.
          5    1    1    2  502    0 -0.16581005908E+02  0.15903025043E+02 -0.53061682407E+02  0.58012654674E+02  0.47000000000E+01 0. -1.
         -5    1    1    2    0  502  0.17515523684E+02 -0.10363727397E+03 -0.48916087994E+01  0.10532566621E+03  0.47000000000E+01 0. -1.
        -11    1    1    2    0    0  0.38185406483E+02  0.66459695617E+02 -0.15718830752E+03  0.17488047470E+03  0.00000000000E+00 0.  1.
         11    1    1    2    0    0 -0.39119924259E+02  0.21274553310E+02 -0.14167200100E+03  0.14850565969E+03  0.00000000000E+00 0. -1.
<mgrwt>
<rscale>  0 0.33103587E+03</rscale>
<asrwt>0</asrwt>
<pdfrwt beam="2">  1        2 0.64887540E-01 0.33103587E+03</pdfrwt>
<pdfrwt beam="1">  1       -2 0.99931432E-02 0.33103587E+03</pdfrwt>
<totfact> 0.50114954E+03</totfact>
</mgrwt>
</event>
<event>
 6    1  0.5818426E-006  0.1475809E+03  0.7546771E-02  0.1212804E+00
         -2   -1    0    0    0  501 -0.00000000000E+00  0.00000000000E+00  0.11440029498E+04  0.11440029498E+04  0.00000000000E+00 0.  1.
          2   -1    0    0  501    0  0.00000000000E+00 -0.00000000000E+00 -0.17736719273E+02  0.17736719273E+02  0.00000000000E+00 0. -1.
          5    1    1    2  502    0 -0.74433876837E+01 -0.63557300804E+02  0.17096936093E+03  0.18261310710E+03  0.47000000000E+01 0.  1.
         -5    1    1    2    0  502 -0.46454575539E+02  0.65474623770E+01  0.63563435603E+03  0.63738059385E+03  0.47000000000E+01 0.  1.
        -11    1    1    2    0    0  0.32899946418E+02 -0.12287941694E+02  0.41758094128E+02  0.54563159829E+02  0.00000000000E+00 0. -1.
         11    1    1    2    0    0  0.20998016804E+02  0.69297780120E+02  0.27790441946E+03  0.28718280832E+03  0.00000000000E+00 0.  1.
<mgrwt>
<rscale>  0 0.14039112E+03</rscale>
<asrwt>0</asrwt>
<pdfrwt beam="2">  1        2 0.27287269E-02 0.14758087E+03</pdfrwt>
<pdfrwt beam="1">  1       -2 0.17600040E+00 0.14758087E+03</pdfrwt>
<totfact> 0.72126803E+02</totfact>
</mgrwt>
</event>
<event>
 6    1  0.5818426E-006  0.1286075E+03  0.7546771E-02  0.1244471E+00
         -4   -1    0    0    0  501 -0.00000000000E+00  0.00000000000E+00  0.23901273333E+02  0.23901273333E+02  0.00000000000E+00 0.  1.
          4   -1    0    0  501    0  0.00000000000E+00 -0.00000000000E+00 -0.53598215533E+03  0.53598215533E+03  0.00000000000E+00 0. -1.
          5    1    1    2  502    0 -0.33684172958E+02 -0.63653724119E+02 -0.99415017510E+02  0.12284891456E+03  0.47000000000E+01 0. -1.
         -5    1    1    2    0  502  0.77742749234E+01  0.48086203002E+02 -0.14984621223E+03  0.15763470300E+03  0.47000000000E+01 0. -1.
        -11    1    1    2    0    0  0.54507826000E+02  0.16842769009E+02 -0.22409541672E+03  0.23124345993E+03  0.00000000000E+00 0. -1.
         11    1    1    2    0    0 -0.28597927965E+02 -0.12752478931E+01 -0.38724235536E+02  0.48156351180E+02  0.00000000000E+00 0.  1.
<mgrwt>
<rscale>  0 0.11917092E+03</rscale>
<asrwt>0</asrwt>
<pdfrwt beam="2">  1        4 0.82458788E-01 0.12860754E+03</pdfrwt>
<pdfrwt beam="1">  1       -4 0.36771192E-02 0.12860754E+03</pdfrwt>
<totfact> 0.85031570E+02</totfact>
</mgrwt>
</event>
<event>
 6    1  0.5818426E-006  0.1488926E+03  0.7546771E-02  0.1212079E+00
         -2   -1    0    0    0  501 -0.00000000000E+00  0.00000000000E+00  0.13468597454E+03  0.13468597454E+03  0.00000000000E+00 0.  1.
          2   -1    0    0  501    0  0.00000000000E+00 -0.00000000000E+00 -0.15890389847E+03  0.15890389847E+03  0.00000000000E+00 0. -1.
          5    1    1    2  502    0 -0.50095668946E+02 -0.11030814223E+02 -0.11768861850E+02  0.52837969481E+02  0.47000000000E+01 0. -1.
         -5    1    1    2    0  502  0.49257890877E+02 -0.69872484949E+02  0.56681640204E+02  0.10268107081E+03  0.47000000000E+01 0. -1.
        -11    1    1    2    0    0  0.11950242165E+02  0.72849810633E+01  0.18426248295E+02  0.23138838846E+02  0.00000000000E+00 0.  1.
         11    1    1    2    0    0 -0.11112464097E+02  0.73618318109E+02 -0.87556950582E+02  0.11493199387E+03  0.00000000000E+00 0. -1.
<mgrwt>
<rscale>  0 0.14093311E+03</rscale>
<asrwt>0</asrwt>
<pdfrwt beam="2">  1        2 0.24446754E-01 0.14889263E+03</pdfrwt>
<pdfrwt beam="1">  1       -2 0.20720919E-01 0.14889263E+03</pdfrwt>
<totfact> 0.42024897E+03</totfact>
</mgrwt>
</event>
<event>
 6    1  0.5818426E-006  0.1421458E+03  0.7546771E-02  0.1220641E+00
         -1   -1    0    0    0  501 -0.00000000000E+00  0.00000000000E+00  0.78528955250E+02  0.78528955250E+02  0.00000000000E+00 0.  1.
          1   -1    0    0  501    0  0.00000000000E+00 -0.00000000000E+00 -0.22241307166E+03  0.22241307166E+03  0.00000000000E+00 0. -1.
          5    1    1    2  502    0 -0.70522776939E+02 -0.17305576786E+02 -0.77171058169E+02  0.10606793707E+03  0.47000000000E+01 0. -1.
         -5    1    1    2    0  502  0.33763139658E+01  0.25819104489E+02  0.33449882473E+02  0.42649856858E+02  0.47000000000E+01 0. -1.
        -11    1    1    2    0    0 -0.11537439537E+02  0.32429196532E+01  0.10498714288E+02  0.15932734877E+02  0.00000000000E+00 0.  1.
         11    1    1    2    0    0  0.78683902510E+02 -0.11756447356E+02 -0.11066165500E+03  0.13629149811E+03  0.00000000000E+00 0. -1.
<mgrwt>
<rscale>  0 0.13470180E+03</rscale>
<asrwt>0</asrwt>
<pdfrwt beam="2">  1        1 0.34217395E-01 0.14214584E+03</pdfrwt>
<pdfrwt beam="1">  1       -1 0.12081378E-01 0.14214584E+03</pdfrwt>
<totfact> 0.55604066E+03</totfact>
</mgrwt>
</event>
<event>
 6    1  0.5818426E-006  0.1455331E+03  0.7546771E-02  0.1216880E+00
         -3   -1    0    0    0  501 -0.00000000000E+00  0.00000000000E+00  0.18195419232E+03  0.18195419232E+03  0.00000000000E+00 0.  1.
          3   -1    0    0  501    0  0.00000000000E+00 -0.00000000000E+00 -0.11723932958E+03  0.11723932958E+03  0.00000000000E+00 0. -1.
          5    1    1    2  502    0 -0.13503285555E+02  0.32670109650E+02  0.26169853570E+02  0.44233765623E+02  0.47000000000E+01 0.  1.
         -5    1    1    2    0  502  0.34565891566E+02 -0.10416859080E+03  0.75836774962E+02  0.13348858605E+03  0.47000000000E+01 0.  1.
        -11    1    1    2    0    0  0.33501879466E+02  0.27513296040E+02 -0.25805136115E+02  0.50450594017E+02  0.00000000000E+00 0. -1.
         11    1    1    2    0    0 -0.54564485477E+02  0.43985185108E+02 -0.11486629667E+02  0.71020576212E+02  0.00000000000E+00 0.  1.
<mgrwt>
<rscale>  0 0.13739335E+03</rscale>
<asrwt>0</asrwt>
<pdfrwt beam="2">  1        3 0.18036820E-01 0.14553310E+03</pdfrwt>
<pdfrwt beam="1">  1       -3 0.27992953E-01 0.14553310E+03</pdfrwt>
<totfact> 0.76787894E+02</totfact>
</mgrwt>
</event>
<event>
 6    1  0.5818426E-006  0.1622403E+03  0.7546771E-02  0.1193570E+00
         -1   -1    0    0    0  501 -0.00000000000E+00  0.00000000000E+00  0.72975420890E+03  0.72975420890E+03  0.00000000000E+00 0.  1.
          1   -1    0    0  501    0  0.00000000000E+00 -0.00000000000E+00 -0.52045944622E+02  0.52045944622E+02  0.00000000000E+00 0. -1.
          5    1    1    2  502    0 -0.23843034038E+02  0.84776549250E+02  0.56533839868E+03  0.57217580218E+03  0.47000000000E+01 0.  1.
         -5    1    1    2    0  502 -0.36349603159E+02 -0.68358986669E+00  0.38844783285E+02  0.53411310912E+02  0.47000000000E+01 0.  1.
        -11    1    1    2    0    0 -0.11783472784E+02 -0.16164731885E+02 -0.13738430349E+02  0.24267122948E+02  0.00000000000E+00 0. -1.
         11    1    1    2    0    0  0.71976109981E+02 -0.67928227498E+02  0.87263512664E+02  0.13194591749E+03  0.00000000000E+00 0.  1.
<mgrwt>
<rscale>  0 0.15575912E+03</rscale>
<asrwt>0</asrwt>
<pdfrwt beam="2">  1        1 0.80070689E-02 0.16224031E+03</pdfrwt>
<pdfrwt beam="1">  1       -1 0.11226987E+00 0.16224031E+03</pdfrwt>
<totfact> 0.66822686E+02</totfact>
</mgrwt>
</event>
<event>
 6    1  0.5818426E-006  0.1285556E+03  0.7546771E-02  0.1243748E+00
         -1   -1    0    0    0  501 -0.00000000000E+00  0.00000000000E+00  0.36583898002E+03  0.36583898002E+03  0.00000000000E+00 0.  1.
          1   -1    0    0  501    0  0.00000000000E+00 -0.00000000000E+00 -0.36446525351E+02  0.36446525351E+02  0.00000000000E+00 0. -1.
          5    1    1    2  502    0  0.61722632173E+02 -0.42356876797E+02  0.10253358616E+03  0.12703942154E+03  0.47000000000E+01 0. -1.
         -5    1    1    2    0  502 -0.44718481909E+02  0.17551605772E+02  0.12987681027E+03  0.13855640489E+03  0.47000000000E+01 0. -1.
        -11    1    1    2    0    0  0.16965360221E+02 -0.25066302763E+02  0.12216690999E+02  0.32640320473E+02  0.00000000000E+00 0. -1.
         11    1    1    2    0    0 -0.33969510485E+02  0.49871573788E+02  0.84765367238E+02  0.10404935847E+03  0.00000000000E+00 0.  1.
<mgrwt>
<rscale>  0 0.11960610E+03</rscale>
<asrwt>0</asrwt>
<pdfrwt beam="2">  1        1 0.56071580E-02 0.12855563E+03</pdfrwt>
<pdfrwt beam="1">  1       -1 0.56282917E-01 0.12855563E+03</pdfrwt>
<totfact> 0.44452116E+03</totfact>
</mgrwt>
</event>
<event>
 6    1  0.5818426E-006  0.1743639E+03  0.7546771E-02  0.1194416E+00
         -2   -1    0    0    0  501 -0.00000000000E+00  0.00000000000E+00  0.81913284878E+02  0.81913284878E+02  0.00000000000E+00 0.  1.
          2   -1    0    0  501    0  0.00000000000E+00 -0.00000000000E+00 -0.24832917440E+03  0.24832917440E+03  0.00000000000E+00 0. -1.
          5    1    1    2  502    0 -0.96247173263E+01  0.99472041072E+02 -0.11787407128E+03  0.15460824305E+03  0.47000000000E+01 0. -1.
         -5    1    1    2    0  502 -0.26737895243E+02 -0.50530842074E+02 -0.27783907408E+01  0.57429003977E+02  0.47000000000E+01 0.  1.
        -11    1    1    2    0    0  0.62279097430E+02 -0.16660706636E+02 -0.41311759628E+02  0.76569749940E+02  0.00000000000E+00 0. -1.
         11    1    1    2    0    0 -0.25916484861E+02 -0.32280492363E+02 -0.44516678686E+01  0.41635462307E+02  0.00000000000E+00 0.  1.
<mgrwt>
<rscale>  0 0.15503731E+03</rscale>
<asrwt>0</asrwt>
<pdfrwt beam="2">  1        2 0.38204488E-01 0.17436392E+03</pdfrwt>
<pdfrwt beam="1">  1       -2 0.12602044E-01 0.17436392E+03</pdfrwt>
<totfact> 0.59420262E+03</totfact>
</mgrwt>
</event>
<event>
 6    1  0.5818426E-006  0.1297839E+03  0.7546771E-02  0.1242321E+00
          2   -1    0    0  501    0  0.00000000000E+00  0.00000000000E+00  0.13778068770E+03  0.13778068770E+03  0.00000000000E+00 0.  1.
         -2   -1    0    0    0  501 -0.00000000000E+00 -0.00000000000E+00 -0.93262917389E+02  0.93262917389E+02  0.00000000000E+00 0. -1.
          5    1    1    2  502    0  0.26929777995E+02  0.58271982758E+02  0.33093554884E+02  0.72374790447E+02  0.47000000000E+01 0.  1.
         -5    1    1    2    0  502  0.78858694779E+01 -0.55675874629E+02 -0.15695983806E+02  0.58569991128E+02  0.47000000000E+01 0.  1.
        -11    1    1    2    0    0 -0.20265410637E+02 -0.28879478258E+02 -0.22678054074E+02  0.41940496770E+02  0.00000000000E+00 0. -1.
         11    1    1    2    0    0 -0.14550236836E+02  0.26283370130E+02  0.49798253309E+02  0.58158326747E+02  0.00000000000E+00 0.  1.
<mgrwt>
<rscale>  0 0.12047143E+03</rscale>
<asrwt>0</asrwt>
<pdfrwt beam="1">  1        2 0.21197029E-01 0.12978390E+03</pdfrwt>
<pdfrwt beam="2">  1       -2 0.14348141E-01 0.12978390E+03</pdfrwt>
<totfact> 0.89921703E+03</totfact>
</mgrwt>
</event>
<event>
 6    1  0.5818426E-006  0.4358317E+03  0.7546771E-02  0.1032602E+00
         -2   -1    0    0    0  501 -0.00000000000E+00  0.00000000000E+00  0.13924013232E+03  0.13924013232E+03  0.00000000000E+00 0.  1.
          2   -1    0    0  501    0  0.00000000000E+00 -0.00000000000E+00 -0.14393624318E+04  0.14393624318E+04  0.00000000000E+00 0. -1.
          5    1    1    2  502    0  0.19438590763E+03  0.33374871102E+03 -0.37403742506E+03  0.53768035908E+03  0.47000000000E+01 0. -1.
         -5    1    1    2    0  502  0.45110698940E+02  0.82514273481E+01 -0.75380932809E+02  0.88359698071E+02  0.47000000000E+01 0. -1.
        -11    1    1    2    0    0 -0.14603099179E+03 -0.12753979253E+03 -0.35763741339E+03  0.40681195742E+03  0.00000000000E+00 0.  1.
         11    1    1    2    0    0 -0.93465614785E+02 -0.21446034584E+03 -0.49306652825E+03  0.54575054958E+03  0.00000000000E+00 0. -1.
<mgrwt>
<rscale>  0 0.43400658E+03</rscale>
<asrwt>0</asrwt>
<pdfrwt beam="2">  1        2 0.22144038E+00 0.43583173E+03</pdfrwt>
<pdfrwt beam="1">  1       -2 0.21421559E-01 0.43583173E+03</pdfrwt>
<totfact> 0.27030912E+02</totfact>
</mgrwt>
</event>
<event>
 6    1  0.5818426E-006  0.1520636E+03  0.7546771E-02  0.1206862E+00
          2   -1    0    0  501    0  0.00000000000E+00  0.00000000000E+00  0.25966365946E+03  0.25966365946E+03  0.00000000000E+00 0. -1.
         -2   -1    0    0    0  501 -0.00000000000E+00 -0.00000000000E+00 -0.75337884333E+02  0.75337884333E+02  0.00000000000E+00 0.  1.
          5    1    1    2  502    0 -0.21718559886E+02  0.39434136108E+02  0.16401796780E+01  0.45293786809E+02  0.47000000000E+01 0. -1.
         -5    1    1    2    0  502  0.87152077654E+02  0.17271108519E+02  0.12028583037E+03  0.14961466110E+03  0.47000000000E+01 0. -1.
        -11    1    1    2    0    0 -0.80059047858E+02 -0.58778577796E+02  0.71826215150E+02  0.12256988837E+03  0.00000000000E+00 0. -1.
         11    1    1    2    0    0  0.14625530090E+02  0.20733331682E+01 -0.94264500674E+01  0.17523207517E+02  0.00000000000E+00 0.  1.
<mgrwt>
<rscale>  0 0.14491663E+03</rscale>
<asrwt>0</asrwt>
<pdfrwt beam="1">  1        2 0.39948255E-01 0.15206364E+03</pdfrwt>
<pdfrwt beam="2">  1       -2 0.11590444E-01 0.15206364E+03</pdfrwt>
<totfact> 0.64259530E+03</totfact>
</mgrwt>
</event>
<event>
 6    1  0.5818426E-006  0.1569200E+03  0.7546771E-02  0.1215180E+00
          2   -1    0    0  501    0  0.00000000000E+00  0.00000000000E+00  0.23314742605E+03  0.23314742605E+03  0.00000000000E+00 0. -1.
         -2   -1    0    0    0  501 -0.00000000000E+00 -0.00000000000E+00 -0.13251936015E+03  0.13251936015E+03  0.00000000000E+00 0.  1.
          5    1    1    2  502    0  0.28134085401E+01 -0.70785502493E+02 -0.68036748697E+02  0.98334082617E+02  0.47000000000E+01 0. -1.
         -5    1    1    2    0  502 -0.30644378668E+02  0.66020512771E+02 -0.59932054725E+00  0.72939942663E+02  0.47000000000E+01 0.  1.
        -11    1    1    2    0    0  0.49698163583E+00 -0.16924336841E+02 -0.42074264629E+01  0.17446564295E+02  0.00000000000E+00 0.  1.
         11    1    1    2    0    0  0.27333988492E+02  0.21689326563E+02  0.17347156161E+03  0.17694619663E+03  0.00000000000E+00 0. -1.
<mgrwt>
<rscale>  0 0.13863289E+03</rscale>
<asrwt>0</asrwt>
<pdfrwt beam="1">  1        2 0.35868835E-01 0.15691999E+03</pdfrwt>
<pdfrwt beam="2">  1       -2 0.20387594E-01 0.15691999E+03</pdfrwt>
<totfact> 0.28528563E+03</totfact>
</mgrwt>
</event>
<event>
 6    1  0.5818426E-006  0.1266046E+03  0.7546771E-02  0.1246454E+00
          1   -1    0    0  501    0  0.00000000000E+00  0.00000000000E+00  0.76290529076E+02  0.76290529076E+02  0.00000000000E+00 0. -1.
         -1   -1    0    0    0  501 -0.00000000000E+00 -0.00000000000E+00 -0.16387912391E+03  0.16387912391E+03  0.00000000000E+00 0.  1.
          5    1    1    2  502    0 -0.50227023852E+02  0.20657181040E+02 -0.46459046052E+02  0.71624060299E+02  0.47000000000E+01 0. -1.
         -5    1    1    2    0  502  0.54513384257E+02 -0.40293714149E+02 -0.17250478208E+02  0.70106786130E+02  0.47000000000E+01 0. -1.
        -11    1    1    2    0    0  0.33120620945E+02 -0.60143163577E+01  0.16701770691E+02  0.37577874837E+02  0.00000000000E+00 0. -1.
         11    1    1    2    0    0 -0.37406981350E+02  0.25650849466E+02 -0.40580841267E+02  0.60860931722E+02  0.00000000000E+00 0.  1.
<mgrwt>
<rscale>  0 0.11798762E+03</rscale>
<asrwt>0</asrwt>
<pdfrwt beam="1">  1        1 0.11737005E-01 0.12660462E+03</pdfrwt>
<pdfrwt beam="2">  1       -1 0.25212173E-01 0.12660462E+03</pdfrwt>
<totfact> 0.66906801E+03</totfact>
</mgrwt>
</event>
<event>
 6    1  0.5818426E-006  0.2660314E+03  0.7546771E-02  0.1103573E+00
          2   -1    0    0  501    0  0.00000000000E+00  0.00000000000E+00  0.48030197522E+02  0.48030197522E+02  0.00000000000E+00 0. -1.
         -2   -1    0    0    0  501 -0.00000000000E+00 -0.00000000000E+00 -0.36837614534E+03  0.36837614534E+03  0.00000000000E+00 0.  1.
          5    1    1    2  502    0  0.10307188583E+03  0.34993646593E+02 -0.13465735887E+03  0.17321392337E+03  0.47000000000E+01 0. -1.
         -5    1    1    2    0  502 -0.25456624492E+02 -0.28219941465E+02 -0.50938457326E+02  0.63727711881E+02  0.47000000000E+01 0. -1.
        -11    1    1    2    0    0 -0.37261462205E+02 -0.34040899803E+02 -0.11735767985E+03  0.12774985106E+03  0.00000000000E+00 0.  1.
         11    1    1    2    0    0 -0.40353799133E+02  0.27267194676E+02 -0.17392451770E+02  0.51714856555E+02  0.00000000000E+00 0. -1.
<mgrwt>
<rscale>  0 0.26603142E+03</rscale>
<asrwt>0</asrwt>
<pdfrwt beam="1">  1        2 0.73892609E-02 0.26603142E+03</pdfrwt>
<pdfrwt beam="2">  1       -2 0.56673255E-01 0.26603142E+03</pdfrwt>
<totfact> 0.27898421E+03</totfact>
</mgrwt>
</event>
<event>
 6    1  0.5818426E-006  0.1528323E+03  0.7546771E-02  0.1206809E+00
          1   -1    0    0  501    0  0.00000000000E+00  0.00000000000E+00  0.65367379268E+02  0.65367379268E+02  0.00000000000E+00 0. -1.
         -1   -1    0    0    0  501 -0.00000000000E+00 -0.00000000000E+00 -0.30705705122E+03  0.30705705122E+03  0.00000000000E+00 0.  1.
          5    1    1    2  502    0 -0.43888941670E+02  0.66215429505E+02 -0.14369946656E+03  0.16426304817E+03  0.47000000000E+01 0. -1.
         -5    1    1    2    0  502  0.55975411166E+02  0.20851714180E+02 -0.29696766063E+02  0.66873227483E+02  0.47000000000E+01 0. -1.
        -11    1    1    2    0    0 -0.10486208769E+02 -0.70397469824E+02 -0.89446608394E+02  0.11430861772E+03  0.00000000000E+00 0.  1.
         11    1    1    2    0    0 -0.16002607267E+01 -0.16669673861E+02  0.21153169068E+02  0.26979537110E+02  0.00000000000E+00 0. -1.
<mgrwt>
<rscale>  0 0.14495794E+03</rscale>
<asrwt>0</asrwt>
<pdfrwt beam="1">  1        1 0.10056520E-01 0.15283234E+03</pdfrwt>
<pdfrwt beam="2">  1       -1 0.47239547E-01 0.15283234E+03</pdfrwt>
<totfact> 0.28228206E+03</totfact>
</mgrwt>
</event>
<event>
 6    1  0.5818426E-006  0.2984601E+03  0.7546771E-02  0.1086013E+00
          1   -1    0    0  501    0  0.00000000000E+00  0.00000000000E+00  0.45736926101E+02  0.45736926101E+02  0.00000000000E+00 0. -1.
         -1   -1    0    0    0  501 -0.00000000000E+00 -0.00000000000E+00 -0.48690656313E+03  0.48690656313E+03  0.00000000000E+00 0.  1.
          5    1    1    2  502    0  0.24270433627E+02  0.24428927287E+02 -0.43008383872E+02  0.55295908710E+02  0.47000000000E+01 0. -1.
         -5    1    1    2    0  502 -0.13480249741E+02 -0.11269908105E+03 -0.28508919350E+03  0.30688880438E+03  0.47000000000E+01 0. -1.
        -11    1    1    2    0    0 -0.16850272159E+02  0.52944386178E+02 -0.12153353597E+03  0.13363173300E+03  0.00000000000E+00 0.  1.
         11    1    1    2    0    0  0.60600882736E+01  0.35325767583E+02  0.84614763128E+01  0.36827043142E+02  0.00000000000E+00 0. -1.
<mgrwt>
<rscale>  0 0.29846011E+03</rscale>
<asrwt>0</asrwt>
<pdfrwt beam="1">  1        1 0.70364505E-02 0.29846011E+03</pdfrwt>
<pdfrwt beam="2">  1       -1 0.74908699E-01 0.29846011E+03</pdfrwt>
<totfact> 0.19387204E+03</totfact>
</mgrwt>
</event>
<event>
 6    1  0.5818426E-006  0.1556427E+03  0.7546771E-02  0.1203105E+00
          2   -1    0    0  501    0  0.00000000000E+00  0.00000000000E+00  0.36990111302E+03  0.36990111302E+03  0.00000000000E+00 0. -1.
         -2   -1    0    0    0  501 -0.00000000000E+00 -0.00000000000E+00 -0.54598101213E+02  0.54598101213E+02  0.00000000000E+00 0.  1.
          5    1    1    2  502    0  0.96024030315E+01 -0.26620247980E+02  0.13921587185E+03  0.14214074969E+03  0.47000000000E+01 0. -1.
         -5    1    1    2    0  502 -0.40856022973E+02 -0.60684503827E+02  0.10926355742E+02  0.74116792077E+02  0.47000000000E+01 0. -1.
        -11    1    1    2    0    0  0.10917382657E+02  0.19520547657E+02  0.12476726004E+03  0.12675610519E+03  0.00000000000E+00 0. -1.
         11    1    1    2    0    0  0.20336237285E+02  0.67784204151E+02  0.40393524169E+02  0.81485567274E+02  0.00000000000E+00 0.  1.
<mgrwt>
<rscale>  0 0.14787821E+03</rscale>
<asrwt>0</asrwt>
<pdfrwt beam="1">  1        2 0.56907862E-01 0.15564265E+03</pdfrwt>
<pdfrwt beam="2">  1       -2 0.83997081E-02 0.15564265E+03</pdfrwt>
<totfact> 0.73291642E+03</totfact>
</mgrwt>
</event>
<event>
 6    1  0.5818426E-006  0.1543055E+03  0.7546771E-02  0.1200633E+00
          2   -1    0    0  501    0  0.00000000000E+00  0.00000000000E+00  0.55747013401E+02  0.55747013401E+02  0.00000000000E+00 0.  1.
         -2   -1    0    0    0  501 -0.00000000000E+00 -0.00000000000E+00 -0.46335174879E+03  0.46335174879E+03  0.00000000000E+00 0. -1.
          5    1    1    2  502    0  0.43861995584E+02 -0.65096854654E+01 -0.37459067962E+02  0.58236779050E+02  0.47000000000E+01 0.  1.
         -5    1    1    2    0  502 -0.10217553907E+02  0.90494796292E+02 -0.28513647856E+03  0.29936367176E+03  0.47000000000E+01 0.  1.
        -11    1    1    2    0    0  0.37830227174E+01  0.17155033505E+02 -0.41762735769E+02  0.45307091435E+02  0.00000000000E+00 0. -1.
         11    1    1    2    0    0 -0.37427464394E+02 -0.10114014433E+03 -0.43246453094E+02  0.11619121994E+03  0.00000000000E+00 0.  1.
<mgrwt>
<rscale>  0 0.14987005E+03</rscale>
<asrwt>0</asrwt>
<pdfrwt beam="1">  1        2 0.85764634E-02 0.15430553E+03</pdfrwt>
<pdfrwt beam="2">  1       -2 0.71284886E-01 0.15430553E+03</pdfrwt>
<totfact> 0.13927660E+03</totfact>
</mgrwt>
</event>
<event>
 6    1  0.5818426E-006  0.4013853E+03  0.7546771E-02  0.1044151E+00
         -1   -1    0    0    0  501 -0.00000000000E+00  0.00000000000E+00  0.94514620486E+02  0.94514620486E+02  0.00000000000E+00 0.  1.
          1   -1    0    0  501    0  0.00000000000E+00 -0.00000000000E+00 -0.16642024311E+04  0.16642024311E+04  0.00000000000E+00 0. -1.
          5    1    1    2  502    0 -0.35347572231E+03  0.45225024582E+02 -0.65139813048E+03  0.74251734222E+03  0.47000000000E+01 0.  1.
         -5    1    1    2    0  502 -0.27630274663E+02 -0.29677712658E+02 -0.12503918366E+03  0.13153359327E+03  0.47000000000E+01 0.  1.
        -11    1    1    2    0    0  0.17100216504E+03 -0.13247754723E+02 -0.25961776018E+03  0.31115691355E+03  0.00000000000E+00 0.  1.
         11    1    1    2    0    0  0.21010383193E+03 -0.22995572019E+01 -0.53363273629E+03  0.57350920254E+03  0.00000000000E+00 0. -1.
<mgrwt>
<rscale>  0 0.39892837E+03</rscale>
<asrwt>0</asrwt>
<pdfrwt beam="2">  1        1 0.25603115E+00 0.40138527E+03</pdfrwt>
<pdfrwt beam="1">  1       -1 0.14540710E-01 0.40138527E+03</pdfrwt>
<totfact> 0.18510462E+02</totfact>
</mgrwt>
</event>
<event>
 6    1  0.5818426E-006  0.3692223E+03  0.7546771E-02  0.1054991E+00
         -1   -1    0    0    0  501 -0.00000000000E+00  0.00000000000E+00  0.55339195390E+02  0.55339195390E+02  0.00000000000E+00 0.  1.
          1   -1    0    0  501    0  0.00000000000E+00 -0.00000000000E+00 -0.61586152414E+03  0.61586152414E+03  0.00000000000E+00 0. -1.
          5    1    1    2  502    0 -0.85406743681E+02  0.12339471657E+01 -0.37748367232E+02  0.93503281870E+02  0.47000000000E+01 0. -1.
         -5    1    1    2    0  502 -0.43369032205E+02  0.16997863283E+01 -0.19821974227E+03  0.20297024032E+03  0.47000000000E+01 0. -1.
        -11    1    1    2    0    0  0.77421900820E+02 -0.35253768453E+02 -0.29540616006E+03  0.30741141540E+03  0.00000000000E+00 0. -1.
         11    1    1    2    0    0  0.51353875066E+02  0.32320034959E+02 -0.29148059182E+02  0.67315781940E+02  0.00000000000E+00 0.  1.
<mgrwt>
<rscale>  0 0.36922232E+03</rscale>
<asrwt>0</asrwt>
<pdfrwt beam="2">  1        1 0.94747928E-01 0.36922232E+03</pdfrwt>
<pdfrwt beam="1">  1       -1 0.85137222E-02 0.36922232E+03</pdfrwt>
<totfact> 0.26613327E+03</totfact>
</mgrwt>
</event>
<event>
 6    1  0.5818426E-006  0.1394961E+03  0.7546771E-02  0.1227196E+00
          1   -1    0    0  501    0  0.00000000000E+00  0.00000000000E+00  0.57700883818E+03  0.57700883818E+03  0.00000000000E+00 0. -1.
         -1   -1    0    0    0  501 -0.00000000000E+00 -0.00000000000E+00 -0.26070775280E+02  0.26070775280E+02  0.00000000000E+00 0.  1.
          5    1    1    2  502    0 -0.49058157095E+02  0.58841697837E+02  0.15603038322E+03  0.17388679843E+03  0.47000000000E+01 0.  1.
         -5    1    1    2    0  502 -0.12838421080E+02 -0.60678702103E+02  0.15361006638E+03  0.16572529209E+03  0.47000000000E+01 0.  1.
        -11    1    1    2    0    0 -0.49158731524E+01  0.32054089933E+02  0.71176400845E+02  0.78215794617E+02  0.00000000000E+00 0.  1.
         11    1    1    2    0    0  0.66812451327E+02 -0.30217085667E+02  0.17012121246E+03  0.18525172832E+03  0.00000000000E+00 0. -1.
<mgrwt>
<rscale>  0 0.13017519E+03</rscale>
<asrwt>0</asrwt>
<pdfrwt beam="1">  1        1 0.88770581E-01 0.13949611E+03</pdfrwt>
<pdfrwt beam="2">  1       -1 0.40108889E-02 0.13949611E+03</pdfrwt>
<totfact> 0.87200620E+03</totfact>
</mgrwt>
</event>
<event>
 6    1  0.5818426E-006  0.1669634E+03  0.7546771E-02  0.1187362E+00
          2   -1    0    0  501    0  0.00000000000E+00  0.00000000000E+00  0.60392326950E+03  0.60392326950E+03  0.00000000000E+00 0. -1.
         -2   -1    0    0    0  501 -0.00000000000E+00 -0.00000000000E+00 -0.41845738830E+02  0.41845738830E+02  0.00000000000E+00 0.  1.
          5    1    1    2  502    0 -0.74704880730E+02  0.69749488859E+02  0.91794700986E+02  0.13745605672E+03  0.47000000000E+01 0.  1.
         -5    1    1    2    0  502 -0.30174201536E+02 -0.34354034809E+02  0.14626482316E+03  0.15331722225E+03  0.47000000000E+01 0.  1.
        -11    1    1    2    0    0  0.10842666443E+03 -0.48731881007E+01  0.20364421992E+03  0.23076190723E+03  0.00000000000E+00 0.  1.
         11    1    1    2    0    0 -0.35475821592E+01 -0.30522265950E+02  0.12037378661E+03  0.12423382213E+03  0.00000000000E+00 0. -1.
<mgrwt>
<rscale>  0 0.16118769E+03</rscale>
<asrwt>0</asrwt>
<pdfrwt beam="1">  1        2 0.92911266E-01 0.16696336E+03</pdfrwt>
<pdfrwt beam="2">  1       -2 0.64378064E-02 0.16696336E+03</pdfrwt>
<totfact> 0.64679131E+03</totfact>
</mgrwt>
</event>
<event>
 6    1  0.5818426E-006  0.1557556E+03  0.7546771E-02  0.1214022E+00
         -2   -1    0    0    0  501 -0.00000000000E+00  0.00000000000E+00  0.75245451582E+03  0.75245451582E+03  0.00000000000E+00 0.  1.
          2   -1    0    0  501    0  0.00000000000E+00 -0.00000000000E+00 -0.57443617911E+02  0.57443617911E+02  0.00000000000E+00 0. -1.
          5    1    1    2  502    0 -0.29502051382E+02 -0.16837412148E+02  0.59339826755E+03  0.59438831029E+03  0.47000000000E+01 0. -1.
         -5    1    1    2    0  502  0.53953025215E+02 -0.23715120626E+02  0.98980217481E+02  0.11529314519E+03  0.47000000000E+01 0.  1.
        -11    1    1    2    0    0  0.89673893378E+00 -0.19418553067E+02  0.24734854550E+02  0.31459456028E+02  0.00000000000E+00 0.  1.
         11    1    1    2    0    0 -0.25347712767E+02  0.59971085842E+02 -0.22102441668E+02  0.68757222219E+02  0.00000000000E+00 0. -1.
<mgrwt>
<rscale>  0 0.13948588E+03</rscale>
<asrwt>0</asrwt>
<pdfrwt beam="2">  1        2 0.88374802E-02 0.15575558E+03</pdfrwt>
<pdfrwt beam="1">  1       -2 0.11576223E+00 0.15575558E+03</pdfrwt>
<totfact> 0.44897898E+02</totfact>
</mgrwt>
</event>
<event>
 6    1  0.5818426E-006  0.2379352E+03  0.7546771E-02  0.1123933E+00
         -1   -1    0    0    0  501 -0.00000000000E+00  0.00000000000E+00  0.16795149495E+03  0.16795149495E+03  0.00000000000E+00 0.  1.
          1   -1    0    0  501    0  0.00000000000E+00 -0.00000000000E+00 -0.52963507281E+03  0.52963507281E+03  0.00000000000E+00 0. -1.
          5    1    1    2  502    0 -0.63106815057E+02  0.39800981898E+02  0.14933743847E+02  0.76234473645E+02  0.47000000000E+01 0. -1.
         -5    1    1    2    0  502  0.30871716529E+02  0.16006386167E+03  0.22447145113E+02  0.16461915750E+03  0.47000000000E+01 0. -1.
        -11    1    1    2    0    0 -0.23474931383E+02 -0.50548465328E+02 -0.15988656754E+03  0.16932198389E+03  0.00000000000E+00 0. -1.
         11    1    1    2    0    0  0.55710029911E+02 -0.14931637824E+03 -0.23917789928E+03  0.28741095272E+03  0.00000000000E+00 0.  1.
<mgrwt>
<rscale>  0 0.23388784E+03</rscale>
<asrwt>0</asrwt>
<pdfrwt beam="2">  1        1 0.81482317E-01 0.23793516E+03</pdfrwt>
<pdfrwt beam="1">  1       -1 0.25838692E-01 0.23793516E+03</pdfrwt>
<totfact> 0.55384925E+02</totfact>
</mgrwt>
</event>
<event>
 6    1  0.5818426E-006  0.1547290E+03  0.7546771E-02  0.1203152E+00
          1   -1    0    0  501    0  0.00000000000E+00  0.00000000000E+00  0.17981678341E+03  0.17981678341E+03  0.00000000000E+00 0. -1.
         -1   -1    0    0    0  501 -0.00000000000E+00 -0.00000000000E+00 -0.11189273712E+03  0.11189273712E+03  0.00000000000E+00 0.  1.
          5    1    1    2  502    0  0.55766025024E+02 -0.85692968032E+02  0.27547308516E+02  0.10599093604E+03  0.47000000000E+01 0.  1.
         -5    1    1    2    0  502  0.25906686072E+02  0.45135701713E+02  0.94832932991E+01  0.53107539994E+02  0.47000000000E+01 0.  1.
        -11    1    1    2    0    0 -0.68826725016E+01 -0.89646479567E+01 -0.24642883626E+02  0.27111027409E+02  0.00000000000E+00 0.  1.
         11    1    1    2    0    0 -0.74790038595E+02  0.49521914276E+02  0.55536328100E+02  0.10550001709E+03  0.00000000000E+00 0. -1.
<mgrwt>
<rscale>  0 0.14784086E+03</rscale>
<asrwt>0</asrwt>
<pdfrwt beam="1">  1        1 0.27664121E-01 0.15472899E+03</pdfrwt>
<pdfrwt beam="2">  1       -1 0.17214267E-01 0.15472899E+03</pdfrwt>
<totfact> 0.41823227E+03</totfact>
</mgrwt>
</event>
<event>
 6    1  0.5818426E-006  0.2044778E+03  0.7546771E-02  0.1150252E+00
         -1   -1    0    0    0  501 -0.00000000000E+00  0.00000000000E+00  0.50304150620E+02  0.50304150620E+02  0.00000000000E+00 0.  1.
          1   -1    0    0  501    0  0.00000000000E+00 -0.00000000000E+00 -0.75407887473E+03  0.75407887473E+03  0.00000000000E+00 0. -1.
          5    1    1    2  502    0  0.10552028067E+03  0.49064126407E+00 -0.31355309560E+03  0.33086614230E+03  0.47000000000E+01 0.  1.
         -5    1    1    2    0  502  0.43770644644E+02  0.61963104383E+02 -0.67828423008E+02  0.10187286491E+03  0.47000000000E+01 0.  1.
        -11    1    1    2    0    0 -0.10778005740E+03 -0.50238550478E+02 -0.13765004473E+03  0.18190103777E+03  0.00000000000E+00 0.  1.
         11    1    1    2    0    0 -0.41510867916E+02 -0.12215195169E+02 -0.18474316077E+03  0.18974298037E+03  0.00000000000E+00 0. -1.
<mgrwt>
<rscale>  0 0.19939268E+03</rscale>
<asrwt>0</asrwt>
<pdfrwt beam="2">  1        1 0.11601213E+00 0.20447784E+03</pdfrwt>
<pdfrwt beam="1">  1       -1 0.77391005E-02 0.20447784E+03</pdfrwt>
<totfact> 0.22716797E+03</totfact>
</mgrwt>
</event>
<event>
 6    1  0.5818426E-006  0.1543730E+03  0.7546771E-02  0.1203767E+00
          2   -1    0    0  501    0  0.00000000000E+00  0.00000000000E+00  0.11641887380E+04  0.11641887380E+04  0.00000000000E+00 0. -1.
         -2   -1    0    0    0  501 -0.00000000000E+00 -0.00000000000E+00 -0.17140846002E+02  0.17140846002E+02  0.00000000000E+00 0.  1.
          5    1    1    2  502    0  0.93893791759E+01 -0.33852438483E+02  0.26431208816E+03  0.26667792931E+03  0.47000000000E+01 0.  1.
         -5    1    1    2    0  502 -0.98910858464E+02  0.47670245520E+02  0.35754669282E+03  0.37405552767E+03  0.47000000000E+01 0.  1.
        -11    1    1    2    0    0  0.76121428355E+02  0.19393354437E+02  0.45570603550E+03  0.46242682106E+03  0.00000000000E+00 0.  1.
         11    1    1    2    0    0  0.13400050934E+02 -0.33211161474E+02  0.69483075529E+02  0.78169305974E+02  0.00000000000E+00 0. -1.
<mgrwt>
<rscale>  0 0.14735064E+03</rscale>
<asrwt>0</asrwt>
<pdfrwt beam="1">  1        2 0.17910590E+00 0.15437299E+03</pdfrwt>
<pdfrwt beam="2">  1       -2 0.26370541E-02 0.15437299E+03</pdfrwt>
<totfact> 0.10473898E+04</totfact>
</mgrwt>
</event>
<event>
 6    1  0.5818426E-006  0.1787993E+03  0.7546771E-02  0.1174565E+00
         -4   -1    0    0    0  501 -0.00000000000E+00  0.00000000000E+00  0.42179280663E+03  0.42179280663E+03  0.00000000000E+00 0.  1.
          4   -1    0    0  501    0  0.00000000000E+00 -0.00000000000E+00 -0.79057026412E+02  0.79057026412E+02  0.00000000000E+00 0. -1.
          5    1    1    2  502    0 -0.12021126243E+02  0.57306545811E+02  0.60068290202E+02  0.84016886141E+02  0.47000000000E+01 0. -1.
         -5    1    1    2    0  502 -0.11203220915E+03 -0.26402750268E+02  0.21823330909E+03  0.24677153058E+03  0.47000000000E+01 0. -1.
        -11    1    1    2    0    0  0.56593371327E+01 -0.37333756484E+02  0.73579757547E+01  0.38470472797E+02  0.00000000000E+00 0. -1.
         11    1    1    2    0    0  0.11839399826E+03  0.64299609417E+01  0.57076205168E+02  0.13159094352E+03  0.00000000000E+00 0.  1.
<mgrwt>
<rscale>  0 0.17318618E+03</rscale>
<asrwt>0</asrwt>
<pdfrwt beam="2">  1        4 0.12162620E-01 0.17879932E+03</pdfrwt>
<pdfrwt beam="1">  1       -4 0.64891200E-01 0.17879932E+03</pdfrwt>
<totfact> 0.21310421E+02</totfact>
</mgrwt>
</event>
<event>
 6    1  0.5818426E-006  0.1256842E+03  0.7546771E-02  0.1259549E+00
         -1   -1    0    0    0  501 -0.00000000000E+00  0.00000000000E+00  0.48927882210E+03  0.48927882210E+03  0.00000000000E+00 0.  1.
          1   -1    0    0  501    0  0.00000000000E+00 -0.00000000000E+00 -0.77100197217E+02  0.77100197217E+02  0.00000000000E+00 0. -1.
          5    1    1    2  502    0  0.28336042532E+02  0.29383781069E+02  0.46180950129E+02  0.61815111835E+02  0.47000000000E+01 0.  1.
         -5    1    1    2    0  502 -0.26851809894E+02 -0.16349161145E+02  0.41406348335E+03  0.41528179952E+03  0.47000000000E+01 0.  1.
        -11    1    1    2    0    0 -0.11269135084E+02  0.76520740983E+01 -0.61334900537E+02  0.62829273969E+02  0.00000000000E+00 0. -1.
         11    1    1    2    0    0  0.97849024466E+01 -0.20686694023E+02  0.13269091937E+02  0.26452833994E+02  0.00000000000E+00 0.  1.
<mgrwt>
<rscale>  0 0.11055336E+03</rscale>
<asrwt>0</asrwt>
<pdfrwt beam="2">  1        1 0.11861569E-01 0.12568422E+03</pdfrwt>
<pdfrwt beam="1">  1       -1 0.75273663E-01 0.12568422E+03</pdfrwt>
<totfact> 0.92943747E+02</totfact>
</mgrwt>
</event>
<event>
 6    1  0.5818426E-006  0.1251990E+03  0.7546771E-02  0.1250445E+00
          2   -1    0    0  501    0  0.00000000000E+00  0.00000000000E+00  0.92924576794E+02  0.92924576794E+02  0.00000000000E+00 0. -1.
         -2   -1    0    0    0  501 -0.00000000000E+00 -0.00000000000E+00 -0.13733453474E+03  0.13733453474E+03  0.00000000000E+00 0.  1.
          5    1    1    2  502    0  0.28762738544E+02  0.51279583558E+02 -0.31535271928E+02  0.66883885906E+02  0.47000000000E+01 0.  1.
         -5    1    1    2    0  502 -0.31676101516E+02 -0.57708035377E+02 -0.26648511013E+02  0.71174615514E+02  0.47000000000E+01 0.  1.
        -11    1    1    2    0    0  0.22620226463E+02 -0.28799394607E+02 -0.18023236027E+02  0.40815644205E+02  0.00000000000E+00 0.  1.
         11    1    1    2    0    0 -0.19706863491E+02  0.35227846426E+02  0.31797061018E+02  0.51384965913E+02  0.00000000000E+00 0. -1.
<mgrwt>
<rscale>  0 0.11565354E+03</rscale>
<asrwt>0</asrwt>
<pdfrwt beam="1">  1        2 0.14296089E-01 0.12519903E+03</pdfrwt>
<pdfrwt beam="2">  1       -2 0.21128390E-01 0.12519903E+03</pdfrwt>
<totfact> 0.74100116E+03</totfact>
</mgrwt>
</event>
<event>
 6    1  0.5818426E-006  0.1157471E+03  0.7546771E-02  0.1326405E+00
          2   -1    0    0  501    0  0.00000000000E+00  0.00000000000E+00  0.28870497957E+03  0.28870497957E+03  0.00000000000E+00 0. -1.
         -2   -1    0    0    0  501 -0.00000000000E+00 -0.00000000000E+00 -0.18938243975E+02  0.18938243975E+02  0.00000000000E+00 0.  1.
          5    1    1    2  502    0 -0.54998365106E+02  0.29809994493E+02  0.14771589351E+03  0.16048529880E+03  0.47000000000E+01 0. -1.
         -5    1    1    2    0  502  0.28420670526E+02 -0.32531934909E+02  0.34946455836E+02  0.55762048721E+02  0.47000000000E+01 0.  1.
        -11    1    1    2    0    0  0.12297702661E+02  0.33696805089E+01  0.50870309201E+02  0.52444032984E+02  0.00000000000E+00 0. -1.
         11    1    1    2    0    0  0.14279991920E+02 -0.64774009271E+00  0.36234077056E+02  0.38951843044E+02  0.00000000000E+00 0.  1.
<mgrwt>
<rscale>  0 0.80940026E+02</rscale>
<asrwt>0</asrwt>
<pdfrwt beam="1">  1        2 0.44416148E-01 0.11574706E+03</pdfrwt>
<pdfrwt beam="2">  1       -2 0.29135762E-02 0.11574706E+03</pdfrwt>
<totfact> 0.45580333E+04</totfact>
</mgrwt>
</event>
<event>
 6    1  0.5818426E-006  0.2764186E+03  0.7546771E-02  0.1097661E+00
         -3   -1    0    0    0  501 -0.00000000000E+00  0.00000000000E+00  0.34205587884E+03  0.34205587884E+03  0.00000000000E+00 0.  1.
          3   -1    0    0  501    0  0.00000000000E+00 -0.00000000000E+00 -0.55844108682E+02  0.55844108682E+02  0.00000000000E+00 0. -1.
          5    1    1    2  502    0 -0.35849518960E+02  0.95885074867E+02  0.86784622083E+02  0.13428624733E+03  0.47000000000E+01 0. -1.
         -5    1    1    2    0  502  0.71656751430E+01 -0.20132868342E+02  0.11203091371E+03  0.11414768905E+03  0.47000000000E+01 0. -1.
        -11    1    1    2    0    0 -0.80400539570E+01 -0.78480623078E+02  0.37230440925E+02  0.87235064039E+02  0.00000000000E+00 0.  1.
         11    1    1    2    0    0  0.36723897774E+02  0.27284165524E+01  0.50165793433E+02  0.62230987099E+02  0.00000000000E+00 0. -1.
<mgrwt>
<rscale>  0 0.27641856E+03</rscale>
<asrwt>0</asrwt>
<pdfrwt beam="2">  1        3 0.85914015E-02 0.27641856E+03</pdfrwt>
<pdfrwt beam="1">  1       -3 0.52623980E-01 0.27641856E+03</pdfrwt>
<totfact> 0.86937108E+02</totfact>
</mgrwt>
</event>
<event>
 6    1  0.5818426E-006  0.1633191E+03  0.7546771E-02  0.1192249E+00
          1   -1    0    0  501    0  0.00000000000E+00  0.00000000000E+00  0.91679178184E+03  0.91679178184E+03  0.00000000000E+00 0. -1.
         -1   -1    0    0    0  501 -0.00000000000E+00 -0.00000000000E+00 -0.25243129384E+02  0.25243129384E+02  0.00000000000E+00 0.  1.
          5    1    1    2  502    0 -0.52177278008E+02  0.59505411256E+02  0.96319619728E+02  0.12475143868E+03  0.47000000000E+01 0.  1.
         -5    1    1    2    0  502 -0.31856421898E+02  0.36418585212E+01  0.33316882672E+03  0.33474117142E+03  0.47000000000E+01 0.  1.
        -11    1    1    2    0    0 -0.17079973353E+02 -0.23680920887E+02  0.12811112537E+03  0.13139624023E+03  0.00000000000E+00 0. -1.
         11    1    1    2    0    0  0.10111367326E+03 -0.39466348890E+02  0.33394908064E+03  0.35114606088E+03  0.00000000000E+00 0.  1.
<mgrwt>
<rscale>  0 0.15689377E+03</rscale>
<asrwt>0</asrwt>
<pdfrwt beam="1">  1        1 0.14104486E+00 0.16331911E+03</pdfrwt>
<pdfrwt beam="2">  1       -1 0.38835591E-02 0.16331911E+03</pdfrwt>
<totfact> 0.46778233E+03</totfact>
</mgrwt>
</event>
<event>
 6    1  0.5818426E-006  0.1254520E+03  0.7546771E-02  0.1250133E+00
         -3   -1    0    0    0  501 -0.00000000000E+00  0.00000000000E+00  0.47554442900E+02  0.47554442900E+02  0.00000000000E+00 0.  1.
          3   -1    0    0  501    0  0.00000000000E+00 -0.00000000000E+00 -0.25039649793E+03  0.25039649793E+03  0.00000000000E+00 0. -1.
          5    1    1    2  502    0  0.45036257145E+02 -0.39502915833E+02 -0.89323560683E+02  0.10765469479E+03  0.47000000000E+01 0.  1.
         -5    1    1    2    0  502 -0.41983196469E+02  0.29319406941E+02 -0.10070444980E+02  0.52399620907E+02  0.47000000000E+01 0.  1.
        -11    1    1    2    0    0 -0.18415999852E+02 -0.34378845259E+02 -0.69888666318E+02  0.80034240995E+02  0.00000000000E+00 0. -1.
         11    1    1    2    0    0  0.15362939176E+02  0.44562354151E+02 -0.33559383049E+02  0.57862384139E+02  0.00000000000E+00 0.  1.
<mgrwt>
<rscale>  0 0.11583357E+03</rscale>
<asrwt>0</asrwt>
<pdfrwt beam="2">  1        3 0.38522538E-01 0.12545205E+03</pdfrwt>
<pdfrwt beam="1">  1       -3 0.73160681E-02 0.12545205E+03</pdfrwt>
<totfact> 0.18665379E+03</totfact>
</mgrwt>
</event>
<event>
 6    1  0.5818426E-006  0.1537829E+03  0.7546771E-02  0.1203825E+00
         -2   -1    0    0    0  501 -0.00000000000E+00  0.00000000000E+00  0.48422083409E+02  0.48422083409E+02  0.00000000000E+00 0.  1.
          2   -1    0    0  501    0  0.00000000000E+00 -0.00000000000E+00 -0.48639696577E+03  0.48639696577E+03  0.00000000000E+00 0. -1.
          5    1    1    2  502    0  0.66933831575E+02 -0.32598405678E+02 -0.12192050968E+03  0.14293178283E+03  0.47000000000E+01 0.  1.
         -5    1    1    2    0  502  0.19634022293E+02  0.55466369030E+02 -0.10385829662E+02  0.59933032482E+02  0.47000000000E+01 0.  1.
        -11    1    1    2    0    0 -0.59914663160E+02  0.30064454865E+02 -0.19818297770E+03  0.20921312329E+03  0.00000000000E+00 0. -1.
         11    1    1    2    0    0 -0.26653190709E+02 -0.52932418217E+02 -0.10748556532E+03  0.12274111058E+03  0.00000000000E+00 0.  1.
<mgrwt>
<rscale>  0 0.14730461E+03</rscale>
<asrwt>0</asrwt>
<pdfrwt beam="2">  1        2 0.74830307E-01 0.15378285E+03</pdfrwt>
<pdfrwt beam="1">  1       -2 0.74495509E-02 0.15378285E+03</pdfrwt>
<totfact> 0.65603322E+03</totfact>
</mgrwt>
</event>
<event>
 6    1  0.5818426E-006  0.1943625E+03  0.7546771E-02  0.1158837E+00
         -1   -1    0    0    0  501 -0.00000000000E+00  0.00000000000E+00  0.37216226396E+03  0.37216226396E+03  0.00000000000E+00 0.  1.
          1   -1    0    0  501    0  0.00000000000E+00 -0.00000000000E+00 -0.10717637624E+03  0.10717637624E+03  0.00000000000E+00 0. -1.
          5    1    1    2  502    0 -0.13475504527E+03  0.43358097691E+02  0.15848421941E+03  0.21255160471E+03  0.47000000000E+01 0. -1.
         -5    1    1    2    0  502 -0.13911865514E+02 -0.50300225479E+02  0.69426534386E+02  0.86981528856E+02  0.47000000000E+01 0. -1.
        -11    1    1    2    0    0 -0.34622339125E+00  0.19941782480E+02 -0.10889982383E+02  0.22724134207E+02  0.00000000000E+00 0.  1.
         11    1    1    2    0    0  0.14901313418E+03 -0.12999654693E+02  0.47965116306E+02  0.15708137242E+03  0.00000000000E+00 0. -1.
<mgrwt>
<rscale>  0 0.18958393E+03</rscale>
<asrwt>0</asrwt>
<pdfrwt beam="2">  1        1 0.16488673E-01 0.19436251E+03</pdfrwt>
<pdfrwt beam="1">  1       -1 0.57255732E-01 0.19436251E+03</pdfrwt>
<totfact> 0.10402364E+03</totfact>
</mgrwt>
</event>
<event>
 6    1  0.5818426E-006  0.2569003E+03  0.7546771E-02  0.1111096E+00
          2   -1    0    0  501    0  0.00000000000E+00  0.00000000000E+00  0.32049080648E+03  0.32049080648E+03  0.00000000000E+00 0. -1.
         -2   -1    0    0    0  501 -0.00000000000E+00 -0.00000000000E+00 -0.19588652423E+03  0.19588652423E+03  0.00000000000E+00 0.  1.
          5    1    1    2  502    0  0.75249169480E+02 -0.45856349969E+02  0.75963366397E+02  0.11643781763E+03  0.47000000000E+01 0.  1.
         -5    1    1    2    0  502  0.14349841005E+03 -0.43829462053E+01 -0.24087422613E+02  0.14564785557E+03  0.47000000000E+01 0.  1.
        -11    1    1    2    0    0 -0.79668229646E+02  0.26332312481E+02  0.75891891362E+02  0.11313707027E+03  0.00000000000E+00 0. -1.
         11    1    1    2    0    0 -0.13907934988E+03  0.23906983693E+02 -0.31635528963E+01  0.14115458724E+03  0.00000000000E+00 0.  1.
<mgrwt>
<rscale>  0 0.25352677E+03</rscale>
<asrwt>0</asrwt>
<pdfrwt beam="1">  1        2 0.49306278E-01 0.25690034E+03</pdfrwt>
<pdfrwt beam="2">  1       -2 0.30136388E-01 0.25690034E+03</pdfrwt>
<totfact> 0.10323152E+03</totfact>
</mgrwt>
</event>
<event>
 6    1  0.5818426E-006  0.1806005E+03  0.7546771E-02  0.1195965E+00
         -2   -1    0    0    0  501 -0.00000000000E+00  0.00000000000E+00  0.33311733201E+03  0.33311733201E+03  0.00000000000E+00 0.  1.
          2   -1    0    0  501    0  0.00000000000E+00 -0.00000000000E+00 -0.57617753877E+02  0.57617753877E+02  0.00000000000E+00 0. -1.
          5    1    1    2  502    0 -0.16344709469E+02 -0.84909048589E+02  0.16675919804E+03  0.18790267745E+03  0.47000000000E+01 0. -1.
         -5    1    1    2    0  502  0.34994425480E+02  0.65802192401E+02  0.33747898630E+02  0.81948453319E+02  0.47000000000E+01 0.  1.
        -11    1    1    2    0    0 -0.14658492483E+02  0.46927522064E+02  0.10133293534E+02  0.50197085242E+02  0.00000000000E+00 0.  1.
         11    1    1    2    0    0 -0.39912235275E+01 -0.27820665875E+02  0.64859187925E+02  0.70686869879E+02  0.00000000000E+00 0. -1.
<mgrwt>
<rscale>  0 0.15372817E+03</rscale>
<asrwt>0</asrwt>
<pdfrwt beam="2">  1        2 0.88642701E-02 0.18060049E+03</pdfrwt>
<pdfrwt beam="1">  1       -2 0.51248819E-01 0.18060049E+03</pdfrwt>
<totfact> 0.26626428E+03</totfact>
</mgrwt>
</event>
<event>
 6    1  0.5818426E-006  0.1385518E+03  0.7546771E-02  0.1222069E+00
          3   -1    0    0  501    0  0.00000000000E+00  0.00000000000E+00  0.14585403815E+03  0.14585403815E+03  0.00000000000E+00 0. -1.
         -3   -1    0    0    0  501 -0.00000000000E+00 -0.00000000000E+00 -0.12292105347E+03  0.12292105347E+03  0.00000000000E+00 0.  1.
          5    1    1    2  502    0  0.17048527907E+01 -0.35683649000E+02  0.78530493143E+01  0.36878038350E+02  0.47000000000E+01 0. -1.
         -5    1    1    2    0  502 -0.78042290700E+02  0.60642883818E+02 -0.30294265852E+02  0.10347942326E+03  0.47000000000E+01 0.  1.
        -11    1    1    2    0    0  0.82002365905E+02 -0.50015322383E+01  0.61100236984E+02  0.10238477572E+03  0.00000000000E+00 0. -1.
         11    1    1    2    0    0 -0.56649279962E+01 -0.19957702580E+02 -0.15726035765E+02  0.26032854287E+02  0.00000000000E+00 0.  1.
<mgrwt>
<rscale>  0 0.13369834E+03</rscale>
<asrwt>0</asrwt>
<pdfrwt beam="1">  1        3 0.22439083E-01 0.13855183E+03</pdfrwt>
<pdfrwt beam="2">  1       -3 0.18910931E-01 0.13855183E+03</pdfrwt>
<totfact> 0.10469466E+03</totfact>
</mgrwt>
</event>
<event>
 6    1  0.5818426E-006  0.3053424E+03  0.7546771E-02  0.1082600E+00
          2   -1    0    0  501    0  0.00000000000E+00  0.00000000000E+00  0.49624649984E+02  0.49624649984E+02  0.00000000000E+00 0. -1.
         -2   -1    0    0    0  501 -0.00000000000E+00 -0.00000000000E+00 -0.46969586625E+03  0.46969586625E+03  0.00000000000E+00 0.  1.
          5    1    1    2  502    0  0.13134198702E+03 -0.67405167819E+01 -0.18887344954E+03  0.23019865782E+03  0.47000000000E+01 0.  1.
         -5    1    1    2    0  502 -0.26658710022E+02 -0.18316113276E+01 -0.78773290284E+02  0.83314841908E+02  0.47000000000E+01 0.  1.
        -11    1    1    2    0    0 -0.31813322255E+02  0.97041271869E+01  0.37439043471E+01  0.33470500103E+02  0.00000000000E+00 0. -1.
         11    1    1    2    0    0 -0.72869954747E+02 -0.11319990774E+01 -0.15616838079E+03  0.17233651640E+03  0.00000000000E+00 0.  1.
<mgrwt>
<rscale>  0 0.30534238E+03</rscale>
<asrwt>0</asrwt>
<pdfrwt beam="1">  1        2 0.76345614E-02 0.30534238E+03</pdfrwt>
<pdfrwt beam="2">  1       -2 0.72260904E-01 0.30534238E+03</pdfrwt>
<totfact> 0.16111094E+03</totfact>
</mgrwt>
</event>
<event>
 6    1  0.5818426E-006  0.1265026E+03  0.7546771E-02  0.1248090E+00
          4   -1    0    0  501    0  0.00000000000E+00  0.00000000000E+00  0.46661854566E+02  0.46661854566E+02  0.00000000000E+00 0. -1.
         -4   -1    0    0    0  501 -0.00000000000E+00 -0.00000000000E+00 -0.41789569665E+03  0.41789569665E+03  0.00000000000E+00 0.  1.
          5    1    1    2  502    0 -0.52306349747E+00  0.38419612450E+02 -0.33302491538E+03  0.33526709424E+03  0.47000000000E+01 0.  1.
         -5    1    1    2    0  502  0.15630371147E+02 -0.25898520628E+02 -0.13186422491E+02  0.33331870800E+02  0.47000000000E+01 0.  1.
        -11    1    1    2    0    0 -0.32978240013E+02 -0.31130824044E+02  0.15493956385E+02  0.47924473962E+02  0.00000000000E+00 0. -1.
         11    1    1    2    0    0  0.17870932364E+02  0.18609732222E+02 -0.40516460602E+02  0.48034112219E+02  0.00000000000E+00 0.  1.
<mgrwt>
<rscale>  0 0.11702339E+03</rscale>
<asrwt>0</asrwt>
<pdfrwt beam="1">  1        4 0.71787466E-02 0.12650260E+03</pdfrwt>
<pdfrwt beam="2">  1       -4 0.64291648E-01 0.12650260E+03</pdfrwt>
<totfact> 0.49567620E+02</totfact>
</mgrwt>
</event>
<event>
 6    1  0.5818426E-006  0.1268913E+03  0.7546771E-02  0.1246571E+00
         -1   -1    0    0    0  501 -0.00000000000E+00  0.00000000000E+00  0.12706405638E+03  0.12706405638E+03  0.00000000000E+00 0.  1.
          1   -1    0    0  501    0  0.00000000000E+00 -0.00000000000E+00 -0.96749043729E+02  0.96749043729E+02  0.00000000000E+00 0. -1.
          5    1    1    2  502    0  0.23293690365E+02  0.12885545479E+02 -0.45003134393E+02  0.52497670409E+02  0.47000000000E+01 0. -1.
         -5    1    1    2    0  502 -0.39297681398E+02 -0.27728300274E+02  0.57346509271E+02  0.74992523127E+02  0.47000000000E+01 0. -1.
        -11    1    1    2    0    0  0.82093180082E+01 -0.33209794503E+02  0.30744318940E+02  0.45994526850E+02  0.00000000000E+00 0.  1.
         11    1    1    2    0    0  0.77946730247E+01  0.48052549298E+02 -0.12772681165E+02  0.50328379725E+02  0.00000000000E+00 0. -1.
<mgrwt>
<rscale>  0 0.11791871E+03</rscale>
<asrwt>0</asrwt>
<pdfrwt beam="2">  1        1 0.14884468E-01 0.12689125E+03</pdfrwt>
<pdfrwt beam="1">  1       -1 0.19548316E-01 0.12689125E+03</pdfrwt>
<totfact> 0.74163510E+03</totfact>
</mgrwt>
</event>
<event>
 6    1  0.5818426E-006  0.1320854E+03  0.7546771E-02  0.1236658E+00
         -2   -1    0    0    0  501 -0.00000000000E+00  0.00000000000E+00  0.28426531415E+02  0.28426531415E+02  0.00000000000E+00 0.  1.
          2   -1    0    0  501    0  0.00000000000E+00 -0.00000000000E+00 -0.48494642817E+03  0.48494642817E+03  0.00000000000E+00 0. -1.
          5    1    1    2  502    0 -0.59195082385E+02 -0.93128140600E+01 -0.91195547126E+02  0.10922226925E+03  0.47000000000E+01 0. -1.
         -5    1    1    2    0  502  0.48374670150E+02  0.50611278040E+02 -0.15582266530E+03  0.17089295831E+03  0.47000000000E+01 0. -1.
        -11    1    1    2    0    0  0.31139711967E+02  0.10423776879E+02 -0.27092256008E+02  0.42571435510E+02  0.00000000000E+00 0.  1.
         11    1    1    2    0    0 -0.20319299732E+02 -0.51722240859E+02 -0.18240942832E+03  0.19068629652E+03  0.00000000000E+00 0. -1.
<mgrwt>
<rscale>  0 0.12398918E+03</rscale>
<asrwt>0</asrwt>
<pdfrwt beam="2">  1        2 0.74607133E-01 0.13208536E+03</pdfrwt>
<pdfrwt beam="1">  1       -2 0.43733131E-02 0.13208536E+03</pdfrwt>
<totfact> 0.14597009E+04</totfact>
</mgrwt>
</event>
<event>
 6    1  0.5818426E-006  0.1524660E+03  0.7546771E-02  0.1206149E+00
         -2   -1    0    0    0  501 -0.00000000000E+00  0.00000000000E+00  0.35112931485E+02  0.35112931485E+02  0.00000000000E+00 0.  1.
          2   -1    0    0  501    0  0.00000000000E+00 -0.00000000000E+00 -0.55729783276E+03  0.55729783276E+03  0.00000000000E+00 0. -1.
          5    1    1    2  502    0 -0.18472368589E+02  0.92784684705E+02 -0.17366756422E+03  0.19781996608E+03  0.47000000000E+01 0. -1.
         -5    1    1    2    0  502 -0.45965967234E+02 -0.33887716238E+02 -0.87432742504E+02  0.10453622299E+03  0.47000000000E+01 0. -1.
        -11    1    1    2    0    0 -0.78741754774E+01 -0.44076235864E+02 -0.53656127622E+02  0.69883454686E+02  0.00000000000E+00 0.  1.
         11    1    1    2    0    0  0.72312511300E+02 -0.14820732604E+02 -0.20742846693E+03  0.22017112049E+03  0.00000000000E+00 0. -1.
<mgrwt>
<rscale>  0 0.14547254E+03</rscale>
<asrwt>0</asrwt>
<pdfrwt beam="2">  1        2 0.85738121E-01 0.15246605E+03</pdfrwt>
<pdfrwt beam="1">  1       -2 0.54019899E-02 0.15246605E+03</pdfrwt>
<totfact> 0.92057012E+03</totfact>
</mgrwt>
</event>
<event>
 6    1  0.5818426E-006  0.1337484E+03  0.7546771E-02  0.1237065E+00
          1   -1    0    0  501    0  0.00000000000E+00  0.00000000000E+00  0.32844565601E+03  0.32844565601E+03  0.00000000000E+00 0. -1.
         -1   -1    0    0    0  501 -0.00000000000E+00 -0.00000000000E+00 -0.60555175620E+02  0.60555175620E+02  0.00000000000E+00 0.  1.
          5    1    1    2  502    0 -0.47735524253E+02 -0.76162855839E+02  0.34068282707E+02  0.96240317809E+02  0.47000000000E+01 0. -1.
         -5    1    1    2    0  502  0.21579394357E+02  0.36430102584E+02  0.38291226813E+01  0.42773529380E+02  0.47000000000E+01 0. -1.
        -11    1    1    2    0    0 -0.19023129527E+02  0.27815762614E+02  0.31707111019E+02  0.46270260383E+02  0.00000000000E+00 0.  1.
         11    1    1    2    0    0  0.45179259422E+02  0.11916990641E+02  0.19828596399E+03  0.20371672406E+03  0.00000000000E+00 0. -1.
<mgrwt>
<rscale>  0 0.12373187E+03</rscale>
<asrwt>0</asrwt>
<pdfrwt beam="1">  1        1 0.50530100E-01 0.13374841E+03</pdfrwt>
<pdfrwt beam="2">  1       -1 0.93161811E-02 0.13374841E+03</pdfrwt>
<totfact> 0.50921437E+03</totfact>
</mgrwt>
</event>
<event>
 6    1  0.5818426E-006  0.1904793E+03  0.7546771E-02  0.1162745E+00
         -2   -1    0    0    0  501 -0.00000000000E+00  0.00000000000E+00  0.91331519177E+02  0.91331519177E+02  0.00000000000E+00 0.  1.
          2   -1    0    0  501    0  0.00000000000E+00 -0.00000000000E+00 -0.51560887312E+03  0.51560887312E+03  0.00000000000E+00 0. -1.
          5    1    1    2  502    0 -0.15832327665E+03 -0.16122522313E+02 -0.68917826350E+02  0.17348761467E+03  0.47000000000E+01 0.  1.
         -5    1    1    2    0  502  0.15891961907E+02 -0.41299952796E+01  0.16837348459E+02  0.23983277870E+02  0.47000000000E+01 0.  1.
        -11    1    1    2    0    0  0.14228327761E+03  0.35357844156E+01 -0.36402922541E+03  0.39086354372E+03  0.00000000000E+00 0. -1.
         11    1    1    2    0    0  0.14803712879E+00  0.16716733177E+02 -0.81676506460E+01  0.18605956041E+02  0.00000000000E+00 0.  1.
<mgrwt>
<rscale>  0 0.18532642E+03</rscale>
<asrwt>0</asrwt>
<pdfrwt beam="2">  1        2 0.79324444E-01 0.19047934E+03</pdfrwt>
<pdfrwt beam="1">  1       -2 0.14051003E-01 0.19047934E+03</pdfrwt>
<totfact> 0.22696770E+03</totfact>
</mgrwt>
</event>
<event>
 6    1  0.5818426E-006  0.2659875E+03  0.7546771E-02  0.1103598E+00
         -1   -1    0    0    0  501 -0.00000000000E+00  0.00000000000E+00  0.56905149914E+02  0.56905149914E+02  0.00000000000E+00 0.  1.
          1   -1    0    0  501    0  0.00000000000E+00 -0.00000000000E+00 -0.31082138946E+03  0.31082138946E+03  0.00000000000E+00 0. -1.
          5    1    1    2  502    0 -0.14627895544E+02 -0.87341255840E+02 -0.15112800310E+03  0.17522623554E+03  0.47000000000E+01 0.  1.
         -5    1    1    2    0  502 -0.57703494499E+01  0.12548383303E+02  0.17994981349E+02  0.23166100450E+02  0.47000000000E+01 0.  1.
        -11    1    1    2    0    0 -0.34805553393E+02  0.37409251639E+02 -0.62928852534E+02  0.81061206113E+02  0.00000000000E+00 0. -1.
         11    1    1    2    0    0  0.55203798386E+02  0.37383620897E+02 -0.57854365257E+02  0.88272997270E+02  0.00000000000E+00 0.  1.
<mgrwt>
<rscale>  0 0.26598750E+03</rscale>
<asrwt>0</asrwt>
<pdfrwt beam="2">  1        1 0.47818674E-01 0.26598750E+03</pdfrwt>
<pdfrwt beam="1">  1       -1 0.87546387E-02 0.26598750E+03</pdfrwt>
<totfact> 0.62223915E+03</totfact>
</mgrwt>
</event>
<event>
 6    1  0.5818426E-006  0.2262002E+03  0.7546771E-02  0.1132739E+00
         -2   -1    0    0    0  501 -0.00000000000E+00  0.00000000000E+00  0.11388900580E+03  0.11388900580E+03  0.00000000000E+00 0.  1.
          2   -1    0    0  501    0  0.00000000000E+00 -0.00000000000E+00 -0.41470426275E+03  0.41470426275E+03  0.00000000000E+00 0. -1.
          5    1    1    2  502    0 -0.45353739795E+02  0.90564350826E+02 -0.10892400591E+03  0.14881328038E+03  0.47000000000E+01 0.  1.
         -5    1    1    2    0  502  0.60520703605E+02  0.97333336296E+02 -0.37682278816E+02  0.12074178256E+03  0.47000000000E+01 0.  1.
        -11    1    1    2    0    0  0.80319160534E+01 -0.13579421697E+03 -0.59485426661E+02  0.14846917869E+03  0.00000000000E+00 0.  1.
         11    1    1    2    0    0 -0.23198879863E+02 -0.52103470156E+02 -0.94723545560E+02  0.11056902691E+03  0.00000000000E+00 0. -1.
<mgrwt>
<rscale>  0 0.22154210E+03</rscale>
<asrwt>0</asrwt>
<pdfrwt beam="2">  1        2 0.63800656E-01 0.22620020E+03</pdfrwt>
<pdfrwt beam="1">  1       -2 0.17521385E-01 0.22620020E+03</pdfrwt>
<totfact> 0.20099426E+03</totfact>
</mgrwt>
</event>
<event>
 6    1  0.5818426E-006  0.3010624E+03  0.7546771E-02  0.1084711E+00
          2   -1    0    0  501    0  0.00000000000E+00  0.00000000000E+00  0.95757064722E+02  0.95757064722E+02  0.00000000000E+00 0. -1.
         -2   -1    0    0    0  501 -0.00000000000E+00 -0.00000000000E+00 -0.23663670556E+03  0.23663670556E+03  0.00000000000E+00 0.  1.
          5    1    1    2  502    0  0.14899925473E+02 -0.56189396338E+01  0.18997870222E+02  0.25230722040E+02  0.47000000000E+01 0. -1.
         -5    1    1    2    0  502 -0.11654099412E+03 -0.14353377407E+02 -0.10954482580E+03  0.16065485244E+03  0.47000000000E+01 0. -1.
        -11    1    1    2    0    0  0.85515710007E+02 -0.18212029069E+02 -0.88731702300E+01  0.87882579677E+02  0.00000000000E+00 0.  1.
         11    1    1    2    0    0  0.16125358641E+02  0.38184346109E+02 -0.41459515029E+02  0.58625616121E+02  0.00000000000E+00 0. -1.
<mgrwt>
<rscale>  0 0.30106236E+03</rscale>
<asrwt>0</asrwt>
<pdfrwt beam="1">  1        2 0.14731856E-01 0.30106236E+03</pdfrwt>
<pdfrwt beam="2">  1       -2 0.36405647E-01 0.30106236E+03</pdfrwt>
<totfact> 0.28388331E+03</totfact>
</mgrwt>
</event>
<event>
 6    1  0.5818426E-006  0.1504157E+03  0.7546771E-02  0.1211690E+00
          1   -1    0    0  501    0  0.00000000000E+00  0.00000000000E+00  0.23337287307E+03  0.23337287307E+03  0.00000000000E+00 0. -1.
         -1   -1    0    0    0  501 -0.00000000000E+00 -0.00000000000E+00 -0.12968722652E+03  0.12968722652E+03  0.00000000000E+00 0.  1.
          5    1    1    2  502    0 -0.24323890351E+02  0.73999486629E+02 -0.94673077704E+02  0.12268927135E+03  0.47000000000E+01 0. -1.
         -5    1    1    2    0  502 -0.17676226648E+02 -0.15959793886E+01  0.34687152002E+02  0.39246460385E+02  0.47000000000E+01 0. -1.
        -11    1    1    2    0    0  0.59401941021E+02 -0.77199149400E+02  0.14822591191E+03  0.17736747229E+03  0.00000000000E+00 0. -1.
         11    1    1    2    0    0 -0.17401824022E+02  0.47956421591E+01  0.15445660346E+02  0.23756895557E+02  0.00000000000E+00 0.  1.
<mgrwt>
<rscale>  0 0.14122499E+03</rscale>
<asrwt>0</asrwt>
<pdfrwt beam="1">  1        1 0.35903519E-01 0.15041566E+03</pdfrwt>
<pdfrwt beam="2">  1       -1 0.19951881E-01 0.15041566E+03</pdfrwt>
<totfact> 0.23835514E+03</totfact>
</mgrwt>
</event>
<event>
 6    1  0.5818426E-006  0.1305649E+03  0.7546771E-02  0.1240267E+00
          2   -1    0    0  501    0  0.00000000000E+00  0.00000000000E+00  0.55425720151E+03  0.55425720151E+03  0.00000000000E+00 0. -1.
         -2   -1    0    0    0  501 -0.00000000000E+00 -0.00000000000E+00 -0.23728180518E+02  0.23728180518E+02  0.00000000000E+00 0.  1.
          5    1    1    2  502    0  0.26318904811E+02  0.42944664193E+02  0.10109195899E+03  0.11304248363E+03  0.47000000000E+01 0. -1.
         -5    1    1    2    0  502 -0.11967084772E+02 -0.77824355080E+02  0.21086493865E+03  0.22513541195E+03  0.47000000000E+01 0. -1.
        -11    1    1    2    0    0  0.31347818284E+02  0.20587212415E+02  0.39599328852E+02  0.54540130837E+02  0.00000000000E+00 0.  1.
         11    1    1    2    0    0 -0.45699638323E+02  0.14292478472E+02  0.17897279450E+03  0.18526735561E+03  0.00000000000E+00 0. -1.
<mgrwt>
<rscale>  0 0.12173217E+03</rscale>
<asrwt>0</asrwt>
<pdfrwt beam="1">  1        2 0.85270329E-01 0.13056486E+03</pdfrwt>
<pdfrwt beam="2">  1       -2 0.36504897E-02 0.13056486E+03</pdfrwt>
<totfact> 0.16455781E+04</totfact>
</mgrwt>
</event>
<event>
 6    1  0.5818426E-006  0.1750960E+03  0.7546771E-02  0.1178900E+00
          1   -1    0    0  501    0  0.00000000000E+00  0.00000000000E+00  0.63408707521E+03  0.63408707521E+03  0.00000000000E+00 0. -1.
         -1   -1    0    0    0  501 -0.00000000000E+00 -0.00000000000E+00 -0.54184001525E+02  0.54184001525E+02  0.00000000000E+00 0.  1.
          5    1    1    2  502    0  0.30514962270E+02  0.29563533833E+02 -0.29934791408E+01  0.42851095347E+02  0.47000000000E+01 0. -1.
         -5    1    1    2    0  502  0.85254309478E+02 -0.69951890899E+02  0.14717652455E+03  0.18396897484E+03  0.47000000000E+01 0. -1.
        -11    1    1    2    0    0 -0.27072831063E+02  0.49090964806E+02  0.10616443874E+03  0.12005727408E+03  0.00000000000E+00 0.  1.
         11    1    1    2    0    0 -0.88696440685E+02 -0.87026077396E+01  0.32955558955E+03  0.34139373248E+03  0.00000000000E+00 0. -1.
<mgrwt>
<rscale>  0 0.16899487E+03</rscale>
<asrwt>0</asrwt>
<pdfrwt beam="1">  1        1 0.97551852E-01 0.17509596E+03</pdfrwt>
<pdfrwt beam="2">  1       -1 0.83360007E-02 0.17509596E+03</pdfrwt>
<totfact> 0.25956226E+03</totfact>
</mgrwt>
</event>
<event>
 6    1  0.5818426E-006  0.1425086E+03  0.7546771E-02  0.1231180E+00
          2   -1    0    0  501    0  0.00000000000E+00  0.00000000000E+00  0.29351663020E+03  0.29351663020E+03  0.00000000000E+00 0. -1.
         -2   -1    0    0    0  501 -0.00000000000E+00 -0.00000000000E+00 -0.47811567697E+02  0.47811567697E+02  0.00000000000E+00 0.  1.
          5    1    1    2  502    0 -0.17839405772E+02  0.63416568416E+02  0.14684172229E+03  0.16101082869E+03  0.47000000000E+01 0. -1.
         -5    1    1    2    0  502  0.90044373838E+01  0.44538337324E+01 -0.24445817999E+02  0.26844078400E+02  0.47000000000E+01 0. -1.
        -11    1    1    2    0    0  0.76929698269E+01 -0.44552480540E+02  0.12198035888E+03  0.13008963548E+03  0.00000000000E+00 0. -1.
         11    1    1    2    0    0  0.11419985611E+01 -0.23317921609E+02  0.13287993253E+01  0.23383655328E+02  0.00000000000E+00 0.  1.
<mgrwt>
<rscale>  0 0.12752183E+03</rscale>
<asrwt>0</asrwt>
<pdfrwt beam="1">  1        2 0.45156404E-01 0.14250863E+03</pdfrwt>
<pdfrwt beam="2">  1       -2 0.73556260E-02 0.14250863E+03</pdfrwt>
<totfact> 0.11440080E+04</totfact>
</mgrwt>
</event>
<event>
 6    1  0.5818426E-006  0.5755138E+03  0.7546771E-02  0.9957551E-01
         -2   -1    0    0    0  501 -0.00000000000E+00  0.00000000000E+00  0.12615764526E+03  0.12615764526E+03  0.00000000000E+00 0.  1.
          2   -1    0    0  501    0  0.00000000000E+00 -0.00000000000E+00 -0.65635372400E+03  0.65635372400E+03  0.00000000000E+00 0. -1.
          5    1    1    2  502    0  0.31877001000E+02 -0.85008737782E+01 -0.73619590898E+01  0.34127649925E+02  0.47000000000E+01 0. -1.
         -5    1    1    2    0  502  0.18175290350E+02  0.14247402784E+03  0.49381530980E+02  0.15195333293E+03  0.47000000000E+01 0.  1.
        -11    1    1    2    0    0 -0.65033411935E+02 -0.88563201407E+02 -0.48156780742E+03  0.49394365919E+03  0.00000000000E+00 0. -1.
         11    1    1    2    0    0  0.14981120585E+02 -0.45409952653E+02 -0.90647843214E+02  0.10248672720E+03  0.00000000000E+00 0.  1.
<mgrwt>
<rscale>  0 0.57551382E+03</rscale>
<asrwt>0</asrwt>
<pdfrwt beam="2">  1        2 0.10097749E+00 0.57551382E+03</pdfrwt>
<pdfrwt beam="1">  1       -2 0.19408869E-01 0.57551382E+03</pdfrwt>
<totfact> 0.10030539E+03</totfact>
</mgrwt>
</event>
<event>
 6    1  0.5818426E-006  0.2871406E+03  0.7546771E-02  0.1093206E+00
          1   -1    0    0  501    0  0.00000000000E+00  0.00000000000E+00  0.25700446127E+03  0.25700446127E+03  0.00000000000E+00 0. -1.
         -1   -1    0    0    0  501 -0.00000000000E+00 -0.00000000000E+00 -0.31064670084E+03  0.31064670084E+03  0.00000000000E+00 0.  1.
          5    1    1    2  502    0 -0.67945849893E+02 -0.47838097954E+01  0.43419278347E+02  0.80912589169E+02  0.47000000000E+01 0. -1.
         -5    1    1    2    0  502 -0.15771388979E+03 -0.12132504703E+03 -0.54847813037E+02  0.20645534787E+03  0.47000000000E+01 0. -1.
        -11    1    1    2    0    0  0.13811429482E+03  0.12212919480E+03 -0.33001763386E+01  0.18439628472E+03  0.00000000000E+00 0.  1.
         11    1    1    2    0    0  0.87545444866E+02  0.39796620262E+01 -0.38913528539E+02  0.95886940351E+02  0.00000000000E+00 0. -1.
<mgrwt>
<rscale>  0 0.28459326E+03</rscale>
<asrwt>0</asrwt>
<pdfrwt beam="1">  1        1 0.39539148E-01 0.28714059E+03</pdfrwt>
<pdfrwt beam="2">  1       -1 0.47791800E-01 0.28714059E+03</pdfrwt>
<totfact> 0.47831500E+02</totfact>
</mgrwt>
</event>
<event>
 6    1  0.5818426E-006  0.1674568E+03  0.7546771E-02  0.1194108E+00
          1   -1    0    0  501    0  0.00000000000E+00  0.00000000000E+00  0.22647136333E+03  0.22647136333E+03  0.00000000000E+00 0. -1.
         -1   -1    0    0    0  501 -0.00000000000E+00 -0.00000000000E+00 -0.10340884978E+04  0.10340884978E+04  0.00000000000E+00 0.  1.
          5    1    1    2  502    0  0.16476820811E+02 -0.49644710970E+00 -0.74254337748E+01  0.18680448349E+02  0.47000000000E+01 0. -1.
         -5    1    1    2    0  502  0.37369387565E+02  0.60604524876E+02 -0.10022967769E+04  0.10048334681E+04  0.47000000000E+01 0.  1.
        -11    1    1    2    0    0 -0.17429080702E+02 -0.65170669615E+01 -0.56299348352E+01  0.19440709404E+02  0.00000000000E+00 0.  1.
         11    1    1    2    0    0 -0.36417127674E+02 -0.53591010805E+02  0.20773501103E+03  0.21760523531E+03  0.00000000000E+00 0. -1.
<mgrwt>
<rscale>  0 0.15529970E+03</rscale>
<asrwt>0</asrwt>
<pdfrwt beam="1">  1        1 0.34841747E-01 0.16745684E+03</pdfrwt>
<pdfrwt beam="2">  1       -1 0.15909054E+00 0.16745684E+03</pdfrwt>
<totfact> 0.42043118E+01</totfact>
</mgrwt>
</event>
<event>
 6    1  0.5818426E-006  0.1278061E+03  0.7546771E-02  0.1245436E+00
         -1   -1    0    0    0  501 -0.00000000000E+00  0.00000000000E+00  0.14635613009E+03  0.14635613009E+03  0.00000000000E+00 0.  1.
          1   -1    0    0  501    0  0.00000000000E+00 -0.00000000000E+00 -0.15227856305E+03  0.15227856305E+03  0.00000000000E+00 0. -1.
          5    1    1    2  502    0 -0.43882388047E+02 -0.37427511559E+02  0.61961145639E+02  0.84780635590E+02  0.47000000000E+01 0. -1.
         -5    1    1    2    0  502  0.29473130558E+02  0.59825283380E+02  0.33759893500E+02  0.74896931616E+02  0.47000000000E+01 0. -1.
        -11    1    1    2    0    0  0.47469435535E+02 -0.32031297546E+02 -0.79644115991E+02  0.98094528617E+02  0.00000000000E+00 0. -1.
         11    1    1    2    0    0 -0.33060178047E+02  0.96335257255E+01 -0.21999356104E+02  0.40862597315E+02  0.00000000000E+00 0.  1.
<mgrwt>
<rscale>  0 0.11859308E+03</rscale>
<asrwt>0</asrwt>
<pdfrwt beam="2">  1        1 0.23427471E-01 0.12780613E+03</pdfrwt>
<pdfrwt beam="1">  1       -1 0.22516328E-01 0.12780613E+03</pdfrwt>
<totfact> 0.33150241E+03</totfact>
</mgrwt>
</event>
<event>
 6    1  0.5818426E-006  0.1357918E+03  0.7546771E-02  0.1229470E+00
         -1   -1    0    0    0  501 -0.00000000000E+00  0.00000000000E+00  0.28273757508E+03  0.28273757508E+03  0.00000000000E+00 0.  1.
          1   -1    0    0  501    0  0.00000000000E+00 -0.00000000000E+00 -0.54606714486E+02  0.54606714486E+02  0.00000000000E+00 0. -1.
          5    1    1    2  502    0  0.45427634280E+02 -0.18560263715E+02  0.17016047184E+03  0.17715764031E+03  0.47000000000E+01 0.  1.
         -5    1    1    2    0  502 -0.85554424770E+01 -0.19612814208E+02 -0.16853915153E+02  0.27640595744E+02  0.47000000000E+01 0.  1.
        -11    1    1    2    0    0 -0.49979348738E+02  0.21366174491E+02  0.90857596597E+02  0.10587516976E+03  0.00000000000E+00 0.  1.
         11    1    1    2    0    0  0.13107156935E+02  0.16806903432E+02 -0.16033292683E+02  0.26670883753E+02  0.00000000000E+00 0. -1.
<mgrwt>
<rscale>  0 0.12865183E+03</rscale>
<asrwt>0</asrwt>
<pdfrwt beam="2">  1        1 0.84010332E-02 0.13579182E+03</pdfrwt>
<pdfrwt beam="1">  1       -1 0.43498088E-01 0.13579182E+03</pdfrwt>
<totfact> 0.41339778E+03</totfact>
</mgrwt>
</event>
<event>
 6    1  0.5818426E-006  0.1264737E+03  0.7546771E-02  0.1250172E+00
         -1   -1    0    0    0  501 -0.00000000000E+00  0.00000000000E+00  0.35757800502E+02  0.35757800502E+02  0.00000000000E+00 0.  1.
          1   -1    0    0  501    0  0.00000000000E+00 -0.00000000000E+00 -0.37750731308E+03  0.37750731308E+03  0.00000000000E+00 0. -1.
          5    1    1    2  502    0 -0.11232984506E+01 -0.54449059535E+02 -0.51184641275E+02  0.74886042666E+02  0.47000000000E+01 0.  1.
         -5    1    1    2    0  502 -0.85581491264E+01  0.71139910282E+02 -0.68781224141E+02  0.99433774673E+02  0.47000000000E+01 0.  1.
        -11    1    1    2    0    0  0.39173600467E+02 -0.34920427074E+02 -0.10941468295E+03  0.12134900101E+03  0.00000000000E+00 0.  1.
         11    1    1    2    0    0 -0.29492152890E+02  0.18229576327E+02 -0.11236896421E+03  0.11759629524E+03  0.00000000000E+00 0. -1.
<mgrwt>
<rscale>  0 0.11581123E+03</rscale>
<asrwt>0</asrwt>
<pdfrwt beam="2">  1        1 0.58078047E-01 0.12647367E+03</pdfrwt>
<pdfrwt beam="1">  1       -1 0.55012002E-02 0.12647367E+03</pdfrwt>
<totfact> 0.93978108E+03</totfact>
</mgrwt>
</event>
<event>
 6    1  0.5818426E-006  0.1746193E+03  0.7546771E-02  0.1179076E+00
         -2   -1    0    0    0  501 -0.00000000000E+00  0.00000000000E+00  0.22597881619E+03  0.22597881619E+03  0.00000000000E+00 0.  1.
          2   -1    0    0  501    0  0.00000000000E+00 -0.00000000000E+00 -0.35072382281E+03  0.35072382281E+03  0.00000000000E+00 0. -1.
          5    1    1    2  502    0  0.36906978003E+02 -0.34388643144E+00 -0.42402486438E+01  0.37447469765E+02  0.47000000000E+01 0.  1.
         -5    1    1    2    0  502  0.19790812624E+02  0.10828829696E+03  0.17493417107E+03  0.20674159168E+03  0.47000000000E+01 0.  1.
        -11    1    1    2    0    0 -0.55664476537E+01 -0.44892923623E+02 -0.20937088556E+03  0.21420207200E+03  0.00000000000E+00 0. -1.
         11    1    1    2    0    0 -0.51131342974E+02 -0.63051486905E+02 -0.86068043497E+02  0.11831150556E+03  0.00000000000E+00 0.  1.
<mgrwt>
<rscale>  0 0.16882804E+03</rscale>
<asrwt>0</asrwt>
<pdfrwt beam="2">  1        2 0.53957511E-01 0.17461925E+03</pdfrwt>
<pdfrwt beam="1">  1       -2 0.34765972E-01 0.17461925E+03</pdfrwt>
<totfact> 0.71762003E+02</totfact>
</mgrwt>
</event>
<event>
 6    1  0.5818426E-006  0.2657565E+03  0.7546771E-02  0.1103733E+00
         -1   -1    0    0    0  501 -0.00000000000E+00  0.00000000000E+00  0.34170820952E+03  0.34170820952E+03  0.00000000000E+00 0.  1.
          1   -1    0    0  501    0  0.00000000000E+00 -0.00000000000E+00 -0.51671669425E+02  0.51671669425E+02  0.00000000000E+00 0. -1.
          5    1    1    2  502    0 -0.21790587317E+01  0.11742843002E+02 -0.11950504662E+02  0.17537024275E+02  0.47000000000E+01 0.  1.
         -5    1    1    2    0  502  0.43187632744E+02 -0.63203663800E+02  0.22838690743E+03  0.24092020303E+03  0.47000000000E+01 0.  1.
        -11    1    1    2    0    0 -0.67801571963E+00  0.47615101284E+02 -0.35812122260E+01  0.47754399343E+02  0.00000000000E+00 0. -1.
         11    1    1    2    0    0 -0.40330558293E+02  0.38457195136E+01  0.77181349550E+02  0.87168252300E+02  0.00000000000E+00 0.  1.
<mgrwt>
<rscale>  0 0.26575653E+03</rscale>
<asrwt>0</asrwt>
<pdfrwt beam="2">  1        1 0.79494878E-02 0.26575653E+03</pdfrwt>
<pdfrwt beam="1">  1       -1 0.52570492E-01 0.26575653E+03</pdfrwt>
<totfact> 0.32634817E+03</totfact>
</mgrwt>
</event>
<event>
 6    1  0.5818426E-006  0.5939768E+03  0.7546771E-02  0.9917982E-01
         -2   -1    0    0    0  501 -0.00000000000E+00  0.00000000000E+00  0.21056992680E+03  0.21056992680E+03  0.00000000000E+00 0.  1.
          2   -1    0    0  501    0  0.00000000000E+00 -0.00000000000E+00 -0.41887326058E+03  0.41887326058E+03  0.00000000000E+00 0. -1.
          5    1    1    2  502    0  0.12075527473E+02  0.20420526971E+03  0.99451222960E+02  0.22750438740E+03  0.47000000000E+01 0. -1.
         -5    1    1    2    0  502  0.25403269963E+02  0.57484158227E+00 -0.14648791018E+02  0.29704101500E+02  0.47000000000E+01 0. -1.
        -11    1    1    2    0    0 -0.11424239161E+02 -0.15597615942E+03 -0.14170816449E+03  0.21104568091E+03  0.00000000000E+00 0.  1.
         11    1    1    2    0    0 -0.26054558275E+02 -0.48803951872E+02 -0.15139760123E+03  0.16118901757E+03  0.00000000000E+00 0. -1.
<mgrwt>
<rscale>  0 0.59397681E+03</rscale>
<asrwt>0</asrwt>
<pdfrwt beam="2">  1        2 0.64442039E-01 0.59397681E+03</pdfrwt>
<pdfrwt beam="1">  1       -2 0.32395374E-01 0.59397681E+03</pdfrwt>
<totfact> 0.67375639E+02</totfact>
</mgrwt>
</event>
<event>
 6    1  0.5818426E-006  0.1285944E+03  0.7546771E-02  0.1243912E+00
         -1   -1    0    0    0  501 -0.00000000000E+00  0.00000000000E+00  0.34564320637E+02  0.34564320637E+02  0.00000000000E+00 0.  1.
          1   -1    0    0  501    0  0.00000000000E+00 -0.00000000000E+00 -0.42844012701E+03  0.42844012701E+03  0.00000000000E+00 0. -1.
          5    1    1    2  502    0  0.74529857183E+02 -0.16285621914E+02 -0.75375399849E+02  0.10734738933E+03  0.47000000000E+01 0.  1.
         -5    1    1    2    0  502 -0.45492077796E+02  0.24874798742E+02 -0.57390716160E+02  0.77485928116E+02  0.47000000000E+01 0.  1.
        -11    1    1    2    0    0  0.14056461029E+02 -0.32202199229E+02 -0.48098093710E+02  0.59565026235E+02  0.00000000000E+00 0.  1.
         11    1    1    2    0    0 -0.43094240416E+02  0.23613022401E+02 -0.21301159666E+03  0.21860610397E+03  0.00000000000E+00 0. -1.
<mgrwt>
<rscale>  0 0.11950754E+03</rscale>
<asrwt>0</asrwt>
<pdfrwt beam="2">  1        1 0.65913865E-01 0.12859438E+03</pdfrwt>
<pdfrwt beam="1">  1       -1 0.53175879E-02 0.12859438E+03</pdfrwt>
<totfact> 0.84368713E+03</totfact>
</mgrwt>
</event>
<event>
 6    1  0.5818426E-006  0.1750636E+03  0.7546771E-02  0.1178746E+00
         -1   -1    0    0    0  501 -0.00000000000E+00  0.00000000000E+00  0.41536751926E+02  0.41536751926E+02  0.00000000000E+00 0.  1.
          1   -1    0    0  501    0  0.00000000000E+00 -0.00000000000E+00 -0.69168356380E+03  0.69168356380E+03  0.00000000000E+00 0. -1.
          5    1    1    2  502    0 -0.35907232404E+02  0.43634634196E+02 -0.21652661444E+03  0.22382845083E+03  0.47000000000E+01 0.  1.
         -5    1    1    2    0  502  0.42293515983E+01  0.74752279035E+02 -0.35399915030E+02  0.82952001904E+02  0.47000000000E+01 0.  1.
        -11    1    1    2    0    0  0.34355414416E+02 -0.87475886296E+00 -0.74635905952E+02  0.82167987441E+02  0.00000000000E+00 0. -1.
         11    1    1    2    0    0 -0.26775336109E+01 -0.11751215437E+03 -0.32358437645E+03  0.34427187555E+03  0.00000000000E+00 0.  1.
<mgrwt>
<rscale>  0 0.16914148E+03</rscale>
<asrwt>0</asrwt>
<pdfrwt beam="2">  1        1 0.10641286E+00 0.17506362E+03</pdfrwt>
<pdfrwt beam="1">  1       -1 0.63902693E-02 0.17506362E+03</pdfrwt>
<totfact> 0.34300024E+03</totfact>
</mgrwt>
</event>
<event>
 6    1  0.5818426E-006  0.2981162E+03  0.7546771E-02  0.1086186E+00
         -4   -1    0    0    0  501 -0.00000000000E+00  0.00000000000E+00  0.19204533894E+03  0.19204533894E+03  0.00000000000E+00 0.  1.
          4   -1    0    0  501    0  0.00000000000E+00 -0.00000000000E+00 -0.11569307287E+03  0.11569307287E+03  0.00000000000E+00 0. -1.
          5    1    1    2  502    0  0.10938866590E+03  0.54633446429E+02  0.76575866700E+02  0.14434904592E+03  0.47000000000E+01 0. -1.
         -5    1    1    2    0  502 -0.17852249553E+02 -0.16776290544E+02 -0.12046887868E+02  0.27701340145E+02  0.47000000000E+01 0. -1.
        -11    1    1    2    0    0 -0.54249767671E+02  0.23640485845E+02 -0.11091269199E+02  0.60207359316E+02  0.00000000000E+00 0. -1.
         11    1    1    2    0    0 -0.37286648681E+02 -0.61497641731E+02  0.22914556440E+02  0.75480666433E+02  0.00000000000E+00 0.  1.
<mgrwt>
<rscale>  0 0.29811619E+03</rscale>
<asrwt>0</asrwt>
<pdfrwt beam="2">  1        4 0.17798934E-01 0.29811619E+03</pdfrwt>
<pdfrwt beam="1">  1       -4 0.29545437E-01 0.29811619E+03</pdfrwt>
<totfact> 0.57687843E+02</totfact>
</mgrwt>
</event>
<event>
 6    1  0.5818426E-006  0.1799539E+03  0.7546771E-02  0.1173406E+00
         -3   -1    0    0    0  501 -0.00000000000E+00  0.00000000000E+00  0.22578688085E+03  0.22578688085E+03  0.00000000000E+00 0.  1.
          3   -1    0    0  501    0  0.00000000000E+00 -0.00000000000E+00 -0.19310923462E+03  0.19310923462E+03  0.00000000000E+00 0. -1.
          5    1    1    2  502    0 -0.10206394990E+03  0.78365528945E+02  0.53743668801E+02  0.13953020437E+03  0.47000000000E+01 0. -1.
         -5    1    1    2    0  502  0.12645854130E+02  0.15240643493E+02  0.85820543664E+02  0.88201193618E+02  0.47000000000E+01 0. -1.
        -11    1    1    2    0    0  0.15597002142E+02  0.15388027616E+02 -0.51091949510E+00  0.21916179148E+02  0.00000000000E+00 0.  1.
         11    1    1    2    0    0  0.73821093627E+02 -0.10899420005E+03 -0.10637564674E+03  0.16924853833E+03  0.00000000000E+00 0. -1.
<mgrwt>
<rscale>  0 0.17432985E+03</rscale>
<asrwt>0</asrwt>
<pdfrwt beam="2">  1        3 0.29709113E-01 0.17995394E+03</pdfrwt>
<pdfrwt beam="1">  1       -3 0.34736443E-01 0.17995394E+03</pdfrwt>
<totfact> 0.21502030E+02</totfact>
</mgrwt>
</event>
<event>
 6    1  0.5818426E-006  0.1692111E+03  0.7546771E-02  0.1185736E+00
          1   -1    0    0  501    0  0.00000000000E+00  0.00000000000E+00  0.50590889644E+03  0.50590889644E+03  0.00000000000E+00 0. -1.
         -1   -1    0    0    0  501 -0.00000000000E+00 -0.00000000000E+00 -0.49885292085E+02  0.49885292085E+02  0.00000000000E+00 0.  1.
          5    1    1    2  502    0 -0.10654239177E+02  0.68138708079E+02  0.16388391092E+02  0.71042703452E+02  0.47000000000E+01 0. -1.
         -5    1    1    2    0  502  0.24052800783E+02  0.45114792983E+02  0.18502278814E+03  0.19201407215E+03  0.47000000000E+01 0. -1.
        -11    1    1    2    0    0  0.26760817771E+02 -0.55760681388E+02  0.18004778247E+03  0.19037489049E+03  0.00000000000E+00 0. -1.
         11    1    1    2    0    0 -0.40159379376E+02 -0.57492819674E+02  0.74564642659E+02  0.10236252244E+03  0.00000000000E+00 0.  1.
<mgrwt>
<rscale>  0 0.16265073E+03</rscale>
<asrwt>0</asrwt>
<pdfrwt beam="1">  1        1 0.77832134E-01 0.16921112E+03</pdfrwt>
<pdfrwt beam="2">  1       -1 0.76746607E-02 0.16921112E+03</pdfrwt>
<totfact> 0.39901170E+03</totfact>
</mgrwt>
</event>
<event>
 6    1  0.5818426E-006  0.1289811E+03  0.7546771E-02  0.1244771E+00
         -1   -1    0    0    0  501 -0.00000000000E+00  0.00000000000E+00  0.12247251614E+03  0.12247251614E+03  0.00000000000E+00 0.  1.
          1   -1    0    0  501    0  0.00000000000E+00 -0.00000000000E+00 -0.10834213884E+03  0.10834213884E+03  0.00000000000E+00 0. -1.
          5    1    1    2  502    0  0.33119811494E+02  0.23064319545E+02 -0.18843865692E+02  0.44789128409E+02  0.47000000000E+01 0. -1.
         -5    1    1    2    0  502 -0.64875432396E+02 -0.24255315769E+02  0.56698151257E+02  0.89632094852E+02  0.47000000000E+01 0. -1.
        -11    1    1    2    0    0  0.49479311979E+02 -0.37250092978E+01  0.16396240716E+02  0.52258154558E+02  0.00000000000E+00 0.  1.
         11    1    1    2    0    0 -0.17723691077E+02  0.49160055223E+01 -0.40120148985E+02  0.44135277163E+02  0.00000000000E+00 0. -1.
<mgrwt>
<rscale>  0 0.11899104E+03</rscale>
<asrwt>0</asrwt>
<pdfrwt beam="2">  1        1 0.16668021E-01 0.12898108E+03</pdfrwt>
<pdfrwt beam="1">  1       -1 0.18841926E-01 0.12898108E+03</pdfrwt>
<totfact> 0.68067415E+03</totfact>
</mgrwt>
</event>
<event>
 6    1  0.5818426E-006  0.1749867E+03  0.7546771E-02  0.1178812E+00
         -2   -1    0    0    0  501 -0.00000000000E+00  0.00000000000E+00  0.18409685199E+03  0.18409685199E+03  0.00000000000E+00 0.  1.
          2   -1    0    0  501    0  0.00000000000E+00 -0.00000000000E+00 -0.15433051240E+03  0.15433051240E+03  0.00000000000E+00 0. -1.
          5    1    1    2  502    0  0.82231523426E+02 -0.85042525910E+02  0.60988041357E+02  0.13317614594E+03  0.47000000000E+01 0. -1.
         -5    1    1    2    0  502 -0.40086097138E+02 -0.29933372642E+02 -0.51277930249E+01  0.50510258788E+02  0.47000000000E+01 0. -1.
        -11    1    1    2    0    0 -0.30138440126E+02 -0.51056641319E+01  0.26568322388E+01  0.30683092038E+02  0.00000000000E+00 0.  1.
         11    1    1    2    0    0 -0.12006986162E+02  0.12008156268E+03 -0.28750740985E+02  0.12405786763E+03  0.00000000000E+00 0. -1.
<mgrwt>
<rscale>  0 0.16907872E+03</rscale>
<asrwt>0</asrwt>
<pdfrwt beam="2">  1        2 0.23743156E-01 0.17498665E+03</pdfrwt>
<pdfrwt beam="1">  1       -2 0.28322593E-01 0.17498665E+03</pdfrwt>
<totfact> 0.25362572E+03</totfact>
</mgrwt>
</event>
<event>
 6    1  0.5818426E-006  0.2629883E+03  0.7546771E-02  0.1107544E+00
         -1   -1    0    0    0  501 -0.00000000000E+00  0.00000000000E+00  0.22039387506E+03  0.22039387506E+03  0.00000000000E+00 0.  1.
          1   -1    0    0  501    0  0.00000000000E+00 -0.00000000000E+00 -0.36918935597E+03  0.36918935597E+03  0.00000000000E+00 0. -1.
          5    1    1    2  502    0 -0.17700458305E+03  0.14841828702E+03  0.19777813947E+02  0.23188760697E+03  0.47000000000E+01 0.  1.
         -5    1    1    2    0  502 -0.74327167002E+01 -0.86900678835E+01  0.34493381548E+02  0.36642133235E+02  0.47000000000E+01 0.  1.
        -11    1    1    2    0    0  0.94335105931E+02 -0.90978254085E+02 -0.16734975684E+03  0.21256080551E+03  0.00000000000E+00 0. -1.
         11    1    1    2    0    0  0.90102193817E+02 -0.48749965049E+02 -0.35716919561E+02  0.10849268531E+03  0.00000000000E+00 0.  1.
<mgrwt>
<rscale>  0 0.25933456E+03</rscale>
<asrwt>0</asrwt>
<pdfrwt beam="2">  1        1 0.56798362E-01 0.26298832E+03</pdfrwt>
<pdfrwt beam="1">  1       -1 0.33906750E-01 0.26298832E+03</pdfrwt>
<totfact> 0.55820314E+02</totfact>
</mgrwt>
</event>
<event>
 6    1  0.5818426E-006  0.1927560E+03  0.7546771E-02  0.1160465E+00
         -1   -1    0    0    0  501 -0.00000000000E+00  0.00000000000E+00  0.98787523149E+02  0.98787523149E+02  0.00000000000E+00 0.  1.
          1   -1    0    0  501    0  0.00000000000E+00 -0.00000000000E+00 -0.34365075205E+03  0.34365075205E+03  0.00000000000E+00 0. -1.
          5    1    1    2  502    0  0.93187340353E+02 -0.10385079408E+03 -0.15573180135E+03  0.20914911375E+03  0.47000000000E+01 0.  1.
         -5    1    1    2    0  502  0.28506709594E+02  0.21911820655E+02  0.35585615793E+01  0.36435061916E+02  0.47000000000E+01 0.  1.
        -11    1    1    2    0    0 -0.87017508618E+02  0.75213067623E+02 -0.20978505639E+02  0.11691514036E+03  0.00000000000E+00 0.  1.
         11    1    1    2    0    0 -0.34676541329E+02  0.67259058039E+01 -0.71711483490E+02  0.79938959161E+02  0.00000000000E+00 0. -1.
<mgrwt>
<rscale>  0 0.18779547E+03</rscale>
<asrwt>0</asrwt>
<pdfrwt beam="2">  1        1 0.52869346E-01 0.19275604E+03</pdfrwt>
<pdfrwt beam="1">  1       -1 0.15198081E-01 0.19275604E+03</pdfrwt>
<totfact> 0.22902648E+03</totfact>
</mgrwt>
</event>
<event>
 6    1  0.5818426E-006  0.2245021E+03  0.7546771E-02  0.1133774E+00
          2   -1    0    0  501    0  0.00000000000E+00  0.00000000000E+00  0.88560274940E+03  0.88560274940E+03  0.00000000000E+00 0. -1.
         -2   -1    0    0    0  501 -0.00000000000E+00 -0.00000000000E+00 -0.62269464700E+02  0.62269464700E+02  0.00000000000E+00 0.  1.
          5    1    1    2  502    0  0.61262868170E+02 -0.60103460998E+02  0.12746021100E+03  0.15373275652E+03  0.47000000000E+01 0.  1.
         -5    1    1    2    0  502 -0.45683723515E+02 -0.12572420029E+03  0.11221007265E+03  0.17466186629E+03  0.47000000000E+01 0.  1.
        -11    1    1    2    0    0  0.23575584166E+02  0.10231703291E+03  0.40527888806E+03  0.41865924150E+03  0.00000000000E+00 0. -1.
         11    1    1    2    0    0 -0.39154728821E+02  0.83510628374E+02  0.17838411300E+03  0.20081834979E+03  0.00000000000E+00 0.  1.
<mgrwt>
<rscale>  0 0.22014677E+03</rscale>
<asrwt>0</asrwt>
<pdfrwt beam="1">  1        2 0.13624657E+00 0.22450208E+03</pdfrwt>
<pdfrwt beam="2">  1       -2 0.95799183E-02 0.22450208E+03</pdfrwt>
<totfact> 0.21991011E+03</totfact>
</mgrwt>
</event>
<event>
 6    1  0.5818426E-006  0.1677328E+03  0.7546771E-02  0.1187002E+00
         -1   -1    0    0    0  501 -0.00000000000E+00  0.00000000000E+00  0.53684746397E+02  0.53684746397E+02  0.00000000000E+00 0.  1.
          1   -1    0    0  501    0  0.00000000000E+00 -0.00000000000E+00 -0.46884531026E+03  0.46884531026E+03  0.00000000000E+00 0. -1.
          5    1    1    2  502    0 -0.18986961055E+02  0.10987350421E+03 -0.11803484635E+03  0.16244077866E+03  0.47000000000E+01 0.  1.
         -5    1    1    2    0  502 -0.51093820613E+02 -0.22721016159E+02 -0.56940610857E+02  0.79944644880E+02  0.47000000000E+01 0.  1.
        -11    1    1    2    0    0  0.46642948265E+02 -0.30732465491E+02 -0.19843599504E+03  0.20614774601E+03  0.00000000000E+00 0. -1.
         11    1    1    2    0    0  0.23437833403E+02 -0.56420022564E+02 -0.41749111613E+02  0.73996887105E+02  0.00000000000E+00 0.  1.
<mgrwt>
<rscale>  0 0.16151052E+03</rscale>
<asrwt>0</asrwt>
<pdfrwt beam="2">  1        1 0.72130046E-01 0.16773277E+03</pdfrwt>
<pdfrwt beam="1">  1       -1 0.82591919E-02 0.16773277E+03</pdfrwt>
<totfact> 0.39417761E+03</totfact>
</mgrwt>
</event>
<event>
 6    1  0.5818426E-006  0.2867756E+03  0.7546771E-02  0.1092045E+00
         -2   -1    0    0    0  501 -0.00000000000E+00  0.00000000000E+00  0.30477878345E+03  0.30477878345E+03  0.00000000000E+00 0.  1.
          2   -1    0    0  501    0  0.00000000000E+00 -0.00000000000E+00 -0.67458971491E+02  0.67458971491E+02  0.00000000000E+00 0. -1.
          5    1    1    2  502    0 -0.18679971788E+02 -0.98614377784E+01 -0.37469300724E+01  0.21961757353E+02  0.47000000000E+01 0.  1.
         -5    1    1    2    0  502  0.79603240716E+02  0.53642867547E+02  0.20647134875E+03  0.22774270795E+03  0.47000000000E+01 0.  1.
        -11    1    1    2    0    0 -0.45770342589E+02  0.21005868768E+02  0.85480355782E+01  0.51080717454E+02  0.00000000000E+00 0.  1.
         11    1    1    2    0    0 -0.15152926339E+02 -0.64787298537E+02  0.26047357708E+02  0.71452572186E+02  0.00000000000E+00 0. -1.
<mgrwt>
<rscale>  0 0.28677561E+03</rscale>
<asrwt>0</asrwt>
<pdfrwt beam="2">  1        2 0.10378303E-01 0.28677561E+03</pdfrwt>
<pdfrwt beam="1">  1       -2 0.46889043E-01 0.28677561E+03</pdfrwt>
<totfact> 0.26665093E+03</totfact>
</mgrwt>
</event>
<event>
 6    1  0.5818426E-006  0.3841175E+03  0.7546771E-02  0.1049422E+00
         -1   -1    0    0    0  501 -0.00000000000E+00  0.00000000000E+00  0.82551405899E+02  0.82551405899E+02  0.00000000000E+00 0.  1.
          1   -1    0    0  501    0  0.00000000000E+00 -0.00000000000E+00 -0.44683136565E+03  0.44683136565E+03  0.00000000000E+00 0. -1.
          5    1    1    2  502    0  0.12725560744E+03 -0.47301260108E+02 -0.18038054764E+03  0.22581105110E+03  0.47000000000E+01 0. -1.
         -5    1    1    2    0  502  0.30153267652E+02  0.34324186572E+02 -0.20928746706E+01  0.45976509853E+02  0.47000000000E+01 0. -1.
        -11    1    1    2    0    0 -0.69816166108E+02  0.39815533116E+02 -0.12861089439E+03  0.15165861625E+03  0.00000000000E+00 0.  1.
         11    1    1    2    0    0 -0.87592708987E+02 -0.26838459581E+02 -0.53195643045E+02  0.10593659434E+03  0.00000000000E+00 0. -1.
<mgrwt>
<rscale>  0 0.38411747E+03</rscale>
<asrwt>0</asrwt>
<pdfrwt beam="2">  1        1 0.68743287E-01 0.38411747E+03</pdfrwt>
<pdfrwt beam="1">  1       -1 0.12700216E-01 0.38411747E+03</pdfrwt>
<totfact> 0.22052805E+03</totfact>
</mgrwt>
</event>
<event>
 6    1  0.5818426E-006  0.1931207E+03  0.7546771E-02  0.1160317E+00
          1   -1    0    0  501    0  0.00000000000E+00  0.00000000000E+00  0.37059043992E+02  0.37059043992E+02  0.00000000000E+00 0. -1.
         -1   -1    0    0    0  501 -0.00000000000E+00 -0.00000000000E+00 -0.97021395040E+03  0.97021395040E+03  0.00000000000E+00 0.  1.
          5    1    1    2  502    0 -0.26637242702E+02 -0.11061659788E+03 -0.23234353443E+03  0.25874926554E+03  0.47000000000E+01 0.  1.
         -5    1    1    2    0  502 -0.44243377047E+02 -0.18408239301E+02 -0.38755890261E+03  0.39053851626E+03  0.47000000000E+01 0.  1.
        -11    1    1    2    0    0  0.48828875139E+02  0.13894280144E+03 -0.24846169908E+03  0.28882966785E+03  0.00000000000E+00 0.  1.
         11    1    1    2    0    0  0.22051744609E+02 -0.99179642662E+01 -0.64790770284E+02  0.69155544749E+02  0.00000000000E+00 0. -1.
<mgrwt>
<rscale>  0 0.18795734E+03</rscale>
<asrwt>0</asrwt>
<pdfrwt beam="1">  1        1 0.57013908E-02 0.19312067E+03</pdfrwt>
<pdfrwt beam="2">  1       -1 0.14926370E+00 0.19312067E+03</pdfrwt>
<totfact> 0.53008091E+02</totfact>
</mgrwt>
</event>
<event>
 6    1  0.5818426E-006  0.3948376E+03  0.7546771E-02  0.1045582E+00
          2   -1    0    0  501    0  0.00000000000E+00  0.00000000000E+00  0.34059729539E+03  0.34059729539E+03  0.00000000000E+00 0. -1.
         -2   -1    0    0    0  501 -0.00000000000E+00 -0.00000000000E+00 -0.11442893954E+03  0.11442893954E+03  0.00000000000E+00 0.  1.
          5    1    1    2  502    0 -0.14313856401E+03 -0.27326923061E+02  0.49412437188E+02  0.15394508170E+03  0.47000000000E+01 0. -1.
         -5    1    1    2    0  502  0.65047019959E+01 -0.36733757103E+01 -0.33356132604E+02  0.34504005847E+02  0.47000000000E+01 0. -1.
        -11    1    1    2    0    0  0.79269560778E+02  0.10581389453E+02  0.18341479992E+03  0.20009152380E+03  0.00000000000E+00 0. -1.
         11    1    1    2    0    0  0.57364301233E+02  0.20418909318E+02  0.26697251347E+02  0.66485623583E+02  0.00000000000E+00 0.  1.
<mgrwt>
<rscale>  0 0.39483762E+03</rscale>
<asrwt>0</asrwt>
<pdfrwt beam="1">  1        2 0.52399584E-01 0.39483762E+03</pdfrwt>
<pdfrwt beam="2">  1       -2 0.17604452E-01 0.39483762E+03</pdfrwt>
<totfact> 0.25049808E+03</totfact>
</mgrwt>
</event>
<event>
 6    1  0.5818426E-006  0.1387783E+03  0.7546771E-02  0.1226434E+00
         -1   -1    0    0    0  501 -0.00000000000E+00  0.00000000000E+00  0.11322024222E+03  0.11322024222E+03  0.00000000000E+00 0.  1.
          1   -1    0    0  501    0  0.00000000000E+00 -0.00000000000E+00 -0.13574656051E+03  0.13574656051E+03  0.00000000000E+00 0. -1.
          5    1    1    2  502    0 -0.64308823683E+02  0.10111131799E+02 -0.43008694974E+02  0.78164554839E+02  0.47000000000E+01 0. -1.
         -5    1    1    2    0  502  0.33901324940E+02  0.41923553696E+02  0.28858216350E+02  0.61333276760E+02  0.47000000000E+01 0. -1.
        -11    1    1    2    0    0  0.12823909451E+02  0.25656024055E+02  0.36384748698E+01  0.28912328224E+02  0.00000000000E+00 0.  1.
         11    1    1    2    0    0  0.17583589293E+02 -0.77690709551E+02 -0.12014314536E+02  0.80556642909E+02  0.00000000000E+00 0. -1.
<mgrwt>
<rscale>  0 0.13069083E+03</rscale>
<asrwt>0</asrwt>
<pdfrwt beam="2">  1        1 0.20884086E-01 0.13877827E+03</pdfrwt>
<pdfrwt beam="1">  1       -1 0.17418499E-01 0.13877827E+03</pdfrwt>
<totfact> 0.58130792E+03</totfact>
</mgrwt>
</event>
<event>
 6    1  0.5818426E-006  0.2881723E+03  0.7546771E-02  0.1091307E+00
          1   -1    0    0  501    0  0.00000000000E+00  0.00000000000E+00  0.33327779000E+02  0.33327779000E+02  0.00000000000E+00 0. -1.
         -1   -1    0    0    0  501 -0.00000000000E+00 -0.00000000000E+00 -0.62292834759E+03  0.62292834759E+03  0.00000000000E+00 0.  1.
          5    1    1    2  502    0  0.83393517423E+02 -0.49094216682E+02 -0.13930248934E+03  0.16968203911E+03  0.47000000000E+01 0. -1.
         -5    1    1    2    0  502 -0.14241784024E+02 -0.12398943318E+02 -0.23285913601E+03  0.23367077145E+03  0.47000000000E+01 0. -1.
        -11    1    1    2    0    0 -0.30725985222E+02  0.77118557014E+02 -0.17428442016E+03  0.19304511678E+03  0.00000000000E+00 0.  1.
         11    1    1    2    0    0 -0.38425748177E+02 -0.15625397015E+02 -0.43154523091E+02  0.59858199255E+02  0.00000000000E+00 0. -1.
<mgrwt>
<rscale>  0 0.28817230E+03</rscale>
<asrwt>0</asrwt>
<pdfrwt beam="1">  1        1 0.51273509E-02 0.28817230E+03</pdfrwt>
<pdfrwt beam="2">  1       -1 0.95835125E-01 0.28817230E+03</pdfrwt>
<totfact> 0.17809286E+03</totfact>
</mgrwt>
</event>
<event>
 6    1  0.5818426E-006  0.1518444E+03  0.7546771E-02  0.1209279E+00
         -3   -1    0    0    0  501 -0.00000000000E+00  0.00000000000E+00  0.48256473316E+02  0.48256473316E+02  0.00000000000E+00 0.  1.
          3   -1    0    0  501    0  0.00000000000E+00 -0.00000000000E+00 -0.48694881486E+03  0.48694881486E+03  0.00000000000E+00 0. -1.
          5    1    1    2  502    0 -0.64675951927E+02  0.38226602648E+02 -0.96035077409E+02  0.12202080970E+03  0.47000000000E+01 0.  1.
         -5    1    1    2    0  502 -0.17779719223E+02 -0.63532377358E+02 -0.20046446585E+02  0.69111731342E+02  0.47000000000E+01 0.  1.
        -11    1    1    2    0    0  0.52693377760E+02  0.47091914089E+02 -0.13004685275E+03  0.14800819012E+03  0.00000000000E+00 0.  1.
         11    1    1    2    0    0  0.29762293389E+02 -0.21786139379E+02 -0.19256396479E+03  0.19606455700E+03  0.00000000000E+00 0. -1.
<mgrwt>
<rscale>  0 0.14305324E+03</rscale>
<asrwt>0</asrwt>
<pdfrwt beam="2">  1        3 0.74915207E-01 0.15184442E+03</pdfrwt>
<pdfrwt beam="1">  1       -3 0.74240724E-02 0.15184442E+03</pdfrwt>
<totfact> 0.48919995E+02</totfact>
</mgrwt>
</event>
<event>
 6    1  0.5818426E-006  0.1280588E+03  0.7546771E-02  0.1245121E+00
         -3   -1    0    0    0  501 -0.00000000000E+00  0.00000000000E+00  0.12910830118E+04  0.12910830118E+04  0.00000000000E+00 0.  1.
          3   -1    0    0  501    0  0.00000000000E+00 -0.00000000000E+00 -0.16442922419E+02  0.16442922419E+02  0.00000000000E+00 0. -1.
          5    1    1    2  502    0  0.73296169563E+02 -0.82056952684E+01  0.66259960408E+03  0.66670832246E+03  0.47000000000E+01 0.  1.
         -5    1    1    2    0  502 -0.52807711017E+02 -0.10591256460E+02  0.44885426431E+03  0.45209851763E+03  0.47000000000E+01 0.  1.
        -11    1    1    2    0    0  0.34273903032E+02  0.70945541559E+01  0.38479497354E+02  0.52016390152E+02  0.00000000000E+00 0. -1.
         11    1    1    2    0    0 -0.54762361578E+02  0.11702397573E+02  0.12470672364E+03  0.13670270398E+03  0.00000000000E+00 0.  1.
<mgrwt>
<rscale>  0 0.11878118E+03</rscale>
<asrwt>0</asrwt>
<pdfrwt beam="2">  1        3 0.25296814E-02 0.12805875E+03</pdfrwt>
<pdfrwt beam="1">  1       -3 0.19862808E+00 0.12805875E+03</pdfrwt>
<totfact> 0.25229766E+02</totfact>
</mgrwt>
</event>
<event>
 6    1  0.5818426E-006  0.4028153E+03  0.7546771E-02  0.1042809E+00
         -2   -1    0    0    0  501 -0.00000000000E+00  0.00000000000E+00  0.16884985683E+03  0.16884985683E+03  0.00000000000E+00 0.  1.
          2   -1    0    0  501    0  0.00000000000E+00 -0.00000000000E+00 -0.24024332324E+03  0.24024332324E+03  0.00000000000E+00 0. -1.
          5    1    1    2  502    0 -0.16121301336E+03  0.24746299822E+02  0.28025846529E+02  0.16555830727E+03  0.47000000000E+01 0.  1.
         -5    1    1    2    0  502  0.10855092956E+02 -0.28676019958E+02  0.16047883183E+02  0.34925230398E+02  0.47000000000E+01 0.  1.
        -11    1    1    2    0    0  0.41761918442E+02  0.14491896441E+02 -0.84218087749E+02  0.95114453153E+02  0.00000000000E+00 0.  1.
         11    1    1    2    0    0  0.10859600196E+03 -0.10562176305E+02 -0.31249108377E+02  0.11349518926E+03  0.00000000000E+00 0. -1.
<mgrwt>
<rscale>  0 0.40281535E+03</rscale>
<asrwt>0</asrwt>
<pdfrwt beam="2">  1        2 0.36960511E-01 0.40281535E+03</pdfrwt>
<pdfrwt beam="1">  1       -2 0.25976901E-01 0.40281535E+03</pdfrwt>
<totfact> 0.18620341E+03</totfact>
</mgrwt>
</event>
<event>
 6    1  0.5818426E-006  0.1329246E+03  0.7546771E-02  0.1235540E+00
         -4   -1    0    0    0  501 -0.00000000000E+00  0.00000000000E+00  0.75256642817E+03  0.75256642817E+03  0.00000000000E+00 0.  1.
          4   -1    0    0  501    0  0.00000000000E+00 -0.00000000000E+00 -0.23347259758E+02  0.23347259758E+02  0.00000000000E+00 0. -1.
          5    1    1    2  502    0  0.13071638264E+02  0.33832084278E+02  0.74050431411E+02  0.82589551674E+02  0.47000000000E+01 0.  1.
         -5    1    1    2    0  502 -0.31744020977E+02 -0.74988229716E+02  0.50318180763E+03  0.50974987886E+03  0.47000000000E+01 0.  1.
        -11    1    1    2    0    0  0.48648806079E+02  0.36145909681E+02  0.13674506513E+03  0.14957421555E+03  0.00000000000E+00 0.  1.
         11    1    1    2    0    0 -0.29976423366E+02  0.50102357573E+01  0.15241864239E+02  0.34000041848E+02  0.00000000000E+00 0. -1.
<mgrwt>
<rscale>  0 0.12469945E+03</rscale>
<asrwt>0</asrwt>
<pdfrwt beam="2">  1        4 0.35918867E-02 0.13292458E+03</pdfrwt>
<pdfrwt beam="1">  1       -4 0.11577943E+00 0.13292458E+03</pdfrwt>
<totfact> 0.40720531E+02</totfact>
</mgrwt>
</event>
<event>
 6    1  0.5818426E-006  0.1843432E+03  0.7546771E-02  0.1168973E+00
          1   -1    0    0  501    0  0.00000000000E+00  0.00000000000E+00  0.43925799772E+03  0.43925799772E+03  0.00000000000E+00 0. -1.
         -1   -1    0    0    0  501 -0.00000000000E+00 -0.00000000000E+00 -0.72030471155E+02  0.72030471155E+02  0.00000000000E+00 0.  1.
          5    1    1    2  502    0 -0.70857953602E+01 -0.68492708467E+02  0.14381517188E+03  0.15951913137E+03  0.47000000000E+01 0.  1.
         -5    1    1    2    0  502 -0.41961438306E+02 -0.57812860952E+02 -0.42205519787E+01  0.71714658580E+02  0.47000000000E+01 0.  1.
        -11    1    1    2    0    0  0.30757267691E+02  0.10722544232E+03  0.10031197499E+03  0.15001932317E+03  0.00000000000E+00 0.  1.
         11    1    1    2    0    0  0.18289965974E+02  0.19080127095E+02  0.12732093167E+03  0.13003535576E+03  0.00000000000E+00 0. -1.
<mgrwt>
<rscale>  0 0.17879643E+03</rscale>
<asrwt>0</asrwt>
<pdfrwt beam="1">  1        1 0.67578152E-01 0.18434318E+03</pdfrwt>
<pdfrwt beam="2">  1       -1 0.11081611E-01 0.18434318E+03</pdfrwt>
<totfact> 0.27427972E+03</totfact>
</mgrwt>
</event>
<event>
 6    1  0.5818426E-006  0.3002160E+03  0.7546771E-02  0.1085133E+00
          1   -1    0    0  501    0  0.00000000000E+00  0.00000000000E+00  0.83167066347E+03  0.83167066347E+03  0.00000000000E+00 0. -1.
         -1   -1    0    0    0  501 -0.00000000000E+00 -0.00000000000E+00 -0.27092953595E+02  0.27092953595E+02  0.00000000000E+00 0.  1.
          5    1    1    2  502    0  0.65341870637E+01  0.12670396292E+03  0.27193828862E+03  0.30011516563E+03  0.47000000000E+01 0. -1.
         -5    1    1    2    0  502 -0.18364690650E+02 -0.21757763112E+02  0.52536350833E+02  0.59940139115E+02  0.47000000000E+01 0.  1.
        -11    1    1    2    0    0 -0.35307049031E+02 -0.61116243522E+02  0.25065115347E+03  0.26039927739E+03  0.00000000000E+00 0.  1.
         11    1    1    2    0    0  0.47137552617E+02 -0.43829956286E+02  0.22945191695E+03  0.23830903493E+03  0.00000000000E+00 0. -1.
<mgrwt>
<rscale>  0 0.30021602E+03</rscale>
<asrwt>0</asrwt>
<pdfrwt beam="1">  1        1 0.12794931E+00 0.30021602E+03</pdfrwt>
<pdfrwt beam="2">  1       -1 0.41681473E-02 0.30021602E+03</pdfrwt>
<totfact> 0.50185993E+03</totfact>
</mgrwt>
</event>
<event>
 6    1  0.5818426E-006  0.1494066E+03  0.7546771E-02  0.1214426E+00
         -2   -1    0    0    0  501 -0.00000000000E+00  0.00000000000E+00  0.24676718320E+02  0.24676718320E+02  0.00000000000E+00 0.  1.
          2   -1    0    0  501    0  0.00000000000E+00 -0.00000000000E+00 -0.70131224732E+03  0.70131224732E+03  0.00000000000E+00 0. -1.
          5    1    1    2  502    0 -0.73010923710E+02 -0.67419549098E+02 -0.26017892614E+03  0.27855188778E+03  0.47000000000E+01 0.  1.
         -5    1    1    2    0  502  0.47905552165E+02 -0.10471641801E+02 -0.15908777058E+03  0.16654010316E+03  0.47000000000E+01 0.  1.
        -11    1    1    2    0    0 -0.17407189929E+01  0.28775346000E+02 -0.15690460235E+02  0.32821352538E+02  0.00000000000E+00 0.  1.
         11    1    1    2    0    0  0.26846090538E+02  0.49115844899E+02 -0.24167837205E+03  0.24807562216E+03  0.00000000000E+00 0. -1.
<mgrwt>
<rscale>  0 0.13918752E+03</rscale>
<asrwt>0</asrwt>
<pdfrwt beam="2">  1        2 0.10789419E+00 0.14940655E+03</pdfrwt>
<pdfrwt beam="1">  1       -2 0.37964184E-02 0.14940655E+03</pdfrwt>
<totfact> 0.11958064E+04</totfact>
</mgrwt>
</event>
<event>
 6    1  0.5818426E-006  0.2216909E+03  0.7546771E-02  0.1156613E+00
         -1   -1    0    0    0  501 -0.00000000000E+00  0.00000000000E+00  0.43879811830E+03  0.43879811830E+03  0.00000000000E+00 0.  1.
          1   -1    0    0  501    0  0.00000000000E+00 -0.00000000000E+00 -0.11477113214E+03  0.11477113214E+03  0.00000000000E+00 0. -1.
          5    1    1    2  502    0  0.41769835557E+01 -0.76771434759E+02  0.72778833060E+02  0.10597239701E+03  0.47000000000E+01 0. -1.
         -5    1    1    2    0  502  0.70740881742E+02  0.11323654484E+03  0.28793989978E+03  0.31742442143E+03  0.47000000000E+01 0.  1.
        -11    1    1    2    0    0  0.28048570990E+01 -0.45662844152E+02 -0.61552029465E+01  0.46161120900E+02  0.00000000000E+00 0.  1.
         11    1    1    2    0    0 -0.77722722397E+02  0.91977340681E+01 -0.30536543736E+02  0.84011311096E+02  0.00000000000E+00 0. -1.
<mgrwt>
<rscale>  0 0.19206426E+03</rscale>
<asrwt>0</asrwt>
<pdfrwt beam="2">  1        1 0.17657098E-01 0.22169091E+03</pdfrwt>
<pdfrwt beam="1">  1       -1 0.67507402E-01 0.22169091E+03</pdfrwt>
<totfact> 0.69298314E+02</totfact>
</mgrwt>
</event>
<event>
 6    1  0.5818426E-006  0.2007472E+03  0.7546771E-02  0.1153570E+00
         -1   -1    0    0    0  501 -0.00000000000E+00  0.00000000000E+00  0.52042058535E+02  0.52042058535E+02  0.00000000000E+00 0.  1.
          1   -1    0    0  501    0  0.00000000000E+00 -0.00000000000E+00 -0.70605346259E+03  0.70605346259E+03  0.00000000000E+00 0. -1.
          5    1    1    2  502    0  0.62728152317E+02  0.48505839888E+02 -0.26345995419E+03  0.27517426307E+03  0.47000000000E+01 0.  1.
         -5    1    1    2    0  502  0.94077652646E+02 -0.39228004369E+02 -0.11889873869E+03  0.15667942148E+03  0.47000000000E+01 0.  1.
        -11    1    1    2    0    0 -0.40626958441E+02  0.18752289712E+02 -0.22892349644E+02  0.50261892064E+02  0.00000000000E+00 0.  1.
         11    1    1    2    0    0 -0.11617884652E+03 -0.28030125231E+02 -0.24876036153E+03  0.27597994451E+03  0.00000000000E+00 0. -1.
<mgrwt>
<rscale>  0 0.19552552E+03</rscale>
<asrwt>0</asrwt>
<pdfrwt beam="2">  1        1 0.10862360E+00 0.20074719E+03</pdfrwt>
<pdfrwt beam="1">  1       -1 0.80064711E-02 0.20074719E+03</pdfrwt>
<totfact> 0.23758835E+03</totfact>
</mgrwt>
</event>
<event>
 6    1  0.5818426E-006  0.1777434E+03  0.7546771E-02  0.1176182E+00
          1   -1    0    0  501    0  0.00000000000E+00  0.00000000000E+00  0.24411058095E+02  0.24411058095E+02  0.00000000000E+00 0. -1.
         -1   -1    0    0    0  501 -0.00000000000E+00 -0.00000000000E+00 -0.11838057761E+04  0.11838057761E+04  0.00000000000E+00 0.  1.
          5    1    1    2  502    0 -0.73642852750E+02 -0.11869622857E+02 -0.15361608382E+03  0.17083368788E+03  0.47000000000E+01 0.  1.
         -5    1    1    2    0  502 -0.32140518333E+02 -0.57252560512E+02 -0.59327796325E+03  0.59691850389E+03  0.47000000000E+01 0.  1.
        -11    1    1    2    0    0  0.33895074459E+02  0.39219386853E+02 -0.29492895984E+03  0.29944970819E+03  0.00000000000E+00 0.  1.
         11    1    1    2    0    0  0.71888296624E+02  0.29902796517E+02 -0.11757171112E+03  0.14101493427E+03  0.00000000000E+00 0. -1.
<mgrwt>
<rscale>  0 0.17160754E+03</rscale>
<asrwt>0</asrwt>
<pdfrwt beam="1">  1        1 0.37555470E-02 0.17774338E+03</pdfrwt>
<pdfrwt beam="2">  1       -1 0.18212399E+00 0.17774338E+03</pdfrwt>
<totfact> 0.54693666E+02</totfact>
</mgrwt>
</event>
<event>
 6    1  0.5818426E-006  0.1432298E+03  0.7546771E-02  0.1216629E+00
         -1   -1    0    0    0  501 -0.00000000000E+00  0.00000000000E+00  0.52740165770E+02  0.52740165770E+02  0.00000000000E+00 0.  1.
          1   -1    0    0  501    0  0.00000000000E+00 -0.00000000000E+00 -0.34255955311E+03  0.34255955311E+03  0.00000000000E+00 0. -1.
          5    1    1    2  502    0 -0.48943447407E+02  0.92686552301E+02 -0.10638294552E+03  0.14941780054E+03  0.47000000000E+01 0.  1.
         -5    1    1    2    0  502  0.21430597212E+02 -0.28402881557E+02 -0.17384359830E+02  0.39878567480E+02  0.47000000000E+01 0.  1.
        -11    1    1    2    0    0 -0.30347597577E+02 -0.22540505016E+01 -0.78059044855E+02  0.83781095159E+02  0.00000000000E+00 0.  1.
         11    1    1    2    0    0  0.57860447772E+02 -0.62029620243E+02 -0.87993037139E+02  0.12222225570E+03  0.00000000000E+00 0. -1.
<mgrwt>
<rscale>  0 0.13757587E+03</rscale>
<asrwt>0</asrwt>
<pdfrwt beam="2">  1        1 0.52701471E-01 0.14322978E+03</pdfrwt>
<pdfrwt beam="1">  1       -1 0.81138714E-02 0.14322978E+03</pdfrwt>
<totfact> 0.59815893E+03</totfact>
</mgrwt>
</event>
<event>
 6    1  0.5818426E-006  0.1363131E+03  0.7546771E-02  0.1231662E+00
         -2   -1    0    0    0  501 -0.00000000000E+00  0.00000000000E+00  0.17026779019E+03  0.17026779019E+03  0.00000000000E+00 0.  1.
          2   -1    0    0  501    0  0.00000000000E+00 -0.00000000000E+00 -0.84364336237E+02  0.84364336237E+02  0.00000000000E+00 0. -1.
          5    1    1    2  502    0 -0.48306830563E+02  0.90913920156E+01 -0.32622778688E+02  0.59182252215E+02  0.47000000000E+01 0.  1.
         -5    1    1    2    0  502 -0.44643248814E+01 -0.22217742149E+02  0.82960303913E+02  0.86128161992E+02  0.47000000000E+01 0.  1.
        -11    1    1    2    0    0  0.52802898520E+02  0.21238445764E+01 -0.17080876354E+02  0.55537493146E+02  0.00000000000E+00 0. -1.
         11    1    1    2    0    0 -0.31743075562E-01  0.11002505557E+02  0.52646805080E+02  0.53784219073E+02  0.00000000000E+00 0.  1.
<mgrwt>
<rscale>  0 0.12720569E+03</rscale>
<asrwt>0</asrwt>
<pdfrwt beam="2">  1        2 0.12979129E-01 0.13631306E+03</pdfrwt>
<pdfrwt beam="1">  1       -2 0.26195045E-01 0.13631306E+03</pdfrwt>
<totfact> 0.57646100E+03</totfact>
</mgrwt>
</event>
<event>
 6    1  0.5818426E-006  0.1503423E+03  0.7546771E-02  0.1209658E+00
         -2   -1    0    0    0  501 -0.00000000000E+00  0.00000000000E+00  0.26858998388E+03  0.26858998388E+03  0.00000000000E+00 0.  1.
          2   -1    0    0  501    0  0.00000000000E+00 -0.00000000000E+00 -0.71695219156E+02  0.71695219156E+02  0.00000000000E+00 0. -1.
          5    1    1    2  502    0  0.69548048659E+02  0.19961351801E+02  0.10746452695E+03  0.12963834769E+03  0.47000000000E+01 0. -1.
         -5    1    1    2    0  502 -0.14187702511E+01 -0.68297654248E+02  0.32597305242E+02  0.75837041041E+02  0.47000000000E+01 0. -1.
        -11    1    1    2    0    0 -0.41443789221E+02 -0.19994179880E+02  0.80499399253E+01  0.46713557206E+02  0.00000000000E+00 0. -1.
         11    1    1    2    0    0 -0.26685489187E+02  0.68330482326E+02  0.48782992607E+02  0.88096257104E+02  0.00000000000E+00 0.  1.
<mgrwt>
<rscale>  0 0.14276385E+03</rscale>
<asrwt>0</asrwt>
<pdfrwt beam="2">  1        2 0.11030034E-01 0.15034234E+03</pdfrwt>
<pdfrwt beam="1">  1       -2 0.41321536E-01 0.15034234E+03</pdfrwt>
<totfact> 0.30639248E+03</totfact>
</mgrwt>
</event>
<event>
 6    1  0.5818426E-006  0.1708820E+03  0.7546771E-02  0.1183276E+00
         -1   -1    0    0    0  501 -0.00000000000E+00  0.00000000000E+00  0.37001031253E+02  0.37001031253E+02  0.00000000000E+00 0.  1.
          1   -1    0    0  501    0  0.00000000000E+00 -0.00000000000E+00 -0.88208008270E+03  0.88208008270E+03  0.00000000000E+00 0. -1.
          5    1    1    2  502    0  0.10533028081E+03  0.58865437976E+02 -0.11860193714E+03  0.16925754736E+03  0.47000000000E+01 0.  1.
         -5    1    1    2    0  502 -0.25200471120E+02  0.25708656532E+02 -0.11213956585E+03  0.11787014463E+03  0.47000000000E+01 0.  1.
        -11    1    1    2    0    0 -0.95795566734E+02 -0.72247023111E+02 -0.57972099128E+03  0.59200747519E+03  0.00000000000E+00 0. -1.
         11    1    1    2    0    0  0.15665757045E+02 -0.12327071397E+02 -0.34616557165E+02  0.39945946765E+02  0.00000000000E+00 0.  1.
<mgrwt>
<rscale>  0 0.16489700E+03</rscale>
<asrwt>0</asrwt>
<pdfrwt beam="2">  1        1 0.13570464E+00 0.17088204E+03</pdfrwt>
<pdfrwt beam="1">  1       -1 0.56924659E-02 0.17088204E+03</pdfrwt>
<totfact> 0.28252484E+03</totfact>
</mgrwt>
</event>
<event>
 6    1  0.5818426E-006  0.1338942E+03  0.7546771E-02  0.1234297E+00
         -2   -1    0    0    0  501 -0.00000000000E+00  0.00000000000E+00  0.15294746295E+03  0.15294746295E+03  0.00000000000E+00 0.  1.
          2   -1    0    0  501    0  0.00000000000E+00 -0.00000000000E+00 -0.93002220212E+02  0.93002220212E+02  0.00000000000E+00 0. -1.
          5    1    1    2  502    0 -0.25152471623E+02 -0.11152408287E+02 -0.31336273181E+02  0.41965164794E+02  0.47000000000E+01 0.  1.
         -5    1    1    2    0  502  0.57085628921E+02 -0.24719078515E+02  0.77885292962E+02  0.99789832807E+02  0.47000000000E+01 0.  1.
        -11    1    1    2    0    0 -0.24985768643E+02 -0.14190030013E+02 -0.27049057641E+02  0.39462603889E+02  0.00000000000E+00 0. -1.
         11    1    1    2    0    0 -0.69473886549E+01  0.50061516816E+02  0.40445280599E+02  0.64732081673E+02  0.00000000000E+00 0.  1.
<mgrwt>
<rscale>  0 0.12549544E+03</rscale>
<asrwt>0</asrwt>
<pdfrwt beam="2">  1        2 0.14308034E-01 0.13389424E+03</pdfrwt>
<pdfrwt beam="1">  1       -2 0.23530379E-01 0.13389424E+03</pdfrwt>
<totfact> 0.61855087E+03</totfact>
</mgrwt>
</event>
<event>
 6    1  0.5818426E-006  0.2185839E+03  0.7546771E-02  0.1138389E+00
         -2   -1    0    0    0  501 -0.00000000000E+00  0.00000000000E+00  0.15198032977E+04  0.15198032977E+04  0.00000000000E+00 0.  1.
          2   -1    0    0  501    0  0.00000000000E+00 -0.00000000000E+00 -0.50495586828E+02  0.50495586828E+02  0.00000000000E+00 0. -1.
          5    1    1    2  502    0  0.78221641350E+02  0.75688798263E+02  0.36370180825E+03  0.37966895407E+03  0.47000000000E+01 0.  1.
         -5    1    1    2    0  502  0.44657618273E+02  0.54838260417E+02  0.90097817942E+03  0.90376175371E+03  0.47000000000E+01 0.  1.
        -11    1    1    2    0    0 -0.62827628800E+02 -0.47236056930E+02  0.15283479875E+03  0.17186341008E+03  0.00000000000E+00 0. -1.
         11    1    1    2    0    0 -0.60051630824E+02 -0.83291001750E+02  0.51792924474E+02  0.11500476670E+03  0.00000000000E+00 0.  1.
<mgrwt>
<rscale>  0 0.21406185E+03</rscale>
<asrwt>0</asrwt>
<pdfrwt beam="2">  1        2 0.77685530E-02 0.21858388E+03</pdfrwt>
<pdfrwt beam="1">  1       -2 0.23381586E+00 0.21858388E+03</pdfrwt>
<totfact> 0.79295934E+01</totfact>
</mgrwt>
</event>
<event>
 6    1  0.5818426E-006  0.1971658E+03  0.7546771E-02  0.1177563E+00
         -2   -1    0    0    0  501 -0.00000000000E+00  0.00000000000E+00  0.65427723464E+02  0.65427723464E+02  0.00000000000E+00 0.  1.
          2   -1    0    0  501    0  0.00000000000E+00 -0.00000000000E+00 -0.45397993916E+03  0.45397993916E+03  0.00000000000E+00 0. -1.
          5    1    1    2  502    0 -0.66812520184E+02  0.55613456162E+02 -0.59861829171E+02  0.10565177685E+03  0.47000000000E+01 0. -1.
         -5    1    1    2    0  502  0.31808403469E+02 -0.10510420777E+03 -0.63866065217E+02  0.12712054636E+03  0.47000000000E+01 0.  1.
        -11    1    1    2    0    0  0.42676310536E+01 -0.13740998751E+02 -0.19480855159E+01  0.14519736866E+02  0.00000000000E+00 0.  1.
         11    1    1    2    0    0  0.30736485662E+02  0.63231750357E+02 -0.26287623579E+03  0.27211560255E+03  0.00000000000E+00 0. -1.
<mgrwt>
<rscale>  0 0.17027365E+03</rscale>
<asrwt>0</asrwt>
<pdfrwt beam="2">  1        2 0.69843067E-01 0.19716583E+03</pdfrwt>
<pdfrwt beam="1">  1       -2 0.10065804E-01 0.19716583E+03</pdfrwt>
<totfact> 0.44751426E+03</totfact>
</mgrwt>
</event>
<event>
 6    1  0.5818426E-006  0.1272411E+03  0.7546771E-02  0.1246204E+00
         -1   -1    0    0    0  501 -0.00000000000E+00  0.00000000000E+00  0.78993482114E+03  0.78993482114E+03  0.00000000000E+00 0.  1.
          1   -1    0    0  501    0  0.00000000000E+00 -0.00000000000E+00 -0.15786090257E+02  0.15786090257E+02  0.00000000000E+00 0. -1.
          5    1    1    2  502    0 -0.39548070669E+01  0.20261031628E+02  0.44913012303E+03  0.44962885508E+03  0.47000000000E+01 0.  1.
         -5    1    1    2    0  502 -0.13211073988E+02 -0.36673597667E+02  0.41079182588E+02  0.56824945964E+02  0.47000000000E+01 0.  1.
        -11    1    1    2    0    0 -0.13393374438E+02 -0.32132562860E+02  0.14130617821E+03  0.14553116530E+03  0.00000000000E+00 0.  1.
         11    1    1    2    0    0  0.30559255492E+02  0.48545128899E+02  0.14263324706E+03  0.15373594505E+03  0.00000000000E+00 0. -1.
<mgrwt>
<rscale>  0 0.11813616E+03</rscale>
<asrwt>0</asrwt>
<pdfrwt beam="2">  1        1 0.24286299E-02 0.12724107E+03</pdfrwt>
<pdfrwt beam="1">  1       -1 0.12152840E+00 0.12724107E+03</pdfrwt>
<totfact> 0.28304815E+03</totfact>
</mgrwt>
</event>
<event>
 6    1  0.5818426E-006  0.1261740E+03  0.7546771E-02  0.1247791E+00
          2   -1    0    0  501    0  0.00000000000E+00  0.00000000000E+00  0.25268812559E+02  0.25268812559E+02  0.00000000000E+00 0.  1.
         -2   -1    0    0    0  501 -0.00000000000E+00 -0.00000000000E+00 -0.70446171193E+03  0.70446171193E+03  0.00000000000E+00 0. -1.
          5    1    1    2  502    0 -0.21844527594E+02  0.62504176927E+02 -0.41021835390E+03  0.41555401983E+03  0.47000000000E+01 0. -1.
         -5    1    1    2    0  502  0.26586223477E+02 -0.46026524573E+02 -0.16800537060E+03  0.17627581454E+03  0.47000000000E+01 0. -1.
        -11    1    1    2    0    0 -0.21051634906E+02  0.30343879982E+02 -0.17619511975E+02  0.40919061411E+02  0.00000000000E+00 0.  1.
         11    1    1    2    0    0  0.16309939023E+02 -0.46821532336E+02 -0.83349662901E+02  0.96981628708E+02  0.00000000000E+00 0. -1.
<mgrwt>
<rscale>  0 0.11719854E+03</rscale>
<asrwt>0</asrwt>
<pdfrwt beam="1">  1        2 0.38875093E-02 0.12617400E+03</pdfrwt>
<pdfrwt beam="2">  1       -2 0.10837873E+00 0.12617400E+03</pdfrwt>
<totfact> 0.14989296E+03</totfact>
</mgrwt>
</event>
<event>
 6    1  0.5818426E-006  0.1393854E+03  0.7546771E-02  0.1224712E+00
         -2   -1    0    0    0  501 -0.00000000000E+00  0.00000000000E+00  0.71892881358E+02  0.71892881358E+02  0.00000000000E+00 0. -1.
          2   -1    0    0  501    0  0.00000000000E+00 -0.00000000000E+00 -0.22416008095E+03  0.22416008095E+03  0.00000000000E+00 0.  1.
          5    1    1    2  502    0  0.43413539817E+02 -0.85466640439E+02 -0.29672301412E+02  0.10045803869E+03  0.47000000000E+01 0.  1.
         -5    1    1    2    0  502 -0.31923331478E+02  0.24885684750E+02 -0.32695426229E+02  0.52244399647E+02  0.47000000000E+01 0.  1.
        -11    1    1    2    0    0 -0.23767686348E+02  0.40207086012E+02  0.36262265474E+01  0.46847221890E+02  0.00000000000E+00 0. -1.
         11    1    1    2    0    0  0.12277478009E+02  0.20373869677E+02 -0.93525698494E+02  0.96503302072E+02  0.00000000000E+00 0.  1.
<mgrwt>
<rscale>  0 0.13186675E+03</rscale>
<asrwt>0</asrwt>
<pdfrwt beam="2">  1        2 0.34486166E-01 0.13938544E+03</pdfrwt>
<pdfrwt beam="1">  1       -2 0.11060443E-01 0.13938544E+03</pdfrwt>
<totfact> 0.80553193E+03</totfact>
</mgrwt>
</event>
<event>
 6    1  0.5818426E-006  0.1310258E+03  0.7546771E-02  0.1239598E+00
          2   -1    0    0  501    0  0.00000000000E+00  0.00000000000E+00  0.60333964160E+03  0.60333964160E+03  0.00000000000E+00 0. -1.
         -2   -1    0    0    0  501 -0.00000000000E+00 -0.00000000000E+00 -0.23767485263E+02  0.23767485263E+02  0.00000000000E+00 0.  1.
          5    1    1    2  502    0  0.72922751077E+02  0.29146597165E+02  0.99327355062E+02  0.12670937303E+03  0.47000000000E+01 0. -1.
         -5    1    1    2    0  502 -0.34047679813E+02 -0.23473098831E+02  0.14100292506E+03  0.14701750149E+03  0.47000000000E+01 0. -1.
        -11    1    1    2    0    0  0.16373953691E+02  0.96716881167E+01  0.15314263934E+02  0.24416686719E+02  0.00000000000E+00 0.  1.
         11    1    1    2    0    0 -0.55249024956E+02 -0.15345186451E+02  0.32392761228E+03  0.32896356562E+03  0.00000000000E+00 0. -1.
<mgrwt>
<rscale>  0 0.12214609E+03</rscale>
<asrwt>0</asrwt>
<pdfrwt beam="1">  1        2 0.92821472E-01 0.13102579E+03</pdfrwt>
<pdfrwt beam="2">  1       -2 0.36565366E-02 0.13102579E+03</pdfrwt>
<totfact> 0.14923111E+04</totfact>
</mgrwt>
</event>
<event>
 6    1  0.5818426E-006  0.1269015E+03  0.7546771E-02  0.1247271E+00
          1   -1    0    0  501    0  0.00000000000E+00  0.00000000000E+00  0.35774467964E+03  0.35774467964E+03  0.00000000000E+00 0. -1.
         -1   -1    0    0    0  501 -0.00000000000E+00 -0.00000000000E+00 -0.34381573498E+02  0.34381573498E+02  0.00000000000E+00 0.  1.
          5    1    1    2  502    0 -0.54877264202E+02  0.24047741206E+02  0.42708707945E+02  0.73728771302E+02  0.47000000000E+01 0.  1.
         -5    1    1    2    0  502  0.56224142825E+02 -0.25294140728E+01  0.11991314240E+03  0.13254736471E+03  0.47000000000E+01 0.  1.
        -11    1    1    2    0    0 -0.24706145142E+02 -0.89514975433E+01  0.36439737380E+01  0.26529256692E+02  0.00000000000E+00 0.  1.
         11    1    1    2    0    0  0.23359266519E+02 -0.12566829590E+02  0.15709728206E+03  0.15932086043E+03  0.00000000000E+00 0. -1.
<mgrwt>
<rscale>  0 0.11750478E+03</rscale>
<asrwt>0</asrwt>
<pdfrwt beam="1">  1        1 0.55037640E-01 0.12690145E+03</pdfrwt>
<pdfrwt beam="2">  1       -1 0.52894731E-02 0.12690145E+03</pdfrwt>
<totfact> 0.10654624E+04</totfact>
</mgrwt>
</event>
<event>
 6    1  0.5818426E-006  0.1183430E+03  0.7546771E-02  0.1257763E+00
          2   -1    0    0  501    0  0.00000000000E+00  0.00000000000E+00  0.71622479688E+02  0.71622479688E+02  0.00000000000E+00 0. -1.
         -2   -1    0    0    0  501 -0.00000000000E+00 -0.00000000000E+00 -0.21888392030E+03  0.21888392030E+03  0.00000000000E+00 0.  1.
          5    1    1    2  502    0  0.25450270670E+01  0.30333120080E+02  0.70528332384E+01  0.31597591574E+02  0.47000000000E+01 0. -1.
         -5    1    1    2    0  502 -0.65130080325E+01 -0.15725476452E+02 -0.16409561282E+03  0.16504293389E+03  0.47000000000E+01 0.  1.
        -11    1    1    2    0    0 -0.63711534429E+01 -0.33474338231E+02  0.42644806954E+02  0.54586651082E+02  0.00000000000E+00 0. -1.
         11    1    1    2    0    0  0.10339134408E+02  0.18866694603E+02 -0.32863467993E+02  0.39279223440E+02  0.00000000000E+00 0.  1.
<mgrwt>
<rscale>  0 0.11152985E+03</rscale>
<asrwt>0</asrwt>
<pdfrwt beam="1">  1        2 0.11018843E-01 0.11834298E+03</pdfrwt>
<pdfrwt beam="2">  1       -2 0.33674449E-01 0.11834298E+03</pdfrwt>
<totfact> 0.44277848E+03</totfact>
</mgrwt>
</event>
<event>
 6    1  0.5818426E-006  0.3739227E+03  0.7546771E-02  0.1063693E+00
          1   -1    0    0  501    0  0.00000000000E+00  0.00000000000E+00  0.26253777200E+03  0.26253777200E+03  0.00000000000E+00 0. -1.
         -1   -1    0    0    0  501 -0.00000000000E+00 -0.00000000000E+00 -0.50397612756E+03  0.50397612756E+03  0.00000000000E+00 0.  1.
          5    1    1    2  502    0 -0.85117022009E+02 -0.29252308572E+02 -0.22911846207E+02  0.92992729228E+02  0.47000000000E+01 0. -1.
         -5    1    1    2    0  502  0.14616254803E+03 -0.22568219092E+03 -0.28004582243E+03  0.38825725287E+03  0.47000000000E+01 0.  1.
        -11    1    1    2    0    0 -0.48564269581E+02  0.54392895872E+02  0.40043412303E+02  0.83189844754E+02  0.00000000000E+00 0. -1.
         11    1    1    2    0    0 -0.12481256436E+02  0.20054160362E+03  0.21475900774E+02  0.20207407271E+03  0.00000000000E+00 0.  1.
<mgrwt>
<rscale>  0 0.34738632E+03</rscale>
<asrwt>0</asrwt>
<pdfrwt beam="1">  1        1 0.40390427E-01 0.37392271E+03</pdfrwt>
<pdfrwt beam="2">  1       -1 0.77534787E-01 0.37392271E+03</pdfrwt>
<totfact> 0.18034208E+02</totfact>
</mgrwt>
</event>
<event>
 6    1  0.5818426E-006  0.1334480E+03  0.7546771E-02  0.1235181E+00
         -1   -1    0    0    0  501 -0.00000000000E+00  0.00000000000E+00  0.28673985216E+02  0.28673985216E+02  0.00000000000E+00 0.  1.
          1   -1    0    0  501    0  0.00000000000E+00 -0.00000000000E+00 -0.49052305216E+03  0.49052305216E+03  0.00000000000E+00 0. -1.
          5    1    1    2  502    0 -0.51902154375E+02  0.57678681914E+02 -0.15774935730E+03  0.17586248522E+03  0.47000000000E+01 0.  1.
         -5    1    1    2    0  502  0.52632430494E+01 -0.54997153209E+02 -0.12953316543E+03  0.14090180813E+03  0.47000000000E+01 0.  1.
        -11    1    1    2    0    0  0.43741767737E+02  0.20737148638E+02 -0.17201644605E+03  0.17869815133E+03  0.00000000000E+00 0. -1.
         11    1    1    2    0    0  0.28971435889E+01 -0.23418677343E+02 -0.25500981524E+01  0.23734592688E+02  0.00000000000E+00 0.  1.
<mgrwt>
<rscale>  0 0.12492845E+03</rscale>
<asrwt>0</asrwt>
<pdfrwt beam="2">  1        1 0.75465079E-01 0.13344800E+03</pdfrwt>
<pdfrwt beam="1">  1       -1 0.44113827E-02 0.13344800E+03</pdfrwt>
<totfact> 0.93691313E+03</totfact>
</mgrwt>
</event>
<event>
 6    1  0.5818426E-006  0.1509774E+03  0.7546771E-02  0.1208357E+00
          1   -1    0    0  501    0  0.00000000000E+00  0.00000000000E+00  0.78272547647E+03  0.78272547647E+03  0.00000000000E+00 0. -1.
         -1   -1    0    0    0  501 -0.00000000000E+00 -0.00000000000E+00 -0.26131029015E+02  0.26131029015E+02  0.00000000000E+00 0.  1.
          5    1    1    2  502    0  0.96240362482E+02 -0.38287080525E+01  0.19182297720E+03  0.21469748707E+03  0.47000000000E+01 0. -1.
         -5    1    1    2    0  502 -0.28146953571E+02 -0.46481416277E+02  0.11035212450E+03  0.12309530631E+03  0.47000000000E+01 0. -1.
        -11    1    1    2    0    0  0.10325140605E+02  0.23627764600E+02  0.34604683434E+02  0.43155114460E+02  0.00000000000E+00 0.  1.
         11    1    1    2    0    0 -0.78418549516E+02  0.26682359729E+02  0.41981466232E+03  0.42790859764E+03  0.00000000000E+00 0. -1.
<mgrwt>
<rscale>  0 0.14376013E+03</rscale>
<asrwt>0</asrwt>
<pdfrwt beam="1">  1        1 0.12041929E+00 0.15097741E+03</pdfrwt>
<pdfrwt beam="2">  1       -1 0.40201589E-02 0.15097741E+03</pdfrwt>
<totfact> 0.56672303E+03</totfact>
</mgrwt>
</event>
<event>
 6    1  0.5818426E-006  0.2444822E+03  0.7546771E-02  0.1116842E+00
          4   -1    0    0  501    0  0.00000000000E+00  0.00000000000E+00  0.20773356656E+02  0.20773356656E+02  0.00000000000E+00 0. -1.
         -4   -1    0    0    0  501 -0.00000000000E+00 -0.00000000000E+00 -0.71932937542E+03  0.71932937542E+03  0.00000000000E+00 0.  1.
          5    1    1    2  502    0  0.76448215487E+01 -0.11688330724E+02 -0.10761907075E+00  0.14736415897E+02  0.47000000000E+01 0. -1.
         -5    1    1    2    0  502 -0.18952683510E+02  0.57492117082E+02 -0.47275140426E+03  0.47663458537E+03  0.47000000000E+01 0. -1.
        -11    1    1    2    0    0 -0.31299782928E+02 -0.30942451944E+02 -0.46854614490E+02  0.64284264347E+02  0.00000000000E+00 0. -1.
         11    1    1    2    0    0  0.42607644890E+02 -0.14861334414E+02 -0.17884238094E+03  0.18444746646E+03  0.00000000000E+00 0.  1.
<mgrwt>
<rscale>  0 0.24448219E+03</rscale>
<asrwt>0</asrwt>
<pdfrwt beam="1">  1        4 0.31959014E-02 0.24448219E+03</pdfrwt>
<pdfrwt beam="2">  1       -4 0.11066605E+00 0.24448219E+03</pdfrwt>
<totfact> 0.60538122E+02</totfact>
</mgrwt>
</event>
<event>
 6    1  0.5818426E-006  0.1483213E+03  0.7546771E-02  0.1223368E+00
         -1   -1    0    0    0  501 -0.00000000000E+00  0.00000000000E+00  0.33253825695E+03  0.33253825695E+03  0.00000000000E+00 0.  1.
          1   -1    0    0  501    0  0.00000000000E+00 -0.00000000000E+00 -0.58082788782E+02  0.58082788782E+02  0.00000000000E+00 0. -1.
          5    1    1    2  502    0  0.30106274809E+02 -0.22736680072E+01  0.19507664512E+03  0.19745517167E+03  0.47000000000E+01 0. -1.
         -5    1    1    2    0  502 -0.59140760226E+02 -0.47747619462E+02  0.57396501768E+02  0.95362010778E+02  0.47000000000E+01 0.  1.
        -11    1    1    2    0    0  0.48429071023E+02  0.47763828658E+02  0.32763394236E+02  0.75499657285E+02  0.00000000000E+00 0.  1.
         11    1    1    2    0    0 -0.19394585607E+02  0.22574588109E+01 -0.10781072955E+02  0.22304205998E+02  0.00000000000E+00 0. -1.
<mgrwt>
<rscale>  0 0.13279374E+03</rscale>
<asrwt>0</asrwt>
<pdfrwt beam="2">  1        1 0.89358139E-02 0.14832131E+03</pdfrwt>
<pdfrwt beam="1">  1       -1 0.51159730E-01 0.14832131E+03</pdfrwt>
<totfact> 0.28530201E+03</totfact>
</mgrwt>
</event>
<event>
 6    1  0.5818426E-006  0.1294853E+03  0.7546771E-02  0.1242365E+00
          2   -1    0    0  501    0  0.00000000000E+00  0.00000000000E+00  0.36674459087E+03  0.36674459087E+03  0.00000000000E+00 0. -1.
         -2   -1    0    0    0  501 -0.00000000000E+00 -0.00000000000E+00 -0.41244936121E+02  0.41244936121E+02  0.00000000000E+00 0.  1.
          5    1    1    2  502    0 -0.37069861812E+01  0.16921557539E+02  0.12902768766E+03  0.13027016174E+03  0.47000000000E+01 0. -1.
         -5    1    1    2    0  502  0.21200286027E+02  0.11948906618E+02 -0.25465223091E+02  0.35535842245E+02  0.47000000000E+01 0. -1.
        -11    1    1    2    0    0  0.13583993222E+02  0.23411515926E+02  0.28046870050E+02  0.38977568798E+02  0.00000000000E+00 0.  1.
         11    1    1    2    0    0 -0.31077293068E+02 -0.52281980083E+02  0.19389032013E+03  0.20320595421E+03  0.00000000000E+00 0. -1.
<mgrwt>
<rscale>  0 0.12044466E+03</rscale>
<asrwt>0</asrwt>
<pdfrwt beam="1">  1        2 0.56422243E-01 0.12948532E+03</pdfrwt>
<pdfrwt beam="2">  1       -2 0.63453750E-02 0.12948532E+03</pdfrwt>
<totfact> 0.11237880E+04</totfact>
</mgrwt>
</event>
<event>
 6    1  0.5818426E-006  0.1309766E+03  0.7546771E-02  0.1240792E+00
          2   -1    0    0  501    0  0.00000000000E+00  0.00000000000E+00  0.25199312822E+03  0.25199312822E+03  0.00000000000E+00 0. -1.
         -2   -1    0    0    0  501 -0.00000000000E+00 -0.00000000000E+00 -0.51476083221E+02  0.51476083221E+02  0.00000000000E+00 0.  1.
          5    1    1    2  502    0  0.65690304219E+02 -0.24222601459E+02  0.56028381904E+02  0.89795434564E+02  0.47000000000E+01 0. -1.
         -5    1    1    2    0  502 -0.37389757597E+02  0.47596897528E+02  0.54600670669E+02  0.81650363532E+02  0.47000000000E+01 0. -1.
        -11    1    1    2    0    0 -0.14094278463E+02 -0.56016645107E+02  0.71618846329E+02  0.92009631908E+02  0.00000000000E+00 0.  1.
         11    1    1    2    0    0 -0.14206268160E+02  0.32642349038E+02  0.18269146099E+02  0.40013781438E+02  0.00000000000E+00 0. -1.
<mgrwt>
<rscale>  0 0.12140839E+03</rscale>
<asrwt>0</asrwt>
<pdfrwt beam="1">  1        2 0.38768173E-01 0.13097662E+03</pdfrwt>
<pdfrwt beam="2">  1       -2 0.79193976E-02 0.13097662E+03</pdfrwt>
<totfact> 0.11926022E+04</totfact>
</mgrwt>
</event>
<event>
 6    1  0.5818426E-006  0.2896691E+03  0.7546771E-02  0.1090522E+00
         -1   -1    0    0    0  501 -0.00000000000E+00  0.00000000000E+00  0.89051977658E+02  0.89051977658E+02  0.00000000000E+00 0.  1.
          1   -1    0    0  501    0  0.00000000000E+00 -0.00000000000E+00 -0.23555953104E+03  0.23555953104E+03  0.00000000000E+00 0. -1.
          5    1    1    2  502    0  0.17088802953E+02 -0.12386744012E+02  0.28905910445E+02  0.36098480193E+02  0.47000000000E+01 0. -1.
         -5    1    1    2    0  502 -0.71534894583E+02 -0.44911824069E+02 -0.91174974102E+02  0.12437555623E+03  0.47000000000E+01 0. -1.
        -11    1    1    2    0    0  0.19323434778E+02  0.35646775810E+02  0.24816019110E+02  0.47538642826E+02  0.00000000000E+00 0.  1.
         11    1    1    2    0    0  0.35122656851E+02  0.21651792271E+02 -0.10905450884E+03  0.11659882946E+03  0.00000000000E+00 0. -1.
<mgrwt>
<rscale>  0 0.28966907E+03</rscale>
<asrwt>0</asrwt>
<pdfrwt beam="2">  1        1 0.36239927E-01 0.28966907E+03</pdfrwt>
<pdfrwt beam="1">  1       -1 0.13700305E-01 0.28966907E+03</pdfrwt>
<totfact> 0.44058961E+03</totfact>
</mgrwt>
</event>
<event>
 6    1  0.5818426E-006  0.1422644E+03  0.7546771E-02  0.1221260E+00
         -1   -1    0    0    0  501 -0.00000000000E+00  0.00000000000E+00  0.33648110089E+03  0.33648110089E+03  0.00000000000E+00 0.  1.
          1   -1    0    0  501    0  0.00000000000E+00 -0.00000000000E+00 -0.49391883478E+02  0.49391883478E+02  0.00000000000E+00 0. -1.
          5    1    1    2  502    0 -0.20038185210E+02 -0.68127347174E+02  0.12490272304E+03  0.14375550258E+03  0.47000000000E+01 0. -1.
         -5    1    1    2    0  502  0.64548226738E+02  0.16821880619E+02  0.62508368715E+02  0.91535978730E+02  0.47000000000E+01 0. -1.
        -11    1    1    2    0    0 -0.59394083328E+02  0.21611519639E+02  0.98882987338E+02  0.11735655116E+03  0.00000000000E+00 0.  1.
         11    1    1    2    0    0  0.14884041801E+02  0.29693946915E+02  0.79513832069E+00  0.33224951899E+02  0.00000000000E+00 0. -1.
<mgrwt>
<rscale>  0 0.13426549E+03</rscale>
<asrwt>0</asrwt>
<pdfrwt beam="2">  1        1 0.75987515E-02 0.14226442E+03</pdfrwt>
<pdfrwt beam="1">  1       -1 0.51766322E-01 0.14226442E+03</pdfrwt>
<totfact> 0.34623070E+03</totfact>
</mgrwt>
</event>
<event>
 6    1  0.5818426E-006  0.1200964E+03  0.7546771E-02  0.1256888E+00
         -1   -1    0    0    0  501 -0.00000000000E+00  0.00000000000E+00  0.28017829557E+02  0.28017829557E+02  0.00000000000E+00 0.  1.
          1   -1    0    0  501    0  0.00000000000E+00 -0.00000000000E+00 -0.39801326450E+03  0.39801326450E+03  0.00000000000E+00 0. -1.
          5    1    1    2  502    0  0.27346281305E+02  0.56102087244E+02 -0.14637237073E+03  0.15919241253E+03  0.47000000000E+01 0. -1.
         -5    1    1    2    0  502 -0.19961026703E+02 -0.47012743903E+02 -0.54470055752E+02  0.74817896589E+02  0.47000000000E+01 0.  1.
        -11    1    1    2    0    0 -0.19770610676E+02 -0.43958515787E+02 -0.61198166711E+02  0.77900216723E+02  0.00000000000E+00 0.  1.
         11    1    1    2    0    0  0.12385356074E+02  0.34869172447E+02 -0.10795484175E+03  0.11412056822E+03  0.00000000000E+00 0. -1.
<mgrwt>
<rscale>  0 0.11201212E+03</rscale>
<asrwt>0</asrwt>
<pdfrwt beam="2">  1        1 0.61232807E-01 0.12009640E+03</pdfrwt>
<pdfrwt beam="1">  1       -1 0.43104355E-02 0.12009640E+03</pdfrwt>
<totfact> 0.12551063E+04</totfact>
</mgrwt>
</event>
<event>
 6    1  0.5818426E-006  0.1270099E+03  0.7546771E-02  0.1247990E+00
          2   -1    0    0  501    0  0.00000000000E+00  0.00000000000E+00  0.13902373988E+03  0.13902373988E+03  0.00000000000E+00 0. -1.
         -2   -1    0    0    0  501 -0.00000000000E+00 -0.00000000000E+00 -0.86805033526E+02  0.86805033526E+02  0.00000000000E+00 0.  1.
          5    1    1    2  502    0  0.41689945302E+02  0.31282093691E+02  0.38323513542E+02  0.64864494257E+02  0.47000000000E+01 0. -1.
         -5    1    1    2    0  502 -0.58529015391E+02 -0.16183113691E+02 -0.18564626985E+02  0.63673182632E+02  0.47000000000E+01 0. -1.
        -11    1    1    2    0    0  0.33804221543E+02  0.13243889323E+02  0.48489171239E+02  0.60574959562E+02  0.00000000000E+00 0. -1.
         11    1    1    2    0    0 -0.16965151453E+02 -0.28342869322E+02 -0.16029351442E+02  0.36716136955E+02  0.00000000000E+00 0.  1.
<mgrwt>
<rscale>  0 0.11708200E+03</rscale>
<asrwt>0</asrwt>
<pdfrwt beam="1">  1        2 0.21388268E-01 0.12700992E+03</pdfrwt>
<pdfrwt beam="2">  1       -2 0.13354621E-01 0.12700992E+03</pdfrwt>
<totfact> 0.99803495E+03</totfact>
</mgrwt>
</event>
<event>
 6    1  0.5818426E-006  0.1472850E+03  0.7546771E-02  0.1213911E+00
          1   -1    0    0  501    0  0.00000000000E+00  0.00000000000E+00  0.29745728811E+03  0.29745728811E+03  0.00000000000E+00 0. -1.
         -1   -1    0    0    0  501 -0.00000000000E+00 -0.00000000000E+00 -0.93792192201E+02  0.93792192201E+02  0.00000000000E+00 0.  1.
          5    1    1    2  502    0  0.53097103652E+02  0.28777345695E+01  0.46586538780E+02  0.70851812736E+02  0.47000000000E+01 0.  1.
         -5    1    1    2    0  502  0.73306861323E+01 -0.52021457432E+02 -0.55706092263E+02  0.76715250816E+02  0.47000000000E+01 0.  1.
        -11    1    1    2    0    0  0.20041546410E+02  0.29769035923E+01  0.14963912565E+02  0.25188176130E+02  0.00000000000E+00 0.  1.
         11    1    1    2    0    0 -0.80469336195E+02  0.46166819270E+02  0.19782073683E+03  0.21849424063E+03  0.00000000000E+00 0. -1.
<mgrwt>
<rscale>  0 0.13956803E+03</rscale>
<asrwt>0</asrwt>
<pdfrwt beam="1">  1        1 0.45762659E-01 0.14728500E+03</pdfrwt>
<pdfrwt beam="2">  1       -1 0.14429568E-01 0.14728500E+03</pdfrwt>
<totfact> 0.29475931E+03</totfact>
</mgrwt>
</event>
<event>
 6    1  0.5818426E-006  0.1256533E+03  0.7546771E-02  0.1250147E+00
          2   -1    0    0  501    0  0.00000000000E+00  0.00000000000E+00  0.92495503729E+03  0.92495503729E+03  0.00000000000E+00 0.  1.
         -2   -1    0    0    0  501 -0.00000000000E+00 -0.00000000000E+00 -0.12654158477E+02  0.12654158477E+02  0.00000000000E+00 0. -1.
          5    1    1    2  502    0  0.21661916847E+02 -0.46438461571E+02  0.42325586060E+03  0.42637235240E+03  0.47000000000E+01 0.  1.
         -5    1    1    2    0  502 -0.92454098259E+01  0.49565374386E+02  0.10432567056E+03  0.11596611349E+03  0.47000000000E+01 0.  1.
        -11    1    1    2    0    0 -0.50411774618E+02 -0.38283224814E+01  0.17588460730E+03  0.18300655223E+03  0.00000000000E+00 0.  1.
         11    1    1    2    0    0  0.37995267598E+02  0.70140966620E+00  0.20883474035E+03  0.21226417765E+03  0.00000000000E+00 0. -1.
<mgrwt>
<rscale>  0 0.11582574E+03</rscale>
<asrwt>0</asrwt>
<pdfrwt beam="1">  1        2 0.14230072E+00 0.12565325E+03</pdfrwt>
<pdfrwt beam="2">  1       -2 0.19467943E-02 0.12565325E+03</pdfrwt>
<totfact> 0.22238253E+04</totfact>
</mgrwt>
</event>
<event>
 6    1  0.5818426E-006  0.3070793E+03  0.7546771E-02  0.1081754E+00
          1   -1    0    0  501    0  0.00000000000E+00  0.00000000000E+00  0.86641554722E+02  0.86641554722E+02  0.00000000000E+00 0. -1.
         -1   -1    0    0    0  501 -0.00000000000E+00 -0.00000000000E+00 -0.27209145346E+03  0.27209145346E+03  0.00000000000E+00 0.  1.
          5    1    1    2  502    0  0.31471820811E+02  0.12724908584E+03 -0.10468351080E+03  0.16781994157E+03  0.47000000000E+01 0. -1.
         -5    1    1    2    0  502 -0.12885011751E+02 -0.20514668848E+02  0.51856708437E+01  0.25216192176E+02  0.47000000000E+01 0. -1.
        -11    1    1    2    0    0 -0.44622898936E+02 -0.55609706155E+02 -0.81300408638E+02  0.10813602070E+03  0.00000000000E+00 0.  1.
         11    1    1    2    0    0  0.26036089876E+02 -0.51124710839E+02 -0.46516501399E+01  0.57560853741E+02  0.00000000000E+00 0. -1.
<mgrwt>
<rscale>  0 0.30707932E+03</rscale>
<asrwt>0</asrwt>
<pdfrwt beam="1">  1        1 0.13329470E-01 0.30707932E+03</pdfrwt>
<pdfrwt beam="2">  1       -1 0.41860223E-01 0.30707932E+03</pdfrwt>
<totfact> 0.24807098E+03</totfact>
</mgrwt>
</event>
<event>
 6    1  0.5818426E-006  0.3050725E+03  0.7546771E-02  0.1082732E+00
         -1   -1    0    0    0  501 -0.00000000000E+00  0.00000000000E+00  0.10928915959E+03  0.10928915959E+03  0.00000000000E+00 0.  1.
          1   -1    0    0  501    0  0.00000000000E+00 -0.00000000000E+00 -0.21289670134E+03  0.21289670134E+03  0.00000000000E+00 0. -1.
          5    1    1    2  502    0 -0.23871657047E+01 -0.14150435273E+01  0.28662124138E+02  0.29177187465E+02  0.47000000000E+01 0. -1.
         -5    1    1    2    0  502 -0.31956425967E+02 -0.94077337561E+02 -0.12019631405E+03  0.15601603288E+03  0.47000000000E+01 0. -1.
        -11    1    1    2    0    0 -0.30800103155E+02  0.42479554118E+02 -0.48357089265E+01  0.52692911793E+02  0.00000000000E+00 0.  1.
         11    1    1    2    0    0  0.65143694826E+02  0.53012826970E+02 -0.72376429105E+01  0.84299728789E+02  0.00000000000E+00 0. -1.
<mgrwt>
<rscale>  0 0.30507246E+03</rscale>
<asrwt>0</asrwt>
<pdfrwt beam="2">  1        1 0.32753338E-01 0.30507246E+03</pdfrwt>
<pdfrwt beam="1">  1       -1 0.16813717E-01 0.30507246E+03</pdfrwt>
<totfact> 0.36175462E+03</totfact>
</mgrwt>
</event>
<event>
 6    1  0.5818426E-006  0.2238310E+03  0.7546771E-02  0.1131059E+00
         -1   -1    0    0    0  501 -0.00000000000E+00  0.00000000000E+00  0.21630132516E+03  0.21630132516E+03  0.00000000000E+00 0.  1.
          1   -1    0    0  501    0  0.00000000000E+00 -0.00000000000E+00 -0.57905707781E+02  0.57905707781E+02  0.00000000000E+00 0. -1.
          5    1    1    2  502    0  0.54884038150E+00  0.60510441599E+00  0.13396819785E+03  0.13405310668E+03  0.47000000000E+01 0.  1.
         -5    1    1    2    0  502 -0.24900387247E+02 -0.37499406955E+01 -0.23349031104E+02  0.34660620216E+02  0.47000000000E+01 0.  1.
        -11    1    1    2    0    0 -0.31681107069E+02 -0.15137806857E+02  0.17451245949E+02  0.39209587179E+02  0.00000000000E+00 0. -1.
         11    1    1    2    0    0  0.56032653935E+02  0.18282643137E+02  0.30325204690E+02  0.66283718864E+02  0.00000000000E+00 0.  1.
<mgrwt>
<rscale>  0 0.22383102E+03</rscale>
<asrwt>0</asrwt>
<pdfrwt beam="2">  1        1 0.89085706E-02 0.22383102E+03</pdfrwt>
<pdfrwt beam="1">  1       -1 0.33277126E-01 0.22383102E+03</pdfrwt>
<totfact> 0.62928880E+03</totfact>
</mgrwt>
</event>
<event>
 6    1  0.5818426E-006  0.2215748E+03  0.7546771E-02  0.1136056E+00
          2   -1    0    0  501    0  0.00000000000E+00  0.00000000000E+00  0.37368052995E+03  0.37368052995E+03  0.00000000000E+00 0. -1.
         -2   -1    0    0    0  501 -0.00000000000E+00 -0.00000000000E+00 -0.16329581351E+03  0.16329581351E+03  0.00000000000E+00 0.  1.
          5    1    1    2  502    0  0.13419932781E+03  0.49554918612E+02  0.85921494885E+01  0.14339129881E+03  0.47000000000E+01 0. -1.
         -5    1    1    2    0  502  0.48741819259E+02 -0.51684568980E+02 -0.36274409225E+02  0.79906084750E+02  0.47000000000E+01 0. -1.
        -11    1    1    2    0    0 -0.62363620221E+02  0.43660590732E+02  0.10073199302E+03  0.12626322793E+03  0.00000000000E+00 0. -1.
         11    1    1    2    0    0 -0.12057752684E+03 -0.41530940364E+02  0.13733498317E+03  0.18741573197E+03  0.00000000000E+00 0.  1.
<mgrwt>
<rscale>  0 0.21711087E+03</rscale>
<asrwt>0</asrwt>
<pdfrwt beam="1">  1        2 0.57489312E-01 0.22157485E+03</pdfrwt>
<pdfrwt beam="2">  1       -2 0.25122433E-01 0.22157485E+03</pdfrwt>
<totfact> 0.12094202E+03</totfact>
</mgrwt>
</event>
<event>
 6    1  0.5818426E-006  0.1284515E+03  0.7546771E-02  0.1239306E+00
          1   -1    0    0  501    0  0.00000000000E+00  0.00000000000E+00  0.38689940573E+02  0.38689940573E+02  0.00000000000E+00 0. -1.
         -1   -1    0    0    0  501 -0.00000000000E+00 -0.00000000000E+00 -0.35414144941E+03  0.35414144941E+03  0.00000000000E+00 0.  1.
          5    1    1    2  502    0  0.62070335395E+02 -0.47944207095E+02 -0.76066605109E+02  0.10935991927E+03  0.47000000000E+01 0.  1.
         -5    1    1    2    0  502 -0.42542220964E+02 -0.23264998837E+00 -0.98282807776E+02  0.10719839082E+03  0.47000000000E+01 0. -1.
        -11    1    1    2    0    0 -0.24633736964E+02  0.38389134981E+02 -0.15322906228E+03  0.15987398853E+03  0.00000000000E+00 0.  1.
         11    1    1    2    0    0  0.51056225331E+01  0.97877221016E+01  0.12126966324E+02  0.16399091365E+02  0.00000000000E+00 0. -1.
<mgrwt>
<rscale>  0 0.12232748E+03</rscale>
<asrwt>0</asrwt>
<pdfrwt beam="1">  1        1 0.59522983E-02 0.12845148E+03</pdfrwt>
<pdfrwt beam="2">  1       -1 0.54483302E-01 0.12845148E+03</pdfrwt>
<totfact> 0.43543489E+03</totfact>
</mgrwt>
</event>
<event>
 6    1  0.5818426E-006  0.3213171E+03  0.7546771E-02  0.1075045E+00
         -1   -1    0    0    0  501 -0.00000000000E+00  0.00000000000E+00  0.46281801781E+03  0.46281801781E+03  0.00000000000E+00 0.  1.
          1   -1    0    0  501    0  0.00000000000E+00 -0.00000000000E+00 -0.55769598639E+02  0.55769598639E+02  0.00000000000E+00 0. -1.
          5    1    1    2  502    0  0.83645886715E+02  0.80760861261E+02  0.28276244728E+03  0.30577057195E+03  0.47000000000E+01 0.  1.
         -5    1    1    2    0  502 -0.19441262125E+02 -0.27101268179E+02  0.68130129072E+02  0.76001617727E+02  0.47000000000E+01 0.  1.
        -11    1    1    2    0    0 -0.70424824976E+02 -0.98632385645E+01  0.82167260450E+01  0.71585292029E+02  0.00000000000E+00 0. -1.
         11    1    1    2    0    0  0.62202003858E+01 -0.43796354517E+02  0.47939116769E+02  0.65230134742E+02  0.00000000000E+00 0.  1.
<mgrwt>
<rscale>  0 0.32131713E+03</rscale>
<asrwt>0</asrwt>
<pdfrwt beam="2">  1        1 0.85799386E-02 0.32131713E+03</pdfrwt>
<pdfrwt beam="1">  1       -1 0.71202769E-01 0.32131713E+03</pdfrwt>
<totfact> 0.16404261E+03</totfact>
</mgrwt>
</event>
<event>
 6    1  0.5818426E-006  0.1598968E+03  0.7546771E-02  0.1195273E+00
          2   -1    0    0  501    0  0.00000000000E+00  0.00000000000E+00  0.61977634169E+03  0.61977634169E+03  0.00000000000E+00 0.  1.
         -2   -1    0    0    0  501 -0.00000000000E+00 -0.00000000000E+00 -0.39641934808E+02  0.39641934808E+02  0.00000000000E+00 0. -1.
          5    1    1    2  502    0 -0.42681267898E+01 -0.39577805066E+02  0.16497422773E+03  0.16977398321E+03  0.47000000000E+01 0. -1.
         -5    1    1    2    0  502  0.10367755803E+03  0.47329565144E+02  0.24397231894E+03  0.26932082389E+03  0.47000000000E+01 0. -1.
        -11    1    1    2    0    0 -0.90928121002E+02  0.66479504778E+01  0.17974741687E+03  0.20154714661E+03  0.00000000000E+00 0.  1.
         11    1    1    2    0    0 -0.84813102364E+01 -0.14399710555E+02 -0.85595566509E+01  0.18776322789E+02  0.00000000000E+00 0. -1.
<mgrwt>
<rscale>  0 0.15431115E+03</rscale>
<asrwt>0</asrwt>
<pdfrwt beam="1">  1        2 0.95350199E-01 0.15989675E+03</pdfrwt>
<pdfrwt beam="2">  1       -2 0.60987597E-02 0.15989675E+03</pdfrwt>
<totfact> 0.68036457E+03</totfact>
</mgrwt>
</event>
<event>
 6    1  0.5818426E-006  0.2607584E+03  0.7546771E-02  0.1109109E+00
         -1   -1    0    0    0  501 -0.00000000000E+00  0.00000000000E+00  0.11841752371E+04  0.11841752371E+04  0.00000000000E+00 0.  1.
          1   -1    0    0  501    0  0.00000000000E+00 -0.00000000000E+00 -0.54038785574E+02  0.54038785574E+02  0.00000000000E+00 0. -1.
          5    1    1    2  502    0 -0.10586443059E+03 -0.61798794951E+02  0.36905804250E+03  0.38891168336E+03  0.47000000000E+01 0. -1.
         -5    1    1    2    0  502 -0.22230059875E+02 -0.12783265535E+03  0.22335459467E+03  0.25835001122E+03  0.47000000000E+01 0. -1.
        -11    1    1    2    0    0  0.96391708579E+02  0.10996571010E+03  0.42413032323E+03  0.44863164173E+03  0.00000000000E+00 0.  1.
         11    1    1    2    0    0  0.31702781890E+02  0.79665740204E+02  0.11359349117E+03  0.14232068640E+03  0.00000000000E+00 0. -1.
<mgrwt>
<rscale>  0 0.25675446E+03</rscale>
<asrwt>0</asrwt>
<pdfrwt beam="2">  1        1 0.83136602E-02 0.26075845E+03</pdfrwt>
<pdfrwt beam="1">  1       -1 0.18218079E+00 0.26075845E+03</pdfrwt>
<totfact> 0.18251530E+02</totfact>
</mgrwt>
</event>
<event>
 6    1  0.5818426E-006  0.1716328E+03  0.7546771E-02  0.1182511E+00
         -1   -1    0    0    0  501 -0.00000000000E+00  0.00000000000E+00  0.30174336869E+02  0.30174336869E+02  0.00000000000E+00 0.  1.
          1   -1    0    0  501    0  0.00000000000E+00 -0.00000000000E+00 -0.85080059575E+03  0.85080059575E+03  0.00000000000E+00 0. -1.
          5    1    1    2  502    0  0.19572454090E+02  0.61949685498E+02 -0.20364363899E+03  0.21380754475E+03  0.47000000000E+01 0.  1.
         -5    1    1    2    0  502 -0.10174004784E+03  0.22200641577E+02 -0.22758211933E+03  0.25031903016E+03  0.47000000000E+01 0.  1.
        -11    1    1    2    0    0  0.54544212250E+02  0.13407782100E+01 -0.10122919067E+03  0.11499659916E+03  0.00000000000E+00 0.  1.
         11    1    1    2    0    0  0.27623381505E+02 -0.85491105285E+02 -0.28817130989E+03  0.30185175854E+03  0.00000000000E+00 0. -1.
<mgrwt>
<rscale>  0 0.16560462E+03</rscale>
<asrwt>0</asrwt>
<pdfrwt beam="2">  1        1 0.13089236E+00 0.17163281E+03</pdfrwt>
<pdfrwt beam="1">  1       -1 0.46422071E-02 0.17163281E+03</pdfrwt>
<totfact> 0.40529358E+03</totfact>
</mgrwt>
</event>
<event>
 6    1  0.5818426E-006  0.1711984E+03  0.7546771E-02  0.1189734E+00
         -1   -1    0    0    0  501 -0.00000000000E+00  0.00000000000E+00  0.21134995301E+03  0.21134995301E+03  0.00000000000E+00 0.  1.
          1   -1    0    0  501    0  0.00000000000E+00 -0.00000000000E+00 -0.16882686228E+03  0.16882686228E+03  0.00000000000E+00 0. -1.
          5    1    1    2  502    0 -0.35312077600E+02 -0.15645531759E+02 -0.13564553803E+00  0.38908018302E+02  0.47000000000E+01 0. -1.
         -5    1    1    2    0  502  0.11290803530E+03 -0.29471226009E+02  0.13885164049E+03  0.18143496263E+03  0.47000000000E+01 0.  1.
        -11    1    1    2    0    0 -0.17300885987E+02 -0.22581518001E+02 -0.51326643869E+02  0.58682791192E+02  0.00000000000E+00 0. -1.
         11    1    1    2    0    0 -0.60295071715E+02  0.67698275770E+02 -0.44866260348E+02  0.10115104316E+03  0.00000000000E+00 0.  1.
<mgrwt>
<rscale>  0 0.15908439E+03</rscale>
<asrwt>0</asrwt>
<pdfrwt beam="2">  1        1 0.25973363E-01 0.17119843E+03</pdfrwt>
<pdfrwt beam="1">  1       -1 0.32515377E-01 0.17119843E+03</pdfrwt>
<totfact> 0.15988398E+03</totfact>
</mgrwt>
</event>
<event>
 6    1  0.5818426E-006  0.1745578E+03  0.7546771E-02  0.1184429E+00
          1   -1    0    0  501    0  0.00000000000E+00  0.00000000000E+00  0.66162784041E+03  0.66162784041E+03  0.00000000000E+00 0. -1.
         -1   -1    0    0    0  501 -0.00000000000E+00 -0.00000000000E+00 -0.36541165735E+02  0.36541165735E+02  0.00000000000E+00 0.  1.
          5    1    1    2  502    0 -0.79060262489E+02 -0.35745844770E+02  0.19464280369E+03  0.21315769175E+03  0.47000000000E+01 0. -1.
         -5    1    1    2    0  502 -0.55773217051E+01  0.87286875550E+02  0.18403127440E+03  0.20381291696E+03  0.47000000000E+01 0.  1.
        -11    1    1    2    0    0  0.45956281056E+02 -0.88531657400E+01  0.20494052376E+03  0.21021649933E+03  0.00000000000E+00 0. -1.
         11    1    1    2    0    0  0.38681303138E+02 -0.42687865040E+02  0.41472072812E+02  0.70981898097E+02  0.00000000000E+00 0.  1.
<mgrwt>
<rscale>  0 0.16383963E+03</rscale>
<asrwt>0</asrwt>
<pdfrwt beam="1">  1        1 0.10178889E+00 0.17455782E+03</pdfrwt>
<pdfrwt beam="2">  1       -1 0.56217183E-02 0.17455782E+03</pdfrwt>
<totfact> 0.44277712E+03</totfact>
</mgrwt>
</event>
<event>
 6    1  0.5818426E-006  0.1376209E+03  0.7546771E-02  0.1228861E+00
          1   -1    0    0  501    0  0.00000000000E+00  0.00000000000E+00  0.16417208355E+03  0.16417208355E+03  0.00000000000E+00 0. -1.
         -1   -1    0    0    0  501 -0.00000000000E+00 -0.00000000000E+00 -0.12848899828E+03  0.12848899828E+03  0.00000000000E+00 0.  1.
          5    1    1    2  502    0 -0.47266638428E+02 -0.11176524435E+02 -0.60687122129E+02  0.77872116955E+02  0.47000000000E+01 0. -1.
         -5    1    1    2    0  502  0.55376017990E+02 -0.45819815587E+02  0.12415589000E+01  0.72038811327E+02  0.47000000000E+01 0. -1.
        -11    1    1    2    0    0  0.15042399328E+02 -0.14593812682E+02  0.51907782318E+02  0.55979201596E+02  0.00000000000E+00 0. -1.
         11    1    1    2    0    0 -0.23151778890E+02  0.71590152705E+02  0.43220866183E+02  0.86770951958E+02  0.00000000000E+00 0.  1.
<mgrwt>
<rscale>  0 0.12905747E+03</rscale>
<asrwt>0</asrwt>
<pdfrwt beam="1">  1        1 0.25257244E-01 0.13762090E+03</pdfrwt>
<pdfrwt beam="2">  1       -1 0.19767538E-01 0.13762090E+03</pdfrwt>
<totfact> 0.37357058E+03</totfact>
</mgrwt>
</event>
<event>
 6    1  0.5818426E-006  0.1846428E+03  0.7546771E-02  0.1171742E+00
          4   -1    0    0  501    0  0.00000000000E+00  0.00000000000E+00  0.52763128131E+02  0.52763128131E+02  0.00000000000E+00 0. -1.
         -4   -1    0    0    0  501 -0.00000000000E+00 -0.00000000000E+00 -0.59337425636E+03  0.59337425636E+03  0.00000000000E+00 0.  1.
          5    1    1    2  502    0 -0.11789598415E+02  0.49494602343E+02 -0.26653061702E+03  0.27138417438E+03  0.47000000000E+01 0. -1.
         -5    1    1    2    0  502 -0.97173630088E+02  0.31730182580E+02 -0.12533678741E+03  0.16180518889E+03  0.47000000000E+01 0. -1.
        -11    1    1    2    0    0  0.59744527244E+02 -0.81063157880E+02 -0.81125629152E+02  0.12931361802E+03  0.00000000000E+00 0.  1.
         11    1    1    2    0    0  0.49218701259E+02 -0.16162704319E+00 -0.67618094644E+02  0.83634403209E+02  0.00000000000E+00 0. -1.
<mgrwt>
<rscale>  0 0.17598964E+03</rscale>
<asrwt>0</asrwt>
<pdfrwt beam="1">  1        4 0.81174049E-02 0.18464280E+03</pdfrwt>
<pdfrwt beam="2">  1       -4 0.91288340E-01 0.18464280E+03</pdfrwt>
<totfact> 0.19989640E+02</totfact>
</mgrwt>
</event>
<event>
 6    1  0.5818426E-006  0.1367122E+03  0.7546771E-02  0.1230086E+00
         -1   -1    0    0    0  501 -0.00000000000E+00  0.00000000000E+00  0.50445809517E+03  0.50445809517E+03  0.00000000000E+00 0.  1.
          1   -1    0    0  501    0  0.00000000000E+00 -0.00000000000E+00 -0.30089941560E+02  0.30089941560E+02  0.00000000000E+00 0. -1.
          5    1    1    2  502    0  0.18586872933E+02  0.43721458170E+02  0.40848581379E+02  0.62830998325E+02  0.47000000000E+01 0.  1.
         -5    1    1    2    0  502  0.36646475769E+02 -0.47470158991E+02  0.27220294636E+03  0.27877036103E+03  0.47000000000E+01 0.  1.
        -11    1    1    2    0    0 -0.64019064363E+02  0.25219352437E+02  0.67811430194E+02  0.96606658177E+02  0.00000000000E+00 0. -1.
         11    1    1    2    0    0  0.87857156617E+01 -0.21470651617E+02  0.93505195675E+02  0.96340019197E+02  0.00000000000E+00 0.  1.
<mgrwt>
<rscale>  0 0.12824302E+03</rscale>
<asrwt>0</asrwt>
<pdfrwt beam="2">  1        1 0.46292222E-02 0.13671221E+03</pdfrwt>
<pdfrwt beam="1">  1       -1 0.77608931E-01 0.13671221E+03</pdfrwt>
<totfact> 0.31027455E+03</totfact>
</mgrwt>
</event>
<event>
 6    1  0.5818426E-006  0.2486626E+03  0.7546771E-02  0.1116658E+00
         -2   -1    0    0    0  501 -0.00000000000E+00  0.00000000000E+00  0.19478062329E+03  0.19478062329E+03  0.00000000000E+00 0. -1.
          2   -1    0    0  501    0  0.00000000000E+00 -0.00000000000E+00 -0.38747855714E+03  0.38747855714E+03  0.00000000000E+00 0.  1.
          5    1    1    2  502    0 -0.20954333622E+03  0.43362334187E+02  0.56422820083E+02  0.22134662050E+03  0.47000000000E+01 0. -1.
         -5    1    1    2    0  502  0.58633094920E+01  0.25357354211E+02 -0.15509089081E+02  0.30659348573E+02  0.47000000000E+01 0. -1.
        -11    1    1    2    0    0  0.63609902642E+02  0.16059617377E+02 -0.96535258493E+02  0.11671840967E+03  0.00000000000E+00 0.  1.
         11    1    1    2    0    0  0.14007012408E+03 -0.84779305776E+02 -0.13707640636E+03  0.21353480168E+03  0.00000000000E+00 0. -1.
<mgrwt>
<rscale>  0 0.24476549E+03</rscale>
<asrwt>0</asrwt>
<pdfrwt beam="2">  1        2 0.59612085E-01 0.24866257E+03</pdfrwt>
<pdfrwt beam="1">  1       -2 0.29966250E-01 0.24866257E+03</pdfrwt>
<totfact> 0.84873604E+02</totfact>
</mgrwt>
</event>
<event>
 6    1  0.5818426E-006  0.2340168E+03  0.7546771E-02  0.1123844E+00
         -2   -1    0    0    0  501 -0.00000000000E+00  0.00000000000E+00  0.32082118863E+02  0.32082118863E+02  0.00000000000E+00 0.  1.
          2   -1    0    0  501    0  0.00000000000E+00 -0.00000000000E+00 -0.42674765102E+03  0.42674765102E+03  0.00000000000E+00 0. -1.
          5    1    1    2  502    0 -0.23467378432E+02  0.10633109809E+02 -0.11490512514E+03  0.11785185047E+03  0.47000000000E+01 0. -1.
         -5    1    1    2    0  502  0.66533765780E+02 -0.42525104290E+02 -0.65092380559E+02  0.10244137099E+03  0.47000000000E+01 0.  1.
        -11    1    1    2    0    0 -0.15051905922E+02  0.47607967158E+02 -0.19404124756E+03  0.20036238210E+03  0.00000000000E+00 0. -1.
         11    1    1    2    0    0 -0.28014481426E+02 -0.15715972676E+02 -0.20626778903E+02  0.38174166326E+02  0.00000000000E+00 0.  1.
<mgrwt>
<rscale>  0 0.23401683E+03</rscale>
<asrwt>0</asrwt>
<pdfrwt beam="2">  1        2 0.65653483E-01 0.23401683E+03</pdfrwt>
<pdfrwt beam="1">  1       -2 0.49357107E-02 0.23401683E+03</pdfrwt>
<totfact> 0.14587846E+04</totfact>
</mgrwt>
</event>
<event>
 6    1  0.5818426E-006  0.2900118E+03  0.7546771E-02  0.1090343E+00
         -2   -1    0    0    0  501 -0.00000000000E+00  0.00000000000E+00  0.41668995995E+02  0.41668995995E+02  0.00000000000E+00 0. -1.
          2   -1    0    0  501    0  0.00000000000E+00 -0.00000000000E+00 -0.50461273479E+03  0.50461273479E+03  0.00000000000E+00 0.  1.
          5    1    1    2  502    0  0.15668014117E+02  0.24134079880E+02 -0.10771189629E+03  0.11158800599E+03  0.47000000000E+01 0. -1.
         -5    1    1    2    0  502  0.37559537991E+02 -0.95841797364E+02 -0.76885185963E+02  0.12856823417E+03  0.47000000000E+01 0. -1.
        -11    1    1    2    0    0 -0.22243065588E+02  0.34045815966E+02 -0.24161025601E+02  0.47303559164E+02  0.00000000000E+00 0. -1.
         11    1    1    2    0    0 -0.30984486520E+02  0.37661901518E+02 -0.25418563094E+03  0.25882193147E+03  0.00000000000E+00 0.  1.
<mgrwt>
<rscale>  0 0.29001177E+03</rscale>
<asrwt>0</asrwt>
<pdfrwt beam="2">  1        2 0.77632730E-01 0.29001177E+03</pdfrwt>
<pdfrwt beam="1">  1       -2 0.64106146E-02 0.29001177E+03</pdfrwt>
<totfact> 0.82062821E+03</totfact>
</mgrwt>
</event>
<event>
 6    1  0.5818426E-006  0.1314747E+03  0.7546771E-02  0.1238591E+00
          3   -1    0    0  501    0  0.00000000000E+00  0.00000000000E+00  0.87311633097E+02  0.87311633097E+02  0.00000000000E+00 0. -1.
         -3   -1    0    0    0  501 -0.00000000000E+00 -0.00000000000E+00 -0.16704208407E+03  0.16704208407E+03  0.00000000000E+00 0.  1.
          5    1    1    2  502    0  0.64327502373E+02 -0.98142818229E+00 -0.96288672279E+02  0.11589904733E+03  0.47000000000E+01 0.  1.
         -5    1    1    2    0  502 -0.28450465368E+02  0.20294839518E+02  0.15386979854E+02  0.38472829890E+02  0.47000000000E+01 0.  1.
        -11    1    1    2    0    0 -0.64291986909E+02 -0.16116270077E+01 -0.91254084662E+01  0.64956369988E+02  0.00000000000E+00 0.  1.
         11    1    1    2    0    0  0.28414949905E+02 -0.17701784328E+02  0.10296649916E+02  0.35025469961E+02  0.00000000000E+00 0. -1.
<mgrwt>
<rscale>  0 0.12277344E+03</rscale>
<asrwt>0</asrwt>
<pdfrwt beam="1">  1        3 0.13432559E-01 0.13147468E+03</pdfrwt>
<pdfrwt beam="2">  1       -3 0.25698782E-01 0.13147468E+03</pdfrwt>
<totfact> 0.14652261E+03</totfact>
</mgrwt>
</event>
<event>
 6    1  0.5818426E-006  0.1330363E+03  0.7546771E-02  0.1236518E+00
          1   -1    0    0  501    0  0.00000000000E+00  0.00000000000E+00  0.40829913094E+03  0.40829913094E+03  0.00000000000E+00 0. -1.
         -1   -1    0    0    0  501 -0.00000000000E+00 -0.00000000000E+00 -0.50436059684E+02  0.50436059684E+02  0.00000000000E+00 0.  1.
          5    1    1    2  502    0  0.36962368528E+02  0.31794134587E+02  0.16681394678E+02  0.51744010375E+02  0.47000000000E+01 0. -1.
         -5    1    1    2    0  502 -0.80909771726E+02 -0.19926635822E+02  0.46388328086E+02  0.95485229007E+02  0.47000000000E+01 0. -1.
        -11    1    1    2    0    0 -0.19665611417E+02  0.20589002178E+02  0.67547436487E+02  0.73302792983E+02  0.00000000000E+00 0.  1.
         11    1    1    2    0    0  0.63613014615E+02 -0.32456500942E+02  0.22724591201E+03  0.23820315826E+03  0.00000000000E+00 0. -1.
<mgrwt>
<rscale>  0 0.12407778E+03</rscale>
<asrwt>0</asrwt>
<pdfrwt beam="1">  1        1 0.62815249E-01 0.13303631E+03</pdfrwt>
<pdfrwt beam="2">  1       -1 0.77593941E-02 0.13303631E+03</pdfrwt>
<totfact> 0.51125284E+03</totfact>
</mgrwt>
</event>
<event>
 6    1  0.5818426E-006  0.1393055E+03  0.7546771E-02  0.1225202E+00
         -2   -1    0    0    0  501 -0.00000000000E+00  0.00000000000E+00  0.14985590990E+02  0.14985590990E+02  0.00000000000E+00 0.  1.
          2   -1    0    0  501    0  0.00000000000E+00 -0.00000000000E+00 -0.10569570280E+04  0.10569570280E+04  0.00000000000E+00 0. -1.
          5    1    1    2  502    0  0.46434651616E+02  0.50150988182E+00 -0.79115954576E+02  0.91857784925E+02  0.47000000000E+01 0. -1.
         -5    1    1    2    0  502 -0.36919167649E+02  0.60114554577E+02 -0.43908771036E+03  0.44474362502E+03  0.47000000000E+01 0. -1.
        -11    1    1    2    0    0 -0.17677973590E+01  0.23949972379E+02 -0.80228636672E+02  0.83745808413E+02  0.00000000000E+00 0.  1.
         11    1    1    2    0    0 -0.77476866080E+01 -0.84566036837E+02 -0.44353913541E+03  0.45159540063E+03  0.00000000000E+00 0. -1.
<mgrwt>
<rscale>  0 0.13153056E+03</rscale>
<asrwt>0</asrwt>
<pdfrwt beam="2">  1        2 0.16260879E+00 0.13930554E+03</pdfrwt>
<pdfrwt beam="1">  1       -2 0.23054754E-02 0.13930554E+03</pdfrwt>
<totfact> 0.14601043E+04</totfact>
</mgrwt>
</event>
<event>
 6    1  0.5818426E-006  0.1463418E+03  0.7546771E-02  0.1215049E+00
         -1   -1    0    0    0  501 -0.00000000000E+00  0.00000000000E+00  0.41804641131E+02  0.41804641131E+02  0.00000000000E+00 0.  1.
          1   -1    0    0  501    0  0.00000000000E+00 -0.00000000000E+00 -0.50631698499E+03  0.50631698499E+03  0.00000000000E+00 0. -1.
          5    1    1    2  502    0 -0.10847240735E+03  0.27368928643E+01 -0.11071723100E+03  0.15509400047E+03  0.47000000000E+01 0. -1.
         -5    1    1    2    0  502  0.33465586040E+02 -0.15593511972E+02 -0.28345577736E+02  0.46783168360E+02  0.47000000000E+01 0. -1.
        -11    1    1    2    0    0  0.90240055728E+02  0.30020319487E+02 -0.25542229579E+03  0.27255281401E+03  0.00000000000E+00 0. -1.
         11    1    1    2    0    0 -0.15233234415E+02 -0.17163700379E+02 -0.70027239327E+02  0.73691643279E+02  0.00000000000E+00 0.  1.
<mgrwt>
<rscale>  0 0.13872905E+03</rscale>
<asrwt>0</asrwt>
<pdfrwt beam="2">  1        1 0.77894922E-01 0.14634181E+03</pdfrwt>
<pdfrwt beam="1">  1       -1 0.64314831E-02 0.14634181E+03</pdfrwt>
<totfact> 0.51656802E+03</totfact>
</mgrwt>
</event>
<event>
 6    1  0.5818426E-006  0.1300196E+03  0.7546771E-02  0.1240885E+00
         -1   -1    0    0    0  501 -0.00000000000E+00  0.00000000000E+00  0.58957520807E+02  0.58957520807E+02  0.00000000000E+00 0.  1.
          1   -1    0    0  501    0  0.00000000000E+00 -0.00000000000E+00 -0.30249670686E+03  0.30249670686E+03  0.00000000000E+00 0. -1.
          5    1    1    2  502    0  0.65243636932E+01 -0.75222151879E+02 -0.57012262218E+01  0.75865232058E+02  0.47000000000E+01 0.  1.
         -5    1    1    2    0  502 -0.23146525786E+02  0.42925526834E+02 -0.35579200912E+02  0.60550243992E+02  0.47000000000E+01 0.  1.
        -11    1    1    2    0    0 -0.13784579612E+02  0.13234196037E+02  0.51262582838E+00  0.19115997621E+02  0.00000000000E+00 0.  1.
         11    1    1    2    0    0  0.30406741705E+02  0.19062429007E+02 -0.20277138475E+03  0.20592275400E+03  0.00000000000E+00 0. -1.
<mgrwt>
<rscale>  0 0.12135068E+03</rscale>
<asrwt>0</asrwt>
<pdfrwt beam="2">  1        1 0.46537955E-01 0.13001965E+03</pdfrwt>
<pdfrwt beam="1">  1       -1 0.90703878E-02 0.13001965E+03</pdfrwt>
<totfact> 0.58623579E+03</totfact>
</mgrwt>
</event>
<event>
 6    1  0.5818426E-006  0.1256543E+03  0.7546771E-02  0.1249300E+00
          2   -1    0    0  501    0  0.00000000000E+00  0.00000000000E+00  0.63910512686E+03  0.63910512686E+03  0.00000000000E+00 0. -1.
         -2   -1    0    0    0  501 -0.00000000000E+00 -0.00000000000E+00 -0.18581680245E+02  0.18581680245E+02  0.00000000000E+00 0.  1.
          5    1    1    2  502    0 -0.30011569765E+02  0.54103034624E+02  0.13034871579E+03  0.14436311989E+03  0.47000000000E+01 0. -1.
         -5    1    1    2    0  502  0.38561903507E+02 -0.44488647408E+02  0.22192851335E+03  0.22965324989E+03  0.47000000000E+01 0. -1.
        -11    1    1    2    0    0 -0.35802469806E+02 -0.38094422358E+02  0.16827626436E+03  0.17620982664E+03  0.00000000000E+00 0.  1.
         11    1    1    2    0    0  0.27252136064E+02  0.28480035141E+02  0.99969953123E+02  0.10746061069E+03  0.00000000000E+00 0. -1.
<mgrwt>
<rscale>  0 0.11631683E+03</rscale>
<asrwt>0</asrwt>
<pdfrwt beam="1">  1        2 0.98323849E-01 0.12565428E+03</pdfrwt>
<pdfrwt beam="2">  1       -2 0.28587205E-02 0.12565428E+03</pdfrwt>
<totfact> 0.20000759E+04</totfact>
</mgrwt>
</event>
<event>
 6    1  0.5818426E-006  0.1347184E+03  0.7546771E-02  0.1234374E+00
          1   -1    0    0  501    0  0.00000000000E+00  0.00000000000E+00  0.59613975002E+03  0.59613975002E+03  0.00000000000E+00 0. -1.
         -1   -1    0    0    0  501 -0.00000000000E+00 -0.00000000000E+00 -0.46304172952E+02  0.46304172952E+02  0.00000000000E+00 0.  1.
          5    1    1    2  502    0  0.14057413967E+02  0.41125290541E+02  0.10383484299E+03  0.11266172832E+03  0.47000000000E+01 0. -1.
         -5    1    1    2    0  502 -0.15497323494E+02  0.91071822027E+01 -0.34251177170E+02  0.38965894584E+02  0.47000000000E+01 0. -1.
        -11    1    1    2    0    0 -0.40565139914E+02 -0.38651547430E+02  0.22496990677E+03  0.23184247162E+03  0.00000000000E+00 0.  1.
         11    1    1    2    0    0  0.42005049441E+02 -0.11580925313E+02  0.25528200449E+03  0.25897382845E+03  0.00000000000E+00 0. -1.
<mgrwt>
<rscale>  0 0.12544604E+03</rscale>
<asrwt>0</asrwt>
<pdfrwt beam="1">  1        1 0.91713802E-01 0.13471841E+03</pdfrwt>
<pdfrwt beam="2">  1       -1 0.71237193E-02 0.13471841E+03</pdfrwt>
<totfact> 0.35514836E+03</totfact>
</mgrwt>
</event>
<event>
 6    1  0.5818426E-006  0.1274848E+03  0.7546771E-02  0.1244673E+00
          1   -1    0    0  501    0  0.00000000000E+00  0.00000000000E+00  0.42935272313E+02  0.42935272313E+02  0.00000000000E+00 0. -1.
         -1   -1    0    0    0  501 -0.00000000000E+00 -0.00000000000E+00 -0.31247225605E+03  0.31247225605E+03  0.00000000000E+00 0.  1.
          5    1    1    2  502    0  0.41509779565E+02 -0.55113320494E+02 -0.64937293176E+02  0.94865599352E+02  0.47000000000E+01 0. -1.
         -5    1    1    2    0  502 -0.20781615897E+02  0.41059752813E+02 -0.13068503241E+03  0.13863061190E+03  0.47000000000E+01 0. -1.
        -11    1    1    2    0    0  0.15381878404E+02 -0.11868108708E+02 -0.74971596400E+02  0.77448011300E+02  0.00000000000E+00 0.  1.
         11    1    1    2    0    0 -0.36110042072E+02  0.25921676389E+02  0.10569382446E+01  0.44463305812E+02  0.00000000000E+00 0. -1.
<mgrwt>
<rscale>  0 0.11904992E+03</rscale>
<asrwt>0</asrwt>
<pdfrwt beam="1">  1        1 0.66054264E-02 0.12748485E+03</pdfrwt>
<pdfrwt beam="2">  1       -1 0.48072656E-01 0.12748485E+03</pdfrwt>
<totfact> 0.47541945E+03</totfact>
</mgrwt>
</event>
<event>
 6    1  0.5818426E-006  0.1712053E+03  0.7546771E-02  0.1183780E+00
          1   -1    0    0  501    0  0.00000000000E+00  0.00000000000E+00  0.33072363863E+03  0.33072363863E+03  0.00000000000E+00 0. -1.
         -1   -1    0    0    0  501 -0.00000000000E+00 -0.00000000000E+00 -0.76051929142E+02  0.76051929142E+02  0.00000000000E+00 0.  1.
          5    1    1    2  502    0 -0.63970310047E+02  0.41241104001E+02  0.11451227339E+03  0.13757972228E+03  0.47000000000E+01 0.  1.
         -5    1    1    2    0  502  0.27559858703E+02  0.69930986842E+02  0.14266311185E+02  0.76651851688E+02  0.47000000000E+01 0.  1.
        -11    1    1    2    0    0 -0.15127778223E+02 -0.23243765111E+02  0.72206537016E+02  0.77349248726E+02  0.00000000000E+00 0.  1.
         11    1    1    2    0    0  0.51538229567E+02 -0.87928325731E+02  0.53686587898E+02  0.11519474508E+03  0.00000000000E+00 0. -1.
<mgrwt>
<rscale>  0 0.16443396E+03</rscale>
<asrwt>0</asrwt>
<pdfrwt beam="1">  1        1 0.50880559E-01 0.17120527E+03</pdfrwt>
<pdfrwt beam="2">  1       -1 0.11700297E-01 0.17120527E+03</pdfrwt>
<totfact> 0.36032817E+03</totfact>
</mgrwt>
</event>
<event>
 6    1  0.5818426E-006  0.1338574E+03  0.7546771E-02  0.1236541E+00
         -2   -1    0    0    0  501 -0.00000000000E+00  0.00000000000E+00  0.50982681001E+02  0.50982681001E+02  0.00000000000E+00 0.  1.
          2   -1    0    0  501    0  0.00000000000E+00 -0.00000000000E+00 -0.29147668975E+03  0.29147668975E+03  0.00000000000E+00 0. -1.
          5    1    1    2  502    0 -0.79146009638E+01  0.37827530072E+02 -0.78510723402E+02  0.87633250704E+02  0.47000000000E+01 0. -1.
         -5    1    1    2    0  502  0.10768628687E+02 -0.70119909214E+02 -0.75374334934E+01  0.71495929504E+02  0.47000000000E+01 0.  1.
        -11    1    1    2    0    0  0.39665720133E+02  0.23416960533E+02 -0.11785234800E+03  0.12653418243E+03  0.00000000000E+00 0.  1.
         11    1    1    2    0    0 -0.42519747856E+02  0.88754186084E+01 -0.36593503855E+02  0.56796008113E+02  0.00000000000E+00 0. -1.
<mgrwt>
<rscale>  0 0.12406328E+03</rscale>
<asrwt>0</asrwt>
<pdfrwt beam="2">  1        2 0.44842569E-01 0.13385743E+03</pdfrwt>
<pdfrwt beam="1">  1       -2 0.78434892E-02 0.13385743E+03</pdfrwt>
<totfact> 0.10390926E+04</totfact>
</mgrwt>
</event>
<event>
 6    1  0.5818426E-006  0.1466022E+03  0.7546771E-02  0.1228384E+00
         -1   -1    0    0    0  501 -0.00000000000E+00  0.00000000000E+00  0.13875483575E+03  0.13875483575E+03  0.00000000000E+00 0.  1.
          1   -1    0    0  501    0  0.00000000000E+00 -0.00000000000E+00 -0.31669638129E+03  0.31669638129E+03  0.00000000000E+00 0. -1.
          5    1    1    2  502    0 -0.38768881639E+02  0.57519169266E+02  0.20335163707E+02  0.72436799347E+02  0.47000000000E+01 0. -1.
         -5    1    1    2    0  502  0.41928901926E+02 -0.57074393207E+02  0.70422226741E+02  0.99984494777E+02  0.47000000000E+01 0.  1.
        -11    1    1    2    0    0  0.42194910949E+02 -0.20983011384E+01 -0.10569102868E+03  0.11382182094E+03  0.00000000000E+00 0.  1.
         11    1    1    2    0    0 -0.45354931236E+02  0.16535250791E+01 -0.16300790730E+03  0.16920810198E+03  0.00000000000E+00 0. -1.
<mgrwt>
<rscale>  0 0.12937654E+03</rscale>
<asrwt>0</asrwt>
<pdfrwt beam="2">  1        1 0.48722519E-01 0.14660218E+03</pdfrwt>
<pdfrwt beam="1">  1       -1 0.21346898E-01 0.14660218E+03</pdfrwt>
<totfact> 0.14622957E+03</totfact>
</mgrwt>
</event>
<event>
 6    1  0.5818426E-006  0.1291928E+03  0.7546771E-02  0.1243361E+00
         -1   -1    0    0    0  501 -0.00000000000E+00  0.00000000000E+00  0.11660422660E+03  0.11660422660E+03  0.00000000000E+00 0.  1.
          1   -1    0    0  501    0  0.00000000000E+00 -0.00000000000E+00 -0.16669128883E+03  0.16669128883E+03  0.00000000000E+00 0. -1.
          5    1    1    2  502    0  0.25703857796E+02  0.13452446952E+02 -0.25338404952E+02  0.38804399237E+02  0.47000000000E+01 0.  1.
         -5    1    1    2    0  502 -0.52753089819E+02 -0.31765550222E+02  0.81027665885E+02  0.10187988666E+03  0.47000000000E+01 0.  1.
        -11    1    1    2    0    0  0.58470416922E+01 -0.20159575560E+02 -0.95120776553E+02  0.97409232187E+02  0.00000000000E+00 0. -1.
         11    1    1    2    0    0  0.21202190331E+02  0.38472678830E+02 -0.10655546611E+02  0.45201997354E+02  0.00000000000E+00 0.  1.
<mgrwt>
<rscale>  0 0.11984015E+03</rscale>
<asrwt>0</asrwt>
<pdfrwt beam="2">  1        1 0.25644814E-01 0.12919278E+03</pdfrwt>
<pdfrwt beam="1">  1       -1 0.17939112E-01 0.12919278E+03</pdfrwt>
<totfact> 0.42640846E+03</totfact>
</mgrwt>
</event>
<event>
 6    1  0.5818426E-006  0.1612461E+03  0.7546771E-02  0.1195263E+00
          1   -1    0    0  501    0  0.00000000000E+00  0.00000000000E+00  0.14449475617E+03  0.14449475617E+03  0.00000000000E+00 0. -1.
         -1   -1    0    0    0  501 -0.00000000000E+00 -0.00000000000E+00 -0.15274521343E+03  0.15274521343E+03  0.00000000000E+00 0.  1.
          5    1    1    2  502    0 -0.76869079500E+02  0.88328834628E+02 -0.14751955765E+02  0.11811244053E+03  0.47000000000E+01 0.  1.
         -5    1    1    2    0  502  0.42787226261E+02  0.76833273677E+01  0.83684285192E+00  0.43732945893E+02  0.47000000000E+01 0.  1.
        -11    1    1    2    0    0 -0.46936200604E+00 -0.12874790153E+02 -0.34487746808E+02  0.36815556522E+02  0.00000000000E+00 0.  1.
         11    1    1    2    0    0  0.34551215245E+02 -0.83137371843E+02  0.40152402463E+02  0.98579026651E+02  0.00000000000E+00 0. -1.
<mgrwt>
<rscale>  0 0.15431996E+03</rscale>
<asrwt>0</asrwt>
<pdfrwt beam="1">  1        1 0.22229963E-01 0.16124608E+03</pdfrwt>
<pdfrwt beam="2">  1       -1 0.23499263E-01 0.16124608E+03</pdfrwt>
<totfact> 0.33428036E+03</totfact>
</mgrwt>
</event>
<event>
 6    1  0.5818426E-006  0.1522466E+03  0.7546771E-02  0.1205522E+00
          2   -1    0    0  501    0  0.00000000000E+00  0.00000000000E+00  0.97423130117E+03  0.97423130117E+03  0.00000000000E+00 0.  1.
         -2   -1    0    0    0  501 -0.00000000000E+00 -0.00000000000E+00 -0.20594095437E+02  0.20594095437E+02  0.00000000000E+00 0. -1.
          5    1    1    2  502    0  0.86199054293E+02 -0.56096583293E+02  0.44069201112E+03  0.45255788832E+03  0.47000000000E+01 0. -1.
         -5    1    1    2    0  502 -0.20867427341E+02 -0.12347616659E+01  0.10964350584E+02  0.24068260094E+02  0.47000000000E+01 0. -1.
        -11    1    1    2    0    0  0.12552190938E+02 -0.25778842104E+01  0.93453024658E+01  0.15859938919E+02  0.00000000000E+00 0. -1.
         11    1    1    2    0    0 -0.77883817890E+02  0.59909229169E+02  0.49263554157E+03  0.50233930928E+03  0.00000000000E+00 0.  1.
<mgrwt>
<rscale>  0 0.14596416E+03</rscale>
<asrwt>0</asrwt>
<pdfrwt beam="1">  1        2 0.14988170E+00 0.15224656E+03</pdfrwt>
<pdfrwt beam="2">  1       -2 0.31683231E-02 0.15224656E+03</pdfrwt>
<totfact> 0.10310073E+04</totfact>
</mgrwt>
</event>
<event>
 6    1  0.5818426E-006  0.1309891E+03  0.7546771E-02  0.1240102E+00
          3   -1    0    0  501    0  0.00000000000E+00  0.00000000000E+00  0.12112245871E+03  0.12112245871E+03  0.00000000000E+00 0. -1.
         -3   -1    0    0    0  501 -0.00000000000E+00 -0.00000000000E+00 -0.12190847797E+03  0.12190847797E+03  0.00000000000E+00 0.  1.
          5    1    1    2  502    0 -0.15806091247E+02  0.22463241539E+02  0.32186662711E+02  0.42573477628E+02  0.47000000000E+01 0.  1.
         -5    1    1    2    0  502  0.44527994674E+01 -0.59925412316E+02 -0.72913373208E+02  0.94600911501E+02  0.47000000000E+01 0.  1.
        -11    1    1    2    0    0 -0.50072589526E+01 -0.12235689135E+02 -0.21448484456E+02  0.25195678524E+02  0.00000000000E+00 0.  1.
         11    1    1    2    0    0  0.16360550732E+02  0.49697859912E+02  0.61389175690E+02  0.80660869026E+02  0.00000000000E+00 0. -1.
<mgrwt>
<rscale>  0 0.12183408E+03</rscale>
<asrwt>0</asrwt>
<pdfrwt beam="1">  1        3 0.18634224E-01 0.13098911E+03</pdfrwt>
<pdfrwt beam="2">  1       -3 0.18755150E-01 0.13098911E+03</pdfrwt>
<totfact> 0.14611496E+03</totfact>
</mgrwt>
</event>
<event>
 6    1  0.5818426E-006  0.1362992E+03  0.7546771E-02  0.1226015E+00
         -3   -1    0    0    0  501 -0.00000000000E+00  0.00000000000E+00  0.65696927805E+02  0.65696927805E+02  0.00000000000E+00 0.  1.
          3   -1    0    0  501    0  0.00000000000E+00 -0.00000000000E+00 -0.25459279757E+03  0.25459279757E+03  0.00000000000E+00 0. -1.
          5    1    1    2  502    0 -0.78069367370E+02 -0.13740112432E+02 -0.18953466413E+02  0.81639088066E+02  0.47000000000E+01 0. -1.
         -5    1    1    2    0  502  0.16414819702E+02  0.48293004446E+02 -0.48077997405E+02  0.70251294783E+02  0.47000000000E+01 0.  1.
        -11    1    1    2    0    0 -0.13043437566E+02  0.16865939019E+02 -0.78546882742E+01  0.22721956131E+02  0.00000000000E+00 0.  1.
         11    1    1    2    0    0  0.74697985234E+02 -0.51418831033E+02 -0.11400971767E+03  0.14567738639E+03  0.00000000000E+00 0. -1.
<mgrwt>
<rscale>  0 0.13097592E+03</rscale>
<asrwt>0</asrwt>
<pdfrwt beam="2">  1        3 0.39168124E-01 0.13629920E+03</pdfrwt>
<pdfrwt beam="1">  1       -3 0.10107219E-01 0.13629920E+03</pdfrwt>
<totfact> 0.10815437E+03</totfact>
</mgrwt>
</event>
<event>
 6    1  0.5818426E-006  0.1589562E+03  0.7546771E-02  0.1198108E+00
          2   -1    0    0  501    0  0.00000000000E+00  0.00000000000E+00  0.98672214417E+03  0.98672214417E+03  0.00000000000E+00 0. -1.
         -2   -1    0    0    0  501 -0.00000000000E+00 -0.00000000000E+00 -0.22260738184E+02  0.22260738184E+02  0.00000000000E+00 0.  1.
          5    1    1    2  502    0  0.92435174009E+02  0.85513531214E+01  0.16090948528E+03  0.18582610013E+03  0.47000000000E+01 0.  1.
         -5    1    1    2    0  502 -0.99038995016E+01  0.40799871211E+02  0.27367361033E+03  0.27691524282E+03  0.47000000000E+01 0.  1.
        -11    1    1    2    0    0 -0.87115074452E+02 -0.98613377808E+01  0.42788139457E+03  0.43677084380E+03  0.00000000000E+00 0.  1.
         11    1    1    2    0    0  0.45837999444E+01 -0.39489886551E+02  0.10199691581E+03  0.10947069561E+03  0.00000000000E+00 0. -1.
<mgrwt>
<rscale>  0 0.15194079E+03</rscale>
<asrwt>0</asrwt>
<pdfrwt beam="1">  1        2 0.15180337E+00 0.15895623E+03</pdfrwt>
<pdfrwt beam="2">  1       -2 0.34247297E-02 0.15895623E+03</pdfrwt>
<totfact> 0.90500240E+03</totfact>
</mgrwt>
</event>
<event>
 6    1  0.5818426E-006  0.1424096E+03  0.7546771E-02  0.1221445E+00
          1   -1    0    0  501    0  0.00000000000E+00  0.00000000000E+00  0.12678236417E+03  0.12678236417E+03  0.00000000000E+00 0. -1.
         -1   -1    0    0    0  501 -0.00000000000E+00 -0.00000000000E+00 -0.12835707733E+03  0.12835707733E+03  0.00000000000E+00 0.  1.
          5    1    1    2  502    0  0.60911920174E+02 -0.23504966639E+02 -0.44927487265E+02  0.79393416528E+02  0.47000000000E+01 0. -1.
         -5    1    1    2    0  502 -0.17661590936E+02 -0.29275553966E+02  0.52998231359E+02  0.63244702399E+02  0.47000000000E+01 0. -1.
        -11    1    1    2    0    0 -0.10871983535E+02 -0.59496584843E+00 -0.41155515576E+02  0.42571474871E+02  0.00000000000E+00 0.  1.
         11    1    1    2    0    0 -0.32378345703E+02  0.53375486453E+02  0.31510058323E+02  0.69929847705E+02  0.00000000000E+00 0. -1.
<mgrwt>
<rscale>  0 0.13413538E+03</rscale>
<asrwt>0</asrwt>
<pdfrwt beam="1">  1        1 0.19504979E-01 0.14240961E+03</pdfrwt>
<pdfrwt beam="2">  1       -1 0.19747243E-01 0.14240961E+03</pdfrwt>
<totfact> 0.51984498E+03</totfact>
</mgrwt>
</event>
<event>
 6    1  0.5818426E-006  0.1255016E+03  0.7546771E-02  0.1258212E+00
          3   -1    0    0  501    0  0.00000000000E+00  0.00000000000E+00  0.92551236701E+02  0.92551236701E+02  0.00000000000E+00 0. -1.
         -3   -1    0    0    0  501 -0.00000000000E+00 -0.00000000000E+00 -0.11200558092E+03  0.11200558092E+03  0.00000000000E+00 0.  1.
          5    1    1    2  502    0 -0.62852937841E+01 -0.59459807953E+02 -0.40964096085E+02  0.72630027177E+02  0.47000000000E+01 0.  1.
         -5    1    1    2    0  502  0.10388453460E+01  0.49594721179E+02  0.21688243701E+02  0.54343219295E+02  0.47000000000E+01 0.  1.
        -11    1    1    2    0    0 -0.22601518129E+02 -0.17404066928E+02 -0.19027124285E+02  0.34289380658E+02  0.00000000000E+00 0.  1.
         11    1    1    2    0    0  0.27847966567E+02  0.27269153702E+02  0.18848632445E+02  0.43294190495E+02  0.00000000000E+00 0. -1.
<mgrwt>
<rscale>  0 0.11128306E+03</rscale>
<asrwt>0</asrwt>
<pdfrwt beam="1">  1        3 0.14238652E-01 0.12550158E+03</pdfrwt>
<pdfrwt beam="2">  1       -3 0.17231628E-01 0.12550158E+03</pdfrwt>
<totfact> 0.26698601E+03</totfact>
</mgrwt>
</event>
<event>
 6    1  0.5818426E-006  0.1282354E+03  0.7546771E-02  0.1244947E+00
          4   -1    0    0  501    0  0.00000000000E+00  0.00000000000E+00  0.18115652930E+03  0.18115652930E+03  0.00000000000E+00 0. -1.
         -4   -1    0    0    0  501 -0.00000000000E+00 -0.00000000000E+00 -0.32887959399E+03  0.32887959399E+03  0.00000000000E+00 0.  1.
          5    1    1    2  502    0 -0.10058101790E+02  0.41769758505E+02 -0.57516810877E+02  0.71945477069E+02  0.47000000000E+01 0. -1.
         -5    1    1    2    0  502  0.16035857746E+02 -0.74525410629E+02 -0.24499008811E+03  0.25661920979E+03  0.47000000000E+01 0.  1.
        -11    1    1    2    0    0  0.38300952956E+02  0.21163885439E+01  0.44546598853E+02  0.58786406313E+02  0.00000000000E+00 0.  1.
         11    1    1    2    0    0 -0.44278708912E+02  0.30639263580E+02  0.11023723545E+03  0.12268503012E+03  0.00000000000E+00 0. -1.
<mgrwt>
<rscale>  0 0.11888537E+03</rscale>
<asrwt>0</asrwt>
<pdfrwt beam="1">  1        4 0.27870236E-01 0.12823545E+03</pdfrwt>
<pdfrwt beam="2">  1       -4 0.50596860E-01 0.12823545E+03</pdfrwt>
<totfact> 0.77079474E+01</totfact>
</mgrwt>
</event>
<event>
 6    1  0.5818426E-006  0.1327375E+03  0.7546771E-02  0.1251506E+00
          1   -1    0    0  501    0  0.00000000000E+00  0.00000000000E+00  0.65228003570E+02  0.65228003570E+02  0.00000000000E+00 0. -1.
         -1   -1    0    0    0  501 -0.00000000000E+00 -0.00000000000E+00 -0.16536968364E+03  0.16536968364E+03  0.00000000000E+00 0.  1.
          5    1    1    2  502    0 -0.63707678458E+02 -0.46392565869E+02 -0.61813806252E+01  0.79191148046E+02  0.47000000000E+01 0. -1.
         -5    1    1    2    0  502  0.36541638387E+02  0.10990526088E+02 -0.54655923441E+02  0.66823970003E+02  0.47000000000E+01 0. -1.
        -11    1    1    2    0    0  0.14489246789E+01  0.36042864873E+02  0.17721144852E+01  0.36115479794E+02  0.00000000000E+00 0. -1.
         11    1    1    2    0    0  0.25717115392E+02 -0.64082509255E+00 -0.41076490489E+02  0.48467089368E+02  0.00000000000E+00 0.  1.
<mgrwt>
<rscale>  0 0.11504281E+03</rscale>
<asrwt>0</asrwt>
<pdfrwt beam="1">  1        1 0.10035077E-01 0.13273747E+03</pdfrwt>
<pdfrwt beam="2">  1       -1 0.25441490E-01 0.13273747E+03</pdfrwt>
<totfact> 0.81336100E+03</totfact>
</mgrwt>
</event>
<event>
 6    1  0.5818426E-006  0.1394819E+03  0.7546771E-02  0.1225949E+00
         -2   -1    0    0    0  501 -0.00000000000E+00  0.00000000000E+00  0.39277045421E+03  0.39277045421E+03  0.00000000000E+00 0.  1.
          2   -1    0    0  501    0  0.00000000000E+00 -0.00000000000E+00 -0.39493060917E+02  0.39493060917E+02  0.00000000000E+00 0. -1.
          5    1    1    2  502    0 -0.35804736485E+02  0.56284786987E+02  0.10279088145E+03  0.12262957111E+03  0.47000000000E+01 0. -1.
         -5    1    1    2    0  502 -0.24972680286E+02 -0.68004741555E+02  0.11500681548E+03  0.13600344570E+03  0.47000000000E+01 0. -1.
        -11    1    1    2    0    0  0.20102463950E+02  0.42474099684E+02  0.28084286125E+02  0.54743815431E+02  0.00000000000E+00 0. -1.
         11    1    1    2    0    0  0.40674952821E+02 -0.30754145116E+02  0.10739541023E+03  0.11888668289E+03  0.00000000000E+00 0.  1.
<mgrwt>
<rscale>  0 0.13102088E+03</rscale>
<asrwt>0</asrwt>
<pdfrwt beam="2">  1        2 0.60758558E-02 0.13948190E+03</pdfrwt>
<pdfrwt beam="1">  1       -2 0.60426221E-01 0.13948190E+03</pdfrwt>
<totfact> 0.30344594E+03</totfact>
</mgrwt>
</event>
<event>
 6    1  0.5818426E-006  0.1404348E+03  0.7546771E-02  0.1225476E+00
         -2   -1    0    0    0  501 -0.00000000000E+00  0.00000000000E+00  0.77293916565E+02  0.77293916565E+02  0.00000000000E+00 0. -1.
          2   -1    0    0  501    0  0.00000000000E+00 -0.00000000000E+00 -0.19957189481E+03  0.19957189481E+03  0.00000000000E+00 0.  1.
          5    1    1    2  502    0  0.75187860817E+02  0.20158388417E+02 -0.58802208638E+02  0.97669671744E+02  0.47000000000E+01 0. -1.
         -5    1    1    2    0  502 -0.19363298216E+02 -0.51457877861E+02 -0.16004825064E+01  0.55204185131E+02  0.47000000000E+01 0. -1.
        -11    1    1    2    0    0 -0.10336186936E+02 -0.29609911380E+02 -0.16097300168E+02  0.35252045118E+02  0.00000000000E+00 0.  1.
         11    1    1    2    0    0 -0.45488375666E+02  0.60909400824E+02 -0.45777986931E+02  0.88739909380E+02  0.00000000000E+00 0. -1.
<mgrwt>
<rscale>  0 0.13134315E+03</rscale>
<asrwt>0</asrwt>
<pdfrwt beam="2">  1        2 0.30703369E-01 0.14043479E+03</pdfrwt>
<pdfrwt beam="1">  1       -2 0.11891372E-01 0.14043479E+03</pdfrwt>
<totfact> 0.81398692E+03</totfact>
</mgrwt>
</event>
<event>
 6    1  0.5818426E-006  0.1530308E+03  0.7546771E-02  0.1205582E+00
         -2   -1    0    0    0  501 -0.00000000000E+00  0.00000000000E+00  0.19823715501E+03  0.19823715501E+03  0.00000000000E+00 0.  1.
          2   -1    0    0  501    0  0.00000000000E+00 -0.00000000000E+00 -0.99501194375E+02  0.99501194375E+02  0.00000000000E+00 0. -1.
          5    1    1    2  502    0 -0.20649243644E+02 -0.71774907242E+02  0.85569208428E+02  0.11367589016E+03  0.47000000000E+01 0.  1.
         -5    1    1    2    0  502  0.49728182636E+02 -0.11575604712E+02 -0.16995168733E+02  0.54016780106E+02  0.47000000000E+01 0.  1.
        -11    1    1    2    0    0  0.12139760525E+02 -0.14869972258E+02 -0.49686924777E+00  0.19202519095E+02  0.00000000000E+00 0. -1.
         11    1    1    2    0    0 -0.41218699517E+02  0.98220484212E+02  0.30658790190E+02  0.11084316003E+03  0.00000000000E+00 0.  1.
<mgrwt>
<rscale>  0 0.14591718E+03</rscale>
<asrwt>0</asrwt>
<pdfrwt beam="2">  1        2 0.15307876E-01 0.15303082E+03</pdfrwt>
<pdfrwt beam="1">  1       -2 0.30498024E-01 0.15303082E+03</pdfrwt>
<totfact> 0.36434429E+03</totfact>
</mgrwt>
</event>
<event>
 6    1  0.5818426E-006  0.1701041E+03  0.7546771E-02  0.1183523E+00
         -1   -1    0    0    0  501 -0.00000000000E+00  0.00000000000E+00  0.46812657765E+02  0.46812657765E+02  0.00000000000E+00 0.  1.
          1   -1    0    0  501    0  0.00000000000E+00 -0.00000000000E+00 -0.70291711543E+03  0.70291711543E+03  0.00000000000E+00 0. -1.
          5    1    1    2  502    0  0.10108295082E+03  0.98708842540E+02 -0.12788777306E+03  0.19062678469E+03  0.47000000000E+01 0.  1.
         -5    1    1    2    0  502 -0.23324912235E+02 -0.13480522676E+02 -0.39341007292E+02  0.47912220541E+02  0.47000000000E+01 0.  1.
        -11    1    1    2    0    0 -0.96707786365E+02 -0.80177210648E+02 -0.37090091378E+03  0.39159707468E+03  0.00000000000E+00 0.  1.
         11    1    1    2    0    0  0.18949747785E+02 -0.50511092166E+01 -0.11797476353E+03  0.11959369329E+03  0.00000000000E+00 0. -1.
<mgrwt>
<rscale>  0 0.16466999E+03</rscale>
<asrwt>0</asrwt>
<pdfrwt beam="2">  1        1 0.10814109E+00 0.17010406E+03</pdfrwt>
<pdfrwt beam="1">  1       -1 0.72019476E-02 0.17010406E+03</pdfrwt>
<totfact> 0.27965054E+03</totfact>
</mgrwt>
</event>
<event>
 6    1  0.5818426E-006  0.1288144E+03  0.7546771E-02  0.1239469E+00
         -2   -1    0    0    0  501 -0.00000000000E+00  0.00000000000E+00  0.33904359827E+02  0.33904359827E+02  0.00000000000E+00 0.  1.
          2   -1    0    0  501    0  0.00000000000E+00 -0.00000000000E+00 -0.41321604573E+03  0.41321604573E+03  0.00000000000E+00 0. -1.
          5    1    1    2  502    0  0.40279873653E+02 -0.12044809032E+02 -0.11285569236E+03  0.12052403471E+03  0.47000000000E+01 0.  1.
         -5    1    1    2    0  502 -0.70235611493E+02  0.20322966847E+02 -0.57978362769E+02  0.93432567408E+02  0.47000000000E+01 0.  1.
        -11    1    1    2    0    0 -0.10038980762E+02  0.33266136009E+02 -0.13692666005E+03  0.14126686509E+03  0.00000000000E+00 0.  1.
         11    1    1    2    0    0  0.39994718602E+02 -0.41544293824E+02 -0.71550970723E+02  0.91896938343E+02  0.00000000000E+00 0. -1.
<mgrwt>
<rscale>  0 0.12222605E+03</rscale>
<asrwt>0</asrwt>
<pdfrwt beam="2">  1        2 0.63571700E-01 0.12881441E+03</pdfrwt>
<pdfrwt beam="1">  1       -2 0.52160553E-02 0.12881441E+03</pdfrwt>
<totfact> 0.13301674E+04</totfact>
</mgrwt>
</event>
<event>
 6    1  0.5818426E-006  0.2892064E+03  0.7546771E-02  0.1090764E+00
          2   -1    0    0  501    0  0.00000000000E+00  0.00000000000E+00  0.67140362588E+03  0.67140362588E+03  0.00000000000E+00 0. -1.
         -2   -1    0    0    0  501 -0.00000000000E+00 -0.00000000000E+00 -0.31143839603E+02  0.31143839603E+02  0.00000000000E+00 0.  1.
          5    1    1    2  502    0  0.26707857445E+02 -0.22871056419E+02  0.17892586321E+02  0.39731970958E+02  0.47000000000E+01 0. -1.
         -5    1    1    2    0  502 -0.65134961887E+02 -0.64453364434E+02  0.32107810783E+03  0.33393119167E+03  0.47000000000E+01 0. -1.
        -11    1    1    2    0    0  0.57436857132E+02  0.18909376675E+02  0.15130164680E+03  0.16293785751E+03  0.00000000000E+00 0.  1.
         11    1    1    2    0    0 -0.19009752689E+02  0.68415044178E+02  0.14998744533E+03  0.16594644535E+03  0.00000000000E+00 0. -1.
<mgrwt>
<rscale>  0 0.28920641E+03</rscale>
<asrwt>0</asrwt>
<pdfrwt beam="1">  1        2 0.10329285E+00 0.28920641E+03</pdfrwt>
<pdfrwt beam="2">  1       -2 0.47913604E-02 0.28920641E+03</pdfrwt>
<totfact> 0.92043765E+03</totfact>
</mgrwt>
</event>
<event>
 6    1  0.5818426E-006  0.2651713E+03  0.7546771E-02  0.1128650E+00
         -2   -1    0    0    0  501 -0.00000000000E+00  0.00000000000E+00  0.18070477530E+03  0.18070477530E+03  0.00000000000E+00 0.  1.
          2   -1    0    0  501    0  0.00000000000E+00 -0.00000000000E+00 -0.23921808736E+03  0.23921808736E+03  0.00000000000E+00 0. -1.
          5    1    1    2  502    0  0.57337313613E+02 -0.15792303313E+03 -0.20416960632E+02  0.16931093942E+03  0.47000000000E+01 0. -1.
         -5    1    1    2    0  502 -0.78852576076E+02  0.49885797033E+02  0.21475550908E+02  0.95862457648E+02  0.47000000000E+01 0.  1.
        -11    1    1    2    0    0  0.24202256506E+02  0.56269321840E+02 -0.78494677569E+02  0.99566059513E+02  0.00000000000E+00 0.  1.
         11    1    1    2    0    0 -0.26869940426E+01  0.51767914257E+02  0.18922775232E+02  0.55183406074E+02  0.00000000000E+00 0. -1.
<mgrwt>
<rscale>  0 0.22716681E+03</rscale>
<asrwt>0</asrwt>
<pdfrwt beam="2">  1        2 0.36802782E-01 0.26517128E+03</pdfrwt>
<pdfrwt beam="1">  1       -2 0.27800735E-01 0.26517128E+03</pdfrwt>
<totfact> 0.16410177E+03</totfact>
</mgrwt>
</event>
<event>
 6    1  0.5818426E-006  0.3521734E+03  0.7546771E-02  0.1061795E+00
          2   -1    0    0  501    0  0.00000000000E+00  0.00000000000E+00  0.20414085500E+03  0.20414085500E+03  0.00000000000E+00 0. -1.
         -2   -1    0    0    0  501 -0.00000000000E+00 -0.00000000000E+00 -0.86110850810E+03  0.86110850810E+03  0.00000000000E+00 0.  1.
          5    1    1    2  502    0  0.12419953711E+02 -0.27645268035E+02 -0.13784913280E+03  0.14121964987E+03  0.47000000000E+01 0. -1.
         -5    1    1    2    0  502  0.28814309929E+03 -0.10498220208E+03 -0.48009272965E+03  0.56970064726E+03  0.47000000000E+01 0. -1.
        -11    1    1    2    0    0 -0.15702548773E+03  0.80815044177E+02  0.42032191964E+02  0.18153451551E+03  0.00000000000E+00 0. -1.
         11    1    1    2    0    0 -0.14353756527E+03  0.51812425936E+02 -0.81057982617E+02  0.17279455047E+03  0.00000000000E+00 0.  1.
<mgrwt>
<rscale>  0 0.35200606E+03</rscale>
<asrwt>0</asrwt>
<pdfrwt beam="1">  1        2 0.31406285E-01 0.35217336E+03</pdfrwt>
<pdfrwt beam="2">  1       -2 0.13247823E+00 0.35217336E+03</pdfrwt>
<totfact> 0.72446699E+01</totfact>
</mgrwt>
</event>
<event>
 6    1  0.5818426E-006  0.1784270E+03  0.7546771E-02  0.1175022E+00
          3   -1    0    0  501    0  0.00000000000E+00  0.00000000000E+00  0.86643047429E+02  0.86643047429E+02  0.00000000000E+00 0. -1.
         -3   -1    0    0    0  501 -0.00000000000E+00 -0.00000000000E+00 -0.33100364257E+03  0.33100364257E+03  0.00000000000E+00 0.  1.
          5    1    1    2  502    0  0.31306438910E+02  0.62594042535E+01  0.17694104740E+02  0.36802779805E+02  0.47000000000E+01 0. -1.
         -5    1    1    2    0  502  0.94788385175E+02 -0.23920888892E+02 -0.17764814956E+03  0.20282505252E+03  0.47000000000E+01 0. -1.
        -11    1    1    2    0    0  0.11136153955E+02  0.15074224416E+02 -0.47914795669E+01  0.19344364633E+02  0.00000000000E+00 0.  1.
         11    1    1    2    0    0 -0.13723097804E+03  0.25872602232E+01 -0.79615070753E+02  0.15867449304E+03  0.00000000000E+00 0. -1.
<mgrwt>
<rscale>  0 0.17273797E+03</rscale>
<asrwt>0</asrwt>
<pdfrwt beam="1">  1        3 0.13329700E-01 0.17842702E+03</pdfrwt>
<pdfrwt beam="2">  1       -3 0.50923636E-01 0.17842702E+03</pdfrwt>
<totfact> 0.42144059E+02</totfact>
</mgrwt>
</event>
<event>
 6    1  0.5818426E-006  0.1274365E+03  0.7546771E-02  0.1245689E+00
          1   -1    0    0  501    0  0.00000000000E+00  0.00000000000E+00  0.14362398151E+03  0.14362398151E+03  0.00000000000E+00 0. -1.
         -1   -1    0    0    0  501 -0.00000000000E+00 -0.00000000000E+00 -0.89288657248E+02  0.89288657248E+02  0.00000000000E+00 0.  1.
          5    1    1    2  502    0 -0.37515780361E+02  0.35562529951E+02 -0.10853386488E+02  0.53028419841E+02  0.47000000000E+01 0. -1.
         -5    1    1    2    0  502  0.62322816716E+02 -0.35609718818E+02  0.20379752419E+02  0.74763693504E+02  0.47000000000E+01 0. -1.
        -11    1    1    2    0    0  0.13457831904E+02  0.35873509833E+02  0.36776346510E+01  0.38490868318E+02  0.00000000000E+00 0.  1.
         11    1    1    2    0    0 -0.38264868258E+02 -0.35826320965E+02  0.41131323679E+02  0.66629657093E+02  0.00000000000E+00 0. -1.
<mgrwt>
<rscale>  0 0.11844219E+03</rscale>
<asrwt>0</asrwt>
<pdfrwt beam="1">  1        1 0.22095997E-01 0.12743654E+03</pdfrwt>
<pdfrwt beam="2">  1       -1 0.13736716E-01 0.12743654E+03</pdfrwt>
<totfact> 0.78115165E+03</totfact>
</mgrwt>
</event>
<event>
 6    1  0.5818426E-006  0.1367823E+03  0.7546771E-02  0.1229708E+00
         -1   -1    0    0    0  501 -0.00000000000E+00  0.00000000000E+00  0.34545054620E+02  0.34545054620E+02  0.00000000000E+00 0.  1.
          1   -1    0    0  501    0  0.00000000000E+00 -0.00000000000E+00 -0.45428266085E+03  0.45428266085E+03  0.00000000000E+00 0. -1.
          5    1    1    2  502    0  0.95341807372E+02 -0.23256801346E+01 -0.20257150214E+03  0.22394814690E+03  0.47000000000E+01 0. -1.
         -5    1    1    2    0  502 -0.40144260092E+02  0.84334450879E+01 -0.89820762315E+02  0.98856178144E+02  0.47000000000E+01 0. -1.
        -11    1    1    2    0    0 -0.61489572712E+01  0.38781059907E+02 -0.57134525789E+02  0.69326288810E+02  0.00000000000E+00 0. -1.
         11    1    1    2    0    0 -0.49048590009E+02 -0.44888824861E+02 -0.70210815984E+02  0.96697101613E+02  0.00000000000E+00 0.  1.
<mgrwt>
<rscale>  0 0.12849381E+03</rscale>
<asrwt>0</asrwt>
<pdfrwt beam="2">  1        1 0.69889641E-01 0.13678229E+03</pdfrwt>
<pdfrwt beam="1">  1       -1 0.53146238E-02 0.13678229E+03</pdfrwt>
<totfact> 0.78683715E+03</totfact>
</mgrwt>
</event>
<event>
 6    1  0.5818426E-006  0.2849979E+03  0.7546771E-02  0.1092990E+00
         -1   -1    0    0    0  501 -0.00000000000E+00  0.00000000000E+00  0.20852914096E+03  0.20852914096E+03  0.00000000000E+00 0.  1.
          1   -1    0    0  501    0  0.00000000000E+00 -0.00000000000E+00 -0.97377019896E+02  0.97377019896E+02  0.00000000000E+00 0. -1.
          5    1    1    2  502    0  0.51016474993E+01 -0.81362986475E+01 -0.35240354945E+02  0.36826604236E+02  0.47000000000E+01 0. -1.
         -5    1    1    2    0  502  0.21179271461E+02 -0.79309942717E+02  0.10393461769E+03  0.13252593447E+03  0.47000000000E+01 0. -1.
        -11    1    1    2    0    0  0.24399462913E+02  0.71743097248E+02  0.16803013085E+02  0.77619244018E+02  0.00000000000E+00 0.  1.
         11    1    1    2    0    0 -0.50680381873E+02  0.15703144117E+02  0.25654845240E+02  0.58934378136E+02  0.00000000000E+00 0. -1.
<mgrwt>
<rscale>  0 0.28499787E+03</rscale>
<asrwt>0</asrwt>
<pdfrwt beam="2">  1        1 0.14981080E-01 0.28499787E+03</pdfrwt>
<pdfrwt beam="1">  1       -1 0.32081406E-01 0.28499787E+03</pdfrwt>
<totfact> 0.33855410E+03</totfact>
</mgrwt>
</event>
<event>
 6    1  0.5818426E-006  0.2109719E+03  0.7546771E-02  0.1173671E+00
         -1   -1    0    0    0  501 -0.00000000000E+00  0.00000000000E+00  0.70086928765E+03  0.70086928765E+03  0.00000000000E+00 0.  1.
          1   -1    0    0  501    0  0.00000000000E+00 -0.00000000000E+00 -0.96967128928E+02  0.96967128928E+02  0.00000000000E+00 0. -1.
          5    1    1    2  502    0 -0.81175715598E+02 -0.79389822118E+02  0.18578701051E+03  0.21778692324E+03  0.47000000000E+01 0. -1.
         -5    1    1    2    0  502  0.15863330731E+02  0.28540057474E+02  0.46877582084E+03  0.46993514483E+03  0.47000000000E+01 0.  1.
        -11    1    1    2    0    0  0.74381860056E+02  0.45355627228E+02 -0.44103290890E+02  0.97646783326E+02  0.00000000000E+00 0. -1.
         11    1    1    2    0    0 -0.90694751894E+01  0.54941374161E+01 -0.65573817434E+01  0.12467565179E+02  0.00000000000E+00 0.  1.
<mgrwt>
<rscale>  0 0.17406767E+03</rscale>
<asrwt>0</asrwt>
<pdfrwt beam="2">  1        1 0.14918020E-01 0.21097190E+03</pdfrwt>
<pdfrwt beam="1">  1       -1 0.10782604E+00 0.21097190E+03</pdfrwt>
<totfact> 0.32053194E+02</totfact>
</mgrwt>
</event>
<event>
 6    1  0.5818426E-006  0.1645420E+03  0.7546771E-02  0.1204631E+00
          2   -1    0    0  501    0  0.00000000000E+00  0.00000000000E+00  0.11914082384E+03  0.11914082384E+03  0.00000000000E+00 0. -1.
         -2   -1    0    0    0  501 -0.00000000000E+00 -0.00000000000E+00 -0.15588895083E+03  0.15588895083E+03  0.00000000000E+00 0.  1.
          5    1    1    2  502    0  0.81211551986E+02 -0.49291997292E+02 -0.38725530807E+00  0.95117070706E+02  0.47000000000E+01 0. -1.
         -5    1    1    2    0  502 -0.21397313469E+02  0.56475423448E+02 -0.45328334981E+02  0.75657560292E+02  0.47000000000E+01 0.  1.
        -11    1    1    2    0    0 -0.10148027559E+02 -0.40026825816E+02 -0.85897263496E+01  0.42177157882E+02  0.00000000000E+00 0. -1.
         11    1    1    2    0    0 -0.49666210958E+02  0.32843399661E+02  0.17557189646E+02  0.62077985796E+02  0.00000000000E+00 0.  1.
<mgrwt>
<rscale>  0 0.14666577E+03</rscale>
<asrwt>0</asrwt>
<pdfrwt beam="1">  1        2 0.18329358E-01 0.16454197E+03</pdfrwt>
<pdfrwt beam="2">  1       -2 0.23982915E-01 0.16454197E+03</pdfrwt>
<totfact> 0.45469861E+03</totfact>
</mgrwt>
</event>
<event>
 6    1  0.5818426E-006  0.2582028E+03  0.7546771E-02  0.1110504E+00
         -2   -1    0    0    0  501 -0.00000000000E+00  0.00000000000E+00  0.26371721588E+03  0.26371721588E+03  0.00000000000E+00 0.  1.
          2   -1    0    0  501    0  0.00000000000E+00 -0.00000000000E+00 -0.23984170292E+03  0.23984170292E+03  0.00000000000E+00 0. -1.
          5    1    1    2  502    0 -0.30443923372E+02  0.60186103526E+00  0.16169541206E+02  0.34795671711E+02  0.47000000000E+01 0. -1.
         -5    1    1    2    0  502  0.99911288087E+01  0.22440765116E+03  0.13097165392E+02  0.22506053030E+03  0.47000000000E+01 0. -1.
        -11    1    1    2    0    0  0.74211040579E+01 -0.19234157539E+03  0.28828184138E+02  0.19463149439E+03  0.00000000000E+00 0.  1.
         11    1    1    2    0    0  0.13031690505E+02 -0.32667936809E+02 -0.34219377775E+02  0.49071222403E+02  0.00000000000E+00 0. -1.
<mgrwt>
<rscale>  0 0.25448329E+03</rscale>
<asrwt>0</asrwt>
<pdfrwt beam="2">  1        2 0.36898723E-01 0.25820284E+03</pdfrwt>
<pdfrwt beam="1">  1       -2 0.40571879E-01 0.25820284E+03</pdfrwt>
<totfact> 0.81025887E+02</totfact>
</mgrwt>
</event>
<event>
 6    1  0.5818426E-006  0.2666299E+03  0.7546771E-02  0.1105364E+00
          2   -1    0    0  501    0  0.00000000000E+00  0.00000000000E+00  0.10067707797E+04  0.10067707797E+04  0.00000000000E+00 0. -1.
         -2   -1    0    0    0  501 -0.00000000000E+00 -0.00000000000E+00 -0.66985756587E+02  0.66985756587E+02  0.00000000000E+00 0.  1.
          5    1    1    2  502    0  0.35953829980E+00 -0.93453377986E+00  0.11018208646E+03  0.11028682967E+03  0.47000000000E+01 0.  1.
         -5    1    1    2    0  502 -0.14478188972E+03 -0.18510044694E+03  0.35118237273E+03  0.42258149506E+03  0.47000000000E+01 0.  1.
        -11    1    1    2    0    0  0.11045040056E+03  0.12262376989E+03  0.23571224980E+03  0.28774319215E+03  0.00000000000E+00 0.  1.
         11    1    1    2    0    0  0.33971950858E+02  0.63411210835E+02  0.24270831408E+03  0.25314501936E+03  0.00000000000E+00 0. -1.
<mgrwt>
<rscale>  0 0.26298242E+03</rscale>
<asrwt>0</asrwt>
<pdfrwt beam="1">  1        2 0.15488780E+00 0.26662987E+03</pdfrwt>
<pdfrwt beam="2">  1       -2 0.10305502E-01 0.26662987E+03</pdfrwt>
<totfact> 0.16441133E+03</totfact>
</mgrwt>
</event>
<event>
 6    1  0.6250040E-006  0.3068057E+03  0.7546771E-02  0.1083362E+00
         -1   -1    0    0    0  501 -0.00000000000E+00  0.00000000000E+00  0.17464495813E+03  0.17464495813E+03  0.00000000000E+00 0.  1.
          1   -1    0    0  501    0  0.00000000000E+00 -0.00000000000E+00 -0.64688633568E+03  0.64688633568E+03  0.00000000000E+00 0. -1.
          5    1    1    2  502    0  0.13785514376E+03  0.14545689657E+03 -0.96174865262E+02  0.22233633110E+03  0.47000000000E+01 0. -1.
         -5    1    1    2    0  502  0.63259294365E+02  0.49624539143E+02  0.39430547004E+02  0.89672689520E+02  0.47000000000E+01 0. -1.
        -11    1    1    2    0    0 -0.72284996487E+02 -0.21543074192E+02 -0.14344920211E+03  0.16207065850E+03  0.00000000000E+00 0.  1.
         11    1    1    2    0    0 -0.12882944164E+03 -0.17353836152E+03 -0.27204785718E+03  0.34745161468E+03  0.00000000000E+00 0. -1.
<mgrwt>
<rscale>  0 0.30378891E+03</rscale>
<asrwt>0</asrwt>
<pdfrwt beam="2">  1        1 0.99520976E-01 0.30680566E+03</pdfrwt>
<pdfrwt beam="1">  1       -1 0.26868455E-01 0.30680566E+03</pdfrwt>
<totfact> 0.39137407E+02</totfact>
</mgrwt>
</event>
<event>
 6    1  0.5818426E-006  0.1544249E+03  0.7546771E-02  0.1203645E+00
         -1   -1    0    0    0  501 -0.00000000000E+00  0.00000000000E+00  0.40887085484E+02  0.40887085484E+02  0.00000000000E+00 0.  1.
          1   -1    0    0  501    0  0.00000000000E+00 -0.00000000000E+00 -0.66930164949E+03  0.66930164949E+03  0.00000000000E+00 0. -1.
          5    1    1    2  502    0 -0.72918524592E+02 -0.42560881293E+02 -0.33391462496E+02  0.90915453102E+02  0.47000000000E+01 0. -1.
         -5    1    1    2    0  502  0.24369585286E+02 -0.34021997724E+02 -0.11820896305E+03  0.12548634173E+03  0.47000000000E+01 0. -1.
        -11    1    1    2    0    0  0.72965046665E+01  0.72487695747E+02 -0.39922018916E+03  0.40581333695E+03  0.00000000000E+00 0. -1.
         11    1    1    2    0    0  0.41252434640E+02  0.40951832702E+01 -0.77593949294E+02  0.87973603181E+02  0.00000000000E+00 0.  1.
<mgrwt>
<rscale>  0 0.14744745E+03</rscale>
<asrwt>0</asrwt>
<pdfrwt beam="2">  1        1 0.10296948E+00 0.15442489E+03</pdfrwt>
<pdfrwt beam="1">  1       -1 0.62903212E-02 0.15442489E+03</pdfrwt>
<totfact> 0.36647602E+03</totfact>
</mgrwt>
</event>
<event>
 6    1  0.5818426E-006  0.1596552E+03  0.7546771E-02  0.1196543E+00
         -2   -1    0    0    0  501 -0.00000000000E+00  0.00000000000E+00  0.63622020866E+02  0.63622020866E+02  0.00000000000E+00 0.  1.
          2   -1    0    0  501    0  0.00000000000E+00 -0.00000000000E+00 -0.34300369807E+03  0.34300369807E+03  0.00000000000E+00 0. -1.
          5    1    1    2  502    0 -0.47850653415E+02  0.11601424469E+02 -0.30056415920E+02  0.57877078536E+02  0.47000000000E+01 0.  1.
         -5    1    1    2    0  502  0.15834794109E+02 -0.10544766702E+03 -0.12986107545E+03  0.16809503295E+03  0.47000000000E+01 0.  1.
        -11    1    1    2    0    0  0.55598961499E+01  0.10607412531E+03 -0.90183788546E+02  0.13934040413E+03  0.00000000000E+00 0. -1.
         11    1    1    2    0    0  0.26455963156E+02 -0.12227882759E+02 -0.29280397283E+02  0.41313203317E+02  0.00000000000E+00 0.  1.
<mgrwt>
<rscale>  0 0.15324396E+03</rscale>
<asrwt>0</asrwt>
<pdfrwt beam="2">  1        2 0.52769799E-01 0.15965523E+03</pdfrwt>
<pdfrwt beam="1">  1       -2 0.97880034E-02 0.15965523E+03</pdfrwt>
<totfact> 0.62637435E+03</totfact>
</mgrwt>
</event>
<event>
 6    1  0.5818426E-006  0.2385390E+03  0.7546771E-02  0.1137221E+00
          2   -1    0    0  501    0  0.00000000000E+00  0.00000000000E+00  0.39811907278E+03  0.39811907278E+03  0.00000000000E+00 0. -1.
         -2   -1    0    0    0  501 -0.00000000000E+00 -0.00000000000E+00 -0.10418797459E+03  0.10418797459E+03  0.00000000000E+00 0.  1.
          5    1    1    2  502    0  0.24159695425E+01 -0.35923405705E+02  0.10429567274E+03  0.11043552571E+03  0.47000000000E+01 0. -1.
         -5    1    1    2    0  502  0.19298819507E+02  0.15509389424E+03  0.17321070381E+02  0.15731709998E+03  0.47000000000E+01 0.  1.
        -11    1    1    2    0    0  0.31988013492E+02 -0.65817534773E+01  0.22760369632E+02  0.39806870158E+02  0.00000000000E+00 0.  1.
         11    1    1    2    0    0 -0.53702802541E+02 -0.11258873506E+03  0.14955398544E+03  0.19474755152E+03  0.00000000000E+00 0. -1.
<mgrwt>
<rscale>  0 0.21558078E+03</rscale>
<asrwt>0</asrwt>
<pdfrwt beam="1">  1        2 0.61249087E-01 0.23853896E+03</pdfrwt>
<pdfrwt beam="2">  1       -2 0.16028919E-01 0.23853896E+03</pdfrwt>
<totfact> 0.24425543E+03</totfact>
</mgrwt>
</event>
<event>
 6    1  0.5818426E-006  0.1192163E+03  0.7546771E-02  0.1253344E+00
          2   -1    0    0  501    0  0.00000000000E+00  0.00000000000E+00  0.32703397213E+03  0.32703397213E+03  0.00000000000E+00 0. -1.
         -2   -1    0    0    0  501 -0.00000000000E+00 -0.00000000000E+00 -0.57247376934E+02  0.57247376934E+02  0.00000000000E+00 0.  1.
          5    1    1    2  502    0 -0.37936134658E+02  0.32581737083E+02  0.53380001603E+02  0.73295528344E+02  0.47000000000E+01 0. -1.
         -5    1    1    2    0  502 -0.51509769055E+00 -0.41464429466E+02 -0.25807040761E+02  0.49067887558E+02  0.47000000000E+01 0.  1.
        -11    1    1    2    0    0  0.65089668835E+02  0.16916119791E+02  0.20289666215E+03  0.21375190200E+03  0.00000000000E+00 0. -1.
         11    1    1    2    0    0 -0.26638436487E+02 -0.80334274083E+01  0.39316972208E+02  0.48166031163E+02  0.00000000000E+00 0.  1.
<mgrwt>
<rscale>  0 0.11399609E+03</rscale>
<asrwt>0</asrwt>
<pdfrwt beam="1">  1        2 0.50312918E-01 0.11921635E+03</pdfrwt>
<pdfrwt beam="2">  1       -2 0.88072889E-02 0.11921635E+03</pdfrwt>
<totfact> 0.76260678E+03</totfact>
</mgrwt>
</event>
<event>
 6    1  0.5818426E-006  0.1288968E+03  0.7546771E-02  0.1244970E+00
          1   -1    0    0  501    0  0.00000000000E+00  0.00000000000E+00  0.69813582875E+02  0.69813582875E+02  0.00000000000E+00 0. -1.
         -1   -1    0    0    0  501 -0.00000000000E+00 -0.00000000000E+00 -0.20287318051E+03  0.20287318051E+03  0.00000000000E+00 0.  1.
          5    1    1    2  502    0 -0.51988436865E+02 -0.30587817631E+02 -0.12767134509E+03  0.14128154342E+03  0.47000000000E+01 0.  1.
         -5    1    1    2    0  502  0.20540731721E+02  0.31140385025E+02  0.34155264900E+01  0.37754483977E+02  0.47000000000E+01 0.  1.
        -11    1    1    2    0    0  0.57799661360E+02 -0.18593218335E+02 -0.10727940603E+02  0.61657094734E+02  0.00000000000E+00 0.  1.
         11    1    1    2    0    0 -0.26351956216E+02  0.18040650940E+02  0.19241615683E+01  0.31993641251E+02  0.00000000000E+00 0. -1.
<mgrwt>
<rscale>  0 0.11887145E+03</rscale>
<asrwt>0</asrwt>
<pdfrwt beam="1">  1        1 0.10740551E-01 0.12889682E+03</pdfrwt>
<pdfrwt beam="2">  1       -1 0.31211258E-01 0.12889682E+03</pdfrwt>
<totfact> 0.52786278E+03</totfact>
</mgrwt>
</event>
<event>
 6    1  0.5818426E-006  0.1897762E+03  0.7546771E-02  0.1164238E+00
          1   -1    0    0  501    0  0.00000000000E+00  0.00000000000E+00  0.69113088896E+03  0.69113088896E+03  0.00000000000E+00 0. -1.
         -1   -1    0    0    0  501 -0.00000000000E+00 -0.00000000000E+00 -0.51833326203E+02  0.51833326203E+02  0.00000000000E+00 0.  1.
          5    1    1    2  502    0 -0.65830215026E+02 -0.13522454090E+03  0.16868093161E+03  0.22604123597E+03  0.47000000000E+01 0. -1.
         -5    1    1    2    0  502 -0.27782022673E+02  0.27402304879E+02  0.44637213865E+02  0.59475187752E+02  0.47000000000E+01 0. -1.
        -11    1    1    2    0    0  0.15529290892E+02  0.38886017166E+02  0.24569339467E+03  0.24923588303E+03  0.00000000000E+00 0. -1.
         11    1    1    2    0    0  0.78082946807E+02  0.68936218855E+02  0.18028602262E+03  0.20821190841E+03  0.00000000000E+00 0.  1.
<mgrwt>
<rscale>  0 0.18373289E+03</rscale>
<asrwt>0</asrwt>
<pdfrwt beam="1">  1        1 0.10632782E+00 0.18977618E+03</pdfrwt>
<pdfrwt beam="2">  1       -1 0.79743584E-02 0.18977618E+03</pdfrwt>
<totfact> 0.24625135E+03</totfact>
</mgrwt>
</event>
<event>
 6    1  0.5818426E-006  0.2797885E+03  0.7546771E-02  0.1095804E+00
         -2   -1    0    0    0  501 -0.00000000000E+00  0.00000000000E+00  0.92737762380E+02  0.92737762380E+02  0.00000000000E+00 0.  1.
          2   -1    0    0  501    0  0.00000000000E+00 -0.00000000000E+00 -0.21102952331E+03  0.21102952331E+03  0.00000000000E+00 0. -1.
          5    1    1    2  502    0 -0.59774415297E+01  0.42696900297E+02 -0.58137187668E+02  0.72531218742E+02  0.47000000000E+01 0. -1.
         -5    1    1    2    0  502  0.85140177288E+02 -0.94054221254E+01  0.10516931698E+02  0.86429205749E+02  0.47000000000E+01 0. -1.
        -11    1    1    2    0    0 -0.51610887047E+02  0.19649481730E+02 -0.64340399897E+02  0.84790759243E+02  0.00000000000E+00 0.  1.
         11    1    1    2    0    0 -0.27551848712E+02 -0.52940959902E+02 -0.63311050631E+01  0.60016101957E+02  0.00000000000E+00 0. -1.
<mgrwt>
<rscale>  0 0.27978853E+03</rscale>
<asrwt>0</asrwt>
<pdfrwt beam="2">  1        2 0.32466080E-01 0.27978853E+03</pdfrwt>
<pdfrwt beam="1">  1       -2 0.14267348E-01 0.27978853E+03</pdfrwt>
<totfact> 0.59391507E+03</totfact>
</mgrwt>
</event>
<event>
 6    1  0.5818426E-006  0.1913486E+03  0.7546771E-02  0.1186170E+00
         -1   -1    0    0    0  501 -0.00000000000E+00  0.00000000000E+00  0.18996028943E+03  0.18996028943E+03  0.00000000000E+00 0.  1.
          1   -1    0    0  501    0  0.00000000000E+00 -0.00000000000E+00 -0.16456773085E+03  0.16456773085E+03  0.00000000000E+00 0. -1.
          5    1    1    2  502    0  0.73355538034E+02 -0.49949331093E+02  0.15028402485E+02  0.90132754968E+02  0.47000000000E+01 0. -1.
         -5    1    1    2    0  502 -0.42495590249E+02  0.77545908157E+02  0.98104552231E+02  0.13215837556E+03  0.47000000000E+01 0.  1.
        -11    1    1    2    0    0 -0.59210710677E+02 -0.64054988195E+00 -0.59851322788E+02  0.84193226583E+02  0.00000000000E+00 0.  1.
         11    1    1    2    0    0  0.28350762892E+02 -0.26956027182E+02 -0.27889073354E+02  0.48043663167E+02  0.00000000000E+00 0. -1.
<mgrwt>
<rscale>  0 0.16225829E+03</rscale>
<asrwt>0</asrwt>
<pdfrwt beam="2">  1        1 0.25318112E-01 0.19134859E+03</pdfrwt>
<pdfrwt beam="1">  1       -1 0.29224660E-01 0.19134859E+03</pdfrwt>
<totfact> 0.19859984E+03</totfact>
</mgrwt>
</event>
<event>
 6    1  0.5818426E-006  0.1264491E+03  0.7546771E-02  0.1247667E+00
         -2   -1    0    0    0  501 -0.00000000000E+00  0.00000000000E+00  0.61681767281E+02  0.61681767281E+02  0.00000000000E+00 0.  1.
          2   -1    0    0  501    0  0.00000000000E+00 -0.00000000000E+00 -0.19845741498E+03  0.19845741498E+03  0.00000000000E+00 0. -1.
          5    1    1    2  502    0  0.21073003295E+02 -0.45300460708E+02 -0.74113260488E+02  0.89504573003E+02  0.47000000000E+01 0.  1.
         -5    1    1    2    0  502 -0.13560431689E+02  0.62930506380E+02 -0.18223384360E+02  0.67069483958E+02  0.47000000000E+01 0.  1.
        -11    1    1    2    0    0 -0.25311859174E+02 -0.35784439838E+02 -0.59585801247E+02  0.73970832492E+02  0.00000000000E+00 0.  1.
         11    1    1    2    0    0  0.17799287569E+02  0.18154394166E+02  0.15146798392E+02  0.29594292812E+02  0.00000000000E+00 0. -1.
<mgrwt>
<rscale>  0 0.11727178E+03</rscale>
<asrwt>0</asrwt>
<pdfrwt beam="2">  1        2 0.30531910E-01 0.12644912E+03</pdfrwt>
<pdfrwt beam="1">  1       -2 0.94895028E-02 0.12644912E+03</pdfrwt>
<totfact> 0.11598892E+04</totfact>
</mgrwt>
</event>
<event>
 6    1  0.5818426E-006  0.1250957E+03  0.7546771E-02  0.1249514E+00
         -2   -1    0    0    0  501 -0.00000000000E+00  0.00000000000E+00  0.13377856553E+02  0.13377856553E+02  0.00000000000E+00 0.  1.
          2   -1    0    0  501    0  0.00000000000E+00 -0.00000000000E+00 -0.89057562650E+03  0.89057562650E+03  0.00000000000E+00 0. -1.
          5    1    1    2  502    0  0.58935917479E+01  0.51431426871E+02 -0.10442937930E+03  0.11665123812E+03  0.47000000000E+01 0. -1.
         -5    1    1    2    0  502 -0.96738781660E+00 -0.51917172115E+02 -0.38489951967E+03  0.38841480256E+03  0.47000000000E+01 0. -1.
        -11    1    1    2    0    0  0.39981962276E+02 -0.17765156190E+02 -0.21152210190E+03  0.21599943906E+03  0.00000000000E+00 0.  1.
         11    1    1    2    0    0 -0.44908166207E+02  0.18250901434E+02 -0.17634676908E+03  0.18288800332E+03  0.00000000000E+00 0. -1.
<mgrwt>
<rscale>  0 0.11619233E+03</rscale>
<asrwt>0</asrwt>
<pdfrwt beam="2">  1        2 0.13701164E+00 0.12509570E+03</pdfrwt>
<pdfrwt beam="1">  1       -2 0.20581317E-02 0.12509570E+03</pdfrwt>
<totfact> 0.21550229E+04</totfact>
</mgrwt>
</event>
<event>
 6    1  0.5818426E-006  0.1730467E+03  0.7546771E-02  0.1189712E+00
         -1   -1    0    0    0  501 -0.00000000000E+00  0.00000000000E+00  0.92643128598E+02  0.92643128598E+02  0.00000000000E+00 0.  1.
          1   -1    0    0  501    0  0.00000000000E+00 -0.00000000000E+00 -0.23956733832E+03  0.23956733832E+03  0.00000000000E+00 0. -1.
          5    1    1    2  502    0  0.16170273031E+02 -0.13400585664E+02 -0.78460584764E+02  0.81358507776E+02  0.47000000000E+01 0. -1.
         -5    1    1    2    0  502 -0.10072439842E+03  0.30161193454E+02  0.78485309351E+01  0.10554047312E+03  0.47000000000E+01 0.  1.
        -11    1    1    2    0    0  0.74334610147E+02 -0.47011273704E+02 -0.70800911666E+02  0.11290909270E+03  0.00000000000E+00 0. -1.
         11    1    1    2    0    0  0.10219515244E+02  0.30250665915E+02 -0.55112442232E+01  0.32402393322E+02  0.00000000000E+00 0.  1.
<mgrwt>
<rscale>  0 0.15910365E+03</rscale>
<asrwt>0</asrwt>
<pdfrwt beam="2">  1        1 0.36856514E-01 0.17304672E+03</pdfrwt>
<pdfrwt beam="1">  1       -1 0.14252789E-01 0.17304672E+03</pdfrwt>
<totfact> 0.39610732E+03</totfact>
</mgrwt>
</event>
<event>
 6    1  0.5818426E-006  0.1528673E+03  0.7546771E-02  0.1220959E+00
          2   -1    0    0  501    0  0.00000000000E+00  0.00000000000E+00  0.61547057564E+03  0.61547057564E+03  0.00000000000E+00 0. -1.
         -2   -1    0    0    0  501 -0.00000000000E+00 -0.00000000000E+00 -0.24274298683E+02  0.24274298683E+02  0.00000000000E+00 0.  1.
          5    1    1    2  502    0  0.24311168422E+02  0.49190888450E+02  0.44494471586E+02  0.70799889959E+02  0.47000000000E+01 0. -1.
         -5    1    1    2    0  502 -0.12209367693E+02 -0.52163853746E+02  0.31945523146E+03  0.32395041473E+03  0.47000000000E+01 0.  1.
        -11    1    1    2    0    0  0.92879201990E+01  0.39937449329E+02  0.16127757939E+03  0.16640830188E+03  0.00000000000E+00 0. -1.
         11    1    1    2    0    0 -0.21389720928E+02 -0.36964484033E+02  0.65968994518E+02  0.78586267750E+02  0.00000000000E+00 0.  1.
<mgrwt>
<rscale>  0 0.13447765E+03</rscale>
<asrwt>0</asrwt>
<pdfrwt beam="1">  1        2 0.94687768E-01 0.15286732E+03</pdfrwt>
<pdfrwt beam="2">  1       -2 0.37345080E-02 0.15286732E+03</pdfrwt>
<totfact> 0.14300140E+04</totfact>
</mgrwt>
</event>
<event>
 6    1  0.5818426E-006  0.4034568E+03  0.7546771E-02  0.1042589E+00
         -1   -1    0    0    0  501 -0.00000000000E+00  0.00000000000E+00  0.52207311486E+03  0.52207311486E+03  0.00000000000E+00 0.  1.
          1   -1    0    0  501    0  0.00000000000E+00 -0.00000000000E+00 -0.77947607214E+02  0.77947607214E+02  0.00000000000E+00 0. -1.
          5    1    1    2  502    0 -0.81355946456E+02  0.26822558524E+02  0.17258941727E+03  0.19273670284E+03  0.47000000000E+01 0.  1.
         -5    1    1    2    0  502  0.23846959554E+02  0.87926584403E+01  0.29112883761E+03  0.29227397833E+03  0.47000000000E+01 0.  1.
        -11    1    1    2    0    0  0.13935706259E+02 -0.36549890883E+02 -0.48802113687E+02  0.62543942415E+02  0.00000000000E+00 0. -1.
         11    1    1    2    0    0  0.43573280643E+02  0.93467391830E+00  0.29209366457E+02  0.52466098484E+02  0.00000000000E+00 0.  1.
<mgrwt>
<rscale>  0 0.40345681E+03</rscale>
<asrwt>0</asrwt>
<pdfrwt beam="2">  1        1 0.11991940E-01 0.40345681E+03</pdfrwt>
<pdfrwt beam="1">  1       -1 0.80318939E-01 0.40345681E+03</pdfrwt>
<totfact> 0.81474436E+02</totfact>
</mgrwt>
</event>
<event>
 6    1  0.5818426E-006  0.1482040E+03  0.7546771E-02  0.1212386E+00
         -2   -1    0    0    0  501 -0.00000000000E+00  0.00000000000E+00  0.66339162587E+02  0.66339162587E+02  0.00000000000E+00 0.  1.
          2   -1    0    0  501    0  0.00000000000E+00 -0.00000000000E+00 -0.27296797527E+03  0.27296797527E+03  0.00000000000E+00 0. -1.
          5    1    1    2  502    0 -0.37421462806E+02 -0.49336085640E+02 -0.11424933191E+03  0.13003620676E+03  0.47000000000E+01 0.  1.
         -5    1    1    2    0  502  0.55847761277E+02 -0.28121350495E+02 -0.10282351441E+02  0.63542108436E+02  0.47000000000E+01 0.  1.
        -11    1    1    2    0    0  0.12866852924E+02  0.84437446580E+02 -0.44474299209E+02  0.96297464034E+02  0.00000000000E+00 0. -1.
         11    1    1    2    0    0 -0.31293151396E+02 -0.69800104451E+01 -0.37622830123E+02  0.49431358636E+02  0.00000000000E+00 0.  1.
<mgrwt>
<rscale>  0 0.14070338E+03</rscale>
<asrwt>0</asrwt>
<pdfrwt beam="2">  1        2 0.41995073E-01 0.14820399E+03</pdfrwt>
<pdfrwt beam="1">  1       -2 0.10206025E-01 0.14820399E+03</pdfrwt>
<totfact> 0.74429777E+03</totfact>
</mgrwt>
</event>
<event>
 6    1  0.5818426E-006  0.1700684E+03  0.7546771E-02  0.1198987E+00
         -1   -1    0    0    0  501 -0.00000000000E+00  0.00000000000E+00  0.32247634125E+03  0.32247634125E+03  0.00000000000E+00 0.  1.
          1   -1    0    0  501    0  0.00000000000E+00 -0.00000000000E+00 -0.63617923987E+02  0.63617923987E+02  0.00000000000E+00 0. -1.
          5    1    1    2  502    0 -0.14241304389E+02 -0.40809731094E+02  0.14777861087E+03  0.15404173698E+03  0.47000000000E+01 0. -1.
         -5    1    1    2    0  502  0.35714666164E+02  0.90253541838E+02  0.58978346771E+02  0.11367398375E+03  0.47000000000E+01 0.  1.
        -11    1    1    2    0    0 -0.44952148328E+02  0.28207183306E+01  0.39057214000E+02  0.59616424387E+02  0.00000000000E+00 0.  1.
         11    1    1    2    0    0  0.23478786553E+02 -0.52264529075E+02  0.13044245629E+02  0.58762120124E+02  0.00000000000E+00 0. -1.
<mgrwt>
<rscale>  0 0.15121587E+03</rscale>
<asrwt>0</asrwt>
<pdfrwt beam="2">  1        1 0.97873731E-02 0.17006842E+03</pdfrwt>
<pdfrwt beam="1">  1       -1 0.49611744E-01 0.17006842E+03</pdfrwt>
<totfact> 0.26903115E+03</totfact>
</mgrwt>
</event>
<event>
 6    1  0.5818426E-006  0.1334444E+03  0.7546771E-02  0.1235445E+00
         -2   -1    0    0    0  501 -0.00000000000E+00  0.00000000000E+00  0.25145861933E+02  0.25145861933E+02  0.00000000000E+00 0.  1.
          2   -1    0    0  501    0  0.00000000000E+00 -0.00000000000E+00 -0.60560930142E+03  0.60560930142E+03  0.00000000000E+00 0. -1.
          5    1    1    2  502    0 -0.48917107144E+02  0.43731112527E+02 -0.10109920480E+03  0.12061688433E+03  0.47000000000E+01 0.  1.
         -5    1    1    2    0  502  0.66795430126E+02 -0.57466976911E+00 -0.13044335447E+03  0.14662714093E+03  0.47000000000E+01 0.  1.
        -11    1    1    2    0    0  0.27328185809E+02 -0.38706342571E+02 -0.10227670982E+03  0.11271883635E+03  0.00000000000E+00 0. -1.
         11    1    1    2    0    0 -0.45206508791E+02 -0.44501001877E+01 -0.24664417039E+03  0.25079230174E+03  0.00000000000E+00 0.  1.
<mgrwt>
<rscale>  0 0.12476021E+03</rscale>
<asrwt>0</asrwt>
<pdfrwt beam="2">  1        2 0.93170653E-01 0.13344442E+03</pdfrwt>
<pdfrwt beam="1">  1       -2 0.38685945E-02 0.13344442E+03</pdfrwt>
<totfact> 0.13688059E+04</totfact>
</mgrwt>
</event>
<event>
 6    1  0.5818426E-006  0.1547101E+03  0.7546771E-02  0.1203181E+00
         -1   -1    0    0    0  501 -0.00000000000E+00  0.00000000000E+00  0.30159724836E+03  0.30159724836E+03  0.00000000000E+00 0.  1.
          1   -1    0    0  501    0  0.00000000000E+00 -0.00000000000E+00 -0.70323501282E+02  0.70323501282E+02  0.00000000000E+00 0. -1.
          5    1    1    2  502    0 -0.11772651969E+02  0.78309143274E+02  0.18386908585E+03  0.20025196126E+03  0.47000000000E+01 0.  1.
         -5    1    1    2    0  502  0.18391939572E+02  0.12611762829E+02 -0.16144491814E+02  0.27929457904E+02  0.47000000000E+01 0.  1.
        -11    1    1    2    0    0 -0.26976644484E+02 -0.91985006993E+02  0.73748006297E+02  0.12094523261E+03  0.00000000000E+00 0.  1.
         11    1    1    2    0    0  0.20357356881E+02  0.10641008892E+01 -0.10198853258E+02  0.22794097869E+02  0.00000000000E+00 0. -1.
<mgrwt>
<rscale>  0 0.14781758E+03</rscale>
<asrwt>0</asrwt>
<pdfrwt beam="2">  1        1 0.10819000E-01 0.15471012E+03</pdfrwt>
<pdfrwt beam="1">  1       -1 0.46399576E-01 0.15471012E+03</pdfrwt>
<totfact> 0.26478715E+03</totfact>
</mgrwt>
</event>
<event>
 6    1  0.5818426E-006  0.1259049E+03  0.7546771E-02  0.1240395E+00
         -1   -1    0    0    0  501 -0.00000000000E+00  0.00000000000E+00  0.35658372625E+02  0.35658372625E+02  0.00000000000E+00 0.  1.
          1   -1    0    0  501    0  0.00000000000E+00 -0.00000000000E+00 -0.39357247196E+03  0.39357247196E+03  0.00000000000E+00 0. -1.
          5    1    1    2  502    0  0.44999460883E+01 -0.18243571794E+02 -0.14072358658E+03  0.14205032646E+03  0.47000000000E+01 0. -1.
         -5    1    1    2    0  502 -0.31823671743E+02  0.53607043440E+02 -0.28076647630E+02  0.68533563542E+02  0.47000000000E+01 0.  1.
        -11    1    1    2    0    0 -0.10013009076E+02  0.12197926018E+02  0.40065054246E+01  0.16281948151E+02  0.00000000000E+00 0.  1.
         11    1    1    2    0    0  0.37336734730E+02 -0.47561397664E+02 -0.19312037055E+03  0.20236500643E+03  0.00000000000E+00 0. -1.
<mgrwt>
<rscale>  0 0.12165260E+03</rscale>
<asrwt>0</asrwt>
<pdfrwt beam="2">  1        1 0.60549614E-01 0.12590495E+03</pdfrwt>
<pdfrwt beam="1">  1       -1 0.54859032E-02 0.12590495E+03</pdfrwt>
<totfact> 0.89536661E+03</totfact>
</mgrwt>
</event>
<event>
 6    1  0.5818426E-006  0.1289467E+03  0.7546771E-02  0.1242661E+00
          2   -1    0    0  501    0  0.00000000000E+00  0.00000000000E+00  0.34220950434E+03  0.34220950434E+03  0.00000000000E+00 0. -1.
         -2   -1    0    0    0  501 -0.00000000000E+00 -0.00000000000E+00 -0.43407110890E+02  0.43407110890E+02  0.00000000000E+00 0.  1.
          5    1    1    2  502    0 -0.32637516200E+02 -0.17716515674E+02  0.82792274025E+02  0.90861064431E+02  0.47000000000E+01 0. -1.
         -5    1    1    2    0  502  0.61503796942E+02  0.30707981856E+02  0.13851678384E+02  0.70282687641E+02  0.47000000000E+01 0. -1.
        -11    1    1    2    0    0 -0.30672918322E+02  0.17727412107E+02  0.18670895607E+03  0.19004032029E+03  0.00000000000E+00 0. -1.
         11    1    1    2    0    0  0.18066375800E+01 -0.30718878288E+02  0.15449484972E+02  0.34432542871E+02  0.00000000000E+00 0.  1.
<mgrwt>
<rscale>  0 0.12026452E+03</rscale>
<asrwt>0</asrwt>
<pdfrwt beam="1">  1        2 0.52647614E-01 0.12894671E+03</pdfrwt>
<pdfrwt beam="2">  1       -2 0.66780173E-02 0.12894671E+03</pdfrwt>
<totfact> 0.11186300E+04</totfact>
</mgrwt>
</event>
<event>
 6    1  0.5818426E-006  0.1292250E+03  0.7546771E-02  0.1242582E+00
         -2   -1    0    0    0  501 -0.00000000000E+00  0.00000000000E+00  0.89222904646E+02  0.89222904646E+02  0.00000000000E+00 0.  1.
          2   -1    0    0  501    0  0.00000000000E+00 -0.00000000000E+00 -0.14379458328E+03  0.14379458328E+03  0.00000000000E+00 0. -1.
          5    1    1    2  502    0  0.43185249229E+02 -0.53385135600E+01  0.14253867833E+02  0.46029645080E+02  0.47000000000E+01 0.  1.
         -5    1    1    2    0  502 -0.75565405981E+02  0.26683541723E+00 -0.40390789870E+02  0.85812048621E+02  0.47000000000E+01 0.  1.
        -11    1    1    2    0    0 -0.70865484210E+01 -0.25976400464E+02  0.18317327801E+02  0.32565580715E+02  0.00000000000E+00 0.  1.
         11    1    1    2    0    0  0.39466705173E+02  0.31048078606E+02 -0.46752084398E+02  0.68610213510E+02  0.00000000000E+00 0. -1.
<mgrwt>
<rscale>  0 0.12031293E+03</rscale>
<asrwt>0</asrwt>
<pdfrwt beam="2">  1        2 0.22122243E-01 0.12922497E+03</pdfrwt>
<pdfrwt beam="1">  1       -2 0.13726601E-01 0.12922497E+03</pdfrwt>
<totfact> 0.92070912E+03</totfact>
</mgrwt>
</event>
<event>
 6    1  0.5818426E-006  0.1444743E+03  0.7546771E-02  0.1219436E+00
          2   -1    0    0  501    0  0.00000000000E+00  0.00000000000E+00  0.73400768242E+03  0.73400768242E+03  0.00000000000E+00 0. -1.
         -2   -1    0    0    0  501 -0.00000000000E+00 -0.00000000000E+00 -0.22526401253E+02  0.22526401253E+02  0.00000000000E+00 0.  1.
          5    1    1    2  502    0 -0.17817854402E+02 -0.35941710865E+02  0.13289659677E+03  0.13889880470E+03  0.47000000000E+01 0. -1.
         -5    1    1    2    0  502 -0.87355068368E+01  0.10333763339E+03  0.29585568566E+03  0.31354051141E+03  0.47000000000E+01 0. -1.
        -11    1    1    2    0    0  0.47236648903E+02 -0.79664256609E+01  0.14407010231E+03  0.15182542381E+03  0.00000000000E+00 0. -1.
         11    1    1    2    0    0 -0.20683287664E+02 -0.59429496867E+02  0.13865889643E+03  0.15226934375E+03  0.00000000000E+00 0.  1.
<mgrwt>
<rscale>  0 0.13555675E+03</rscale>
<asrwt>0</asrwt>
<pdfrwt beam="1">  1        2 0.11292424E+00 0.14447427E+03</pdfrwt>
<pdfrwt beam="2">  1       -2 0.34656008E-02 0.14447427E+03</pdfrwt>
<totfact> 0.12931775E+04</totfact>
</mgrwt>
</event>
<event>
 6    1  0.5818426E-006  0.1293055E+03  0.7546771E-02  0.1242754E+00
         -4   -1    0    0    0  501 -0.00000000000E+00  0.00000000000E+00  0.10076372217E+04  0.10076372217E+04  0.00000000000E+00 0.  1.
          4   -1    0    0  501    0  0.00000000000E+00 -0.00000000000E+00 -0.13711521862E+02  0.13711521862E+02  0.00000000000E+00 0. -1.
          5    1    1    2  502    0 -0.27324412177E+02 -0.30134623950E+02  0.43589455574E+03  0.43781374211E+03  0.47000000000E+01 0. -1.
         -5    1    1    2    0  502  0.54887362106E+02  0.48403698311E+02  0.26762352602E+03  0.27748870646E+03  0.47000000000E+01 0. -1.
        -11    1    1    2    0    0 -0.24336130311E+02 -0.44859663794E+02  0.26230292887E+03  0.26722174905E+03  0.00000000000E+00 0.  1.
         11    1    1    2    0    0 -0.32268196176E+01  0.26590589433E+02  0.28104689178E+02  0.38824545908E+02  0.00000000000E+00 0. -1.
<mgrwt>
<rscale>  0 0.12020838E+03</rscale>
<asrwt>0</asrwt>
<pdfrwt beam="2">  1        4 0.21094657E-02 0.12930546E+03</pdfrwt>
<pdfrwt beam="1">  1       -4 0.15502105E+00 0.12930546E+03</pdfrwt>
<totfact> 0.45196672E+02</totfact>
</mgrwt>
</event>
<event>
 6    1  0.5818426E-006  0.3645884E+03  0.7546771E-02  0.1057737E+00
          2   -1    0    0  501    0  0.00000000000E+00  0.00000000000E+00  0.62022932524E+03  0.62022932524E+03  0.00000000000E+00 0.  1.
         -2   -1    0    0    0  501 -0.00000000000E+00 -0.00000000000E+00 -0.20963828715E+03  0.20963828715E+03  0.00000000000E+00 0. -1.
          5    1    1    2  502    0  0.17246469361E+03 -0.27832891639E+03  0.18209088529E+03  0.37468685158E+03  0.47000000000E+01 0.  1.
         -5    1    1    2    0  502 -0.16614871972E+02 -0.26646418114E+02 -0.22748580189E+01  0.31833167419E+02  0.47000000000E+01 0.  1.
        -11    1    1    2    0    0 -0.12864236988E+03  0.22784295606E+03  0.12594408761E+03  0.29038454704E+03  0.00000000000E+00 0.  1.
         11    1    1    2    0    0 -0.27207451756E+02  0.77132378443E+02  0.10483092322E+03  0.13296304636E+03  0.00000000000E+00 0. -1.
<mgrwt>
<rscale>  0 0.36214614E+03</rscale>
<asrwt>0</asrwt>
<pdfrwt beam="1">  1        2 0.95419895E-01 0.36458843E+03</pdfrwt>
<pdfrwt beam="2">  1       -2 0.32252044E-01 0.36458843E+03</pdfrwt>
<totfact> 0.43480564E+02</totfact>
</mgrwt>
</event>
<event>
 6    1  0.5818426E-006  0.6486865E+03  0.7546771E-02  0.9809247E-01
         -1   -1    0    0    0  501 -0.00000000000E+00  0.00000000000E+00  0.26227351460E+03  0.26227351460E+03  0.00000000000E+00 0.  1.
          1   -1    0    0  501    0  0.00000000000E+00 -0.00000000000E+00 -0.40110248852E+03  0.40110248852E+03  0.00000000000E+00 0. -1.
          5    1    1    2  502    0  0.27234697505E+02  0.18570601534E+02 -0.12076404837E+02  0.35419282084E+02  0.47000000000E+01 0. -1.
         -5    1    1    2    0  502  0.11085585980E+03  0.99167800268E+02  0.19619754888E+03  0.24624955320E+03  0.47000000000E+01 0.  1.
        -11    1    1    2    0    0 -0.92436506346E+02 -0.55848804399E+02 -0.10516722797E+03  0.15074396339E+03  0.00000000000E+00 0.  1.
         11    1    1    2    0    0 -0.45654050963E+02 -0.61889597403E+02 -0.21778288999E+03  0.23096320445E+03  0.00000000000E+00 0. -1.
<mgrwt>
<rscale>  0 0.64868655E+03</rscale>
<asrwt>0</asrwt>
<pdfrwt beam="2">  1        1 0.61708075E-01 0.64868655E+03</pdfrwt>
<pdfrwt beam="1">  1       -1 0.40349772E-01 0.64868655E+03</pdfrwt>
<totfact> 0.36288721E+02</totfact>
</mgrwt>
</event>
<event>
 6    1  0.5818426E-006  0.1507317E+03  0.7546771E-02  0.1207482E+00
          1   -1    0    0  501    0  0.00000000000E+00  0.00000000000E+00  0.69749525041E+02  0.69749525041E+02  0.00000000000E+00 0. -1.
         -1   -1    0    0    0  501 -0.00000000000E+00 -0.00000000000E+00 -0.28785357718E+03  0.28785357718E+03  0.00000000000E+00 0.  1.
          5    1    1    2  502    0  0.10326959389E+03  0.11701426313E+02 -0.91101898719E+02  0.13828658051E+03  0.47000000000E+01 0. -1.
         -5    1    1    2    0  502 -0.31228904974E+02  0.31934415433E+02 -0.62047868519E+02  0.76596862747E+02  0.47000000000E+01 0. -1.
        -11    1    1    2    0    0 -0.26228452792E+02  0.15696371889E+02  0.14199914704E+02  0.33703789163E+02  0.00000000000E+00 0. -1.
         11    1    1    2    0    0 -0.45812236120E+02 -0.59332213636E+02 -0.79154199608E+02  0.10901586980E+03  0.00000000000E+00 0.  1.
<mgrwt>
<rscale>  0 0.14443567E+03</rscale>
<asrwt>0</asrwt>
<pdfrwt beam="1">  1        1 0.10730696E-01 0.15073169E+03</pdfrwt>
<pdfrwt beam="2">  1       -1 0.44285165E-01 0.15073169E+03</pdfrwt>
<totfact> 0.29070987E+03</totfact>
</mgrwt>
</event>
<event>
 6    1  0.5818426E-006  0.1361019E+03  0.7546771E-02  0.1235081E+00
         -1   -1    0    0    0  501 -0.00000000000E+00  0.00000000000E+00  0.59811716555E+03  0.59811716555E+03  0.00000000000E+00 0.  1.
          1   -1    0    0  501    0  0.00000000000E+00 -0.00000000000E+00 -0.23363117983E+02  0.23363117983E+02  0.00000000000E+00 0. -1.
          5    1    1    2  502    0  0.13787252316E+02 -0.76788408690E+01 -0.39744991930E+01  0.16939290639E+02  0.47000000000E+01 0.  1.
         -5    1    1    2    0  502  0.76054658123E+01 -0.41719285890E+02  0.39097439021E+03  0.39329557044E+03  0.47000000000E+01 0.  1.
        -11    1    1    2    0    0 -0.38426356518E+02  0.37119723558E+01  0.13025876572E+03  0.13585915376E+03  0.00000000000E+00 0.  1.
         11    1    1    2    0    0  0.17033638390E+02  0.45686154404E+02  0.57495390831E+02  0.75386268695E+02  0.00000000000E+00 0. -1.
<mgrwt>
<rscale>  0 0.12499222E+03</rscale>
<asrwt>0</asrwt>
<pdfrwt beam="2">  1        1 0.35943263E-02 0.13610189E+03</pdfrwt>
<pdfrwt beam="1">  1       -1 0.92018014E-01 0.13610189E+03</pdfrwt>
<totfact> 0.30820227E+03</totfact>
</mgrwt>
</event>
<event>
 6    1  0.5818426E-006  0.1303915E+03  0.7546771E-02  0.1239861E+00
          1   -1    0    0  501    0  0.00000000000E+00  0.00000000000E+00  0.15191104148E+03  0.15191104148E+03  0.00000000000E+00 0. -1.
         -1   -1    0    0    0  501 -0.00000000000E+00 -0.00000000000E+00 -0.93861672466E+02  0.93861672466E+02  0.00000000000E+00 0.  1.
          5    1    1    2  502    0 -0.71604255627E+01 -0.44057561551E+02  0.22327138555E+02  0.50129148607E+02  0.47000000000E+01 0. -1.
         -5    1    1    2    0  502 -0.11414723659E+02  0.76179654397E+02 -0.22053808928E+02  0.80262669707E+02  0.47000000000E+01 0. -1.
        -11    1    1    2    0    0  0.46387477841E+02  0.99926364016E+01  0.16686590434E+02  0.50300031640E+02  0.00000000000E+00 0.  1.
         11    1    1    2    0    0 -0.27812328619E+02 -0.42114729247E+02  0.41089448952E+02  0.65080863992E+02  0.00000000000E+00 0. -1.
<mgrwt>
<rscale>  0 0.12198303E+03</rscale>
<asrwt>0</asrwt>
<pdfrwt beam="1">  1        1 0.23370930E-01 0.13039153E+03</pdfrwt>
<pdfrwt beam="2">  1       -1 0.14440257E-01 0.13039153E+03</pdfrwt>
<totfact> 0.67452037E+03</totfact>
</mgrwt>
</event>
<event>
 6    1  0.5818426E-006  0.1451283E+03  0.7546771E-02  0.1217100E+00
         -1   -1    0    0    0  501 -0.00000000000E+00  0.00000000000E+00  0.81270437657E+02  0.81270437657E+02  0.00000000000E+00 0.  1.
          1   -1    0    0  501    0  0.00000000000E+00 -0.00000000000E+00 -0.21145496855E+03  0.21145496855E+03  0.00000000000E+00 0. -1.
          5    1    1    2  502    0  0.76266809339E+02  0.74651752330E+02 -0.43928793214E+02  0.11550471508E+03  0.47000000000E+01 0. -1.
         -5    1    1    2    0  502 -0.18929967828E+02 -0.32964761261E+02 -0.15542779909E+02  0.41336269476E+02  0.47000000000E+01 0.  1.
        -11    1    1    2    0    0  0.62554965851E+01 -0.14474761536E+02  0.17650088491E+02  0.23668028705E+02  0.00000000000E+00 0.  1.
         11    1    1    2    0    0 -0.63592338096E+02 -0.27212229533E+02 -0.88363046260E+02  0.11221639294E+03  0.00000000000E+00 0. -1.
<mgrwt>
<rscale>  0 0.13723405E+03</rscale>
<asrwt>0</asrwt>
<pdfrwt beam="2">  1        1 0.32531533E-01 0.14512831E+03</pdfrwt>
<pdfrwt beam="1">  1       -1 0.12503144E-01 0.14512831E+03</pdfrwt>
<totfact> 0.56213888E+03</totfact>
</mgrwt>
</event>
<event>
 6    1  0.5818426E-006  0.1256035E+03  0.7546771E-02  0.1250159E+00
          2   -1    0    0  501    0  0.00000000000E+00  0.00000000000E+00  0.20126633793E+03  0.20126633793E+03  0.00000000000E+00 0. -1.
         -2   -1    0    0    0  501 -0.00000000000E+00 -0.00000000000E+00 -0.58289577680E+02  0.58289577680E+02  0.00000000000E+00 0.  1.
          5    1    1    2  502    0 -0.51643525575E+02  0.22113992987E+02  0.45751807159E+02  0.72604409495E+02  0.47000000000E+01 0. -1.
         -5    1    1    2    0  502  0.63936609409E+02 -0.22367506521E+02  0.31458901155E+02  0.74832799177E+02  0.47000000000E+01 0. -1.
        -11    1    1    2    0    0 -0.84830885821E+01 -0.44525531307E+02  0.26933721696E+02  0.52724862204E+02  0.00000000000E+00 0.  1.
         11    1    1    2    0    0 -0.38099952518E+01  0.44779044840E+02  0.38832330242E+02  0.59393844737E+02  0.00000000000E+00 0. -1.
<mgrwt>
<rscale>  0 0.11581850E+03</rscale>
<asrwt>0</asrwt>
<pdfrwt beam="1">  1        2 0.30964052E-01 0.12560349E+03</pdfrwt>
<pdfrwt beam="2">  1       -2 0.89676274E-02 0.12560349E+03</pdfrwt>
<totfact> 0.12469967E+04</totfact>
</mgrwt>
</event>
<event>
 6    1  0.5818426E-006  0.2893857E+03  0.7546771E-02  0.1092282E+00
         -3   -1    0    0    0  501 -0.00000000000E+00  0.00000000000E+00  0.13153290674E+03  0.13153290674E+03  0.00000000000E+00 0.  1.
          3   -1    0    0  501    0  0.00000000000E+00 -0.00000000000E+00 -0.62661902303E+03  0.62661902303E+03  0.00000000000E+00 0. -1.
          5    1    1    2  502    0  0.85334481277E+02  0.65109636610E+02 -0.34455521937E+02  0.11282956823E+03  0.47000000000E+01 0. -1.
         -5    1    1    2    0  502  0.23802064672E+02  0.17196219297E+03 -0.15737055832E+03  0.23436108192E+03  0.47000000000E+01 0. -1.
        -11    1    1    2    0    0 -0.48429576826E+02 -0.30763481920E+02 -0.35254247441E+02  0.67340015548E+02  0.00000000000E+00 0.  1.
         11    1    1    2    0    0 -0.60706969123E+02 -0.20630834766E+03 -0.26800578860E+03  0.34362126409E+03  0.00000000000E+00 0. -1.
<mgrwt>
<rscale>  0 0.28632847E+03</rscale>
<asrwt>0</asrwt>
<pdfrwt beam="2">  1        3 0.96402929E-01 0.28938573E+03</pdfrwt>
<pdfrwt beam="1">  1       -3 0.20235831E-01 0.28938573E+03</pdfrwt>
<totfact> 0.54279835E+01</totfact>
</mgrwt>
</event>
<event>
 6    1  0.5818426E-006  0.1306006E+03  0.7546771E-02  0.1240181E+00
         -1   -1    0    0    0  501 -0.00000000000E+00  0.00000000000E+00  0.92569813253E+02  0.92569813253E+02  0.00000000000E+00 0.  1.
          1   -1    0    0  501    0  0.00000000000E+00 -0.00000000000E+00 -0.15164670440E+03  0.15164670440E+03  0.00000000000E+00 0. -1.
          5    1    1    2  502    0  0.43555829755E+02 -0.15189790866E+02 -0.49560652326E+01  0.46631455422E+02  0.47000000000E+01 0.  1.
         -5    1    1    2    0  502 -0.77734654214E+02  0.31427671636E+02  0.19970382757E+01  0.84002697409E+02  0.47000000000E+01 0.  1.
        -11    1    1    2    0    0  0.35260344663E+02  0.50823201325E+01  0.15499961721E+02  0.38850620291E+02  0.00000000000E+00 0.  1.
         11    1    1    2    0    0 -0.10815202038E+01 -0.21320200903E+02 -0.71617825909E+02  0.74731744529E+02  0.00000000000E+00 0. -1.
<mgrwt>
<rscale>  0 0.12178512E+03</rscale>
<asrwt>0</asrwt>
<pdfrwt beam="2">  1        1 0.23330262E-01 0.13060064E+03</pdfrwt>
<pdfrwt beam="1">  1       -1 0.14241510E-01 0.13060064E+03</pdfrwt>
<totfact> 0.69085731E+03</totfact>
</mgrwt>
</event>
<event>
 6    1  0.5818426E-006  0.1645410E+03  0.7546771E-02  0.1198959E+00
         -3   -1    0    0    0  501 -0.00000000000E+00  0.00000000000E+00  0.23511396386E+02  0.23511396386E+02  0.00000000000E+00 0.  1.
          3   -1    0    0  501    0  0.00000000000E+00 -0.00000000000E+00 -0.90149604058E+03  0.90149604058E+03  0.00000000000E+00 0. -1.
          5    1    1    2  502    0 -0.46140359755E+01  0.49113354733E+02 -0.14880069989E+03  0.15683478323E+03  0.47000000000E+01 0. -1.
         -5    1    1    2    0  502  0.62764886293E+02 -0.94302343903E+02 -0.24521075209E+03  0.27015322681E+03  0.47000000000E+01 0.  1.
        -11    1    1    2    0    0 -0.58543529617E+02 -0.12374294043E+02 -0.23991172303E+03  0.24726120371E+03  0.00000000000E+00 0.  1.
         11    1    1    2    0    0  0.39267930030E+00  0.57563283213E+02 -0.24406146919E+03  0.25075822322E+03  0.00000000000E+00 0. -1.
<mgrwt>
<rscale>  0 0.15123910E+03</rscale>
<asrwt>0</asrwt>
<pdfrwt beam="2">  1        3 0.13869172E+00 0.16454099E+03</pdfrwt>
<pdfrwt beam="1">  1       -3 0.36171374E-02 0.16454099E+03</pdfrwt>
<totfact> 0.37961222E+02</totfact>
</mgrwt>
</event>
<event>
 6    1  0.5818426E-006  0.1565328E+03  0.7546771E-02  0.1200800E+00
          2   -1    0    0  501    0  0.00000000000E+00  0.00000000000E+00  0.94969605612E+03  0.94969605612E+03  0.00000000000E+00 0. -1.
         -2   -1    0    0    0  501 -0.00000000000E+00 -0.00000000000E+00 -0.37443971975E+02  0.37443971975E+02  0.00000000000E+00 0.  1.
          5    1    1    2  502    0  0.16236176370E+02 -0.93990495013E+02  0.15649680381E+03  0.18333348352E+03  0.47000000000E+01 0. -1.
         -5    1    1    2    0  502  0.36071350620E+02  0.18903979378E+02  0.45415972300E+01  0.41245834665E+02  0.47000000000E+01 0.  1.
        -11    1    1    2    0    0 -0.79805455942E+02  0.53743063447E+02  0.54356072355E+03  0.55201040557E+03  0.00000000000E+00 0. -1.
         11    1    1    2    0    0  0.27497928952E+02  0.21343452188E+02  0.20765295955E+03  0.21055030434E+03  0.00000000000E+00 0.  1.
<mgrwt>
<rscale>  0 0.14973448E+03</rscale>
<asrwt>0</asrwt>
<pdfrwt beam="1">  1        2 0.14610707E+00 0.15653276E+03</pdfrwt>
<pdfrwt beam="2">  1       -2 0.57606118E-02 0.15653276E+03</pdfrwt>
<totfact> 0.43693586E+03</totfact>
</mgrwt>
</event>
<event>
 6    1  0.5818426E-006  0.1337955E+03  0.7546771E-02  0.1234031E+00
          1   -1    0    0  501    0  0.00000000000E+00  0.00000000000E+00  0.35756600971E+02  0.35756600971E+02  0.00000000000E+00 0. -1.
         -1   -1    0    0    0  501 -0.00000000000E+00 -0.00000000000E+00 -0.43890670477E+03  0.43890670477E+03  0.00000000000E+00 0.  1.
          5    1    1    2  502    0 -0.17562258427E+01 -0.48326773397E+02 -0.66116075733E+02  0.82048685709E+02  0.47000000000E+01 0.  1.
         -5    1    1    2    0  502  0.47705629222E+02  0.61346665679E+02 -0.23200252530E+03  0.24471718818E+03  0.47000000000E+01 0.  1.
        -11    1    1    2    0    0 -0.30149835065E+02  0.19629270466E+02 -0.10566400279E+03  0.11162079689E+03  0.00000000000E+00 0.  1.
         11    1    1    2    0    0 -0.15799568314E+02 -0.32649162748E+02  0.63250002365E+00  0.36276634951E+02  0.00000000000E+00 0. -1.
<mgrwt>
<rscale>  0 0.12566663E+03</rscale>
<asrwt>0</asrwt>
<pdfrwt beam="1">  1        1 0.55010161E-02 0.13379550E+03</pdfrwt>
<pdfrwt beam="2">  1       -1 0.67524102E-01 0.13379550E+03</pdfrwt>
<totfact> 0.32298607E+03</totfact>
</mgrwt>
</event>
<event>
 6    1  0.5818426E-006  0.1520963E+03  0.7546771E-02  0.1205854E+00
          1   -1    0    0  501    0  0.00000000000E+00  0.00000000000E+00  0.43791208833E+02  0.43791208833E+02  0.00000000000E+00 0. -1.
         -1   -1    0    0    0  501 -0.00000000000E+00 -0.00000000000E+00 -0.60269253938E+03  0.60269253938E+03  0.00000000000E+00 0.  1.
          5    1    1    2  502    0 -0.18670531116E+02 -0.22781331841E+02 -0.24136119099E+02  0.38369519906E+02  0.47000000000E+01 0. -1.
         -5    1    1    2    0  502  0.88228981968E+02 -0.35081485956E+02 -0.43633225603E+03  0.44656801450E+03  0.47000000000E+01 0.  1.
        -11    1    1    2    0    0 -0.72800893042E+02  0.78027727725E+02 -0.74851444411E+02  0.13034966456E+03  0.00000000000E+00 0. -1.
         11    1    1    2    0    0  0.32424421907E+01 -0.20164909927E+02 -0.23581511002E+02  0.31196549246E+02  0.00000000000E+00 0.  1.
<mgrwt>
<rscale>  0 0.14570398E+03</rscale>
<asrwt>0</asrwt>
<pdfrwt beam="1">  1        1 0.67371096E-02 0.15209631E+03</pdfrwt>
<pdfrwt beam="2">  1       -1 0.92721921E-01 0.15209631E+03</pdfrwt>
<totfact> 0.12892713E+03</totfact>
</mgrwt>
</event>
<event>
 6    1  0.5818426E-006  0.1529757E+03  0.7546771E-02  0.1205503E+00
          3   -1    0    0  501    0  0.00000000000E+00  0.00000000000E+00  0.32599718205E+03  0.32599718205E+03  0.00000000000E+00 0. -1.
         -3   -1    0    0    0  501 -0.00000000000E+00 -0.00000000000E+00 -0.61415751044E+02  0.61415751044E+02  0.00000000000E+00 0.  1.
          5    1    1    2  502    0 -0.32306489046E+02  0.43681878108E+02  0.19716684557E+02  0.57988389868E+02  0.47000000000E+01 0. -1.
         -5    1    1    2    0  502  0.90328570457E+02  0.22701852643E+02  0.95871861431E+02  0.13374650862E+03  0.47000000000E+01 0. -1.
        -11    1    1    2    0    0 -0.51600621905E+02  0.67160932430E+01  0.76558849895E+02  0.92568826215E+02  0.00000000000E+00 0. -1.
         11    1    1    2    0    0 -0.64214595063E+01 -0.73099823994E+02  0.72434035119E+02  0.10310920839E+03  0.00000000000E+00 0.  1.
<mgrwt>
<rscale>  0 0.14597878E+03</rscale>
<asrwt>0</asrwt>
<pdfrwt beam="1">  1        3 0.50153411E-01 0.15297568E+03</pdfrwt>
<pdfrwt beam="2">  1       -3 0.94485773E-02 0.15297568E+03</pdfrwt>
<totfact> 0.75793773E+02</totfact>
</mgrwt>
</event>
<event>
 6    1  0.5818426E-006  0.3334965E+03  0.7546771E-02  0.1069600E+00
         -1   -1    0    0    0  501 -0.00000000000E+00  0.00000000000E+00  0.22417828981E+03  0.22417828981E+03  0.00000000000E+00 0.  1.
          1   -1    0    0  501    0  0.00000000000E+00 -0.00000000000E+00 -0.12403068285E+03  0.12403068285E+03  0.00000000000E+00 0. -1.
          5    1    1    2  502    0  0.25020961021E+01  0.21928215963E+02  0.86148041741E+02  0.89054377973E+02  0.47000000000E+01 0. -1.
         -5    1    1    2    0  502  0.41203464062E+02  0.91855847959E+02 -0.10237377068E+02  0.10130210336E+03  0.47000000000E+01 0. -1.
        -11    1    1    2    0    0  0.12544509365E+02 -0.61642932538E+02  0.46224876249E+02  0.78063788221E+02  0.00000000000E+00 0.  1.
         11    1    1    2    0    0 -0.56250069529E+02 -0.52141131384E+02 -0.21987933971E+02  0.79788703112E+02  0.00000000000E+00 0. -1.
<mgrwt>
<rscale>  0 0.33349654E+03</rscale>
<asrwt>0</asrwt>
<pdfrwt beam="2">  1        1 0.19081643E-01 0.33349654E+03</pdfrwt>
<pdfrwt beam="1">  1       -1 0.34488968E-01 0.33349654E+03</pdfrwt>
<totfact> 0.21841141E+03</totfact>
</mgrwt>
</event>
<event>
 6    1  0.5818426E-006  0.1268972E+03  0.7546771E-02  0.1247900E+00
          3   -1    0    0  501    0  0.00000000000E+00  0.00000000000E+00  0.55019152679E+02  0.55019152679E+02  0.00000000000E+00 0. -1.
         -3   -1    0    0    0  501 -0.00000000000E+00 -0.00000000000E+00 -0.24788944582E+03  0.24788944582E+03  0.00000000000E+00 0.  1.
          5    1    1    2  502    0 -0.41901393059E+02 -0.59302489502E+02 -0.99760988416E+02  0.12347816330E+03  0.47000000000E+01 0.  1.
         -5    1    1    2    0  502  0.38109828303E+02  0.37757759612E+02 -0.62161810971E+02  0.82244684737E+02  0.47000000000E+01 0.  1.
        -11    1    1    2    0    0  0.35473417129E+02  0.82743602801E+01  0.15358247664E+02  0.39531052758E+02  0.00000000000E+00 0. -1.
         11    1    1    2    0    0 -0.31681852373E+02  0.13270369610E+02 -0.46305741419E+02  0.57654697707E+02  0.00000000000E+00 0.  1.
<mgrwt>
<rscale>  0 0.11713464E+03</rscale>
<asrwt>0</asrwt>
<pdfrwt beam="1">  1        3 0.84644849E-02 0.12689719E+03</pdfrwt>
<pdfrwt beam="2">  1       -3 0.38136838E-01 0.12689719E+03</pdfrwt>
<totfact> 0.15046445E+03</totfact>
</mgrwt>
</event>
<event>
 6    1  0.5818426E-006  0.3026219E+03  0.7546771E-02  0.1115659E+00
          2   -1    0    0  501    0  0.00000000000E+00  0.00000000000E+00  0.70781007606E+03  0.70781007606E+03  0.00000000000E+00 0. -1.
         -2   -1    0    0    0  501 -0.00000000000E+00 -0.00000000000E+00 -0.66986130656E+02  0.66986130656E+02  0.00000000000E+00 0.  1.
          5    1    1    2  502    0  0.86375654898E+02  0.61469952359E+02  0.47800166399E+03  0.48963965279E+03  0.47000000000E+01 0. -1.
         -5    1    1    2    0  502  0.31638209559E+01 -0.19697688168E+02 -0.38708815627E+02  0.43800354901E+02  0.47000000000E+01 0.  1.
        -11    1    1    2    0    0 -0.28922776754E+02  0.21864075464E+02  0.10365272395E+03  0.10981098302E+03  0.00000000000E+00 0.  1.
         11    1    1    2    0    0 -0.60616699101E+02 -0.63636339655E+02  0.97878373093E+02  0.13154521601E+03  0.00000000000E+00 0. -1.
<mgrwt>
<rscale>  0 0.24630973E+03</rscale>
<asrwt>0</asrwt>
<pdfrwt beam="1">  1        2 0.10889385E+00 0.30262193E+03</pdfrwt>
<pdfrwt beam="2">  1       -2 0.10305559E-01 0.30262193E+03</pdfrwt>
<totfact> 0.26155482E+03</totfact>
</mgrwt>
</event>
<event>
 6    1  0.5818426E-006  0.1701967E+03  0.7546771E-02  0.1184487E+00
          1   -1    0    0  501    0  0.00000000000E+00  0.00000000000E+00  0.38418106346E+03  0.38418106346E+03  0.00000000000E+00 0.  1.
         -1   -1    0    0    0  501 -0.00000000000E+00 -0.00000000000E+00 -0.79655436112E+02  0.79655436112E+02  0.00000000000E+00 0. -1.
          5    1    1    2  502    0  0.91665078335E+02  0.95165063952E+01  0.32497477142E+01  0.92334724456E+02  0.47000000000E+01 0. -1.
         -5    1    1    2    0  502 -0.42452592029E+01  0.65982344359E+02  0.59462371080E+02  0.89048052013E+02  0.47000000000E+01 0. -1.
        -11    1    1    2    0    0  0.13601573045E+02  0.71135672388E+01  0.29090509317E+02  0.32891691359E+02  0.00000000000E+00 0.  1.
         11    1    1    2    0    0 -0.10102139218E+03 -0.82612417993E+02  0.21272299924E+03  0.24956203175E+03  0.00000000000E+00 0. -1.
<mgrwt>
<rscale>  0 0.16378603E+03</rscale>
<asrwt>0</asrwt>
<pdfrwt beam="1">  1        1 0.59104778E-01 0.17019666E+03</pdfrwt>
<pdfrwt beam="2">  1       -1 0.12254683E-01 0.17019666E+03</pdfrwt>
<totfact> 0.27766314E+03</totfact>
</mgrwt>
</event>
<event>
 6    1  0.5818426E-006  0.1383878E+03  0.7546771E-02  0.1227053E+00
         -1   -1    0    0    0  501 -0.00000000000E+00  0.00000000000E+00  0.43709175432E+02  0.43709175432E+02  0.00000000000E+00 0.  1.
          1   -1    0    0  501    0  0.00000000000E+00 -0.00000000000E+00 -0.46872672153E+03  0.46872672153E+03  0.00000000000E+00 0. -1.
          5    1    1    2  502    0 -0.41293355826E+02  0.66018400665E+02 -0.80175915247E+02  0.11186526649E+03  0.47000000000E+01 0.  1.
         -5    1    1    2    0  502 -0.16727534902E+02 -0.53386738842E+02 -0.22638889582E+02  0.60535639334E+02  0.47000000000E+01 0.  1.
        -11    1    1    2    0    0  0.66595322537E+02  0.12119781513E+02 -0.29338032782E+03  0.30108776601E+03  0.00000000000E+00 0. -1.
         11    1    1    2    0    0 -0.85744318090E+01 -0.24751443336E+02 -0.28822413445E+02  0.38947225124E+02  0.00000000000E+00 0.  1.
<mgrwt>
<rscale>  0 0.13027195E+03</rscale>
<asrwt>0</asrwt>
<pdfrwt beam="2">  1        1 0.72111803E-01 0.13838782E+03</pdfrwt>
<pdfrwt beam="1">  1       -1 0.67244886E-02 0.13838782E+03</pdfrwt>
<totfact> 0.53265478E+03</totfact>
</mgrwt>
</event>
<event>
 6    1  0.5818426E-006  0.2954687E+03  0.7546771E-02  0.1087528E+00
         -1   -1    0    0    0  501 -0.00000000000E+00  0.00000000000E+00  0.49758315318E+02  0.49758315318E+02  0.00000000000E+00 0.  1.
          1   -1    0    0  501    0  0.00000000000E+00 -0.00000000000E+00 -0.43862891033E+03  0.43862891033E+03  0.00000000000E+00 0. -1.
          5    1    1    2  502    0 -0.27413043093E+02 -0.17044741911E+02 -0.53494695987E+02  0.62655970643E+02  0.47000000000E+01 0. -1.
         -5    1    1    2    0  502  0.11989071990E+03  0.21925958754E+01 -0.97866318867E+02  0.15484992271E+03  0.47000000000E+01 0. -1.
        -11    1    1    2    0    0 -0.60484557776E+02 -0.35288760806E+02 -0.14276887685E+03  0.15901770520E+03  0.00000000000E+00 0.  1.
         11    1    1    2    0    0 -0.31993119032E+02  0.50140906842E+02 -0.94740703309E+02  0.11186362710E+03  0.00000000000E+00 0. -1.
<mgrwt>
<rscale>  0 0.29546868E+03</rscale>
<asrwt>0</asrwt>
<pdfrwt beam="2">  1        1 0.67481371E-01 0.29546868E+03</pdfrwt>
<pdfrwt beam="1">  1       -1 0.76551254E-02 0.29546868E+03</pdfrwt>
<totfact> 0.49389081E+03</totfact>
</mgrwt>
</event>
<event>
 6    1  0.5818426E-006  0.1619417E+03  0.7546771E-02  0.1194485E+00
          1   -1    0    0  501    0  0.00000000000E+00  0.00000000000E+00  0.15201351901E+03  0.15201351901E+03  0.00000000000E+00 0. -1.
         -1   -1    0    0    0  501 -0.00000000000E+00 -0.00000000000E+00 -0.17623538672E+03  0.17623538672E+03  0.00000000000E+00 0.  1.
          5    1    1    2  502    0  0.23645690368E+02  0.35745635799E+02  0.13970769623E+02  0.45322638444E+02  0.47000000000E+01 0. -1.
         -5    1    1    2    0  502 -0.84628919779E+02  0.47195508247E+02 -0.94914889375E+02  0.13572176055E+03  0.47000000000E+01 0. -1.
        -11    1    1    2    0    0  0.55246933488E+01 -0.47386789407E+02 -0.14815512718E+02  0.49955274636E+02  0.00000000000E+00 0.  1.
         11    1    1    2    0    0  0.55458536062E+02 -0.35554354639E+02  0.71537764766E+02  0.97249232098E+02  0.00000000000E+00 0. -1.
<mgrwt>
<rscale>  0 0.15497933E+03</rscale>
<asrwt>0</asrwt>
<pdfrwt beam="1">  1        1 0.23386695E-01 0.16194173E+03</pdfrwt>
<pdfrwt beam="2">  1       -1 0.27113136E-01 0.16194173E+03</pdfrwt>
<totfact> 0.24753897E+03</totfact>
</mgrwt>
</event>
<event>
 6    1  0.5818426E-006  0.1283778E+03  0.7546771E-02  0.1244154E+00
          2   -1    0    0  501    0  0.00000000000E+00  0.00000000000E+00  0.65106137163E+02  0.65106137163E+02  0.00000000000E+00 0. -1.
         -2   -1    0    0    0  501 -0.00000000000E+00 -0.00000000000E+00 -0.19907179985E+03  0.19907179985E+03  0.00000000000E+00 0.  1.
          5    1    1    2  502    0 -0.30516431380E+02  0.44777456378E+02 -0.81788406037E+02  0.98222739455E+02  0.47000000000E+01 0. -1.
         -5    1    1    2    0  502  0.54486271948E+02 -0.28056346657E+02 -0.17023601454E+02  0.63779349518E+02  0.47000000000E+01 0. -1.
        -11    1    1    2    0    0 -0.38647395362E+01  0.18975549846E+02  0.23612854149E+02  0.30538084169E+02  0.00000000000E+00 0. -1.
         11    1    1    2    0    0 -0.20105101031E+02 -0.35696659567E+02 -0.58766509341E+02  0.71637763867E+02  0.00000000000E+00 0.  1.
<mgrwt>
<rscale>  0 0.11936178E+03</rscale>
<asrwt>0</asrwt>
<pdfrwt beam="1">  1        2 0.10016329E-01 0.12837782E+03</pdfrwt>
<pdfrwt beam="2">  1       -2 0.30626430E-01 0.12837782E+03</pdfrwt>
<totfact> 0.59426499E+03</totfact>
</mgrwt>
</event>
<event>
 6    1  0.5818426E-006  0.1297803E+03  0.7546771E-02  0.1241077E+00
          1   -1    0    0  501    0  0.00000000000E+00  0.00000000000E+00  0.16551419008E+03  0.16551419008E+03  0.00000000000E+00 0. -1.
         -1   -1    0    0    0  501 -0.00000000000E+00 -0.00000000000E+00 -0.79423133980E+02  0.79423133980E+02  0.00000000000E+00 0.  1.
          5    1    1    2  502    0  0.39373927062E+01 -0.49739378567E+02  0.28991733669E+02  0.57897490988E+02  0.47000000000E+01 0.  1.
         -5    1    1    2    0  502  0.21275003974E+02  0.73873274164E+02  0.10329889439E+02  0.77708963741E+02  0.47000000000E+01 0.  1.
        -11    1    1    2    0    0 -0.48705999155E+02 -0.33665053345E+02  0.36631153009E+01  0.59321400726E+02  0.00000000000E+00 0.  1.
         11    1    1    2    0    0  0.23493602475E+02  0.95311577482E+01  0.43106317695E+02  0.50009468609E+02  0.00000000000E+00 0. -1.
<mgrwt>
<rscale>  0 0.12123285E+03</rscale>
<asrwt>0</asrwt>
<pdfrwt beam="1">  1        1 0.25463721E-01 0.12978028E+03</pdfrwt>
<pdfrwt beam="2">  1       -1 0.12218944E-01 0.12978028E+03</pdfrwt>
<totfact> 0.78462313E+03</totfact>
</mgrwt>
</event>
<event>
 6    1  0.5818426E-006  0.3365159E+03  0.7546771E-02  0.1068290E+00
          1   -1    0    0  501    0  0.00000000000E+00  0.00000000000E+00  0.71535043159E+03  0.71535043159E+03  0.00000000000E+00 0. -1.
         -1   -1    0    0    0  501 -0.00000000000E+00 -0.00000000000E+00 -0.39576041868E+02  0.39576041868E+02  0.00000000000E+00 0.  1.
          5    1    1    2  502    0 -0.60839432098E+02 -0.11084411106E+03  0.18498481515E+03  0.22411899805E+03  0.47000000000E+01 0.  1.
         -5    1    1    2    0  502  0.43799103672E+02 -0.48325781729E+01  0.54207429733E+02  0.70016074815E+02  0.47000000000E+01 0.  1.
        -11    1    1    2    0    0  0.43949766189E+02  0.53266306594E+02  0.13490006418E+03  0.15154837077E+03  0.00000000000E+00 0.  1.
         11    1    1    2    0    0 -0.26909437764E+02  0.62410382634E+02  0.30168208066E+03  0.30924302982E+03  0.00000000000E+00 0. -1.
<mgrwt>
<rscale>  0 0.33651591E+03</rscale>
<asrwt>0</asrwt>
<pdfrwt beam="1">  1        1 0.11005390E+00 0.33651591E+03</pdfrwt>
<pdfrwt beam="2">  1       -1 0.60886223E-02 0.33651591E+03</pdfrwt>
<totfact> 0.35764940E+03</totfact>
</mgrwt>
</event>
<event>
 6    1  0.5818426E-006  0.1193532E+03  0.7546771E-02  0.1318678E+00
          1   -1    0    0  501    0  0.00000000000E+00  0.00000000000E+00  0.59369132437E+02  0.59369132437E+02  0.00000000000E+00 0. -1.
         -1   -1    0    0    0  501 -0.00000000000E+00 -0.00000000000E+00 -0.19327845212E+03  0.19327845212E+03  0.00000000000E+00 0.  1.
          5    1    1    2  502    0  0.19044657438E+02 -0.31188307227E+02 -0.77283316898E+01  0.37646070118E+02  0.47000000000E+01 0. -1.
         -5    1    1    2    0  502 -0.43242739678E+02  0.27164440816E+02 -0.16142911508E+03  0.16937913264E+03  0.47000000000E+01 0.  1.
        -11    1    1    2    0    0  0.10998187620E+02 -0.54982557728E+01  0.18944800635E+02  0.22585314223E+02  0.00000000000E+00 0. -1.
         11    1    1    2    0    0  0.13199894620E+02  0.95221221844E+01  0.16303326453E+02  0.23037067572E+02  0.00000000000E+00 0.  1.
<mgrwt>
<rscale>  0 0.83771060E+02</rscale>
<asrwt>0</asrwt>
<pdfrwt beam="1">  1        1 0.91337126E-02 0.11935323E+03</pdfrwt>
<pdfrwt beam="2">  1       -1 0.29735147E-01 0.11935323E+03</pdfrwt>
<totfact> 0.70549142E+03</totfact>
</mgrwt>
</event>
<event>
 6    1  0.5918095E-006  0.2437992E+03  0.7546771E-02  0.1119854E+00
         -1   -1    0    0    0  501 -0.00000000000E+00  0.00000000000E+00  0.10428722395E+03  0.10428722395E+03  0.00000000000E+00 0.  1.
          1   -1    0    0  501    0  0.00000000000E+00 -0.00000000000E+00 -0.76100139425E+03  0.76100139425E+03  0.00000000000E+00 0. -1.
          5    1    1    2  502    0 -0.56984775563E+02 -0.14172479407E+03 -0.37329353506E+02  0.15731736246E+03  0.47000000000E+01 0. -1.
         -5    1    1    2    0  502 -0.84679664024E+02 -0.12368375361E+02 -0.62754576258E+02  0.10622546328E+03  0.47000000000E+01 0. -1.
        -11    1    1    2    0    0  0.83992222840E+02  0.26473943575E+02 -0.23443909186E+03  0.25043412503E+03  0.00000000000E+00 0.  1.
         11    1    1    2    0    0  0.57672216747E+02  0.12761922585E+03 -0.32219114867E+03  0.35131166743E+03  0.00000000000E+00 0. -1.
<mgrwt>
<rscale>  0 0.23990877E+03</rscale>
<asrwt>0</asrwt>
<pdfrwt beam="2">  1        1 0.11707714E+00 0.24379916E+03</pdfrwt>
<pdfrwt beam="1">  1       -1 0.16044188E-01 0.24379916E+03</pdfrwt>
<totfact> 0.72100882E+02</totfact>
</mgrwt>
</event>
<event>
 6    1  0.5818426E-006  0.2400632E+03  0.7546771E-02  0.1119751E+00
         -1   -1    0    0    0  501 -0.00000000000E+00  0.00000000000E+00  0.40040409428E+03  0.40040409428E+03  0.00000000000E+00 0.  1.
          1   -1    0    0  501    0  0.00000000000E+00 -0.00000000000E+00 -0.35982613035E+02  0.35982613035E+02  0.00000000000E+00 0. -1.
          5    1    1    2  502    0 -0.16644929325E+01  0.11339812113E+02 -0.12492537609E+02  0.17593048951E+02  0.47000000000E+01 0.  1.
         -5    1    1    2    0  502  0.52253041210E+02 -0.39933627538E+02  0.23570595490E+03  0.24475388066E+03  0.47000000000E+01 0.  1.
        -11    1    1    2    0    0 -0.25023302489E+02  0.39333125323E+02  0.13855085282E+03  0.14618344377E+03  0.00000000000E+00 0.  1.
         11    1    1    2    0    0 -0.25565245788E+02 -0.10739309898E+02  0.26572111368E+01  0.27856333935E+02  0.00000000000E+00 0. -1.
<mgrwt>
<rscale>  0 0.24006320E+03</rscale>
<asrwt>0</asrwt>
<pdfrwt beam="2">  1        1 0.55357869E-02 0.24006320E+03</pdfrwt>
<pdfrwt beam="1">  1       -1 0.61600627E-01 0.24006320E+03</pdfrwt>
<totfact> 0.39504463E+03</totfact>
</mgrwt>
</event>
<event>
 6    1  0.5818426E-006  0.1331700E+03  0.7546771E-02  0.1234655E+00
          2   -1    0    0  501    0  0.00000000000E+00  0.00000000000E+00  0.71317036588E+03  0.71317036588E+03  0.00000000000E+00 0. -1.
         -2   -1    0    0    0  501 -0.00000000000E+00 -0.00000000000E+00 -0.35232272881E+02  0.35232272881E+02  0.00000000000E+00 0.  1.
          5    1    1    2  502    0  0.72705857679E+01  0.68745305006E+02  0.39172007362E+02  0.79594689136E+02  0.47000000000E+01 0. -1.
         -5    1    1    2    0  502 -0.43409463474E+02 -0.40295258920E+02  0.76012470723E+02  0.96478366052E+02  0.47000000000E+01 0. -1.
        -11    1    1    2    0    0  0.49196539374E+02  0.20418237645E+02  0.26327831015E+03  0.26861249508E+03  0.00000000000E+00 0. -1.
         11    1    1    2    0    0 -0.13057661668E+02 -0.48868283731E+02  0.29947530476E+03  0.30371708849E+03  0.00000000000E+00 0.  1.
<mgrwt>
<rscale>  0 0.12526541E+03</rscale>
<asrwt>0</asrwt>
<pdfrwt beam="1">  1        2 0.10971851E+00 0.13317003E+03</pdfrwt>
<pdfrwt beam="2">  1       -2 0.54203502E-02 0.13317003E+03</pdfrwt>
<totfact> 0.68334144E+03</totfact>
</mgrwt>
</event>
<event>
 6    1  0.5818426E-006  0.1338328E+03  0.7546771E-02  0.1233756E+00
         -1   -1    0    0    0  501 -0.00000000000E+00  0.00000000000E+00  0.27391940066E+02  0.27391940066E+02  0.00000000000E+00 0.  1.
          1   -1    0    0  501    0  0.00000000000E+00 -0.00000000000E+00 -0.55221250573E+03  0.55221250573E+03  0.00000000000E+00 0. -1.
          5    1    1    2  502    0  0.45260331128E+02  0.64618715140E+02 -0.15597851295E+03  0.17485840678E+03  0.47000000000E+01 0. -1.
         -5    1    1    2    0  502 -0.45024734634E+02 -0.26627152475E+02 -0.66038814590E+02  0.84376815597E+02  0.47000000000E+01 0.  1.
        -11    1    1    2    0    0  0.47800150094E+02 -0.28305454736E+02 -0.15497024042E+03  0.16462633001E+03  0.00000000000E+00 0.  1.
         11    1    1    2    0    0 -0.48035746588E+02 -0.96861079290E+01 -0.14783299770E+03  0.15574289340E+03  0.00000000000E+00 0. -1.
<mgrwt>
<rscale>  0 0.12584383E+03</rscale>
<asrwt>0</asrwt>
<pdfrwt beam="2">  1        1 0.84955772E-01 0.13383276E+03</pdfrwt>
<pdfrwt beam="1">  1       -1 0.42141446E-02 0.13383276E+03</pdfrwt>
<totfact> 0.85780227E+03</totfact>
</mgrwt>
</event>
<event>
 6    1  0.5818426E-006  0.1294531E+03  0.7546771E-02  0.1241898E+00
          1   -1    0    0  501    0  0.00000000000E+00  0.00000000000E+00  0.15977960659E+03  0.15977960659E+03  0.00000000000E+00 0. -1.
         -1   -1    0    0    0  501 -0.00000000000E+00 -0.00000000000E+00 -0.89661236626E+02  0.89661236626E+02  0.00000000000E+00 0.  1.
          5    1    1    2  502    0  0.41248863408E+02  0.82454754310E+01  0.26636108076E+02  0.50010287451E+02  0.47000000000E+01 0. -1.
         -5    1    1    2    0  502 -0.71055722856E+02 -0.23931963436E+02 -0.25841734697E+02  0.79445200463E+02  0.47000000000E+01 0. -1.
        -11    1    1    2    0    0  0.38503391884E+02  0.53302553771E+01 -0.94959554475E+01  0.40013697390E+02  0.00000000000E+00 0.  1.
         11    1    1    2    0    0 -0.86965324352E+01  0.10356232627E+02  0.78819952034E+02  0.79971657912E+02  0.00000000000E+00 0. -1.
<mgrwt>
<rscale>  0 0.12073004E+03</rscale>
<asrwt>0</asrwt>
<pdfrwt beam="1">  1        1 0.24581478E-01 0.12945305E+03</pdfrwt>
<pdfrwt beam="2">  1       -1 0.13794036E-01 0.12945305E+03</pdfrwt>
<totfact> 0.67951742E+03</totfact>
</mgrwt>
</event>
<event>
 6    1  0.5818426E-006  0.1252270E+03  0.7546771E-02  0.1250455E+00
          2   -1    0    0  501    0  0.00000000000E+00  0.00000000000E+00  0.66139998447E+02  0.66139998447E+02  0.00000000000E+00 0. -1.
         -2   -1    0    0    0  501 -0.00000000000E+00 -0.00000000000E+00 -0.18672725708E+03  0.18672725708E+03  0.00000000000E+00 0.  1.
          5    1    1    2  502    0 -0.50935475016E+02 -0.13872964938E+01 -0.63370514422E+01  0.51561569290E+02  0.47000000000E+01 0.  1.
         -5    1    1    2    0  502  0.55324986857E+02  0.77567512156E+01 -0.91683604002E+02  0.10746624867E+03  0.47000000000E+01 0.  1.
        -11    1    1    2    0    0  0.29809125150E+02 -0.24408788360E+01 -0.44063226939E+02  0.53255138719E+02  0.00000000000E+00 0.  1.
         11    1    1    2    0    0 -0.34198636991E+02 -0.39285758858E+01  0.21496623750E+02  0.40584298850E+02  0.00000000000E+00 0. -1.
<mgrwt>
<rscale>  0 0.11564740E+03</rscale>
<asrwt>0</asrwt>
<pdfrwt beam="1">  1        2 0.10175384E-01 0.12522699E+03</pdfrwt>
<pdfrwt beam="2">  1       -2 0.28727270E-01 0.12522699E+03</pdfrwt>
<totfact> 0.65252716E+03</totfact>
</mgrwt>
</event>
<event>
 6    1  0.5818426E-006  0.1355379E+03  0.7546771E-02  0.1231818E+00
         -2   -1    0    0    0  501 -0.00000000000E+00  0.00000000000E+00  0.44673058176E+03  0.44673058176E+03  0.00000000000E+00 0.  1.
          2   -1    0    0  501    0  0.00000000000E+00 -0.00000000000E+00 -0.36991626038E+02  0.36991626038E+02  0.00000000000E+00 0. -1.
          5    1    1    2  502    0 -0.40721872360E+02  0.79602602703E+02  0.26760877860E+03  0.28219034999E+03  0.47000000000E+01 0. -1.
         -5    1    1    2    0  502  0.19779888254E+02 -0.31540890687E+02  0.45382549617E+02  0.58887499305E+02  0.47000000000E+01 0. -1.
        -11    1    1    2    0    0  0.34765670750E+02 -0.30878071941E+02  0.10821887240E+03  0.11778553193E+03  0.00000000000E+00 0.  1.
         11    1    1    2    0    0 -0.13823686644E+02 -0.17183640075E+02 -0.11471244896E+02  0.24858826564E+02  0.00000000000E+00 0. -1.
<mgrwt>
<rscale>  0 0.12710336E+03</rscale>
<asrwt>0</asrwt>
<pdfrwt beam="2">  1        2 0.56910197E-02 0.13553792E+03</pdfrwt>
<pdfrwt beam="1">  1       -2 0.68727778E-01 0.13553792E+03</pdfrwt>
<totfact> 0.25195024E+03</totfact>
</mgrwt>
</event>
<event>
 6    1  0.5818426E-006  0.6464546E+03  0.7546771E-02  0.1039506E+00
         -1   -1    0    0    0  501 -0.00000000000E+00  0.00000000000E+00  0.26198128704E+03  0.26198128704E+03  0.00000000000E+00 0.  1.
          1   -1    0    0  501    0  0.00000000000E+00 -0.00000000000E+00 -0.55145657273E+03  0.55145657273E+03  0.00000000000E+00 0. -1.
          5    1    1    2  502    0  0.19486951336E+03  0.19415021597E+03 -0.24325918899E+03  0.36724046159E+03  0.47000000000E+01 0. -1.
         -5    1    1    2    0  502 -0.18496912128E+03 -0.24917008634E+03  0.34061751753E+02  0.31222043605E+03  0.47000000000E+01 0.  1.
        -11    1    1    2    0    0  0.12087250892E+01  0.67085383112E+02 -0.91963781419E+02  0.11383868735E+03  0.00000000000E+00 0. -1.
         11    1    1    2    0    0 -0.11109117170E+02 -0.12065512746E+02  0.11685932969E+02  0.20138274789E+02  0.00000000000E+00 0.  1.
<mgrwt>
<rscale>  0 0.41258718E+03</rscale>
<asrwt>0</asrwt>
<pdfrwt beam="2">  1        1 0.84839472E-01 0.64645460E+03</pdfrwt>
<pdfrwt beam="1">  1       -1 0.40304814E-01 0.64645460E+03</pdfrwt>
<totfact> 0.23618211E+02</totfact>
</mgrwt>
</event>
<event>
 6    1  0.5818426E-006  0.1256059E+03  0.7546771E-02  0.1249235E+00
          2   -1    0    0  501    0  0.00000000000E+00  0.00000000000E+00  0.28905603974E+02  0.28905603974E+02  0.00000000000E+00 0. -1.
         -2   -1    0    0    0  501 -0.00000000000E+00 -0.00000000000E+00 -0.41143662147E+03  0.41143662147E+03  0.00000000000E+00 0.  1.
          5    1    1    2  502    0  0.20733605324E+02  0.44722186633E+02 -0.16800415154E+03  0.17514976821E+03  0.47000000000E+01 0. -1.
         -5    1    1    2    0  502 -0.16881492678E+02 -0.56402434104E+02 -0.54529787234E+02  0.80385365979E+02  0.47000000000E+01 0. -1.
        -11    1    1    2    0    0  0.31032797729E+02 -0.19348389019E+02 -0.32118271468E+02  0.48672148654E+02  0.00000000000E+00 0. -1.
         11    1    1    2    0    0 -0.34884910374E+02  0.31028636490E+02 -0.12787880725E+03  0.13613494261E+03  0.00000000000E+00 0.  1.
<mgrwt>
<rscale>  0 0.11635433E+03</rscale>
<asrwt>0</asrwt>
<pdfrwt beam="1">  1        2 0.44470161E-02 0.12560593E+03</pdfrwt>
<pdfrwt beam="2">  1       -2 0.63297940E-01 0.12560593E+03</pdfrwt>
<totfact> 0.41060163E+03</totfact>
</mgrwt>
</event>
<event>
 6    1  0.5818426E-006  0.3954324E+03  0.7546771E-02  0.1045373E+00
         -1   -1    0    0    0  501 -0.00000000000E+00  0.00000000000E+00  0.81001796721E+02  0.81001796721E+02  0.00000000000E+00 0.  1.
          1   -1    0    0  501    0  0.00000000000E+00 -0.00000000000E+00 -0.48260284112E+03  0.48260284112E+03  0.00000000000E+00 0. -1.
          5    1    1    2  502    0 -0.25636784972E+02  0.28538909100E+01 -0.66951477964E+02  0.71902571849E+02  0.47000000000E+01 0. -1.
         -5    1    1    2    0  502 -0.34601693052E+01 -0.15341791594E+03 -0.60976376166E+02  0.16519454638E+03  0.47000000000E+01 0. -1.
        -11    1    1    2    0    0  0.56761401326E+02  0.75514254806E+02 -0.18037593771E+03  0.20361664535E+03  0.00000000000E+00 0. -1.
         11    1    1    2    0    0 -0.27664447048E+02  0.75049770225E+02 -0.93297252562E+02  0.12289087426E+03  0.00000000000E+00 0.  1.
<mgrwt>
<rscale>  0 0.39543241E+03</rscale>
<asrwt>0</asrwt>
<pdfrwt beam="2">  1        1 0.74246590E-01 0.39543241E+03</pdfrwt>
<pdfrwt beam="1">  1       -1 0.12461815E-01 0.39543241E+03</pdfrwt>
<totfact> 0.20520422E+03</totfact>
</mgrwt>
</event>
<event>
 6    1  0.5818426E-006  0.1922425E+03  0.7546771E-02  0.1160717E+00
          2   -1    0    0  501    0  0.00000000000E+00  0.00000000000E+00  0.41021462055E+03  0.41021462055E+03  0.00000000000E+00 0. -1.
         -2   -1    0    0    0  501 -0.00000000000E+00 -0.00000000000E+00 -0.82065835494E+02  0.82065835494E+02  0.00000000000E+00 0.  1.
          5    1    1    2  502    0  0.21015624854E+02  0.49367846456E+01  0.71089764920E+01  0.23208961144E+02  0.47000000000E+01 0. -1.
         -5    1    1    2    0  502 -0.16522336020E+03  0.18222471723E+02  0.18001732389E+03  0.24506967200E+03  0.47000000000E+01 0. -1.
        -11    1    1    2    0    0  0.14426936244E+03  0.45143480132E+01  0.12986974391E+03  0.19416533846E+03  0.00000000000E+00 0. -1.
         11    1    1    2    0    0 -0.61627094688E-01 -0.27673604382E+02  0.11152740754E+02  0.29836484440E+02  0.00000000000E+00 0.  1.
<mgrwt>
<rscale>  0 0.18752039E+03</rscale>
<asrwt>0</asrwt>
<pdfrwt beam="1">  1        2 0.63109940E-01 0.19224248E+03</pdfrwt>
<pdfrwt beam="2">  1       -2 0.12625513E-01 0.19224248E+03</pdfrwt>
<totfact> 0.34738711E+03</totfact>
</mgrwt>
</event>
<event>
 6    1  0.5818426E-006  0.1521408E+03  0.7546771E-02  0.1206128E+00
         -1   -1    0    0    0  501 -0.00000000000E+00  0.00000000000E+00  0.94409771193E+02  0.94409771193E+02  0.00000000000E+00 0.  1.
          1   -1    0    0  501    0  0.00000000000E+00 -0.00000000000E+00 -0.24119818506E+03  0.24119818506E+03  0.00000000000E+00 0. -1.
          5    1    1    2  502    0 -0.72761144506E+02  0.56836249672E+01 -0.12801966871E+02  0.74245997188E+02  0.47000000000E+01 0.  1.
         -5    1    1    2    0  502  0.32817825026E+02  0.71322744999E+02 -0.29283015467E+01  0.78705835511E+02  0.47000000000E+01 0.  1.
        -11    1    1    2    0    0  0.19011486583E+02 -0.48117900825E+02 -0.53842933333E+01  0.52016916639E+02  0.00000000000E+00 0.  1.
         11    1    1    2    0    0  0.20931832897E+02 -0.28888469141E+02 -0.12567385212E+03  0.13063920692E+03  0.00000000000E+00 0. -1.
<mgrwt>
<rscale>  0 0.14548899E+03</rscale>
<asrwt>0</asrwt>
<pdfrwt beam="2">  1        1 0.37107413E-01 0.15214080E+03</pdfrwt>
<pdfrwt beam="1">  1       -1 0.14524580E-01 0.15214080E+03</pdfrwt>
<totfact> 0.37892559E+03</totfact>
</mgrwt>
</event>
<event>
 6    1  0.5818426E-006  0.3892857E+03  0.7546771E-02  0.1047554E+00
          1   -1    0    0  501    0  0.00000000000E+00  0.00000000000E+00  0.46932143206E+03  0.46932143206E+03  0.00000000000E+00 0. -1.
         -1   -1    0    0    0  501 -0.00000000000E+00 -0.00000000000E+00 -0.80724707184E+02  0.80724707184E+02  0.00000000000E+00 0.  1.
          5    1    1    2  502    0  0.23598449581E+02  0.22141766468E+02  0.11667811236E+02  0.34718474391E+02  0.47000000000E+01 0. -1.
         -5    1    1    2    0  502 -0.10035726517E+03 -0.88628854942E+02  0.23114818603E+02  0.13595234253E+03  0.47000000000E+01 0.  1.
        -11    1    1    2    0    0  0.47965762075E+02 -0.35488467492E+01  0.65372276796E+02  0.81159369257E+02  0.00000000000E+00 0.  1.
         11    1    1    2    0    0  0.28793053514E+02  0.70035935223E+02  0.28844181824E+03  0.29821595307E+03  0.00000000000E+00 0. -1.
<mgrwt>
<rscale>  0 0.38928568E+03</rscale>
<asrwt>0</asrwt>
<pdfrwt beam="1">  1        1 0.72203295E-01 0.38928568E+03</pdfrwt>
<pdfrwt beam="2">  1       -1 0.12419186E-01 0.38928568E+03</pdfrwt>
<totfact> 0.21411578E+03</totfact>
</mgrwt>
</event>
<event>
 6    1  0.5818426E-006  0.1368816E+03  0.7546771E-02  0.1228719E+00
         -1   -1    0    0    0  501 -0.00000000000E+00  0.00000000000E+00  0.31259172999E+02  0.31259172999E+02  0.00000000000E+00 0.  1.
          1   -1    0    0  501    0  0.00000000000E+00 -0.00000000000E+00 -0.48562366364E+03  0.48562366364E+03  0.00000000000E+00 0. -1.
          5    1    1    2  502    0 -0.43142870167E+02 -0.11108375160E+02 -0.22632310357E+02  0.50189786980E+02  0.47000000000E+01 0. -1.
         -5    1    1    2    0  502  0.23582633844E+02 -0.41143627967E+02 -0.25427512575E+03  0.25870227737E+03  0.47000000000E+01 0. -1.
        -11    1    1    2    0    0  0.37229291402E+02  0.49443418658E+01 -0.19825966096E+02  0.42468053716E+02  0.00000000000E+00 0.  1.
         11    1    1    2    0    0 -0.17669055079E+02  0.47307661262E+02 -0.15763108844E+03  0.16552271857E+03  0.00000000000E+00 0. -1.
<mgrwt>
<rscale>  0 0.12915226E+03</rscale>
<asrwt>0</asrwt>
<pdfrwt beam="2">  1        1 0.74711334E-01 0.13688162E+03</pdfrwt>
<pdfrwt beam="1">  1       -1 0.48091035E-02 0.13688162E+03</pdfrwt>
<totfact> 0.83712670E+03</totfact>
</mgrwt>
</event>
<event>
 6    1  0.5818426E-006  0.1467937E+03  0.7546771E-02  0.1214080E+00
         -2   -1    0    0    0  501 -0.00000000000E+00  0.00000000000E+00  0.47593108599E+02  0.47593108599E+02  0.00000000000E+00 0.  1.
          2   -1    0    0  501    0  0.00000000000E+00 -0.00000000000E+00 -0.37793088769E+03  0.37793088769E+03  0.00000000000E+00 0. -1.
          5    1    1    2  502    0  0.17527102918E+02 -0.10023643121E+01 -0.14219004289E+03  0.14334679057E+03  0.47000000000E+01 0. -1.
         -5    1    1    2    0  502  0.25378014639E+02  0.64895988220E+02 -0.14436721857E+02  0.71316490744E+02  0.47000000000E+01 0. -1.
        -11    1    1    2    0    0 -0.20140258026E+02 -0.69852731662E+02 -0.58618521731E+02  0.93387179013E+02  0.00000000000E+00 0.  1.
         11    1    1    2    0    0 -0.22764859531E+02  0.59591077535E+01 -0.11509249262E+03  0.11747353596E+03  0.00000000000E+00 0. -1.
<mgrwt>
<rscale>  0 0.13944311E+03</rscale>
<asrwt>0</asrwt>
<pdfrwt beam="2">  1        2 0.58143217E-01 0.14679367E+03</pdfrwt>
<pdfrwt beam="1">  1       -2 0.73220162E-02 0.14679367E+03</pdfrwt>
<totfact> 0.88236344E+03</totfact>
</mgrwt>
</event>
<event>
 6    1  0.5818426E-006  0.1294720E+03  0.7546771E-02  0.1241934E+00
          2   -1    0    0  501    0  0.00000000000E+00  0.00000000000E+00  0.11444386658E+03  0.11444386658E+03  0.00000000000E+00 0. -1.
         -2   -1    0    0    0  501 -0.00000000000E+00 -0.00000000000E+00 -0.12349087402E+03  0.12349087402E+03  0.00000000000E+00 0.  1.
          5    1    1    2  502    0  0.27430638961E+02 -0.14821928007E+02  0.30789764282E+02  0.44070728247E+02  0.47000000000E+01 0. -1.
         -5    1    1    2    0  502 -0.57906689673E+02  0.37697034851E+00 -0.70499132515E+02  0.91353951754E+02  0.47000000000E+01 0. -1.
        -11    1    1    2    0    0  0.19263414854E+02  0.33271776055E+02 -0.22822980472E+02  0.44709939290E+02  0.00000000000E+00 0.  1.
         11    1    1    2    0    0  0.11212635858E+02 -0.18826818397E+02  0.53485341263E+02  0.57800121313E+02  0.00000000000E+00 0. -1.
<mgrwt>
<rscale>  0 0.12070782E+03</rscale>
<asrwt>0</asrwt>
<pdfrwt beam="1">  1        2 0.17606749E-01 0.12947204E+03</pdfrwt>
<pdfrwt beam="2">  1       -2 0.18998596E-01 0.12947204E+03</pdfrwt>
<totfact> 0.69814575E+03</totfact>
</mgrwt>
</event>
<event>
 6    1  0.5818426E-006  0.2108221E+03  0.7546771E-02  0.1144611E+00
         -2   -1    0    0    0  501 -0.00000000000E+00  0.00000000000E+00  0.32369751205E+03  0.32369751205E+03  0.00000000000E+00 0.  1.
          2   -1    0    0  501    0  0.00000000000E+00 -0.00000000000E+00 -0.14784086565E+03  0.14784086565E+03  0.00000000000E+00 0. -1.
          5    1    1    2  502    0 -0.38665252246E+02  0.27586013482E+02  0.21292109218E+02  0.52263120706E+02  0.47000000000E+01 0.  1.
         -5    1    1    2    0  502 -0.10263811611E+03 -0.12167965780E+03  0.16069764612E+03  0.22624399543E+03  0.47000000000E+01 0.  1.
        -11    1    1    2    0    0  0.18430318293E+02 -0.15742885044E+02 -0.14079666428E+02  0.28031269479E+02  0.00000000000E+00 0. -1.
         11    1    1    2    0    0  0.12287305006E+03  0.10983652936E+03  0.79465574957E+01  0.16499999209E+03  0.00000000000E+00 0.  1.
<mgrwt>
<rscale>  0 0.20620022E+03</rscale>
<asrwt>0</asrwt>
<pdfrwt beam="2">  1        2 0.22744749E-01 0.21082206E+03</pdfrwt>
<pdfrwt beam="1">  1       -2 0.49799617E-01 0.21082206E+03</pdfrwt>
<totfact> 0.92355337E+02</totfact>
</mgrwt>
</event>
<event>
 6    1  0.5818426E-006  0.2124103E+03  0.7546771E-02  0.1143936E+00
         -1   -1    0    0    0  501 -0.00000000000E+00  0.00000000000E+00  0.47624770104E+02  0.47624770104E+02  0.00000000000E+00 0.  1.
          1   -1    0    0  501    0  0.00000000000E+00 -0.00000000000E+00 -0.89070843213E+03  0.89070843213E+03  0.00000000000E+00 0. -1.
          5    1    1    2  502    0  0.45617300578E+02 -0.98066011990E+02 -0.91970123775E+02  0.14205095736E+03  0.47000000000E+01 0.  1.
         -5    1    1    2    0  502 -0.56825114986E+01 -0.68962531429E+02 -0.25959166283E+03  0.26869693539E+03  0.47000000000E+01 0.  1.
        -11    1    1    2    0    0 -0.35279672526E+02  0.35078801742E+02 -0.22141718691E+03  0.22693776302E+03  0.00000000000E+00 0.  1.
         11    1    1    2    0    0 -0.46551165532E+01  0.13194974168E+03 -0.27010468851E+03  0.30064754647E+03  0.00000000000E+00 0. -1.
<mgrwt>
<rscale>  0 0.20703443E+03</rscale>
<asrwt>0</asrwt>
<pdfrwt beam="2">  1        1 0.13703206E+00 0.21241031E+03</pdfrwt>
<pdfrwt beam="1">  1       -1 0.73268882E-02 0.21241031E+03</pdfrwt>
<totfact> 0.19086228E+03</totfact>
</mgrwt>
</event>
<event>
 6    1  0.5818426E-006  0.1340618E+03  0.7546771E-02  0.1234706E+00
         -2   -1    0    0    0  501 -0.00000000000E+00  0.00000000000E+00  0.45020059660E+02  0.45020059660E+02  0.00000000000E+00 0.  1.
          2   -1    0    0  501    0  0.00000000000E+00 -0.00000000000E+00 -0.35467502388E+03  0.35467502388E+03  0.00000000000E+00 0. -1.
          5    1    1    2  502    0  0.62647239601E+02  0.59300674913E+02 -0.57081573177E+02  0.10354536528E+03  0.47000000000E+01 0.  1.
         -5    1    1    2    0  502 -0.44246486978E+02 -0.14480314541E+02 -0.45432375554E+02  0.65219796593E+02  0.47000000000E+01 0.  1.
        -11    1    1    2    0    0 -0.41704603872E+02 -0.97487032060E+01 -0.40127984085E+02  0.58690427712E+02  0.00000000000E+00 0.  1.
         11    1    1    2    0    0  0.23303851249E+02 -0.35071657166E+02 -0.16701303140E+03  0.17223949396E+03  0.00000000000E+00 0. -1.
<mgrwt>
<rscale>  0 0.12523297E+03</rscale>
<asrwt>0</asrwt>
<pdfrwt beam="2">  1        2 0.54565391E-01 0.13406181E+03</pdfrwt>
<pdfrwt beam="1">  1       -2 0.69261627E-02 0.13406181E+03</pdfrwt>
<totfact> 0.10216405E+04</totfact>
</mgrwt>
</event>
<event>
 6    1  0.9017497E-006  0.4216989E+03  0.7546771E-02  0.1037211E+00
          2   -1    0    0  501    0  0.00000000000E+00  0.00000000000E+00  0.19146496403E+04  0.19146496403E+04  0.00000000000E+00 0.  1.
         -2   -1    0    0    0  501 -0.00000000000E+00 -0.00000000000E+00 -0.91740476304E+02  0.91740476304E+02  0.00000000000E+00 0. -1.
          5    1    1    2  502    0  0.19225547419E+03 -0.64713947596E+02  0.35152445196E+03  0.40588371819E+03  0.47000000000E+01 0.  1.
         -5    1    1    2    0  502  0.17676584138E+03 -0.96619719346E+02  0.65844349117E+03  0.68858656239E+03  0.47000000000E+01 0.  1.
        -11    1    1    2    0    0 -0.21972517020E+03  0.13362459847E+03  0.44650890292E+03  0.51527166051E+03  0.00000000000E+00 0.  1.
         11    1    1    2    0    0 -0.14929614537E+03  0.27709068467E+02  0.36643231792E+03  0.39664817548E+03  0.00000000000E+00 0. -1.
<mgrwt>
<rscale>  0 0.41955488E+03</rscale>
<asrwt>0</asrwt>
<pdfrwt beam="1">  1        2 0.29456145E+00 0.42169888E+03</pdfrwt>
<pdfrwt beam="2">  1       -2 0.14113921E-01 0.42169888E+03</pdfrwt>
<totfact> 0.30558480E+02</totfact>
</mgrwt>
</event>
<event>
 6    1  0.5818426E-006  0.2038205E+03  0.7546771E-02  0.1231812E+00
          4   -1    0    0  501    0  0.00000000000E+00  0.00000000000E+00  0.57553892036E+03  0.57553892036E+03  0.00000000000E+00 0. -1.
         -4   -1    0    0    0  501 -0.00000000000E+00 -0.00000000000E+00 -0.23918965685E+02  0.23918965685E+02  0.00000000000E+00 0.  1.
          5    1    1    2  502    0  0.25371465245E+02  0.71337881211E+02  0.42790749412E+03  0.43457993289E+03  0.47000000000E+01 0. -1.
         -5    1    1    2    0  502 -0.46133601795E+02 -0.50246812485E+02  0.49188752418E+02  0.84229892223E+02  0.47000000000E+01 0.  1.
        -11    1    1    2    0    0  0.88237918878E+01 -0.55457690073E+01  0.17717337268E+02  0.20555264461E+02  0.00000000000E+00 0.  1.
         11    1    1    2    0    0  0.11938344662E+02 -0.15545299719E+02  0.56806370860E+02  0.60092796464E+02  0.00000000000E+00 0. -1.
<mgrwt>
<rscale>  0 0.12710717E+03</rscale>
<asrwt>0</asrwt>
<pdfrwt beam="1">  1        4 0.88544439E-01 0.20382052E+03</pdfrwt>
<pdfrwt beam="2">  1       -4 0.36798413E-02 0.20382052E+03</pdfrwt>
<totfact> 0.79016163E+02</totfact>
</mgrwt>
</event>
<event>
 6    1  0.5818426E-006  0.2182449E+03  0.7546771E-02  0.1135198E+00
          2   -1    0    0  501    0  0.00000000000E+00  0.00000000000E+00  0.35131654902E+02  0.35131654902E+02  0.00000000000E+00 0. -1.
         -2   -1    0    0    0  501 -0.00000000000E+00 -0.00000000000E+00 -0.33894532035E+03  0.33894532035E+03  0.00000000000E+00 0.  1.
          5    1    1    2  502    0  0.35463032323E+01 -0.83834939166E+01  0.17481202196E+02  0.20261827831E+02  0.47000000000E+01 0.  1.
         -5    1    1    2    0  502  0.99677013833E+01  0.16387594439E+02 -0.20318689664E+03  0.20414434425E+03  0.47000000000E+01 0.  1.
        -11    1    1    2    0    0  0.86883107922E+01 -0.26115605780E+02 -0.11784571301E+03  0.12101703882E+03  0.00000000000E+00 0.  1.
         11    1    1    2    0    0 -0.22202315408E+02  0.18111505258E+02 -0.26225799027E+00  0.28653764350E+02  0.00000000000E+00 0. -1.
<mgrwt>
<rscale>  0 0.21824491E+03</rscale>
<asrwt>0</asrwt>
<pdfrwt beam="1">  1        2 0.54048700E-02 0.21824491E+03</pdfrwt>
<pdfrwt beam="2">  1       -2 0.52145434E-01 0.21824491E+03</pdfrwt>
<totfact> 0.49107811E+03</totfact>
</mgrwt>
</event>
<event>
 6    1  0.5818426E-006  0.1416531E+03  0.7546771E-02  0.1221961E+00
         -4   -1    0    0    0  501 -0.00000000000E+00  0.00000000000E+00  0.42074357256E+02  0.42074357256E+02  0.00000000000E+00 0.  1.
          4   -1    0    0  501    0  0.00000000000E+00 -0.00000000000E+00 -0.44223324009E+03  0.44223324009E+03  0.00000000000E+00 0. -1.
          5    1    1    2  502    0 -0.65980462521E+02  0.28859214420E+02 -0.14282799031E+02  0.73568770818E+02  0.47000000000E+01 0.  1.
         -5    1    1    2    0  502 -0.28278433351E+00 -0.21880881577E+02 -0.11847623742E+03  0.12057181171E+03  0.47000000000E+01 0.  1.
        -11    1    1    2    0    0 -0.34240845463E+01 -0.17691880925E+02 -0.53496299187E+01  0.18797487756E+02  0.00000000000E+00 0.  1.
         11    1    1    2    0    0  0.69687331401E+02  0.10713548082E+02 -0.26205021647E+03  0.27136952707E+03  0.00000000000E+00 0. -1.
<mgrwt>
<rscale>  0 0.13377358E+03</rscale>
<asrwt>0</asrwt>
<pdfrwt beam="2">  1        4 0.68035882E-01 0.14165311E+03</pdfrwt>
<pdfrwt beam="1">  1       -4 0.64729782E-02 0.14165311E+03</pdfrwt>
<totfact> 0.53207142E+02</totfact>
</mgrwt>
</event>
<event>
 6    1  0.5818426E-006  0.1715128E+03  0.7546771E-02  0.1183649E+00
         -2   -1    0    0    0  501 -0.00000000000E+00  0.00000000000E+00  0.93707055400E+02  0.93707055400E+02  0.00000000000E+00 0.  1.
          2   -1    0    0  501    0  0.00000000000E+00 -0.00000000000E+00 -0.28598772155E+03  0.28598772155E+03  0.00000000000E+00 0. -1.
          5    1    1    2  502    0 -0.26295318009E+02  0.55263575432E+02 -0.38756804676E+01  0.61502987064E+02  0.47000000000E+01 0. -1.
         -5    1    1    2    0  502  0.10070876054E+03  0.35554669573E+02 -0.52014721758E+02  0.11888654364E+03  0.47000000000E+01 0. -1.
        -11    1    1    2    0    0  0.99631929910E+01 -0.48502536443E+02 -0.60559134425E+02  0.78225123958E+02  0.00000000000E+00 0. -1.
         11    1    1    2    0    0 -0.84376635522E+02 -0.42315708563E+02 -0.75831129503E+02  0.12108012229E+03  0.00000000000E+00 0.  1.
<mgrwt>
<rscale>  0 0.16455455E+03</rscale>
<asrwt>0</asrwt>
<pdfrwt beam="2">  1        2 0.43998111E-01 0.17151282E+03</pdfrwt>
<pdfrwt beam="1">  1       -2 0.14416470E-01 0.17151282E+03</pdfrwt>
<totfact> 0.41022561E+03</totfact>
</mgrwt>
</event>
<event>
 6    1  0.5818426E-006  0.2371631E+03  0.7546771E-02  0.1121697E+00
          1   -1    0    0  501    0  0.00000000000E+00  0.00000000000E+00  0.32623943758E+02  0.32623943758E+02  0.00000000000E+00 0. -1.
         -1   -1    0    0    0  501 -0.00000000000E+00 -0.00000000000E+00 -0.43102039106E+03  0.43102039106E+03  0.00000000000E+00 0.  1.
          5    1    1    2  502    0 -0.84929870427E+01 -0.12987962699E+02 -0.23439888336E+03  0.23495902733E+03  0.47000000000E+01 0.  1.
         -5    1    1    2    0  502 -0.20349005258E+00  0.43479222560E+02 -0.15773210203E+02  0.46490519063E+02  0.47000000000E+01 0.  1.
        -11    1    1    2    0    0  0.34989813359E+02  0.25699206619E+02 -0.69795986243E+02  0.82196204021E+02  0.00000000000E+00 0. -1.
         11    1    1    2    0    0 -0.26293336263E+02 -0.56190466479E+02 -0.78428367501E+02  0.99998584409E+02  0.00000000000E+00 0.  1.
<mgrwt>
<rscale>  0 0.23716311E+03</rscale>
<asrwt>0</asrwt>
<pdfrwt beam="1">  1        1 0.50190687E-02 0.23716311E+03</pdfrwt>
<pdfrwt beam="2">  1       -1 0.66310824E-01 0.23716311E+03</pdfrwt>
<totfact> 0.39156203E+03</totfact>
</mgrwt>
</event>
<event>
 6    1  0.5818426E-006  0.3412742E+03  0.7546771E-02  0.1066255E+00
          1   -1    0    0  501    0  0.00000000000E+00  0.00000000000E+00  0.11635336099E+03  0.11635336099E+03  0.00000000000E+00 0. -1.
         -1   -1    0    0    0  501 -0.00000000000E+00 -0.00000000000E+00 -0.25024646041E+03  0.25024646041E+03  0.00000000000E+00 0.  1.
          5    1    1    2  502    0  0.53094413533E+02  0.24104888575E+02 -0.18436384956E+02  0.61335574440E+02  0.47000000000E+01 0. -1.
         -5    1    1    2    0  502 -0.67901833166E+02  0.55680376637E+02 -0.66047178357E+02  0.10997855727E+03  0.47000000000E+01 0. -1.
        -11    1    1    2    0    0  0.64251258120E+02 -0.99207364298E+02  0.62288362093E+01  0.11836014406E+03  0.00000000000E+00 0.  1.
         11    1    1    2    0    0 -0.49443838487E+02  0.19422099086E+02 -0.55638372314E+02  0.76925545633E+02  0.00000000000E+00 0. -1.
<mgrwt>
<rscale>  0 0.34127418E+03</rscale>
<asrwt>0</asrwt>
<pdfrwt beam="1">  1        1 0.17900517E-01 0.34127418E+03</pdfrwt>
<pdfrwt beam="2">  1       -1 0.38499456E-01 0.34127418E+03</pdfrwt>
<totfact> 0.19570642E+03</totfact>
</mgrwt>
</event>
<event>
 6    1  0.5818426E-006  0.1270069E+03  0.7546771E-02  0.1249444E+00
         -1   -1    0    0    0  501 -0.00000000000E+00  0.00000000000E+00  0.39187715340E+02  0.39187715340E+02  0.00000000000E+00 0.  1.
          1   -1    0    0  501    0  0.00000000000E+00 -0.00000000000E+00 -0.29883884601E+03  0.29883884601E+03  0.00000000000E+00 0. -1.
          5    1    1    2  502    0  0.26813832235E+02 -0.61851052776E+02 -0.43708952314E+02  0.80480412779E+02  0.47000000000E+01 0. -1.
         -5    1    1    2    0  502 -0.28720274731E+02  0.39454195002E+02 -0.99577827781E+02  0.11099243879E+03  0.47000000000E+01 0. -1.
        -11    1    1    2    0    0  0.26639768574E+02  0.43560770814E+02 -0.44778566887E+02  0.67914196425E+02  0.00000000000E+00 0. -1.
         11    1    1    2    0    0 -0.24733326078E+02 -0.21163913041E+02 -0.71585783689E+02  0.78639513353E+02  0.00000000000E+00 0.  1.
<mgrwt>
<rscale>  0 0.11623309E+03</rscale>
<asrwt>0</asrwt>
<pdfrwt beam="2">  1        1 0.45975208E-01 0.12700690E+03</pdfrwt>
<pdfrwt beam="1">  1       -1 0.60288791E-02 0.12700690E+03</pdfrwt>
<totfact> 0.10968772E+04</totfact>
</mgrwt>
</event>
<event>
 6    1  0.5818426E-006  0.1256756E+03  0.7546771E-02  0.1249191E+00
          2   -1    0    0  501    0  0.00000000000E+00  0.00000000000E+00  0.28646921142E+02  0.28646921142E+02  0.00000000000E+00 0. -1.
         -2   -1    0    0    0  501 -0.00000000000E+00 -0.00000000000E+00 -0.45546089088E+03  0.45546089088E+03  0.00000000000E+00 0.  1.
          5    1    1    2  502    0  0.44313575917E+02  0.18325645497E+02 -0.23966355884E+03  0.24445906351E+03  0.47000000000E+01 0.  1.
         -5    1    1    2    0  502 -0.48062198806E+02 -0.30682089063E+02 -0.74687857559E+02  0.94083641564E+02  0.47000000000E+01 0.  1.
        -11    1    1    2    0    0  0.31089502112E+02  0.12697000230E+02 -0.11333749068E+03  0.11820811204E+03  0.00000000000E+00 0.  1.
         11    1    1    2    0    0 -0.27340879224E+02 -0.34055666424E+00  0.87493734602E+00  0.27356994918E+02  0.00000000000E+00 0. -1.
<mgrwt>
<rscale>  0 0.11638021E+03</rscale>
<asrwt>0</asrwt>
<pdfrwt beam="1">  1        2 0.44072187E-02 0.12567558E+03</pdfrwt>
<pdfrwt beam="2">  1       -2 0.70070905E-01 0.12567558E+03</pdfrwt>
<totfact> 0.33569963E+03</totfact>
</mgrwt>
</event>
<event>
 6    1  0.5818426E-006  0.1252565E+03  0.7546771E-02  0.1251589E+00
          2   -1    0    0  501    0  0.00000000000E+00  0.00000000000E+00  0.53762908395E+03  0.53762908395E+03  0.00000000000E+00 0. -1.
         -2   -1    0    0    0  501 -0.00000000000E+00 -0.00000000000E+00 -0.23013215818E+02  0.23013215818E+02  0.00000000000E+00 0.  1.
          5    1    1    2  502    0 -0.30553116799E+02 -0.42348955547E+01  0.22241970131E+03  0.22459750849E+03  0.47000000000E+01 0.  1.
         -5    1    1    2    0  502  0.28594923049E+02  0.11954956518E+02  0.79299871697E+00  0.31357765489E+02  0.47000000000E+01 0.  1.
        -11    1    1    2    0    0  0.77965770851E+01  0.40068630302E+02  0.13702175670E+03  0.14297287700E+03  0.00000000000E+00 0. -1.
         11    1    1    2    0    0 -0.58383833351E+01 -0.47788691266E+02  0.15438141140E+03  0.16171414879E+03  0.00000000000E+00 0.  1.
<mgrwt>
<rscale>  0 0.11499521E+03</rscale>
<asrwt>0</asrwt>
<pdfrwt beam="1">  1        2 0.82712157E-01 0.12525651E+03</pdfrwt>
<pdfrwt beam="2">  1       -2 0.35404952E-02 0.12525651E+03</pdfrwt>
<totfact> 0.17747903E+04</totfact>
</mgrwt>
</event>
<event>
 6    1  0.5818426E-006  0.1403018E+03  0.7546771E-02  0.1223645E+00
          1   -1    0    0  501    0  0.00000000000E+00  0.00000000000E+00  0.60595321293E+02  0.60595321293E+02  0.00000000000E+00 0. -1.
         -1   -1    0    0    0  501 -0.00000000000E+00 -0.00000000000E+00 -0.32932143906E+03  0.32932143906E+03  0.00000000000E+00 0.  1.
          5    1    1    2  502    0 -0.20162302156E+01 -0.34507499193E+02 -0.16393370997E+02  0.38544328993E+02  0.47000000000E+01 0.  1.
         -5    1    1    2    0  502  0.58356795858E+02  0.64195232689E+02 -0.21737409503E+03  0.23409427740E+03  0.47000000000E+01 0.  1.
        -11    1    1    2    0    0  0.58912432453E+01  0.26815087151E+02 -0.13138515422E+02  0.30436429380E+02  0.00000000000E+00 0.  1.
         11    1    1    2    0    0 -0.62231808888E+02 -0.56502820648E+02 -0.21820136319E+02  0.86841724578E+02  0.00000000000E+00 0. -1.
<mgrwt>
<rscale>  0 0.13260201E+03</rscale>
<asrwt>0</asrwt>
<pdfrwt beam="1">  1        1 0.93223574E-02 0.14030175E+03</pdfrwt>
<pdfrwt beam="2">  1       -1 0.50664835E-01 0.14030175E+03</pdfrwt>
<totfact> 0.27371577E+03</totfact>
</mgrwt>
</event>
<event>
 6    1  0.5818426E-006  0.2498567E+03  0.7546771E-02  0.1113395E+00
          3   -1    0    0  501    0  0.00000000000E+00  0.00000000000E+00  0.15462691614E+03  0.15462691614E+03  0.00000000000E+00 0. -1.
         -3   -1    0    0    0  501 -0.00000000000E+00 -0.00000000000E+00 -0.10093384752E+03  0.10093384752E+03  0.00000000000E+00 0.  1.
          5    1    1    2  502    0  0.12071086691E+02 -0.59919596564E+02 -0.52821881952E+02  0.80921631220E+02  0.47000000000E+01 0. -1.
         -5    1    1    2    0  502  0.97384383502E+01  0.31633421077E+02  0.37200555950E+02  0.50014816540E+02  0.47000000000E+01 0. -1.
        -11    1    1    2    0    0  0.25477293345E+02  0.45559166618E+02  0.26515123549E+02  0.58547262241E+02  0.00000000000E+00 0.  1.
         11    1    1    2    0    0 -0.47286818387E+02 -0.17272991131E+02  0.42799271073E+02  0.66077053658E+02  0.00000000000E+00 0. -1.
<mgrwt>
<rscale>  0 0.24985668E+03</rscale>
<asrwt>0</asrwt>
<pdfrwt beam="1">  1        3 0.23788756E-01 0.24985668E+03</pdfrwt>
<pdfrwt beam="2">  1       -3 0.15528284E-01 0.24985668E+03</pdfrwt>
<totfact> 0.14470299E+03</totfact>
</mgrwt>
</event>
<event>
 6    1  0.5818426E-006  0.2658267E+03  0.7546771E-02  0.1103692E+00
         -1   -1    0    0    0  501 -0.00000000000E+00  0.00000000000E+00  0.10385824766E+03  0.10385824766E+03  0.00000000000E+00 0.  1.
          1   -1    0    0  501    0  0.00000000000E+00 -0.00000000000E+00 -0.17009683967E+03  0.17009683967E+03  0.00000000000E+00 0. -1.
          5    1    1    2  502    0  0.27139897578E+02 -0.12617874075E+02 -0.36574460403E+02  0.47492798828E+02  0.47000000000E+01 0. -1.
         -5    1    1    2    0  502 -0.40267763364E+02  0.81956377855E+02  0.29926356799E+02  0.96208198553E+02  0.47000000000E+01 0. -1.
        -11    1    1    2    0    0  0.26095149111E+02 -0.25249965469E+02 -0.73717880625E+02  0.82175686715E+02  0.00000000000E+00 0. -1.
         11    1    1    2    0    0 -0.12967283324E+02 -0.44088538311E+02  0.14127392218E+02  0.48078403240E+02  0.00000000000E+00 0.  1.
<mgrwt>
<rscale>  0 0.26582671E+03</rscale>
<asrwt>0</asrwt>
<pdfrwt beam="2">  1        1 0.26168745E-01 0.26582671E+03</pdfrwt>
<pdfrwt beam="1">  1       -1 0.15978192E-01 0.26582671E+03</pdfrwt>
<totfact> 0.51928612E+03</totfact>
</mgrwt>
</event>
<event>
 6    1  0.5818426E-006  0.1268945E+03  0.7546771E-02  0.1246419E+00
          2   -1    0    0  501    0  0.00000000000E+00  0.00000000000E+00  0.12354685715E+03  0.12354685715E+03  0.00000000000E+00 0. -1.
         -2   -1    0    0    0  501 -0.00000000000E+00 -0.00000000000E+00 -0.10811948252E+03  0.10811948252E+03  0.00000000000E+00 0.  1.
          5    1    1    2  502    0  0.49821436692E+02 -0.38903871702E+02 -0.42266749149E+02  0.76185660534E+02  0.47000000000E+01 0. -1.
         -5    1    1    2    0  502 -0.28040900972E+02  0.40461653364E+02  0.18716617421E+02  0.52875696572E+02  0.47000000000E+01 0. -1.
        -11    1    1    2    0    0  0.17025652587E+02 -0.31693291966E+02 -0.54214648827E+01  0.36383098866E+02  0.00000000000E+00 0.  1.
         11    1    1    2    0    0 -0.38806188307E+02  0.30135510303E+02  0.44398971240E+02  0.66221883689E+02  0.00000000000E+00 0. -1.
<mgrwt>
<rscale>  0 0.11800869E+03</rscale>
<asrwt>0</asrwt>
<pdfrwt beam="1">  1        2 0.19007209E-01 0.12689454E+03</pdfrwt>
<pdfrwt beam="2">  1       -2 0.16633767E-01 0.12689454E+03</pdfrwt>
<totfact> 0.79692754E+03</totfact>
</mgrwt>
</event>
<event>
 6    1  0.5818426E-006  0.1631485E+03  0.7546771E-02  0.1193250E+00
         -1   -1    0    0    0  501 -0.00000000000E+00  0.00000000000E+00  0.98315290978E+02  0.98315290978E+02  0.00000000000E+00 0.  1.
          1   -1    0    0  501    0  0.00000000000E+00 -0.00000000000E+00 -0.23126072449E+03  0.23126072449E+03  0.00000000000E+00 0. -1.
          5    1    1    2  502    0 -0.13015334191E+02 -0.10683939986E+02 -0.46647806200E+02  0.49816195369E+02  0.47000000000E+01 0.  1.
         -5    1    1    2    0  502  0.98198142256E+02  0.71831324481E+02 -0.71231397039E+01  0.12196492708E+03  0.47000000000E+01 0.  1.
        -11    1    1    2    0    0 -0.76219809946E+02 -0.75225115822E+02 -0.88277607098E+02  0.13878477364E+03  0.00000000000E+00 0. -1.
         11    1    1    2    0    0 -0.89629981182E+01  0.14077731326E+02  0.91031194865E+01  0.19010119383E+02  0.00000000000E+00 0.  1.
<mgrwt>
<rscale>  0 0.15603276E+03</rscale>
<asrwt>0</asrwt>
<pdfrwt beam="2">  1        1 0.35578572E-01 0.16314852E+03</pdfrwt>
<pdfrwt beam="1">  1       -1 0.15125430E-01 0.16314852E+03</pdfrwt>
<totfact> 0.37592325E+03</totfact>
</mgrwt>
</event>
<event>
 6    1  0.5818426E-006  0.2422394E+03  0.7546771E-02  0.1118310E+00
          2   -1    0    0  501    0  0.00000000000E+00  0.00000000000E+00  0.10233244709E+04  0.10233244709E+04  0.00000000000E+00 0. -1.
         -2   -1    0    0    0  501 -0.00000000000E+00 -0.00000000000E+00 -0.14335608307E+02  0.14335608307E+02  0.00000000000E+00 0.  1.
          5    1    1    2  502    0  0.60978561276E+01  0.35072045897E+02  0.69201903851E+03  0.69294997793E+03  0.47000000000E+01 0. -1.
         -5    1    1    2    0  502  0.14562846276E+02  0.47052876973E+01  0.52451101769E+01  0.16846881158E+02  0.47000000000E+01 0. -1.
        -11    1    1    2    0    0  0.23730958900E+02 -0.49076844183E+02  0.13968332189E+03  0.14994374098E+03  0.00000000000E+00 0.  1.
         11    1    1    2    0    0 -0.44391661304E+02  0.92995105882E+01  0.17204139207E+03  0.17791947919E+03  0.00000000000E+00 0. -1.
<mgrwt>
<rscale>  0 0.24223938E+03</rscale>
<asrwt>0</asrwt>
<pdfrwt beam="1">  1        2 0.15743448E+00 0.24223938E+03</pdfrwt>
<pdfrwt beam="2">  1       -2 0.22054790E-02 0.24223938E+03</pdfrwt>
<totfact> 0.16850283E+04</totfact>
</mgrwt>
</event>
<event>
 6    1  0.5818426E-006  0.1625877E+03  0.7546771E-02  0.1194158E+00
         -3   -1    0    0    0  501 -0.00000000000E+00  0.00000000000E+00  0.10563345785E+04  0.10563345785E+04  0.00000000000E+00 0.  1.
          3   -1    0    0  501    0  0.00000000000E+00 -0.00000000000E+00 -0.24454561899E+02  0.24454561899E+02  0.00000000000E+00 0. -1.
          5    1    1    2  502    0 -0.62285557745E+02 -0.30797843287E+02  0.72239066169E+03  0.72573986797E+03  0.47000000000E+01 0. -1.
         -5    1    1    2    0  502 -0.29347010628E+02 -0.18340248598E+02  0.37073012598E+02  0.50932406330E+02  0.47000000000E+01 0. -1.
        -11    1    1    2    0    0 -0.24527424721E+01 -0.18388737133E+02  0.27141194324E+02  0.32875614494E+02  0.00000000000E+00 0. -1.
         11    1    1    2    0    0  0.94085310845E+02  0.67526829018E+02  0.24527514797E+03  0.27124125159E+03  0.00000000000E+00 0.  1.
<mgrwt>
<rscale>  0 0.15525730E+03</rscale>
<asrwt>0</asrwt>
<pdfrwt beam="2">  1        3 0.37622411E-02 0.16258767E+03</pdfrwt>
<pdfrwt beam="1">  1       -3 0.16251298E+00 0.16258767E+03</pdfrwt>
<totfact> 0.23869842E+02</totfact>
</mgrwt>
</event>
<event>
 6    1  0.5818426E-006  0.2829371E+03  0.7546771E-02  0.1094096E+00
          2   -1    0    0  501    0  0.00000000000E+00  0.00000000000E+00  0.36047124598E+03  0.36047124598E+03  0.00000000000E+00 0. -1.
         -2   -1    0    0    0  501 -0.00000000000E+00 -0.00000000000E+00 -0.55519953722E+02  0.55519953722E+02  0.00000000000E+00 0.  1.
          5    1    1    2  502    0 -0.31696726257E+01  0.48150904256E+01 -0.28680016496E+02  0.29628791176E+02  0.47000000000E+01 0.  1.
         -5    1    1    2    0  502 -0.79786393225E+01  0.73098585615E+02  0.13021316842E+03  0.14961490946E+03  0.47000000000E+01 0.  1.
        -11    1    1    2    0    0  0.26834472629E+02 -0.45985781398E+02  0.32964436081E+02  0.62621362634E+02  0.00000000000E+00 0.  1.
         11    1    1    2    0    0 -0.15686160681E+02 -0.31927894643E+02  0.17045370425E+03  0.17412613643E+03  0.00000000000E+00 0. -1.
<mgrwt>
<rscale>  0 0.28293707E+03</rscale>
<asrwt>0</asrwt>
<pdfrwt beam="1">  1        2 0.55457113E-01 0.28293707E+03</pdfrwt>
<pdfrwt beam="2">  1       -2 0.85415316E-02 0.28293707E+03</pdfrwt>
<totfact> 0.75896212E+03</totfact>
</mgrwt>
</event>
<event>
 6    1  0.5818426E-006  0.1289846E+03  0.7546771E-02  0.1243755E+00
         -1   -1    0    0    0  501 -0.00000000000E+00  0.00000000000E+00  0.60742604997E+02  0.60742604997E+02  0.00000000000E+00 0.  1.
          1   -1    0    0  501    0  0.00000000000E+00 -0.00000000000E+00 -0.21919195215E+03  0.21919195215E+03  0.00000000000E+00 0. -1.
          5    1    1    2  502    0 -0.43343240671E+02  0.25567713547E+02 -0.88854885760E+02  0.10222340833E+03  0.47000000000E+01 0.  1.
         -5    1    1    2    0  502  0.23661901234E+02 -0.57121692677E+00  0.30880870792E+02  0.39190943337E+02  0.47000000000E+01 0.  1.
        -11    1    1    2    0    0 -0.31031255097E+02  0.99609249509E+01 -0.45450603506E+02  0.55927776443E+02  0.00000000000E+00 0.  1.
         11    1    1    2    0    0  0.50712594534E+02 -0.34957421571E+02 -0.55024728675E+02  0.82592429030E+02  0.00000000000E+00 0. -1.
<mgrwt>
<rscale>  0 0.11960221E+03</rscale>
<asrwt>0</asrwt>
<pdfrwt beam="2">  1        1 0.33721839E-01 0.12898462E+03</pdfrwt>
<pdfrwt beam="1">  1       -1 0.93450162E-02 0.12898462E+03</pdfrwt>
<totfact> 0.83357283E+03</totfact>
</mgrwt>
</event>
<event>
 6    1  0.5818426E-006  0.4166725E+03  0.7546771E-02  0.1038155E+00
         -3   -1    0    0    0  501 -0.00000000000E+00  0.00000000000E+00  0.11497959078E+03  0.11497959078E+03  0.00000000000E+00 0.  1.
          3   -1    0    0  501    0  0.00000000000E+00 -0.00000000000E+00 -0.37749303002E+03  0.37749303002E+03  0.00000000000E+00 0. -1.
          5    1    1    2  502    0 -0.30377131591E+02 -0.66568947429E+02 -0.38768814453E+02  0.82941581005E+02  0.47000000000E+01 0.  1.
         -5    1    1    2    0  502  0.10577868902E+03 -0.92679380847E+02 -0.12387289764E+03  0.18747048689E+03  0.47000000000E+01 0.  1.
        -11    1    1    2    0    0 -0.42135319700E+02  0.76578502709E+02 -0.10017751640E+03  0.13294806142E+03  0.00000000000E+00 0. -1.
         11    1    1    2    0    0 -0.33266237726E+02  0.82669825567E+02  0.30578925804E+00  0.89112491486E+02  0.00000000000E+00 0.  1.
<mgrwt>
<rscale>  0 0.41667251E+03</rscale>
<asrwt>0</asrwt>
<pdfrwt beam="2">  1        3 0.58075850E-01 0.41667251E+03</pdfrwt>
<pdfrwt beam="1">  1       -3 0.17689168E-01 0.41667251E+03</pdfrwt>
<totfact> 0.21408174E+02</totfact>
</mgrwt>
</event>
<event>
 6    1  0.5818426E-006  0.2615873E+03  0.7546771E-02  0.1106193E+00
         -2   -1    0    0    0  501 -0.00000000000E+00  0.00000000000E+00  0.27613475909E+03  0.27613475909E+03  0.00000000000E+00 0.  1.
          2   -1    0    0  501    0  0.00000000000E+00 -0.00000000000E+00 -0.61951555315E+02  0.61951555315E+02  0.00000000000E+00 0. -1.
          5    1    1    2  502    0  0.28010100571E+02  0.17650406324E+02 -0.46446694291E+01  0.33760413675E+02  0.47000000000E+01 0. -1.
         -5    1    1    2    0  502 -0.60025317420E+02  0.40851212350E+02  0.16430676094E+03  0.17969602659E+03  0.47000000000E+01 0. -1.
        -11    1    1    2    0    0 -0.12878076217E+02 -0.50214649175E+02 -0.21183568094E+01  0.51882976730E+02  0.00000000000E+00 0. -1.
         11    1    1    2    0    0  0.44893293067E+02 -0.82869694984E+01  0.56639469077E+02  0.72746897412E+02  0.00000000000E+00 0.  1.
<mgrwt>
<rscale>  0 0.26158729E+03</rscale>
<asrwt>0</asrwt>
<pdfrwt beam="2">  1        2 0.95310086E-02 0.26158729E+03</pdfrwt>
<pdfrwt beam="1">  1       -2 0.42482270E-01 0.26158729E+03</pdfrwt>
<totfact> 0.35836311E+03</totfact>
</mgrwt>
</event>
<event>
 6    1  0.5818426E-006  0.1255944E+03  0.7546771E-02  0.1251589E+00
          1   -1    0    0  501    0  0.00000000000E+00  0.00000000000E+00  0.48554090300E+02  0.48554090300E+02  0.00000000000E+00 0. -1.
         -1   -1    0    0    0  501 -0.00000000000E+00 -0.00000000000E+00 -0.24609634695E+03  0.24609634695E+03  0.00000000000E+00 0.  1.
          5    1    1    2  502    0 -0.63893762236E+02  0.73178323407E+00 -0.80291578012E+02  0.10272183730E+03  0.47000000000E+01 0. -1.
         -5    1    1    2    0  502  0.60111582621E+02  0.10941860417E+02 -0.65099384729E+02  0.89404399035E+02  0.47000000000E+01 0. -1.
        -11    1    1    2    0    0  0.76947042188E+01  0.18866897599E+02 -0.65772038957E+02  0.68855859638E+02  0.00000000000E+00 0.  1.
         11    1    1    2    0    0 -0.39125246043E+01 -0.30540541250E+02  0.13620745046E+02  0.33668341275E+02  0.00000000000E+00 0. -1.
<mgrwt>
<rscale>  0 0.11499530E+03</rscale>
<asrwt>0</asrwt>
<pdfrwt beam="1">  1        1 0.74698599E-02 0.12559442E+03</pdfrwt>
<pdfrwt beam="2">  1       -1 0.37860977E-01 0.12559442E+03</pdfrwt>
<totfact> 0.61410025E+03</totfact>
</mgrwt>
</event>
<event>
 6    1  0.5818426E-006  0.1778877E+03  0.7546771E-02  0.1173983E+00
          2   -1    0    0  501    0  0.00000000000E+00  0.00000000000E+00  0.76122297571E+03  0.76122297571E+03  0.00000000000E+00 0. -1.
         -2   -1    0    0    0  501 -0.00000000000E+00 -0.00000000000E+00 -0.50064739083E+02  0.50064739083E+02  0.00000000000E+00 0.  1.
          5    1    1    2  502    0  0.66516428425E+02  0.25809303072E+02  0.12333895364E+03  0.14256627532E+03  0.47000000000E+01 0. -1.
         -5    1    1    2    0  502  0.48872285434E+02 -0.77814387457E+02  0.45315406749E+02  0.10256293321E+03  0.47000000000E+01 0. -1.
        -11    1    1    2    0    0 -0.13544064285E+02  0.40406548839E+02  0.64634477093E+02  0.77419290203E+02  0.00000000000E+00 0.  1.
         11    1    1    2    0    0 -0.10184464957E+03  0.11598535546E+02  0.47786939915E+03  0.48873921606E+03  0.00000000000E+00 0. -1.
<mgrwt>
<rscale>  0 0.17375963E+03</rscale>
<asrwt>0</asrwt>
<pdfrwt beam="1">  1        2 0.11711122E+00 0.17788771E+03</pdfrwt>
<pdfrwt beam="2">  1       -2 0.77022681E-02 0.17788771E+03</pdfrwt>
<totfact> 0.37362869E+03</totfact>
</mgrwt>
</event>
<event>
 6    1  0.5818426E-006  0.3417364E+03  0.7546771E-02  0.1066059E+00
          3   -1    0    0  501    0  0.00000000000E+00  0.00000000000E+00  0.91317311149E+03  0.91317311149E+03  0.00000000000E+00 0. -1.
         -3   -1    0    0    0  501 -0.00000000000E+00 -0.00000000000E+00 -0.31971968301E+02  0.31971968301E+02  0.00000000000E+00 0.  1.
          5    1    1    2  502    0 -0.16705988086E+02 -0.94322460862E+01  0.11591652760E+03  0.11758736613E+03  0.47000000000E+01 0. -1.
         -5    1    1    2    0  502  0.12981178720E+03  0.54755715050E+02  0.22704029857E+03  0.26724272787E+03  0.47000000000E+01 0. -1.
        -11    1    1    2    0    0 -0.29497234119E+02 -0.46809220070E+01  0.25680196112E+02  0.39388708075E+02  0.00000000000E+00 0.  1.
         11    1    1    2    0    0 -0.83608564993E+02 -0.40642546957E+02  0.51256412090E+03  0.52092627770E+03  0.00000000000E+00 0. -1.
<mgrwt>
<rscale>  0 0.34173640E+03</rscale>
<asrwt>0</asrwt>
<pdfrwt beam="1">  1        3 0.14048815E+00 0.34173640E+03</pdfrwt>
<pdfrwt beam="2">  1       -3 0.49187650E-02 0.34173640E+03</pdfrwt>
<totfact> 0.24328593E+02</totfact>
</mgrwt>
</event>
<event>
 6    1  0.5818426E-006  0.1401247E+03  0.7546771E-02  0.1224104E+00
          2   -1    0    0  501    0  0.00000000000E+00  0.00000000000E+00  0.63610068639E+02  0.63610068639E+02  0.00000000000E+00 0. -1.
         -2   -1    0    0    0  501 -0.00000000000E+00 -0.00000000000E+00 -0.27827857047E+03  0.27827857047E+03  0.00000000000E+00 0.  1.
          5    1    1    2  502    0 -0.24205912148E+02  0.26080848211E+02 -0.21695824224E+02  0.41939666369E+02  0.47000000000E+01 0.  1.
         -5    1    1    2    0  502  0.74688321516E+02 -0.64299372793E+02 -0.15226707852E+03  0.18143899226E+03  0.47000000000E+01 0.  1.
        -11    1    1    2    0    0 -0.17984206099E+02 -0.20528677982E+02 -0.43457376872E+02  0.51316682408E+02  0.00000000000E+00 0.  1.
         11    1    1    2    0    0 -0.32498203268E+02  0.58747202564E+02  0.27517777838E+01  0.67193298072E+02  0.00000000000E+00 0. -1.
<mgrwt>
<rscale>  0 0.13228474E+03</rscale>
<asrwt>0</asrwt>
<pdfrwt beam="1">  1        2 0.97861645E-02 0.14012471E+03</pdfrwt>
<pdfrwt beam="2">  1       -2 0.42812087E-01 0.14012471E+03</pdfrwt>
<totfact> 0.33009497E+03</totfact>
</mgrwt>
</event>
<event>
 6    1  0.5818426E-006  0.2829625E+03  0.7546771E-02  0.1095935E+00
          1   -1    0    0  501    0  0.00000000000E+00  0.00000000000E+00  0.42495639356E+03  0.42495639356E+03  0.00000000000E+00 0. -1.
         -1   -1    0    0    0  501 -0.00000000000E+00 -0.00000000000E+00 -0.28257113277E+03  0.28257113277E+03  0.00000000000E+00 0.  1.
          5    1    1    2  502    0 -0.15595518949E+03 -0.20065572395E+03 -0.15735964279E+03  0.29894629595E+03  0.47000000000E+01 0.  1.
         -5    1    1    2    0  502  0.34597832014E+01 -0.22881791697E+01  0.16128334462E+02  0.17303728969E+02  0.47000000000E+01 0.  1.
        -11    1    1    2    0    0  0.82099757387E+02  0.16409347572E+03  0.15803491368E+03  0.24216125388E+03  0.00000000000E+00 0.  1.
         11    1    1    2    0    0  0.70395648903E+02  0.38850427399E+02  0.12558165544E+03  0.14911624753E+03  0.00000000000E+00 0. -1.
<mgrwt>
<rscale>  0 0.27954931E+03</rscale>
<asrwt>0</asrwt>
<pdfrwt beam="1">  1        1 0.65377907E-01 0.28296253E+03</pdfrwt>
<pdfrwt beam="2">  1       -1 0.43472482E-01 0.28296253E+03</pdfrwt>
<totfact> 0.29957018E+02</totfact>
</mgrwt>
</event>
<event>
 6    1  0.5818426E-006  0.2397951E+03  0.7546771E-02  0.1119929E+00
         -2   -1    0    0    0  501 -0.00000000000E+00  0.00000000000E+00  0.31321203750E+02  0.31321203750E+02  0.00000000000E+00 0.  1.
          2   -1    0    0  501    0  0.00000000000E+00 -0.00000000000E+00 -0.45896792277E+03  0.45896792277E+03  0.00000000000E+00 0. -1.
          5    1    1    2  502    0  0.20033774121E+02 -0.25278785227E+02 -0.73677944897E+01  0.33417712126E+02  0.47000000000E+01 0. -1.
         -5    1    1    2    0  502  0.29320660790E+02  0.58946095905E+02 -0.18713049230E+03  0.19842946989E+03  0.47000000000E+01 0.  1.
        -11    1    1    2    0    0 -0.12847731763E+02 -0.61422900698E+02 -0.16269741936E+03  0.17437972132E+03  0.00000000000E+00 0.  1.
         11    1    1    2    0    0 -0.36506703149E+02  0.27755590020E+02 -0.70451012868E+02  0.84062223182E+02  0.00000000000E+00 0. -1.
<mgrwt>
<rscale>  0 0.23979514E+03</rscale>
<asrwt>0</asrwt>
<pdfrwt beam="2">  1        2 0.70610442E-01 0.23979514E+03</pdfrwt>
<pdfrwt beam="1">  1       -2 0.48186472E-02 0.23979514E+03</pdfrwt>
<totfact> 0.13986743E+04</totfact>
</mgrwt>
</event>
<event>
 6    1  0.5818426E-006  0.1509409E+03  0.7546771E-02  0.1207918E+00
          2   -1    0    0  501    0  0.00000000000E+00  0.00000000000E+00  0.85587049670E+02  0.85587049670E+02  0.00000000000E+00 0. -1.
         -2   -1    0    0    0  501 -0.00000000000E+00 -0.00000000000E+00 -0.23533394330E+03  0.23533394330E+03  0.00000000000E+00 0.  1.
          5    1    1    2  502    0  0.32350581874E+02 -0.28886646481E+02  0.68611034891E-01  0.43624456443E+02  0.47000000000E+01 0.  1.
         -5    1    1    2    0  502  0.32870050852E+02  0.82776624032E+02 -0.11805826600E+03  0.14796031191E+03  0.47000000000E+01 0.  1.
        -11    1    1    2    0    0  0.14635966852E+02 -0.13599800374E+02 -0.34479779561E+02  0.39849984874E+02  0.00000000000E+00 0.  1.
         11    1    1    2    0    0 -0.79856599578E+02 -0.40290177177E+02  0.27225409046E+01  0.89486239736E+02  0.00000000000E+00 0. -1.
<mgrwt>
<rscale>  0 0.14409853E+03</rscale>
<asrwt>0</asrwt>
<pdfrwt beam="1">  1        2 0.13167239E-01 0.15094093E+03</pdfrwt>
<pdfrwt beam="2">  1       -2 0.36205221E-01 0.15094093E+03</pdfrwt>
<totfact> 0.31758740E+03</totfact>
</mgrwt>
</event>
<event>
 6    1  0.6423268E-006  0.1405809E+03  0.7546771E-02  0.1223187E+00
         -1   -1    0    0    0  501 -0.00000000000E+00  0.00000000000E+00  0.13527048659E+02  0.13527048659E+02  0.00000000000E+00 0.  1.
          1   -1    0    0  501    0  0.00000000000E+00 -0.00000000000E+00 -0.11852068910E+04  0.11852068910E+04  0.00000000000E+00 0. -1.
          5    1    1    2  502    0 -0.40510035382E+02 -0.81384376991E+02 -0.57629167224E+03  0.58343693856E+03  0.47000000000E+01 0.  1.
         -5    1    1    2    0  502  0.20426774932E+02  0.20270504862E+02 -0.45446698271E+02  0.53996656242E+02  0.47000000000E+01 0.  1.
        -11    1    1    2    0    0 -0.34554008096E+02  0.13811163519E+02 -0.13148965359E+03  0.13665378413E+03  0.00000000000E+00 0.  1.
         11    1    1    2    0    0  0.54637268546E+02  0.47302708609E+02 -0.41845181823E+03  0.42464656072E+03  0.00000000000E+00 0. -1.
<mgrwt>
<rscale>  0 0.13291919E+03</rscale>
<asrwt>0</asrwt>
<pdfrwt beam="2">  1        1 0.18233953E+00 0.14058089E+03</pdfrwt>
<pdfrwt beam="1">  1       -1 0.20810843E-02 0.14058089E+03</pdfrwt>
<totfact> 0.73909270E+03</totfact>
</mgrwt>
</event>
<event>
 6    1  0.5818426E-006  0.2617377E+03  0.7546771E-02  0.1106104E+00
         -1   -1    0    0    0  501 -0.00000000000E+00  0.00000000000E+00  0.46374998521E+02  0.46374998521E+02  0.00000000000E+00 0.  1.
          1   -1    0    0  501    0  0.00000000000E+00 -0.00000000000E+00 -0.36930794070E+03  0.36930794070E+03  0.00000000000E+00 0. -1.
          5    1    1    2  502    0  0.16661433646E+02  0.24715188963E+02  0.61712560373E+01  0.30799648337E+02  0.47000000000E+01 0. -1.
         -5    1    1    2    0  502 -0.83989611944E+02 -0.10450879478E+02 -0.14700157152E+03  0.16969097745E+03  0.47000000000E+01 0. -1.
        -11    1    1    2    0    0  0.34405481585E+02  0.32398206549E+02 -0.39544130790E+02  0.61620769474E+02  0.00000000000E+00 0.  1.
         11    1    1    2    0    0  0.32922696714E+02 -0.46662516034E+02 -0.14255849590E+03  0.15357154396E+03  0.00000000000E+00 0. -1.
<mgrwt>
<rscale>  0 0.26173769E+03</rscale>
<asrwt>0</asrwt>
<pdfrwt beam="2">  1        1 0.56816606E-01 0.26173769E+03</pdfrwt>
<pdfrwt beam="1">  1       -1 0.71346152E-02 0.26173769E+03</pdfrwt>
<totfact> 0.68327059E+03</totfact>
</mgrwt>
</event>
<event>
 6    1  0.5818426E-006  0.2281625E+03  0.7546771E-02  0.1130952E+00
          2   -1    0    0  501    0  0.00000000000E+00  0.00000000000E+00  0.70699679785E+03  0.70699679785E+03  0.00000000000E+00 0. -1.
         -2   -1    0    0    0  501 -0.00000000000E+00 -0.00000000000E+00 -0.79477927914E+02  0.79477927914E+02  0.00000000000E+00 0.  1.
          5    1    1    2  502    0  0.15028996311E+02  0.16703991111E+03  0.16019196022E+03  0.23197361219E+03  0.47000000000E+01 0.  1.
         -5    1    1    2    0  502 -0.50159382998E+02  0.20573506305E+02  0.17317043537E+02  0.57106942322E+02  0.47000000000E+01 0.  1.
        -11    1    1    2    0    0  0.33403643978E+02 -0.78348026249E+02  0.10337922202E+03  0.13394581066E+03  0.00000000000E+00 0.  1.
         11    1    1    2    0    0  0.17267427089E+01 -0.10926539116E+03  0.34663064416E+03  0.36344836059E+03  0.00000000000E+00 0. -1.
<mgrwt>
<rscale>  0 0.22397750E+03</rscale>
<asrwt>0</asrwt>
<pdfrwt beam="1">  1        2 0.10876873E+00 0.22816249E+03</pdfrwt>
<pdfrwt beam="2">  1       -2 0.12227374E-01 0.22816249E+03</pdfrwt>
<totfact> 0.19796243E+03</totfact>
</mgrwt>
</event>
<event>
 6    1  0.5818426E-006  0.1279708E+03  0.7546771E-02  0.1244735E+00
          1   -1    0    0  501    0  0.00000000000E+00  0.00000000000E+00  0.16613485095E+03  0.16613485095E+03  0.00000000000E+00 0.  1.
         -1   -1    0    0    0  501 -0.00000000000E+00 -0.00000000000E+00 -0.78224915535E+02  0.78224915535E+02  0.00000000000E+00 0. -1.
          5    1    1    2  502    0 -0.45209436903E+02 -0.89874429265E+00  0.45720560942E+02  0.64476046864E+02  0.47000000000E+01 0.  1.
         -5    1    1    2    0  502  0.59026004129E+02 -0.22788162193E+02 -0.19049483045E+02  0.66244564334E+02  0.47000000000E+01 0.  1.
        -11    1    1    2    0    0  0.31222328917E+02  0.25437179411E+02  0.54952880758E+02  0.68130044937E+02  0.00000000000E+00 0.  1.
         11    1    1    2    0    0 -0.45038896143E+02 -0.17502729253E+01  0.62859767618E+01  0.45509110351E+02  0.00000000000E+00 0. -1.
<mgrwt>
<rscale>  0 0.11901230E+03</rscale>
<asrwt>0</asrwt>
<pdfrwt beam="1">  1        1 0.25559208E-01 0.12797082E+03</pdfrwt>
<pdfrwt beam="2">  1       -1 0.12034602E-01 0.12797082E+03</pdfrwt>
<totfact> 0.79862322E+03</totfact>
</mgrwt>
</event>
<event>
 6    1  0.5818426E-006  0.3655085E+03  0.7546771E-02  0.1056424E+00
         -1   -1    0    0    0  501 -0.00000000000E+00  0.00000000000E+00  0.49671556506E+02  0.49671556506E+02  0.00000000000E+00 0.  1.
          1   -1    0    0  501    0  0.00000000000E+00 -0.00000000000E+00 -0.67239932708E+03  0.67239932708E+03  0.00000000000E+00 0. -1.
          5    1    1    2  502    0 -0.32406066939E+02 -0.44785248978E+01 -0.12759350507E+02  0.35427410082E+02  0.47000000000E+01 0. -1.
         -5    1    1    2    0  502  0.39961106037E+02  0.13537052223E+03 -0.18520590032E+03  0.23290638419E+03  0.47000000000E+01 0. -1.
        -11    1    1    2    0    0 -0.41087188663E+02 -0.40925282645E+02 -0.22108018573E+03  0.22855958600E+03  0.00000000000E+00 0.  1.
         11    1    1    2    0    0  0.33532149565E+02 -0.89966714685E+02 -0.20368233401E+03  0.22517750330E+03  0.00000000000E+00 0. -1.
<mgrwt>
<rscale>  0 0.36550853E+03</rscale>
<asrwt>0</asrwt>
<pdfrwt beam="2">  1        1 0.10344604E+00 0.36550853E+03</pdfrwt>
<pdfrwt beam="1">  1       -1 0.76417785E-02 0.36550853E+03</pdfrwt>
<totfact> 0.27709644E+03</totfact>
</mgrwt>
</event>
<event>
 6    1  0.5818426E-006  0.1268335E+03  0.7546771E-02  0.1248416E+00
          1   -1    0    0  501    0  0.00000000000E+00  0.00000000000E+00  0.80858149508E+03  0.80858149508E+03  0.00000000000E+00 0. -1.
         -1   -1    0    0    0  501 -0.00000000000E+00 -0.00000000000E+00 -0.14714673192E+02  0.14714673192E+02  0.00000000000E+00 0.  1.
          5    1    1    2  502    0  0.46427186324E+02 -0.44707637803E+02  0.24818813584E+03  0.25646383231E+03  0.47000000000E+01 0. -1.
         -5    1    1    2    0  502 -0.27665159182E+02  0.55267183497E+02  0.21029473048E+03  0.21923910754E+03  0.47000000000E+01 0. -1.
        -11    1    1    2    0    0 -0.46192438615E+02 -0.31874157458E+02  0.22362717412E+03  0.23056195763E+03  0.00000000000E+00 0.  1.
         11    1    1    2    0    0  0.27430411473E+02  0.21314611764E+02  0.11175678144E+03  0.11703127080E+03  0.00000000000E+00 0. -1.
<mgrwt>
<rscale>  0 0.11683221E+03</rscale>
<asrwt>0</asrwt>
<pdfrwt beam="1">  1        1 0.12439712E+00 0.12683355E+03</pdfrwt>
<pdfrwt beam="2">  1       -1 0.22637965E-02 0.12683355E+03</pdfrwt>
<totfact> 0.12338980E+04</totfact>
</mgrwt>
</event>
<event>
 6    1  0.5818426E-006  0.3078620E+03  0.7546771E-02  0.1081375E+00
         -1   -1    0    0    0  501 -0.00000000000E+00  0.00000000000E+00  0.91895576422E+02  0.91895576422E+02  0.00000000000E+00 0.  1.
          1   -1    0    0  501    0  0.00000000000E+00 -0.00000000000E+00 -0.25784431697E+03  0.25784431697E+03  0.00000000000E+00 0. -1.
          5    1    1    2  502    0  0.22851040751E+02 -0.14461624373E+02  0.52575536551E+02  0.59309237784E+02  0.47000000000E+01 0.  1.
         -5    1    1    2    0  502 -0.10007478613E+02  0.67361015882E+02 -0.37457888380E+02  0.77864237559E+02  0.47000000000E+01 0.  1.
        -11    1    1    2    0    0 -0.47294093925E+02 -0.17133099499E+00 -0.92475470018E+02  0.10386757545E+03  0.00000000000E+00 0. -1.
         11    1    1    2    0    0  0.34450531787E+02 -0.52728060514E+02 -0.88590918696E+02  0.10869884259E+03  0.00000000000E+00 0.  1.
<mgrwt>
<rscale>  0 0.30786200E+03</rscale>
<asrwt>0</asrwt>
<pdfrwt beam="2">  1        1 0.39668356E-01 0.30786200E+03</pdfrwt>
<pdfrwt beam="1">  1       -1 0.14137781E-01 0.30786200E+03</pdfrwt>
<totfact> 0.37469478E+03</totfact>
</mgrwt>
</event>
<event>
 6    1  0.5818426E-006  0.1256713E+03  0.7546771E-02  0.1249114E+00
          2   -1    0    0  501    0  0.00000000000E+00  0.00000000000E+00  0.22341983128E+03  0.22341983128E+03  0.00000000000E+00 0. -1.
         -2   -1    0    0    0  501 -0.00000000000E+00 -0.00000000000E+00 -0.61280830944E+02  0.61280830944E+02  0.00000000000E+00 0.  1.
          5    1    1    2  502    0 -0.29538166547E+02  0.46493009233E+02  0.63081538769E+01  0.55641585130E+02  0.47000000000E+01 0.  1.
         -5    1    1    2    0  502  0.36451098942E+02 -0.57512142525E+02  0.34589278338E+02  0.76516908771E+02  0.47000000000E+01 0.  1.
        -11    1    1    2    0    0 -0.42062133855E+02  0.27259329239E+02  0.46519040850E+02  0.68383589381E+02  0.00000000000E+00 0.  1.
         11    1    1    2    0    0  0.35149201460E+02 -0.16240195947E+02  0.74722527269E+02  0.84158578940E+02  0.00000000000E+00 0. -1.
<mgrwt>
<rscale>  0 0.11642521E+03</rscale>
<asrwt>0</asrwt>
<pdfrwt beam="1">  1        2 0.34372281E-01 0.12567127E+03</pdfrwt>
<pdfrwt beam="2">  1       -2 0.94278203E-02 0.12567127E+03</pdfrwt>
<totfact> 0.10312048E+04</totfact>
</mgrwt>
</event>
<event>
 6    1  0.5818426E-006  0.1576702E+03  0.7546771E-02  0.1211451E+00
         -1   -1    0    0    0  501 -0.00000000000E+00  0.00000000000E+00  0.11075620727E+04  0.11075620727E+04  0.00000000000E+00 0.  1.
          1   -1    0    0  501    0  0.00000000000E+00 -0.00000000000E+00 -0.17062964795E+02  0.17062964795E+02  0.00000000000E+00 0. -1.
          5    1    1    2  502    0  0.21193327192E+02 -0.76043110167E+02  0.54134892592E+03  0.54709456341E+03  0.47000000000E+01 0. -1.
         -5    1    1    2    0  502  0.24826652932E+02  0.68556887284E+02  0.28913484817E+03  0.29822384196E+03  0.47000000000E+01 0.  1.
        -11    1    1    2    0    0 -0.65652679171E+02  0.45428704976E+01  0.24688383148E+03  0.25550447785E+03  0.00000000000E+00 0.  1.
         11    1    1    2    0    0  0.19632699047E+02  0.29433523857E+01  0.13131502377E+02  0.23802154310E+02  0.00000000000E+00 0. -1.
<mgrwt>
<rscale>  0 0.14140459E+03</rscale>
<asrwt>0</asrwt>
<pdfrwt beam="2">  1        1 0.26250724E-02 0.15767025E+03</pdfrwt>
<pdfrwt beam="1">  1       -1 0.17039411E+00 0.15767025E+03</pdfrwt>
<totfact> 0.10839387E+03</totfact>
</mgrwt>
</event>
<event>
 6    1  0.5818426E-006  0.1333863E+03  0.7546771E-02  0.1235578E+00
         -2   -1    0    0    0  501 -0.00000000000E+00  0.00000000000E+00  0.10318898989E+03  0.10318898989E+03  0.00000000000E+00 0.  1.
          2   -1    0    0  501    0  0.00000000000E+00 -0.00000000000E+00 -0.13406719384E+03  0.13406719384E+03  0.00000000000E+00 0. -1.
          5    1    1    2  502    0  0.72556223390E+02 -0.50502438367E+02 -0.74831887227E+01  0.88842500792E+02  0.47000000000E+01 0. -1.
         -5    1    1    2    0  502 -0.29557246418E+02  0.32701663200E+02 -0.12287129741E+02  0.46001012479E+02  0.47000000000E+01 0. -1.
        -11    1    1    2    0    0  0.60397128572E+00 -0.31181383511E+02  0.11210498888E+02  0.33140892328E+02  0.00000000000E+00 0.  1.
         11    1    1    2    0    0 -0.43602948257E+02  0.48982158678E+02 -0.22318384375E+02  0.69271778139E+02  0.00000000000E+00 0. -1.
<mgrwt>
<rscale>  0 0.12467502E+03</rscale>
<asrwt>0</asrwt>
<pdfrwt beam="2">  1        2 0.20625722E-01 0.13338631E+03</pdfrwt>
<pdfrwt beam="1">  1       -2 0.15875229E-01 0.13338631E+03</pdfrwt>
<totfact> 0.78769717E+03</totfact>
</mgrwt>
</event>
<event>
 6    1  0.5818426E-006  0.1374344E+03  0.7546771E-02  0.1227014E+00
          1   -1    0    0  501    0  0.00000000000E+00  0.00000000000E+00  0.15621787378E+03  0.15621787378E+03  0.00000000000E+00 0. -1.
         -1   -1    0    0    0  501 -0.00000000000E+00 -0.00000000000E+00 -0.10830776293E+03  0.10830776293E+03  0.00000000000E+00 0.  1.
          5    1    1    2  502    0  0.95294749465E+02  0.10073332919E+01 -0.27699245980E+01  0.95456097125E+02  0.47000000000E+01 0.  1.
         -5    1    1    2    0  502 -0.39563264092E+02  0.11209456243E+02 -0.99365257750E+01  0.42564402021E+02  0.47000000000E+01 0.  1.
        -11    1    1    2    0    0  0.21943527031E+02  0.13840462553E+02  0.25152751741E+01  0.26065367664E+02  0.00000000000E+00 0.  1.
         11    1    1    2    0    0 -0.77675012404E+02 -0.26057252088E+02  0.58101286049E+02  0.10043976991E+03  0.00000000000E+00 0. -1.
<mgrwt>
<rscale>  0 0.13029816E+03</rscale>
<asrwt>0</asrwt>
<pdfrwt beam="1">  1        1 0.24033519E-01 0.13743436E+03</pdfrwt>
<pdfrwt beam="2">  1       -1 0.16662733E-01 0.13743436E+03</pdfrwt>
<totfact> 0.52189365E+03</totfact>
</mgrwt>
</event>
<event>
 6    1  0.5818426E-006  0.1500315E+03  0.7546771E-02  0.1210627E+00
         -1   -1    0    0    0  501 -0.00000000000E+00  0.00000000000E+00  0.43343377689E+02  0.43343377689E+02  0.00000000000E+00 0.  1.
          1   -1    0    0  501    0  0.00000000000E+00 -0.00000000000E+00 -0.43479880059E+03  0.43479880059E+03  0.00000000000E+00 0. -1.
          5    1    1    2  502    0  0.68809496608E+02 -0.74518694716E+02 -0.10644376749E+03  0.14710590852E+03  0.47000000000E+01 0.  1.
         -5    1    1    2    0  502 -0.46847393523E+02 -0.55020805019E+01 -0.69405892589E+02  0.84048908951E+02  0.47000000000E+01 0.  1.
        -11    1    1    2    0    0 -0.23866467560E+02  0.98781631179E+02 -0.18266940333E+03  0.20903475750E+03  0.00000000000E+00 0. -1.
         11    1    1    2    0    0  0.19043644748E+01 -0.18760855960E+02 -0.32936359499E+02  0.37952603303E+02  0.00000000000E+00 0.  1.
<mgrwt>
<rscale>  0 0.14202706E+03</rscale>
<asrwt>0</asrwt>
<pdfrwt beam="2">  1        1 0.66892124E-01 0.15003149E+03</pdfrwt>
<pdfrwt beam="1">  1       -1 0.66682119E-02 0.15003149E+03</pdfrwt>
<totfact> 0.59666826E+03</totfact>
</mgrwt>
</event>
<event>
 6    1  0.5818426E-006  0.2378566E+03  0.7546771E-02  0.1123913E+00
         -1   -1    0    0    0  501 -0.00000000000E+00  0.00000000000E+00  0.98660371298E+02  0.98660371298E+02  0.00000000000E+00 0.  1.
          1   -1    0    0  501    0  0.00000000000E+00 -0.00000000000E+00 -0.53996355276E+03  0.53996355276E+03  0.00000000000E+00 0. -1.
          5    1    1    2  502    0 -0.17631831620E+03  0.69535015289E+02 -0.25613633257E+03  0.31867095544E+03  0.47000000000E+01 0. -1.
         -5    1    1    2    0  502 -0.19488352666E+02 -0.18482127238E+02  0.44486192239E+01  0.27627253390E+02  0.47000000000E+01 0. -1.
        -11    1    1    2    0    0  0.12859886175E+03 -0.71311737259E+02 -0.15639035644E+03  0.21466479614E+03  0.00000000000E+00 0. -1.
         11    1    1    2    0    0  0.67207807115E+02  0.20258849208E+02 -0.33225111683E+02  0.77660919095E+02  0.00000000000E+00 0.  1.
<mgrwt>
<rscale>  0 0.23391729E+03</rscale>
<asrwt>0</asrwt>
<pdfrwt beam="2">  1        1 0.83071317E-01 0.23785656E+03</pdfrwt>
<pdfrwt beam="1">  1       -1 0.15178519E-01 0.23785656E+03</pdfrwt>
<totfact> 0.12826268E+03</totfact>
</mgrwt>
</event>
<event>
 6    1  0.5818426E-006  0.3145773E+03  0.7546771E-02  0.1078172E+00
          1   -1    0    0  501    0  0.00000000000E+00  0.00000000000E+00  0.55285795602E+03  0.55285795602E+03  0.00000000000E+00 0. -1.
         -1   -1    0    0    0  501 -0.00000000000E+00 -0.00000000000E+00 -0.44748793166E+02  0.44748793166E+02  0.00000000000E+00 0.  1.
          5    1    1    2  502    0  0.81096149698E+02  0.91558619890E+02  0.16740264942E+03  0.20737720079E+03  0.47000000000E+01 0.  1.
         -5    1    1    2    0  502 -0.16905439056E+02 -0.15683946430E+02 -0.61406868319E+00  0.23542453688E+02  0.47000000000E+01 0.  1.
        -11    1    1    2    0    0 -0.33719071142E+02 -0.29584689439E+02  0.39343751464E+02  0.59667079593E+02  0.00000000000E+00 0.  1.
         11    1    1    2    0    0 -0.30471639500E+02 -0.46289984022E+02  0.30197683065E+03  0.30702001512E+03  0.00000000000E+00 0. -1.
<mgrwt>
<rscale>  0 0.31457734E+03</rscale>
<asrwt>0</asrwt>
<pdfrwt beam="1">  1        1 0.85055065E-01 0.31457734E+03</pdfrwt>
<pdfrwt beam="2">  1       -1 0.68844301E-02 0.31457734E+03</pdfrwt>
<totfact> 0.42729361E+03</totfact>
</mgrwt>
</event>
<event>
 6    1  0.5818426E-006  0.1813047E+03  0.7546771E-02  0.1172133E+00
          1   -1    0    0  501    0  0.00000000000E+00  0.00000000000E+00  0.10411444109E+04  0.10411444109E+04  0.00000000000E+00 0. -1.
         -1   -1    0    0    0  501 -0.00000000000E+00 -0.00000000000E+00 -0.27900565317E+02  0.27900565317E+02  0.00000000000E+00 0.  1.
          5    1    1    2  502    0  0.95841343638E+02 -0.28082219388E+02  0.27166188547E+03  0.28947615483E+03  0.47000000000E+01 0. -1.
         -5    1    1    2    0  502 -0.18373688806E+02 -0.77960120009E+02  0.27515020783E+03  0.28660966421E+03  0.47000000000E+01 0. -1.
        -11    1    1    2    0    0  0.15347937448E+02 -0.34334635718E+01  0.38011425763E+02  0.41136557276E+02  0.00000000000E+00 0.  1.
         11    1    1    2    0    0 -0.92815592279E+02  0.10947580297E+03  0.42842032656E+03  0.45182259994E+03  0.00000000000E+00 0. -1.
<mgrwt>
<rscale>  0 0.17559743E+03</rscale>
<asrwt>0</asrwt>
<pdfrwt beam="1">  1        1 0.16017603E+00 0.18130473E+03</pdfrwt>
<pdfrwt beam="2">  1       -1 0.42923955E-02 0.18130473E+03</pdfrwt>
<totfact> 0.32685290E+03</totfact>
</mgrwt>
</event>
<event>
 6    1  0.5818426E-006  0.1266237E+03  0.7546771E-02  0.1247078E+00
         -2   -1    0    0    0  501 -0.00000000000E+00  0.00000000000E+00  0.43785194804E+02  0.43785194804E+02  0.00000000000E+00 0.  1.
          2   -1    0    0  501    0  0.00000000000E+00 -0.00000000000E+00 -0.31805895562E+03  0.31805895562E+03  0.00000000000E+00 0. -1.
          5    1    1    2  502    0  0.51518767695E+02  0.26744536544E+02 -0.44565197998E+02  0.73332124832E+02  0.47000000000E+01 0. -1.
         -5    1    1    2    0  502 -0.49521690044E+02 -0.46839793624E+02 -0.47038234463E+02  0.82952091914E+02  0.47000000000E+01 0. -1.
        -11    1    1    2    0    0  0.32202727504E+02 -0.10069684046E+01 -0.19824901843E+02  0.37829305798E+02  0.00000000000E+00 0.  1.
         11    1    1    2    0    0 -0.34199805155E+02  0.21102225484E+02 -0.16284542651E+03  0.16773062788E+03  0.00000000000E+00 0. -1.
<mgrwt>
<rscale>  0 0.11761894E+03</rscale>
<asrwt>0</asrwt>
<pdfrwt beam="2">  1        2 0.48932149E-01 0.12662372E+03</pdfrwt>
<pdfrwt beam="1">  1       -2 0.67361835E-02 0.12662372E+03</pdfrwt>
<totfact> 0.11911138E+04</totfact>
</mgrwt>
</event>
<event>
 6    1  0.5818426E-006  0.1339132E+03  0.7546771E-02  0.1227364E+00
          1   -1    0    0  501    0  0.00000000000E+00  0.00000000000E+00  0.78141108526E+03  0.78141108526E+03  0.00000000000E+00 0. -1.
         -1   -1    0    0    0  501 -0.00000000000E+00 -0.00000000000E+00 -0.21636984807E+02  0.21636984807E+02  0.00000000000E+00 0.  1.
          5    1    1    2  502    0 -0.49428103975E+02  0.12393877775E+02  0.13646977068E+03  0.14574921604E+03  0.47000000000E+01 0. -1.
         -5    1    1    2    0  502  0.54132296444E+02  0.61378833389E+02  0.17210461290E+03  0.19062988876E+03  0.47000000000E+01 0.  1.
        -11    1    1    2    0    0 -0.17442599826E+02 -0.92572102765E+02  0.32230583556E+03  0.33578994942E+03  0.00000000000E+00 0. -1.
         11    1    1    2    0    0  0.12738407357E+02  0.18799391601E+02  0.12889388132E+03  0.13087901585E+03  0.00000000000E+00 0.  1.
<mgrwt>
<rscale>  0 0.13006152E+03</rscale>
<asrwt>0</asrwt>
<pdfrwt beam="1">  1        1 0.12021707E+00 0.13391323E+03</pdfrwt>
<pdfrwt beam="2">  1       -1 0.33287675E-02 0.13391323E+03</pdfrwt>
<totfact> 0.74472532E+03</totfact>
</mgrwt>
</event>
<event>
 6    1  0.5818426E-006  0.1301225E+03  0.7546771E-02  0.1241817E+00
         -2   -1    0    0    0  501 -0.00000000000E+00  0.00000000000E+00  0.47835990785E+03  0.47835990785E+03  0.00000000000E+00 0.  1.
          2   -1    0    0  501    0  0.00000000000E+00 -0.00000000000E+00 -0.31359982247E+02  0.31359982247E+02  0.00000000000E+00 0. -1.
          5    1    1    2  502    0  0.61917691420E+02  0.45032059600E+02  0.14082751059E+03  0.16036260363E+03  0.47000000000E+01 0. -1.
         -5    1    1    2    0  502 -0.30682262226E+02 -0.26811918505E+02  0.20661753736E+03  0.21064941712E+03  0.47000000000E+01 0. -1.
        -11    1    1    2    0    0 -0.21196810549E+02 -0.24586379470E+02  0.11484263839E+03  0.11934247537E+03  0.00000000000E+00 0.  1.
         11    1    1    2    0    0 -0.10038618645E+02  0.63662383751E+01 -0.15287760747E+02  0.19365393980E+02  0.00000000000E+00 0. -1.
<mgrwt>
<rscale>  0 0.12077912E+03</rscale>
<asrwt>0</asrwt>
<pdfrwt beam="2">  1        2 0.48246130E-02 0.13012247E+03</pdfrwt>
<pdfrwt beam="1">  1       -2 0.73593827E-01 0.13012247E+03</pdfrwt>
<totfact> 0.26921546E+03</totfact>
</mgrwt>
</event>
<event>
 6    1  0.5818426E-006  0.1274886E+03  0.7546771E-02  0.1246367E+00
          3   -1    0    0  501    0  0.00000000000E+00  0.00000000000E+00  0.84185417998E+02  0.84185417998E+02  0.00000000000E+00 0. -1.
         -3   -1    0    0    0  501 -0.00000000000E+00 -0.00000000000E+00 -0.15273268290E+03  0.15273268290E+03  0.00000000000E+00 0.  1.
          5    1    1    2  502    0  0.38743779191E+02  0.50601132663E+02 -0.25145521072E+02  0.68672718621E+02  0.47000000000E+01 0.  1.
         -5    1    1    2    0  502 -0.54440774872E+02 -0.31045368064E+02 -0.39995608697E+02  0.74493969971E+02  0.47000000000E+01 0.  1.
        -11    1    1    2    0    0 -0.12125191819E+02 -0.20450081534E+02 -0.40747550377E+02  0.47176148350E+02  0.00000000000E+00 0.  1.
         11    1    1    2    0    0  0.27822187500E+02  0.89431693533E+00  0.37341415245E+02  0.46575263956E+02  0.00000000000E+00 0. -1.
<mgrwt>
<rscale>  0 0.11803918E+03</rscale>
<asrwt>0</asrwt>
<pdfrwt beam="1">  1        3 0.12951603E-01 0.12748856E+03</pdfrwt>
<pdfrwt beam="2">  1       -3 0.23497336E-01 0.12748856E+03</pdfrwt>
<totfact> 0.18211652E+03</totfact>
</mgrwt>
</event>
<event>
 6    1  0.5818426E-006  0.1386805E+03  0.7546771E-02  0.1223051E+00
          1   -1    0    0  501    0  0.00000000000E+00  0.00000000000E+00  0.43011543798E+03  0.43011543798E+03  0.00000000000E+00 0. -1.
         -1   -1    0    0    0  501 -0.00000000000E+00 -0.00000000000E+00 -0.41580696169E+02  0.41580696169E+02  0.00000000000E+00 0.  1.
          5    1    1    2  502    0 -0.87851224825E+02  0.58980683420E+01  0.11082338221E+03  0.14162110350E+03  0.47000000000E+01 0. -1.
         -5    1    1    2    0  502  0.26775938040E+02  0.38801171659E+02  0.30299276598E+02  0.56237158022E+02  0.47000000000E+01 0.  1.
        -11    1    1    2    0    0  0.73665403459E+02 -0.60777124610E+02  0.18542022394E+03  0.20856919713E+03  0.00000000000E+00 0.  1.
         11    1    1    2    0    0 -0.12590116674E+02  0.16077884609E+02  0.61991859062E+02  0.65268675498E+02  0.00000000000E+00 0. -1.
<mgrwt>
<rscale>  0 0.13301354E+03</rscale>
<asrwt>0</asrwt>
<pdfrwt beam="1">  1        1 0.66171603E-01 0.13868052E+03</pdfrwt>
<pdfrwt beam="2">  1       -1 0.63970305E-02 0.13868052E+03</pdfrwt>
<totfact> 0.64084956E+03</totfact>
</mgrwt>
</event>
<event>
 6    1  0.5818426E-006  0.1716011E+03  0.7546771E-02  0.1182542E+00
          2   -1    0    0  501    0  0.00000000000E+00  0.00000000000E+00  0.38233768224E+03  0.38233768224E+03  0.00000000000E+00 0. -1.
         -2   -1    0    0    0  501 -0.00000000000E+00 -0.00000000000E+00 -0.75598260674E+02  0.75598260674E+02  0.00000000000E+00 0.  1.
          5    1    1    2  502    0  0.55745706080E+02  0.36557071506E+02  0.10983742283E+03  0.12857041914E+03  0.47000000000E+01 0. -1.
         -5    1    1    2    0  502  0.58389642091E+02 -0.81873823708E+01 -0.23354337825E+02  0.63591655340E+02  0.47000000000E+01 0. -1.
        -11    1    1    2    0    0 -0.32907138340E+02 -0.45938037914E+02  0.13672771355E+03  0.14794475568E+03  0.00000000000E+00 0. -1.
         11    1    1    2    0    0 -0.81228209831E+02  0.17568348778E+02  0.83528623022E+02  0.11782911277E+03  0.00000000000E+00 0.  1.
<mgrwt>
<rscale>  0 0.16557521E+03</rscale>
<asrwt>0</asrwt>
<pdfrwt beam="1">  1        2 0.58821181E-01 0.17160110E+03</pdfrwt>
<pdfrwt beam="2">  1       -2 0.11630502E-01 0.17160110E+03</pdfrwt>
<totfact> 0.42563345E+03</totfact>
</mgrwt>
</event>
<event>
 6    1  0.5818426E-006  0.1712748E+03  0.7546771E-02  0.1181876E+00
         -2   -1    0    0    0  501 -0.00000000000E+00  0.00000000000E+00  0.68736512304E+02  0.68736512304E+02  0.00000000000E+00 0.  1.
          2   -1    0    0  501    0  0.00000000000E+00 -0.00000000000E+00 -0.38405083426E+03  0.38405083426E+03  0.00000000000E+00 0. -1.
          5    1    1    2  502    0 -0.89927428366E+02  0.21731663264E+02 -0.10588059816E+03  0.14068403828E+03  0.47000000000E+01 0. -1.
         -5    1    1    2    0  502 -0.15953766661E+02 -0.71714123829E+02 -0.37155464662E+02  0.82462456800E+02  0.47000000000E+01 0. -1.
        -11    1    1    2    0    0  0.91254395101E+02 -0.73261892869E+01 -0.11813445149E+03  0.14945496413E+03  0.00000000000E+00 0. -1.
         11    1    1    2    0    0  0.14626799926E+02  0.57308649852E+02 -0.54143807648E+02  0.80185887353E+02  0.00000000000E+00 0.  1.
<mgrwt>
<rscale>  0 0.16619423E+03</rscale>
<asrwt>0</asrwt>
<pdfrwt beam="2">  1        2 0.59084744E-01 0.17127476E+03</pdfrwt>
<pdfrwt beam="1">  1       -2 0.10574848E-01 0.17127476E+03</pdfrwt>
<totfact> 0.49292951E+03</totfact>
</mgrwt>
</event>
<event>
 6    1  0.5818426E-006  0.1646726E+03  0.7546771E-02  0.1190645E+00
         -2   -1    0    0    0  501 -0.00000000000E+00  0.00000000000E+00  0.70086402034E+02  0.70086402034E+02  0.00000000000E+00 0.  1.
          2   -1    0    0  501    0  0.00000000000E+00 -0.00000000000E+00 -0.44762105961E+03  0.44762105961E+03  0.00000000000E+00 0. -1.
          5    1    1    2  502    0  0.23473041019E+02 -0.43286425267E+02 -0.29324598311E+01  0.49551867651E+02  0.47000000000E+01 0. -1.
         -5    1    1    2    0  502  0.77618275984E+02  0.78958000832E+02 -0.65853714226E+02  0.12890990784E+03  0.47000000000E+01 0. -1.
        -11    1    1    2    0    0 -0.20516682203E+02  0.15140845754E+02 -0.13174977853E+02  0.28701210779E+02  0.00000000000E+00 0.  1.
         11    1    1    2    0    0 -0.80574634800E+02 -0.50812421319E+02 -0.29557350567E+03  0.31054447538E+03  0.00000000000E+00 0. -1.
<mgrwt>
<rscale>  0 0.15828688E+03</rscale>
<asrwt>0</asrwt>
<pdfrwt beam="2">  1        2 0.68864776E-01 0.16467261E+03</pdfrwt>
<pdfrwt beam="1">  1       -2 0.10782524E-01 0.16467261E+03</pdfrwt>
<totfact> 0.40429529E+03</totfact>
</mgrwt>
</event>
<event>
 6    1  0.5818426E-006  0.1534704E+03  0.7546771E-02  0.1204848E+00
         -1   -1    0    0    0  501 -0.00000000000E+00  0.00000000000E+00  0.50096444462E+03  0.50096444462E+03  0.00000000000E+00 0.  1.
          1   -1    0    0  501    0  0.00000000000E+00 -0.00000000000E+00 -0.54287895648E+02  0.54287895648E+02  0.00000000000E+00 0. -1.
          5    1    1    2  502    0 -0.55474150424E+02  0.26886291363E+02  0.20685298935E+03  0.21589465772E+03  0.47000000000E+01 0. -1.
         -5    1    1    2    0  502  0.61749433581E+02  0.61946625418E+02  0.17658342538E+03  0.19711461911E+03  0.47000000000E+01 0. -1.
        -11    1    1    2    0    0  0.37572319385E+02 -0.64299455337E+02  0.51791350999E+02  0.90710766610E+02  0.00000000000E+00 0. -1.
         11    1    1    2    0    0 -0.43847602542E+02 -0.24533461444E+02  0.11448783247E+02  0.51532296833E+02  0.00000000000E+00 0.  1.
<mgrwt>
<rscale>  0 0.14649440E+03</rscale>
<asrwt>0</asrwt>
<pdfrwt beam="2">  1        1 0.83519843E-02 0.15347045E+03</pdfrwt>
<pdfrwt beam="1">  1       -1 0.77071450E-01 0.15347045E+03</pdfrwt>
<totfact> 0.14195079E+03</totfact>
</mgrwt>
</event>
<event>
 6    1  0.5818426E-006  0.1458542E+03  0.7546771E-02  0.1216862E+00
         -2   -1    0    0    0  501 -0.00000000000E+00  0.00000000000E+00  0.12326854663E+03  0.12326854663E+03  0.00000000000E+00 0.  1.
          2   -1    0    0  501    0  0.00000000000E+00 -0.00000000000E+00 -0.24202003903E+03  0.24202003903E+03  0.00000000000E+00 0. -1.
          5    1    1    2  502    0 -0.54466255950E+02  0.30668054880E+02 -0.76817162184E+01  0.63152208128E+02  0.47000000000E+01 0. -1.
         -5    1    1    2    0  502  0.58252101287E+02  0.34608788613E+02  0.63614386786E+02  0.93058883293E+02  0.47000000000E+01 0.  1.
        -11    1    1    2    0    0  0.28933700529E+02 -0.17840180086E+02 -0.11287433215E+02  0.35816716773E+02  0.00000000000E+00 0.  1.
         11    1    1    2    0    0 -0.32719545866E+02 -0.47436663407E+02 -0.16339672975E+03  0.17326077747E+03  0.00000000000E+00 0. -1.
<mgrwt>
<rscale>  0 0.13740614E+03</rscale>
<asrwt>0</asrwt>
<pdfrwt beam="2">  1        2 0.37233852E-01 0.14585418E+03</pdfrwt>
<pdfrwt beam="1">  1       -2 0.18964392E-01 0.14585418E+03</pdfrwt>
<totfact> 0.30876514E+03</totfact>
</mgrwt>
</event>
<event>
 6    1  0.5818426E-006  0.1658057E+03  0.7546771E-02  0.1197174E+00
          2   -1    0    0  501    0  0.00000000000E+00  0.00000000000E+00  0.15443956764E+02  0.15443956764E+02  0.00000000000E+00 0. -1.
         -2   -1    0    0    0  501 -0.00000000000E+00 -0.00000000000E+00 -0.15273996078E+04  0.15273996078E+04  0.00000000000E+00 0.  1.
          5    1    1    2  502    0 -0.13452250897E+02  0.60421643123E+02 -0.29654871192E+03  0.30297684161E+03  0.47000000000E+01 0. -1.
         -5    1    1    2    0  502  0.88732546188E+02 -0.38567813866E+02 -0.84923224013E+03  0.85473880729E+03  0.47000000000E+01 0.  1.
        -11    1    1    2    0    0 -0.15184334022E+02 -0.42422441907E+02 -0.78390855574E+02  0.90417663178E+02  0.00000000000E+00 0.  1.
         11    1    1    2    0    0 -0.60095961269E+02  0.20568612649E+02 -0.28778384343E+03  0.29471025250E+03  0.00000000000E+00 0. -1.
<mgrwt>
<rscale>  0 0.15271681E+03</rscale>
<asrwt>0</asrwt>
<pdfrwt beam="1">  1        2 0.23759924E-02 0.16580571E+03</pdfrwt>
<pdfrwt beam="2">  1       -2 0.23498465E+00 0.16580571E+03</pdfrwt>
<totfact> 0.37607916E+02</totfact>
</mgrwt>
</event>
<event>
 6    1  0.5818426E-006  0.1453592E+03  0.7546771E-02  0.1215634E+00
          1   -1    0    0  501    0  0.00000000000E+00  0.00000000000E+00  0.27170739450E+03  0.27170739450E+03  0.00000000000E+00 0. -1.
         -1   -1    0    0    0  501 -0.00000000000E+00 -0.00000000000E+00 -0.67986772880E+02  0.67986772880E+02  0.00000000000E+00 0.  1.
          5    1    1    2  502    0  0.31460895239E+02 -0.36723363485E+02  0.43183509330E+02  0.65002298674E+02  0.47000000000E+01 0. -1.
         -5    1    1    2    0  502  0.19418004833E+02  0.90726043585E+02  0.29190797347E+02  0.97377957188E+02  0.47000000000E+01 0. -1.
        -11    1    1    2    0    0 -0.44608043646E+02  0.16529781653E+02  0.62565252653E+02  0.78597214193E+02  0.00000000000E+00 0. -1.
         11    1    1    2    0    0 -0.62708564261E+01 -0.70532461752E+02  0.68781062294E+02  0.98716697328E+02  0.00000000000E+00 0.  1.
<mgrwt>
<rscale>  0 0.13830043E+03</rscale>
<asrwt>0</asrwt>
<pdfrwt beam="1">  1        1 0.41801137E-01 0.14535924E+03</pdfrwt>
<pdfrwt beam="2">  1       -1 0.10459504E-01 0.14535924E+03</pdfrwt>
<totfact> 0.54238174E+03</totfact>
</mgrwt>
</event>
<event>
 6    1  0.8975126E-006  0.2552660E+03  0.7546771E-02  0.1112459E+00
         -1   -1    0    0    0  501 -0.00000000000E+00  0.00000000000E+00  0.19984055035E+03  0.19984055035E+03  0.00000000000E+00 0.  1.
          1   -1    0    0  501    0  0.00000000000E+00 -0.00000000000E+00 -0.42470094882E+03  0.42470094882E+03  0.00000000000E+00 0. -1.
          5    1    1    2  502    0  0.73063534073E+02 -0.14260036142E+03  0.91421553796E+02  0.18453491156E+03  0.47000000000E+01 0. -1.
         -5    1    1    2    0  502  0.34852463291E+02 -0.52051811945E+02 -0.41873375567E+02  0.75495396586E+02  0.47000000000E+01 0. -1.
        -11    1    1    2    0    0 -0.96255060727E+02  0.95000648334E+02 -0.19102864890E+03  0.23405577242E+03  0.00000000000E+00 0. -1.
         11    1    1    2    0    0 -0.11660936638E+02  0.99651525028E+02 -0.83379927799E+02  0.13045541861E+03  0.00000000000E+00 0.  1.
<mgrwt>
<rscale>  0 0.25134353E+03</rscale>
<asrwt>0</asrwt>
<pdfrwt beam="2">  1        1 0.65338606E-01 0.25526602E+03</pdfrwt>
<pdfrwt beam="1">  1       -1 0.30744701E-01 0.25526602E+03</pdfrwt>
<totfact> 0.55193902E+02</totfact>
</mgrwt>
</event>
<event>
 6    1  0.5818426E-006  0.2916167E+03  0.7546771E-02  0.1091177E+00
          2   -1    0    0  501    0  0.00000000000E+00  0.00000000000E+00  0.10558361387E+04  0.10558361387E+04  0.00000000000E+00 0.  1.
         -2   -1    0    0    0  501 -0.00000000000E+00 -0.00000000000E+00 -0.77115035441E+02  0.77115035441E+02  0.00000000000E+00 0. -1.
          5    1    1    2  502    0 -0.28615120440E+02 -0.23753007276E+03  0.42886111276E+03  0.49110416881E+03  0.47000000000E+01 0. -1.
         -5    1    1    2    0  502 -0.48388230225E+02 -0.14435988115E+02  0.65213007426E+02  0.82611409108E+02  0.47000000000E+01 0. -1.
        -11    1    1    2    0    0  0.84381041806E+01  0.21467360801E+02  0.64105767571E+01  0.23940440186E+02  0.00000000000E+00 0. -1.
         11    1    1    2    0    0  0.68565246485E+02  0.23049870007E+03  0.47823640636E+03  0.53529515609E+03  0.00000000000E+00 0.  1.
<mgrwt>
<rscale>  0 0.28841967E+03</rscale>
<asrwt>0</asrwt>
<pdfrwt beam="1">  1        2 0.16243632E+00 0.29161675E+03</pdfrwt>
<pdfrwt beam="2">  1       -2 0.11863852E-01 0.29161675E+03</pdfrwt>
<totfact> 0.12232148E+03</totfact>
</mgrwt>
</event>
<event>
 6    1  0.5818426E-006  0.1349877E+03  0.7546771E-02  0.1232713E+00
          1   -1    0    0  501    0  0.00000000000E+00  0.00000000000E+00  0.36237171706E+03  0.36237171706E+03  0.00000000000E+00 0. -1.
         -1   -1    0    0    0  501 -0.00000000000E+00 -0.00000000000E+00 -0.39815046711E+02  0.39815046711E+02  0.00000000000E+00 0.  1.
          5    1    1    2  502    0 -0.12042288072E+02 -0.71749332857E+02  0.20609916446E+03  0.21861367537E+03  0.47000000000E+01 0.  1.
         -5    1    1    2    0  502  0.47198046998E+00  0.22126100600E+02 -0.53977757272E+01  0.23259687791E+02  0.47000000000E+01 0.  1.
        -11    1    1    2    0    0  0.29883550804E+02  0.68537474054E+02  0.71309113561E+02  0.10332183523E+03  0.00000000000E+00 0.  1.
         11    1    1    2    0    0 -0.18313243203E+02 -0.18914241797E+02  0.50546168054E+02  0.56991565379E+02  0.00000000000E+00 0. -1.
<mgrwt>
<rscale>  0 0.12651958E+03</rscale>
<asrwt>0</asrwt>
<pdfrwt beam="1">  1        1 0.55749493E-01 0.13498769E+03</pdfrwt>
<pdfrwt beam="2">  1       -1 0.61253921E-02 0.13498769E+03</pdfrwt>
<totfact> 0.84707765E+03</totfact>
</mgrwt>
</event>
<event>
 6    1  0.5818426E-006  0.1251345E+03  0.7546771E-02  0.1254602E+00
          1   -1    0    0  501    0  0.00000000000E+00  0.00000000000E+00  0.10323664926E+03  0.10323664926E+03  0.00000000000E+00 0.  1.
         -1   -1    0    0    0  501 -0.00000000000E+00 -0.00000000000E+00 -0.19789295411E+03  0.19789295411E+03  0.00000000000E+00 0. -1.
          5    1    1    2  502    0 -0.53502927090E+02  0.37027765311E+02 -0.87341716027E+02  0.10901506304E+03  0.47000000000E+01 0. -1.
         -5    1    1    2    0  502  0.49390317860E+02 -0.33007425405E+02 -0.66513114802E+02  0.89302732717E+02  0.47000000000E+01 0. -1.
        -11    1    1    2    0    0  0.30269090233E+02 -0.15293748582E+02  0.65392709803E+02  0.73663580313E+02  0.00000000000E+00 0.  1.
         11    1    1    2    0    0 -0.26156481003E+02  0.11273408676E+02 -0.61941838183E+01  0.29148227302E+02  0.00000000000E+00 0. -1.
<mgrwt>
<rscale>  0 0.11328644E+03</rscale>
<asrwt>0</asrwt>
<pdfrwt beam="1">  1        1 0.15882562E-01 0.12513448E+03</pdfrwt>
<pdfrwt beam="2">  1       -1 0.30445069E-01 0.12513448E+03</pdfrwt>
<totfact> 0.33002300E+03</totfact>
</mgrwt>
</event>
<event>
 6    1  0.5818426E-006  0.1277484E+03  0.7546771E-02  0.1245795E+00
         -2   -1    0    0    0  501 -0.00000000000E+00  0.00000000000E+00  0.42607223355E+03  0.42607223355E+03  0.00000000000E+00 0.  1.
          2   -1    0    0  501    0  0.00000000000E+00 -0.00000000000E+00 -0.30523696368E+02  0.30523696368E+02  0.00000000000E+00 0. -1.
          5    1    1    2  502    0 -0.30008497610E+02 -0.26490660881E+02  0.27655405721E+02  0.48879203229E+02  0.47000000000E+01 0.  1.
         -5    1    1    2    0  502  0.25264868536E+02  0.52414817304E+02  0.25045779574E+03  0.25717080725E+03  0.47000000000E+01 0.  1.
        -11    1    1    2    0    0 -0.29604905388E+02 -0.45727488655E+02  0.65006874964E+02  0.84813604064E+02  0.00000000000E+00 0. -1.
         11    1    1    2    0    0  0.34348534462E+02  0.19803332232E+02  0.52428460763E+02  0.65732315379E+02  0.00000000000E+00 0.  1.
<mgrwt>
<rscale>  0 0.11837924E+03</rscale>
<asrwt>0</asrwt>
<pdfrwt beam="2">  1        2 0.46959536E-02 0.12774841E+03</pdfrwt>
<pdfrwt beam="1">  1       -2 0.65549570E-01 0.12774841E+03</pdfrwt>
<totfact> 0.35593148E+03</totfact>
</mgrwt>
</event>
<event>
 6    1  0.5818426E-006  0.1457708E+03  0.7546771E-02  0.1215424E+00
         -2   -1    0    0    0  501 -0.00000000000E+00  0.00000000000E+00  0.24416799446E+03  0.24416799446E+03  0.00000000000E+00 0.  1.
          2   -1    0    0  501    0  0.00000000000E+00 -0.00000000000E+00 -0.71759555785E+02  0.71759555785E+02  0.00000000000E+00 0. -1.
          5    1    1    2  502    0  0.19457278218E+02 -0.33700926423E+01 -0.25455101584E+02  0.32557570497E+02  0.47000000000E+01 0.  1.
         -5    1    1    2    0  502 -0.98470389888E+01  0.77747193364E+02  0.11262599848E+03  0.13728909566E+03  0.47000000000E+01 0.  1.
        -11    1    1    2    0    0 -0.12101915225E+02 -0.61606895549E+02  0.10504768654E+03  0.12238007345E+03  0.00000000000E+00 0.  1.
         11    1    1    2    0    0  0.24916759963E+01 -0.12770205173E+02 -0.19810144760E+02  0.23700810637E+02  0.00000000000E+00 0. -1.
<mgrwt>
<rscale>  0 0.13845409E+03</rscale>
<asrwt>0</asrwt>
<pdfrwt beam="2">  1        2 0.11039932E-01 0.14577080E+03</pdfrwt>
<pdfrwt beam="1">  1       -2 0.37564306E-01 0.14577080E+03</pdfrwt>
<totfact> 0.36582112E+03</totfact>
</mgrwt>
</event>
<event>
 6    1  0.5818426E-006  0.1385347E+03  0.7546771E-02  0.1227743E+00
          1   -1    0    0  501    0  0.00000000000E+00  0.00000000000E+00  0.26843442701E+02  0.26843442701E+02  0.00000000000E+00 0. -1.
         -1   -1    0    0    0  501 -0.00000000000E+00 -0.00000000000E+00 -0.56656006940E+03  0.56656006940E+03  0.00000000000E+00 0.  1.
          5    1    1    2  502    0 -0.25304958032E+02  0.36150094565E+02 -0.19550812172E+03  0.20048113602E+03  0.47000000000E+01 0.  1.
         -5    1    1    2    0  502  0.80989945058E+02 -0.14586814565E+02 -0.13936305045E+03  0.16191447183E+03  0.47000000000E+01 0.  1.
        -11    1    1    2    0    0 -0.72889093287E+02 -0.38550548093E+02 -0.15308712829E+03  0.17388109020E+03  0.00000000000E+00 0.  1.
         11    1    1    2    0    0  0.17204106261E+02  0.16987268093E+02 -0.51758326241E+02  0.57126814061E+02  0.00000000000E+00 0. -1.
<mgrwt>
<rscale>  0 0.12980648E+03</rscale>
<asrwt>0</asrwt>
<pdfrwt beam="1">  1        1 0.41297607E-02 0.13853474E+03</pdfrwt>
<pdfrwt beam="2">  1       -1 0.87163082E-01 0.13853474E+03</pdfrwt>
<totfact> 0.28579772E+03</totfact>
</mgrwt>
</event>
<event>
 6    1  0.5818426E-006  0.1356848E+03  0.7546771E-02  0.1233151E+00
         -2   -1    0    0    0  501 -0.00000000000E+00  0.00000000000E+00  0.48410785586E+03  0.48410785586E+03  0.00000000000E+00 0. -1.
          2   -1    0    0  501    0  0.00000000000E+00 -0.00000000000E+00 -0.33435487748E+02  0.33435487748E+02  0.00000000000E+00 0.  1.
          5    1    1    2  502    0 -0.15565103735E+02 -0.42413828450E+02  0.80535355114E+02  0.92462093429E+02  0.47000000000E+01 0. -1.
         -5    1    1    2    0  502  0.66930800442E+02  0.54549879529E+02  0.26536383590E+03  0.27909761162E+03  0.47000000000E+01 0. -1.
        -11    1    1    2    0    0 -0.11664602528E+02 -0.86614825477E+01 -0.14319754482E+02  0.20399500006E+02  0.00000000000E+00 0.  1.
         11    1    1    2    0    0 -0.39701094180E+02 -0.34745685313E+01  0.11909293158E+03  0.12558413856E+03  0.00000000000E+00 0. -1.
<mgrwt>
<rscale>  0 0.12623533E+03</rscale>
<asrwt>0</asrwt>
<pdfrwt beam="2">  1        2 0.51439216E-02 0.13568480E+03</pdfrwt>
<pdfrwt beam="1">  1       -2 0.74478126E-01 0.13568480E+03</pdfrwt>
<totfact> 0.24201255E+03</totfact>
</mgrwt>
</event>
<event>
 6    1  0.5818426E-006  0.1298448E+03  0.7546771E-02  0.1240534E+00
         -3   -1    0    0    0  501 -0.00000000000E+00  0.00000000000E+00  0.96164753425E+02  0.96164753425E+02  0.00000000000E+00 0.  1.
          3   -1    0    0  501    0  0.00000000000E+00 -0.00000000000E+00 -0.14076233639E+03  0.14076233639E+03  0.00000000000E+00 0. -1.
          5    1    1    2  502    0 -0.43840354517E+02 -0.27853083541E+02 -0.38003535028E+02  0.64530067577E+02  0.47000000000E+01 0.  1.
         -5    1    1    2    0  502  0.19726573363E+02  0.53435501806E+02  0.31908220304E+02  0.65457735011E+02  0.47000000000E+01 0.  1.
        -11    1    1    2    0    0  0.47339726505E+02 -0.75102787635E+01 -0.55197954575E+02  0.73104501790E+02  0.00000000000E+00 0. -1.
         11    1    1    2    0    0 -0.23225945351E+02 -0.18072139501E+02  0.16695686333E+02  0.33834785439E+02  0.00000000000E+00 0.  1.
<mgrwt>
<rscale>  0 0.12156706E+03</rscale>
<asrwt>0</asrwt>
<pdfrwt beam="2">  1        3 0.21655744E-01 0.12984481E+03</pdfrwt>
<pdfrwt beam="1">  1       -3 0.14794577E-01 0.12984481E+03</pdfrwt>
<totfact> 0.16864870E+03</totfact>
</mgrwt>
</event>
<event>
 6    1  0.5818426E-006  0.1356628E+03  0.7546771E-02  0.1223251E+00
          2   -1    0    0  501    0  0.00000000000E+00  0.00000000000E+00  0.29779550928E+03  0.29779550928E+03  0.00000000000E+00 0. -1.
         -2   -1    0    0    0  501 -0.00000000000E+00 -0.00000000000E+00 -0.57499883715E+02  0.57499883715E+02  0.00000000000E+00 0.  1.
          5    1    1    2  502    0  0.39056878410E+02 -0.35143086086E+02  0.28582342511E+02  0.59995971150E+02  0.47000000000E+01 0.  1.
         -5    1    1    2    0  502 -0.50536888814E+01  0.75434659103E+02  0.11346205074E+03  0.13642453783E+03  0.47000000000E+01 0.  1.
        -11    1    1    2    0    0  0.16491724699E+02 -0.38428742731E+02  0.99920255929E+02  0.10831806311E+03  0.00000000000E+00 0. -1.
         11    1    1    2    0    0 -0.50494914228E+02 -0.18628302865E+01 -0.16690236150E+01  0.50556820898E+02  0.00000000000E+00 0.  1.
<mgrwt>
<rscale>  0 0.13287529E+03</rscale>
<asrwt>0</asrwt>
<pdfrwt beam="1">  1        2 0.45814693E-01 0.13566284E+03</pdfrwt>
<pdfrwt beam="2">  1       -2 0.88461361E-02 0.13566284E+03</pdfrwt>
<totfact> 0.84393225E+03</totfact>
</mgrwt>
</event>
<event>
 6    1  0.5818426E-006  0.1408532E+03  0.7546771E-02  0.1222903E+00
         -1   -1    0    0    0  501 -0.00000000000E+00  0.00000000000E+00  0.91962575897E+02  0.91962575897E+02  0.00000000000E+00 0.  1.
          1   -1    0    0  501    0  0.00000000000E+00 -0.00000000000E+00 -0.17771734806E+03  0.17771734806E+03  0.00000000000E+00 0. -1.
          5    1    1    2  502    0 -0.40888987548E+02 -0.83112946358E+02 -0.46254679364E+02  0.10364003338E+03  0.47000000000E+01 0. -1.
         -5    1    1    2    0  502  0.30578207451E+02  0.19000854300E+02  0.17206588865E+02  0.40177306224E+02  0.47000000000E+01 0. -1.
        -11    1    1    2    0    0  0.15444576575E+02  0.87122025384E+02 -0.40883638237E+02  0.97469247089E+02  0.00000000000E+00 0. -1.
         11    1    1    2    0    0 -0.51337964787E+01 -0.23009933326E+02 -0.15823043428E+02  0.28393337269E+02  0.00000000000E+00 0.  1.
<mgrwt>
<rscale>  0 0.13311661E+03</rscale>
<asrwt>0</asrwt>
<pdfrwt beam="2">  1        1 0.27341130E-01 0.14085324E+03</pdfrwt>
<pdfrwt beam="1">  1       -1 0.14148089E-01 0.14085324E+03</pdfrwt>
<totfact> 0.57491452E+03</totfact>
</mgrwt>
</event>
<event>
 6    1  0.5818426E-006  0.1548956E+03  0.7546771E-02  0.1202790E+00
          2   -1    0    0  501    0  0.00000000000E+00  0.00000000000E+00  0.47916920204E+02  0.47916920204E+02  0.00000000000E+00 0. -1.
         -2   -1    0    0    0  501 -0.00000000000E+00 -0.00000000000E+00 -0.54269552819E+03  0.54269552819E+03  0.00000000000E+00 0.  1.
          5    1    1    2  502    0 -0.28770159112E+02 -0.45557637710E+02 -0.41606729938E+02  0.68238042067E+02  0.47000000000E+01 0. -1.
         -5    1    1    2    0  502 -0.96821519457E+01 -0.37443980540E+02 -0.36167743174E+03  0.36376977661E+03  0.47000000000E+01 0. -1.
        -11    1    1    2    0    0  0.23256963639E+02 -0.65520881003E+01  0.64654038346E+01  0.25012350207E+02  0.00000000000E+00 0. -1.
         11    1    1    2    0    0  0.15195347419E+02  0.89553706351E+02 -0.97959850142E+02  0.13359227951E+03  0.00000000000E+00 0.  1.
<mgrwt>
<rscale>  0 0.14812959E+03</rscale>
<asrwt>0</asrwt>
<pdfrwt beam="1">  1        2 0.73718341E-02 0.15489558E+03</pdfrwt>
<pdfrwt beam="2">  1       -2 0.83491617E-01 0.15489558E+03</pdfrwt>
<totfact> 0.11953106E+03</totfact>
</mgrwt>
</event>
<event>
 6    1  0.5818426E-006  0.2954920E+03  0.7546771E-02  0.1087516E+00
          2   -1    0    0  501    0  0.00000000000E+00  0.00000000000E+00  0.10660258030E+03  0.10660258030E+03  0.00000000000E+00 0. -1.
         -2   -1    0    0    0  501 -0.00000000000E+00 -0.00000000000E+00 -0.20476874080E+03  0.20476874080E+03  0.00000000000E+00 0.  1.
          5    1    1    2  502    0  0.81859010534E+02 -0.71051085695E+02  0.17616160520E+02  0.10991621125E+03  0.47000000000E+01 0. -1.
         -5    1    1    2    0  502 -0.56377259957E+00  0.14848181156E+02 -0.50422804890E+02  0.52776278536E+02  0.47000000000E+01 0. -1.
        -11    1    1    2    0    0 -0.79746555256E+02  0.19014738167E+02 -0.10883225977E+02  0.82701378165E+02  0.00000000000E+00 0. -1.
         11    1    1    2    0    0 -0.15486826787E+01  0.37188166372E+02 -0.54476290146E+02  0.65977453151E+02  0.00000000000E+00 0.  1.
<mgrwt>
<rscale>  0 0.29549197E+03</rscale>
<asrwt>0</asrwt>
<pdfrwt beam="1">  1        2 0.16400397E-01 0.29549197E+03</pdfrwt>
<pdfrwt beam="2">  1       -2 0.31502883E-01 0.29549197E+03</pdfrwt>
<totfact> 0.32693419E+03</totfact>
</mgrwt>
</event>
<event>
 6    1  0.5818426E-006  0.1265114E+03  0.7546771E-02  0.1248199E+00
         -1   -1    0    0    0  501 -0.00000000000E+00  0.00000000000E+00  0.16144754076E+03  0.16144754076E+03  0.00000000000E+00 0.  1.
          1   -1    0    0  501    0  0.00000000000E+00 -0.00000000000E+00 -0.74319751204E+02  0.74319751204E+02  0.00000000000E+00 0. -1.
          5    1    1    2  502    0 -0.10651039504E+02  0.61441816422E+01 -0.42336126081E+02  0.44335461902E+02  0.47000000000E+01 0. -1.
         -5    1    1    2    0  502  0.11898166302E+02  0.13329424036E+02  0.88386206860E+02  0.90296464325E+02  0.47000000000E+01 0. -1.
        -11    1    1    2    0    0 -0.10663150547E+02 -0.54769798186E+02  0.26983340210E+02  0.61980111502E+02  0.00000000000E+00 0.  1.
         11    1    1    2    0    0  0.94160237489E+01  0.35296192508E+02  0.14094368564E+02  0.39155254233E+02  0.00000000000E+00 0. -1.
<mgrwt>
<rscale>  0 0.11695959E+03</rscale>
<asrwt>0</asrwt>
<pdfrwt beam="2">  1        1 0.11433808E-01 0.12651144E+03</pdfrwt>
<pdfrwt beam="1">  1       -1 0.24838083E-01 0.12651144E+03</pdfrwt>
<totfact> 0.70958899E+03</totfact>
</mgrwt>
</event>
<event>
 6    1  0.5818426E-006  0.2004733E+03  0.7546771E-02  0.1167106E+00
          4   -1    0    0  501    0  0.00000000000E+00  0.00000000000E+00  0.25353912162E+03  0.25353912162E+03  0.00000000000E+00 0. -1.
         -4   -1    0    0    0  501 -0.00000000000E+00 -0.00000000000E+00 -0.14627814343E+03  0.14627814343E+03  0.00000000000E+00 0.  1.
          5    1    1    2  502    0  0.14537639797E+02  0.92443670121E+02  0.30570738464E+02  0.98558790408E+02  0.47000000000E+01 0. -1.
         -5    1    1    2    0  502  0.72820797797E+02 -0.34370370954E+02 -0.67736387043E+02  0.10533042828E+03  0.47000000000E+01 0.  1.
        -11    1    1    2    0    0 -0.79686418383E+02 -0.87069485507E+01  0.10601485442E+03  0.13290931339E+03  0.00000000000E+00 0. -1.
         11    1    1    2    0    0 -0.76720192114E+01 -0.49366350617E+02  0.38411772345E+02  0.63018732983E+02  0.00000000000E+00 0.  1.
<mgrwt>
<rscale>  0 0.18072208E+03</rscale>
<asrwt>0</asrwt>
<pdfrwt beam="1">  1        4 0.39006019E-01 0.20047326E+03</pdfrwt>
<pdfrwt beam="2">  1       -4 0.22504330E-01 0.20047326E+03</pdfrwt>
<totfact> 0.20686688E+02</totfact>
</mgrwt>
</event>
<event>
 6    1  0.5818426E-006  0.3173706E+03  0.7546771E-02  0.1076866E+00
         -2   -1    0    0    0  501 -0.00000000000E+00  0.00000000000E+00  0.23348534123E+03  0.23348534123E+03  0.00000000000E+00 0.  1.
          2   -1    0    0  501    0  0.00000000000E+00 -0.00000000000E+00 -0.10784841977E+03  0.10784841977E+03  0.00000000000E+00 0. -1.
          5    1    1    2  502    0 -0.65728760942E+01  0.99820738967E+02  0.14431596076E+03  0.17566038016E+03  0.47000000000E+01 0. -1.
         -5    1    1    2    0  502  0.24850615181E+02 -0.10072707574E+02 -0.10400986444E+02  0.29142460977E+02  0.47000000000E+01 0. -1.
        -11    1    1    2    0    0  0.30874008686E+02 -0.78784859197E+02 -0.14280615976E+02  0.85814884744E+02  0.00000000000E+00 0. -1.
         11    1    1    2    0    0 -0.49151747773E+02 -0.10963172196E+02  0.60025631279E+01  0.50716035116E+02  0.00000000000E+00 0.  1.
<mgrwt>
<rscale>  0 0.31737060E+03</rscale>
<asrwt>0</asrwt>
<pdfrwt beam="2">  1        2 0.16592065E-01 0.31737060E+03</pdfrwt>
<pdfrwt beam="1">  1       -2 0.35920822E-01 0.31737060E+03</pdfrwt>
<totfact> 0.25320846E+03</totfact>
</mgrwt>
</event>
<event>
 6    1  0.5818426E-006  0.1447459E+03  0.7546771E-02  0.1218352E+00
         -4   -1    0    0    0  501 -0.00000000000E+00  0.00000000000E+00  0.90092617554E+03  0.90092617554E+03  0.00000000000E+00 0.  1.
          4   -1    0    0  501    0  0.00000000000E+00 -0.00000000000E+00 -0.32662984977E+02  0.32662984977E+02  0.00000000000E+00 0. -1.
          5    1    1    2  502    0 -0.65846335008E+02  0.14890328731E+02  0.16582614012E+03  0.17910293261E+03  0.47000000000E+01 0.  1.
         -5    1    1    2    0  502 -0.71280103217E+01 -0.14198734332E+02  0.60315075886E+03  0.60337827314E+03  0.47000000000E+01 0.  1.
        -11    1    1    2    0    0  0.13216779015E+02 -0.10704017251E+02  0.87807762308E+02  0.89439713519E+02  0.00000000000E+00 0.  1.
         11    1    1    2    0    0  0.59757566316E+02  0.10012422853E+02  0.11478529275E+02  0.61668241240E+02  0.00000000000E+00 0. -1.
<mgrwt>
<rscale>  0 0.13633162E+03</rscale>
<asrwt>0</asrwt>
<pdfrwt beam="2">  1        4 0.50250753E-02 0.14474587E+03</pdfrwt>
<pdfrwt beam="1">  1       -4 0.13860401E+00 0.14474587E+03</pdfrwt>
<totfact> 0.15607887E+02</totfact>
</mgrwt>
</event>
<event>
 6    1  0.5818426E-006  0.1276336E+03  0.7546771E-02  0.1244816E+00
         -1   -1    0    0    0  501 -0.00000000000E+00  0.00000000000E+00  0.67788112964E+02  0.67788112964E+02  0.00000000000E+00 0.  1.
          1   -1    0    0  501    0  0.00000000000E+00 -0.00000000000E+00 -0.27540254096E+03  0.27540254096E+03  0.00000000000E+00 0. -1.
          5    1    1    2  502    0  0.34746590117E+02 -0.42301588115E+02 -0.55776438728E+02  0.78293364974E+02  0.47000000000E+01 0.  1.
         -5    1    1    2    0  502 -0.23615326693E+02  0.19001748574E+02  0.39896149297E+02  0.50324376125E+02  0.47000000000E+01 0.  1.
        -11    1    1    2    0    0  0.15116825199E+02  0.41758641531E+02 -0.17027200494E+03  0.17596834435E+03  0.00000000000E+00 0. -1.
         11    1    1    2    0    0 -0.26248088624E+02 -0.18458801990E+02 -0.21462133619E+02  0.38604568470E+02  0.00000000000E+00 0.  1.
<mgrwt>
<rscale>  0 0.11896376E+03</rscale>
<asrwt>0</asrwt>
<pdfrwt beam="2">  1        1 0.42369621E-01 0.12763362E+03</pdfrwt>
<pdfrwt beam="1">  1       -1 0.10428941E-01 0.12763362E+03</pdfrwt>
<totfact> 0.53165522E+03</totfact>
</mgrwt>
</event>
<event>
 6    1  0.5818426E-006  0.1934353E+03  0.7546771E-02  0.1159782E+00
          1   -1    0    0  501    0  0.00000000000E+00  0.00000000000E+00  0.44569608938E+03  0.44569608938E+03  0.00000000000E+00 0. -1.
         -1   -1    0    0    0  501 -0.00000000000E+00 -0.00000000000E+00 -0.78396178612E+02  0.78396178612E+02  0.00000000000E+00 0.  1.
          5    1    1    2  502    0 -0.18512614451E+02 -0.69186543353E+01  0.96490037476E+02  0.98605283853E+02  0.47000000000E+01 0.  1.
         -5    1    1    2    0  502 -0.11292636737E+03  0.74114844715E+02  0.50271440131E+02  0.14420361419E+03  0.47000000000E+01 0.  1.
        -11    1    1    2    0    0  0.14425539933E+03 -0.64897727639E+02  0.18483840997E+03  0.24328290751E+03  0.00000000000E+00 0. -1.
         11    1    1    2    0    0 -0.12816417513E+02 -0.22984627406E+01  0.35700023189E+02  0.38000462425E+02  0.00000000000E+00 0.  1.
<mgrwt>
<rscale>  0 0.18854252E+03</rscale>
<asrwt>0</asrwt>
<pdfrwt beam="1">  1        1 0.68568628E-01 0.19343534E+03</pdfrwt>
<pdfrwt beam="2">  1       -1 0.12060951E-01 0.19343534E+03</pdfrwt>
<totfact> 0.23637767E+03</totfact>
</mgrwt>
</event>
<event>
 6    1  0.5818426E-006  0.3502956E+03  0.7546771E-02  0.1062494E+00
         -1   -1    0    0    0  501 -0.00000000000E+00  0.00000000000E+00  0.76490403270E+02  0.76490403270E+02  0.00000000000E+00 0.  1.
          1   -1    0    0  501    0  0.00000000000E+00 -0.00000000000E+00 -0.40105355950E+03  0.40105355950E+03  0.00000000000E+00 0. -1.
          5    1    1    2  502    0  0.33726945452E+02  0.11043579099E+03 -0.76150524842E+02  0.13840001161E+03  0.47000000000E+01 0.  1.
         -5    1    1    2    0  502 -0.52612171217E+02  0.81315347269E+01 -0.72180989342E+01  0.53929151387E+02  0.47000000000E+01 0.  1.
        -11    1    1    2    0    0  0.56975770982E+01 -0.59539598359E+02 -0.32787945449E+02  0.68209057494E+02  0.00000000000E+00 0.  1.
         11    1    1    2    0    0  0.13187648666E+02 -0.59027727355E+02 -0.20840658700E+03  0.21700574227E+03  0.00000000000E+00 0. -1.
<mgrwt>
<rscale>  0 0.35029558E+03</rscale>
<asrwt>0</asrwt>
<pdfrwt beam="2">  1        1 0.61700547E-01 0.35029558E+03</pdfrwt>
<pdfrwt beam="1">  1       -1 0.11767754E-01 0.35029558E+03</pdfrwt>
<totfact> 0.28609513E+03</totfact>
</mgrwt>
</event>
<event>
 6    1  0.5818426E-006  0.1597341E+03  0.7546771E-02  0.1196521E+00
         -1   -1    0    0    0  501 -0.00000000000E+00  0.00000000000E+00  0.49328493458E+02  0.49328493458E+02  0.00000000000E+00 0.  1.
          1   -1    0    0  501    0  0.00000000000E+00 -0.00000000000E+00 -0.63476058347E+03  0.63476058347E+03  0.00000000000E+00 0. -1.
          5    1    1    2  502    0  0.82006024292E+02 -0.70205155951E+02 -0.13940693080E+03  0.17638065171E+03  0.47000000000E+01 0. -1.
         -5    1    1    2    0  502 -0.14746077666E+02 -0.30623967016E+01  0.18234948018E+02  0.24112826656E+02  0.47000000000E+01 0. -1.
        -11    1    1    2    0    0 -0.82207006751E+02  0.83566090426E+02 -0.40319400145E+03  0.41988889748E+03  0.00000000000E+00 0. -1.
         11    1    1    2    0    0  0.14947060125E+02 -0.10298537773E+02 -0.61066105785E+02  0.63706701079E+02  0.00000000000E+00 0.  1.
<mgrwt>
<rscale>  0 0.15326233E+03</rscale>
<asrwt>0</asrwt>
<pdfrwt beam="2">  1        1 0.97655474E-01 0.15973411E+03</pdfrwt>
<pdfrwt beam="1">  1       -1 0.75889990E-02 0.15973411E+03</pdfrwt>
<totfact> 0.29802497E+03</totfact>
</mgrwt>
</event>
<event>
 6    1  0.5818426E-006  0.1283524E+03  0.7546771E-02  0.1244827E+00
         -2   -1    0    0    0  501 -0.00000000000E+00  0.00000000000E+00  0.27739333083E+02  0.27739333083E+02  0.00000000000E+00 0.  1.
          2   -1    0    0  501    0  0.00000000000E+00 -0.00000000000E+00 -0.49593820859E+03  0.49593820859E+03  0.00000000000E+00 0. -1.
          5    1    1    2  502    0  0.60582588721E+02  0.76322376397E+01 -0.17119378915E+03  0.18181832842E+03  0.47000000000E+01 0. -1.
         -5    1    1    2    0  502 -0.35068151453E+02 -0.21706539264E+02 -0.14605700732E+02  0.44004154202E+02  0.47000000000E+01 0. -1.
        -11    1    1    2    0    0  0.32231130271E+02 -0.59451707665E+01 -0.80772640549E+02  0.87168860697E+02  0.00000000000E+00 0.  1.
         11    1    1    2    0    0 -0.57745567539E+02  0.20019472391E+02 -0.20162674507E+03  0.21068619835E+03  0.00000000000E+00 0. -1.
<mgrwt>
<rscale>  0 0.11895737E+03</rscale>
<asrwt>0</asrwt>
<pdfrwt beam="2">  1        2 0.76298187E-01 0.12835242E+03</pdfrwt>
<pdfrwt beam="1">  1       -2 0.42675896E-02 0.12835242E+03</pdfrwt>
<totfact> 0.14738188E+04</totfact>
</mgrwt>
</event>
<event>
 6    1  0.5818426E-006  0.1319311E+03  0.7546771E-02  0.1237053E+00
          2   -1    0    0  501    0  0.00000000000E+00  0.00000000000E+00  0.27436942154E+03  0.27436942154E+03  0.00000000000E+00 0. -1.
         -2   -1    0    0    0  501 -0.00000000000E+00 -0.00000000000E+00 -0.59163187237E+02  0.59163187237E+02  0.00000000000E+00 0.  1.
          5    1    1    2  502    0 -0.12684537753E+02 -0.14520757051E+02  0.81854936866E+02  0.84226305705E+02  0.47000000000E+01 0. -1.
         -5    1    1    2    0  502 -0.10967871283E+02  0.49484665364E+02 -0.28206452618E+02  0.58195534846E+02  0.47000000000E+01 0. -1.
        -11    1    1    2    0    0  0.15534593920E+02  0.66090340808E+01 -0.62786335139E+01  0.18011778884E+02  0.00000000000E+00 0.  1.
         11    1    1    2    0    0  0.81178151166E+01 -0.41572942394E+02  0.16783638357E+03  0.17309898934E+03  0.00000000000E+00 0. -1.
<mgrwt>
<rscale>  0 0.12373897E+03</rscale>
<asrwt>0</asrwt>
<pdfrwt beam="1">  1        2 0.42210680E-01 0.13193112E+03</pdfrwt>
<pdfrwt beam="2">  1       -2 0.91020289E-02 0.13193112E+03</pdfrwt>
<totfact> 0.87873844E+03</totfact>
</mgrwt>
</event>
<event>
 6    1  0.5818426E-006  0.2327112E+03  0.7546771E-02  0.1127756E+00
         -2   -1    0    0    0  501 -0.00000000000E+00  0.00000000000E+00  0.26008616105E+03  0.26008616105E+03  0.00000000000E+00 0.  1.
          2   -1    0    0  501    0  0.00000000000E+00 -0.00000000000E+00 -0.23068356536E+03  0.23068356536E+03  0.00000000000E+00 0. -1.
          5    1    1    2  502    0  0.13192314246E+03  0.76500160340E+02  0.17898694120E+02  0.15361784825E+03  0.47000000000E+01 0. -1.
         -5    1    1    2    0  502  0.36929227777E+02  0.23594439217E+02  0.95654216017E+02  0.10531991487E+03  0.47000000000E+01 0. -1.
        -11    1    1    2    0    0 -0.12611986671E+03 -0.77574430319E+02 -0.10258268568E+03  0.18013112007E+03  0.00000000000E+00 0. -1.
         11    1    1    2    0    0 -0.42732503526E+02 -0.22520169238E+02  0.18432371228E+02  0.51700843216E+02  0.00000000000E+00 0.  1.
<mgrwt>
<rscale>  0 0.22842131E+03</rscale>
<asrwt>0</asrwt>
<pdfrwt beam="2">  1        2 0.35489779E-01 0.23271120E+03</pdfrwt>
<pdfrwt beam="1">  1       -2 0.40013256E-01 0.23271120E+03</pdfrwt>
<totfact> 0.86705540E+02</totfact>
</mgrwt>
</event>
<event>
 6    1  0.5818426E-006  0.1955991E+03  0.7546771E-02  0.1162810E+00
         -1   -1    0    0    0  501 -0.00000000000E+00  0.00000000000E+00  0.98260462005E+02  0.98260462005E+02  0.00000000000E+00 0.  1.
          1   -1    0    0  501    0  0.00000000000E+00 -0.00000000000E+00 -0.37721266599E+03  0.37721266599E+03  0.00000000000E+00 0. -1.
          5    1    1    2  502    0  0.72513057536E+02 -0.15464383432E+02  0.12027496270E+02  0.75259825503E+02  0.47000000000E+01 0. -1.
         -5    1    1    2    0  502  0.14849691891E+02 -0.10702254956E+03 -0.69700510568E+02  0.12866464408E+03  0.47000000000E+01 0. -1.
        -11    1    1    2    0    0 -0.40111972656E+02  0.23079399325E+02 -0.51756935345E+02  0.69429168077E+02  0.00000000000E+00 0.  1.
         11    1    1    2    0    0 -0.47250776772E+02  0.99407533666E+02 -0.16952225435E+03  0.20211949034E+03  0.00000000000E+00 0. -1.
<mgrwt>
<rscale>  0 0.18525720E+03</rscale>
<asrwt>0</asrwt>
<pdfrwt beam="2">  1        1 0.58032717E-01 0.19559911E+03</pdfrwt>
<pdfrwt beam="1">  1       -1 0.15116994E-01 0.19559911E+03</pdfrwt>
<totfact> 0.20538281E+03</totfact>
</mgrwt>
</event>
<event>
 6    1  0.5818426E-006  0.1516210E+03  0.7546771E-02  0.1207054E+00
          1   -1    0    0  501    0  0.00000000000E+00  0.00000000000E+00  0.32986411395E+03  0.32986411395E+03  0.00000000000E+00 0. -1.
         -1   -1    0    0    0  501 -0.00000000000E+00 -0.00000000000E+00 -0.58705036415E+02  0.58705036415E+02  0.00000000000E+00 0.  1.
          5    1    1    2  502    0  0.32287722300E+02 -0.99244947029E+02  0.51673829313E+02  0.11655183893E+03  0.47000000000E+01 0.  1.
         -5    1    1    2    0  502 -0.17938951299E+02  0.14641973996E+02  0.82818481806E+02  0.86123076494E+02  0.47000000000E+01 0.  1.
        -11    1    1    2    0    0 -0.18691064866E+02  0.94936077298E+02  0.14327180591E+03  0.17288442685E+03  0.00000000000E+00 0. -1.
         11    1    1    2    0    0  0.43422938653E+01 -0.10333104265E+02 -0.66050394963E+01  0.13009808089E+02  0.00000000000E+00 0.  1.
<mgrwt>
<rscale>  0 0.14476782E+03</rscale>
<asrwt>0</asrwt>
<pdfrwt beam="1">  1        1 0.50748324E-01 0.15162104E+03</pdfrwt>
<pdfrwt beam="2">  1       -1 0.90315443E-02 0.15162104E+03</pdfrwt>
<totfact> 0.53472383E+03</totfact>
</mgrwt>
</event>
<event>
 6    1  0.5818426E-006  0.1728139E+03  0.7546771E-02  0.1182473E+00
          2   -1    0    0  501    0  0.00000000000E+00  0.00000000000E+00  0.47922274804E+03  0.47922274804E+03  0.00000000000E+00 0. -1.
         -2   -1    0    0    0  501 -0.00000000000E+00 -0.00000000000E+00 -0.75381994459E+02  0.75381994459E+02  0.00000000000E+00 0.  1.
          5    1    1    2  502    0  0.78511400873E+02 -0.57382770814E+02  0.51546348495E+02  0.11016323568E+03  0.47000000000E+01 0. -1.
         -5    1    1    2    0  502 -0.45016863486E+02 -0.57153361293E+02  0.11577245785E+02  0.73818340033E+02  0.47000000000E+01 0. -1.
        -11    1    1    2    0    0 -0.19370506737E+02 -0.21942468847E+01  0.15826611572E+02  0.25110015621E+02  0.00000000000E+00 0. -1.
         11    1    1    2    0    0 -0.14124030650E+02  0.11673037899E+03  0.32489054773E+03  0.34551315116E+03  0.00000000000E+00 0.  1.
<mgrwt>
<rscale>  0 0.16563931E+03</rscale>
<asrwt>0</asrwt>
<pdfrwt beam="1">  1        2 0.73726575E-01 0.17281387E+03</pdfrwt>
<pdfrwt beam="2">  1       -2 0.11597230E-01 0.17281387E+03</pdfrwt>
<totfact> 0.33471212E+03</totfact>
</mgrwt>
</event>
<event>
 6    1  0.5818426E-006  0.1338496E+03  0.7546771E-02  0.1233680E+00
         -2   -1    0    0    0  501 -0.00000000000E+00  0.00000000000E+00  0.17397136018E+02  0.17397136018E+02  0.00000000000E+00 0.  1.
          2   -1    0    0  501    0  0.00000000000E+00 -0.00000000000E+00 -0.85726283393E+03  0.85726283393E+03  0.00000000000E+00 0. -1.
          5    1    1    2  502    0 -0.45025686615E+02 -0.32824762765E+01 -0.25740085029E+03  0.26137210034E+03  0.47000000000E+01 0. -1.
         -5    1    1    2    0  502  0.54629156322E+02 -0.43592099463E+02 -0.11858698163E+03  0.13773009137E+03  0.47000000000E+01 0. -1.
        -11    1    1    2    0    0 -0.31224162744E+02  0.65594598903E+02 -0.38154007240E+03  0.38839467889E+03  0.00000000000E+00 0. -1.
         11    1    1    2    0    0  0.21620693037E+02 -0.18720023163E+02 -0.82337793598E+02  0.87163099355E+02  0.00000000000E+00 0.  1.
<mgrwt>
<rscale>  0 0.12589286E+03</rscale>
<asrwt>0</asrwt>
<pdfrwt beam="2">  1        2 0.13188659E+00 0.13384958E+03</pdfrwt>
<pdfrwt beam="1">  1       -2 0.26764824E-02 0.13384958E+03</pdfrwt>
<totfact> 0.15516732E+04</totfact>
</mgrwt>
</event>
<event>
 6    1  0.5818426E-006  0.1372998E+03  0.7546771E-02  0.1227719E+00
         -2   -1    0    0    0  501 -0.00000000000E+00  0.00000000000E+00  0.17670213408E+03  0.17670213408E+03  0.00000000000E+00 0.  1.
          2   -1    0    0  501    0  0.00000000000E+00 -0.00000000000E+00 -0.95099198354E+02  0.95099198354E+02  0.00000000000E+00 0. -1.
          5    1    1    2  502    0 -0.68356588597E+02  0.18477925881E+02  0.19130633925E+02  0.73499170770E+02  0.47000000000E+01 0. -1.
         -5    1    1    2    0  502  0.46737874092E+02  0.34047058550E+02  0.66792324830E+02  0.88469970763E+02  0.47000000000E+01 0. -1.
        -11    1    1    2    0    0 -0.36889443514E+02 -0.26102068604E+02 -0.61590086499E+01  0.45607920537E+02  0.00000000000E+00 0. -1.
         11    1    1    2    0    0  0.58508158019E+02 -0.26422915828E+02  0.18389856216E+01  0.64224270363E+02  0.00000000000E+00 0.  1.
<mgrwt>
<rscale>  0 0.12982278E+03</rscale>
<asrwt>0</asrwt>
<pdfrwt beam="2">  1        2 0.14630646E-01 0.13729985E+03</pdfrwt>
<pdfrwt beam="1">  1       -2 0.27184944E-01 0.13729985E+03</pdfrwt>
<totfact> 0.46885419E+03</totfact>
</mgrwt>
</event>
<event>
 6    1  0.5818426E-006  0.1903861E+03  0.7546771E-02  0.1163411E+00
          1   -1    0    0  501    0  0.00000000000E+00  0.00000000000E+00  0.13518130616E+03  0.13518130616E+03  0.00000000000E+00 0. -1.
         -1   -1    0    0    0  501 -0.00000000000E+00 -0.00000000000E+00 -0.24343570562E+03  0.24343570562E+03  0.00000000000E+00 0.  1.
          5    1    1    2  502    0 -0.88338633371E+02 -0.66618166960E+02 -0.18066795523E+02  0.11220603110E+03  0.47000000000E+01 0. -1.
         -5    1    1    2    0  502  0.29757206871E+02 -0.62011942477E+02 -0.67637983966E+02  0.96581360756E+02  0.47000000000E+01 0.  1.
        -11    1    1    2    0    0  0.65600765549E+02  0.13813303493E+03 -0.30039156459E+02  0.15584141523E+03  0.00000000000E+00 0.  1.
         11    1    1    2    0    0 -0.70193390487E+01 -0.95029254943E+01  0.74895364852E+01  0.13988204688E+02  0.00000000000E+00 0. -1.
<mgrwt>
<rscale>  0 0.18461380E+03</rscale>
<asrwt>0</asrwt>
<pdfrwt beam="1">  1        1 0.20797124E-01 0.19038610E+03</pdfrwt>
<pdfrwt beam="2">  1       -1 0.37451647E-01 0.19038610E+03</pdfrwt>
<totfact> 0.16662012E+03</totfact>
</mgrwt>
</event>
<event>
 6    1  0.5818426E-006  0.1456352E+03  0.7546771E-02  0.1215733E+00
          1   -1    0    0  501    0  0.00000000000E+00  0.00000000000E+00  0.20567203265E+03  0.20567203265E+03  0.00000000000E+00 0. -1.
         -1   -1    0    0    0  501 -0.00000000000E+00 -0.00000000000E+00 -0.16097581898E+03  0.16097581898E+03  0.00000000000E+00 0.  1.
          5    1    1    2  502    0  0.21564533077E+02  0.10807669189E+02  0.15472811216E+02  0.29040190892E+02  0.47000000000E+01 0.  1.
         -5    1    1    2    0  502 -0.33779332995E+02 -0.84529829267E+02 -0.11781235088E+03  0.14895695819E+03  0.47000000000E+01 0.  1.
        -11    1    1    2    0    0 -0.29037968971E+02 -0.16156380517E+01  0.58310811243E+02  0.65161066873E+02  0.00000000000E+00 0. -1.
         11    1    1    2    0    0  0.41252768890E+02  0.75337798129E+02  0.88724942097E+02  0.12348963567E+03  0.00000000000E+00 0.  1.
<mgrwt>
<rscale>  0 0.13822850E+03</rscale>
<asrwt>0</asrwt>
<pdfrwt beam="1">  1        1 0.31641851E-01 0.14563517E+03</pdfrwt>
<pdfrwt beam="2">  1       -1 0.24765511E-01 0.14563517E+03</pdfrwt>
<totfact> 0.19600723E+03</totfact>
</mgrwt>
</event>
<event>
 6    1  0.5818426E-006  0.1478978E+03  0.7546771E-02  0.1207553E+00
          2   -1    0    0  501    0  0.00000000000E+00  0.00000000000E+00  0.31507421952E+03  0.31507421952E+03  0.00000000000E+00 0. -1.
         -2   -1    0    0    0  501 -0.00000000000E+00 -0.00000000000E+00 -0.68731271067E+02  0.68731271067E+02  0.00000000000E+00 0.  1.
          5    1    1    2  502    0  0.26004460623E+02  0.57598411093E+02  0.93603710887E+02  0.11303784156E+03  0.47000000000E+01 0. -1.
         -5    1    1    2    0  502  0.48102231156E+02  0.62250268316E+01 -0.19376584559E+02  0.52441563958E+02  0.47000000000E+01 0.  1.
        -11    1    1    2    0    0  0.16466209848E+02  0.41592440573E+01  0.76155031473E+01  0.18612664132E+02  0.00000000000E+00 0.  1.
         11    1    1    2    0    0 -0.90572901627E+02 -0.67982681982E+02  0.16450031898E+03  0.19971342094E+03  0.00000000000E+00 0. -1.
<mgrwt>
<rscale>  0 0.14438039E+03</rscale>
<asrwt>0</asrwt>
<pdfrwt beam="1">  1        2 0.48472956E-01 0.14789783E+03</pdfrwt>
<pdfrwt beam="2">  1       -2 0.10574042E-01 0.14789783E+03</pdfrwt>
<totfact> 0.60420328E+03</totfact>
</mgrwt>
</event>
<event>
 6    1  0.5818426E-006  0.3919094E+03  0.7546771E-02  0.1046618E+00
          2   -1    0    0  501    0  0.00000000000E+00  0.00000000000E+00  0.18486588358E+03  0.18486588358E+03  0.00000000000E+00 0. -1.
         -2   -1    0    0    0  501 -0.00000000000E+00 -0.00000000000E+00 -0.20770861512E+03  0.20770861512E+03  0.00000000000E+00 0.  1.
          5    1    1    2  502    0 -0.78970777136E+01  0.12525667796E+02  0.16104797305E+02  0.22376565563E+02  0.47000000000E+01 0.  1.
         -5    1    1    2    0  502  0.14534876569E+03 -0.54064072309E+02 -0.10793383338E+03  0.18899997352E+03  0.47000000000E+01 0.  1.
        -11    1    1    2    0    0 -0.22238125496E+02  0.23525452295E+02 -0.16759391842E+02  0.36453509381E+02  0.00000000000E+00 0.  1.
         11    1    1    2    0    0 -0.11521356248E+03  0.18012952218E+02  0.85745696379E+02  0.14474445024E+03  0.00000000000E+00 0. -1.
<mgrwt>
<rscale>  0 0.39190936E+03</rscale>
<asrwt>0</asrwt>
<pdfrwt beam="1">  1        2 0.28440905E-01 0.39190936E+03</pdfrwt>
<pdfrwt beam="2">  1       -2 0.31955171E-01 0.39190936E+03</pdfrwt>
<totfact> 0.17056592E+03</totfact>
</mgrwt>
</event>
<event>
 6    1  0.5818426E-006  0.1632724E+03  0.7546771E-02  0.1192358E+00
         -1   -1    0    0    0  501 -0.00000000000E+00  0.00000000000E+00  0.59170792352E+03  0.59170792352E+03  0.00000000000E+00 0.  1.
          1   -1    0    0  501    0  0.00000000000E+00 -0.00000000000E+00 -0.46475333143E+02  0.46475333143E+02  0.00000000000E+00 0. -1.
          5    1    1    2  502    0 -0.98214913553E+02 -0.12169833563E+02  0.16372824719E+03  0.19137215843E+03  0.47000000000E+01 0. -1.
         -5    1    1    2    0  502 -0.36237440983E+01  0.37907656321E+02  0.25837157859E+03  0.26120506227E+03  0.47000000000E+01 0. -1.
        -11    1    1    2    0    0  0.95250173043E+02  0.14652412765E+02  0.98688687285E+02  0.13793747012E+03  0.00000000000E+00 0.  1.
         11    1    1    2    0    0  0.65884846084E+01 -0.40390235523E+02  0.24444077314E+02  0.47668565856E+02  0.00000000000E+00 0. -1.
<mgrwt>
<rscale>  0 0.15679972E+03</rscale>
<asrwt>0</asrwt>
<pdfrwt beam="2">  1        1 0.71500517E-02 0.16327240E+03</pdfrwt>
<pdfrwt beam="1">  1       -1 0.91031983E-01 0.16327240E+03</pdfrwt>
<totfact> 0.12399348E+03</totfact>
</mgrwt>
</event>
<event>
 6    1  0.5818426E-006  0.1460889E+03  0.7546771E-02  0.1215445E+00
         -2   -1    0    0    0  501 -0.00000000000E+00  0.00000000000E+00  0.99395788043E+02  0.99395788043E+02  0.00000000000E+00 0.  1.
          2   -1    0    0  501    0  0.00000000000E+00 -0.00000000000E+00 -0.17519141169E+03  0.17519141169E+03  0.00000000000E+00 0. -1.
          5    1    1    2  502    0  0.70483115066E+01  0.29542824159E+02  0.24944896822E+02  0.39582761802E+02  0.47000000000E+01 0.  1.
         -5    1    1    2    0  502  0.58021993431E+02 -0.68186439107E+02 -0.68600224718E+02  0.11288942834E+03  0.47000000000E+01 0.  1.
        -11    1    1    2    0    0 -0.62363702067E+00  0.29541992758E+02  0.22495305799E+02  0.37137003678E+02  0.00000000000E+00 0.  1.
         11    1    1    2    0    0 -0.64446667917E+02  0.91016221902E+01 -0.54635601551E+02  0.84978005913E+02  0.00000000000E+00 0. -1.
<mgrwt>
<rscale>  0 0.13843889E+03</rscale>
<asrwt>0</asrwt>
<pdfrwt beam="2">  1        2 0.26952525E-01 0.14608895E+03</pdfrwt>
<pdfrwt beam="1">  1       -2 0.15291660E-01 0.14608895E+03</pdfrwt>
<totfact> 0.62618798E+03</totfact>
</mgrwt>
</event>
<event>
 6    1  0.5818426E-006  0.1448924E+03  0.7546771E-02  0.1216010E+00
         -2   -1    0    0    0  501 -0.00000000000E+00  0.00000000000E+00  0.35597993642E+03  0.35597993642E+03  0.00000000000E+00 0.  1.
          2   -1    0    0  501    0  0.00000000000E+00 -0.00000000000E+00 -0.56945215827E+02  0.56945215827E+02  0.00000000000E+00 0. -1.
          5    1    1    2  502    0 -0.65840123085E+02 -0.56048203476E+02  0.18529174889E+03  0.20452737012E+03  0.47000000000E+01 0.  1.
         -5    1    1    2    0  502 -0.72679081070E+01  0.51506748815E+02  0.53372377098E+02  0.74675754424E+02  0.47000000000E+01 0.  1.
        -11    1    1    2    0    0 -0.20684952747E+02  0.50826385535E+01 -0.15101141348E+01  0.21353709970E+02  0.00000000000E+00 0.  1.
         11    1    1    2    0    0  0.93792983938E+02 -0.54118389245E+00  0.61880708738E+02  0.11236831773E+03  0.00000000000E+00 0. -1.
<mgrwt>
<rscale>  0 0.13802619E+03</rscale>
<asrwt>0</asrwt>
<pdfrwt beam="2">  1        2 0.87608027E-02 0.14489244E+03</pdfrwt>
<pdfrwt beam="1">  1       -2 0.54766143E-01 0.14489244E+03</pdfrwt>
<totfact> 0.23369384E+03</totfact>
</mgrwt>
</event>
<event>
 6    1  0.5818426E-006  0.1587771E+03  0.7546771E-02  0.1198091E+00
          2   -1    0    0  501    0  0.00000000000E+00  0.00000000000E+00  0.14777306128E+04  0.14777306128E+04  0.00000000000E+00 0. -1.
         -2   -1    0    0    0  501 -0.00000000000E+00 -0.00000000000E+00 -0.14431360027E+02  0.14431360027E+02  0.00000000000E+00 0.  1.
          5    1    1    2  502    0 -0.38925444497E+02 -0.73937496589E+02  0.36196377015E+03  0.37151285917E+03  0.47000000000E+01 0. -1.
         -5    1    1    2    0  502  0.69912134653E+02 -0.18938203287E+02  0.45226344021E+03  0.45805094855E+03  0.47000000000E+01 0. -1.
        -11    1    1    2    0    0 -0.46496133106E+02  0.94091310587E+01  0.27002912383E+03  0.27416445768E+03  0.00000000000E+00 0. -1.
         11    1    1    2    0    0  0.15509442950E+02  0.83466568817E+02  0.37904291857E+03  0.38843370741E+03  0.00000000000E+00 0.  1.
<mgrwt>
<rscale>  0 0.15195521E+03</rscale>
<asrwt>0</asrwt>
<pdfrwt beam="1">  1        2 0.22734305E+00 0.15877708E+03</pdfrwt>
<pdfrwt beam="2">  1       -2 0.22202104E-02 0.15877708E+03</pdfrwt>
<totfact> 0.91266710E+03</totfact>
</mgrwt>
</event>
<event>
 6    1  0.5818426E-006  0.1778443E+03  0.7546771E-02  0.1175232E+00
          1   -1    0    0  501    0  0.00000000000E+00  0.00000000000E+00  0.91188761561E+03  0.91188761561E+03  0.00000000000E+00 0. -1.
         -1   -1    0    0    0  501 -0.00000000000E+00 -0.00000000000E+00 -0.31182835440E+02  0.31182835440E+02  0.00000000000E+00 0.  1.
          5    1    1    2  502    0  0.31516906622E+02 -0.63042575869E+02  0.23727004753E+03  0.24756180487E+03  0.47000000000E+01 0.  1.
         -5    1    1    2    0  502  0.92533353536E+02  0.38199234702E+02  0.17981804663E+03  0.20585971666E+03  0.47000000000E+01 0.  1.
        -11    1    1    2    0    0 -0.59566419927E+02  0.22205944416E+02  0.88181823003E+02  0.10870738824E+03  0.00000000000E+00 0.  1.
         11    1    1    2    0    0 -0.64483840231E+02  0.26373967516E+01  0.37543486300E+03  0.38094154127E+03  0.00000000000E+00 0. -1.
<mgrwt>
<rscale>  0 0.17253240E+03</rscale>
<asrwt>0</asrwt>
<pdfrwt beam="1">  1        1 0.14029038E+00 0.17784431E+03</pdfrwt>
<pdfrwt beam="2">  1       -1 0.47973600E-02 0.17784431E+03</pdfrwt>
<totfact> 0.34603469E+03</totfact>
</mgrwt>
</event>
<event>
 6    1  0.5818426E-006  0.1293927E+03  0.7546771E-02  0.1243326E+00
          2   -1    0    0  501    0  0.00000000000E+00  0.00000000000E+00  0.15932879970E+03  0.15932879970E+03  0.00000000000E+00 0. -1.
         -2   -1    0    0    0  501 -0.00000000000E+00 -0.00000000000E+00 -0.81799509654E+02  0.81799509654E+02  0.00000000000E+00 0.  1.
          5    1    1    2  502    0 -0.20245738067E+02 -0.63140961433E+01 -0.41447463396E+02  0.46794657195E+02  0.47000000000E+01 0.  1.
         -5    1    1    2    0  502  0.49394162630E+02  0.22896217508E+02  0.64669146290E+02  0.84665273637E+02  0.47000000000E+01 0.  1.
        -11    1    1    2    0    0  0.10387295163E+02  0.21742903796E+02 -0.90386393030E+01  0.25736098515E+02  0.00000000000E+00 0.  1.
         11    1    1    2    0    0 -0.39535719725E+02 -0.38325025161E+02  0.63346246459E+02  0.83932280013E+02  0.00000000000E+00 0. -1.
<mgrwt>
<rscale>  0 0.11986161E+03</rscale>
<asrwt>0</asrwt>
<pdfrwt beam="1">  1        2 0.24512123E-01 0.12939268E+03</pdfrwt>
<pdfrwt beam="2">  1       -2 0.12584540E-01 0.12939268E+03</pdfrwt>
<totfact> 0.94501413E+03</totfact>
</mgrwt>
</event>
<event>
 6    1  0.5818426E-006  0.3032524E+03  0.7546771E-02  0.1083626E+00
          1   -1    0    0  501    0  0.00000000000E+00  0.00000000000E+00  0.30860693573E+02  0.30860693573E+02  0.00000000000E+00 0. -1.
         -1   -1    0    0    0  501 -0.00000000000E+00 -0.00000000000E+00 -0.74497702236E+03  0.74497702236E+03  0.00000000000E+00 0.  1.
          5    1    1    2  502    0 -0.11546989639E+03  0.20408725657E+02 -0.38015335406E+03  0.39785484244E+03  0.47000000000E+01 0.  1.
         -5    1    1    2    0  502  0.10109387648E+02 -0.12832907197E+02 -0.10970490931E+01  0.17034574913E+02  0.47000000000E+01 0.  1.
        -11    1    1    2    0    0  0.56463241315E+02  0.23598762139E+02 -0.26361014409E+03  0.27062022700E+03  0.00000000000E+00 0.  1.
         11    1    1    2    0    0  0.48897267424E+02 -0.31174580598E+02 -0.69255781544E+02  0.90328071574E+02  0.00000000000E+00 0. -1.
<mgrwt>
<rscale>  0 0.30325242E+03</rscale>
<asrwt>0</asrwt>
<pdfrwt beam="1">  1        1 0.47477992E-02 0.30325242E+03</pdfrwt>
<pdfrwt beam="2">  1       -1 0.11461184E+00 0.30325242E+03</pdfrwt>
<totfact> 0.13212416E+03</totfact>
</mgrwt>
</event>
<event>
 6    1  0.5818426E-006  0.5076342E+03  0.7546771E-02  0.1011805E+00
         -2   -1    0    0    0  501 -0.00000000000E+00  0.00000000000E+00  0.12580645083E+03  0.12580645083E+03  0.00000000000E+00 0.  1.
          2   -1    0    0  501    0  0.00000000000E+00 -0.00000000000E+00 -0.51208122998E+03  0.51208122998E+03  0.00000000000E+00 0. -1.
          5    1    1    2  502    0 -0.90061091595E+01  0.26977356441E+02  0.54063296483E+02  0.61268407759E+02  0.47000000000E+01 0. -1.
         -5    1    1    2    0  502 -0.20330451497E+02  0.13336326614E+03 -0.50653266531E+02  0.14417673676E+03  0.47000000000E+01 0. -1.
        -11    1    1    2    0    0  0.49431560313E+02 -0.55261431941E+02 -0.10688747702E+03  0.13008550172E+03  0.00000000000E+00 0.  1.
         11    1    1    2    0    0 -0.20094999657E+02 -0.10507919064E+03 -0.28279733208E+03  0.30235703456E+03  0.00000000000E+00 0. -1.
<mgrwt>
<rscale>  0 0.50763421E+03</rscale>
<asrwt>0</asrwt>
<pdfrwt beam="2">  1        2 0.78781728E-01 0.50763421E+03</pdfrwt>
<pdfrwt beam="1">  1       -2 0.19354838E-01 0.50763421E+03</pdfrwt>
<totfact> 0.13535280E+03</totfact>
</mgrwt>
</event>
<event>
 6    1  0.5818426E-006  0.1789178E+03  0.7546771E-02  0.1174179E+00
          1   -1    0    0  501    0  0.00000000000E+00  0.00000000000E+00  0.39581184828E+03  0.39581184828E+03  0.00000000000E+00 0. -1.
         -1   -1    0    0    0  501 -0.00000000000E+00 -0.00000000000E+00 -0.84943242966E+02  0.84943242966E+02  0.00000000000E+00 0.  1.
          5    1    1    2  502    0 -0.16193894321E+02  0.53629226420E+02  0.95828495668E+02  0.11110142538E+03  0.47000000000E+01 0. -1.
         -5    1    1    2    0  502  0.16388727554E+02  0.74380529462E+02 -0.26498446095E+02  0.80779398359E+02  0.47000000000E+01 0. -1.
        -11    1    1    2    0    0  0.44461176103E+02 -0.74950940333E+02  0.11167566047E+03  0.14165413082E+03  0.00000000000E+00 0.  1.
         11    1    1    2    0    0 -0.44656009336E+02 -0.53058815549E+02  0.12986289527E+03  0.14722013669E+03  0.00000000000E+00 0. -1.
<mgrwt>
<rscale>  0 0.17356638E+03</rscale>
<asrwt>0</asrwt>
<pdfrwt beam="1">  1        1 0.60894129E-01 0.17891784E+03</pdfrwt>
<pdfrwt beam="2">  1       -1 0.13068191E-01 0.17891784E+03</pdfrwt>
<totfact> 0.24228827E+03</totfact>
</mgrwt>
</event>
<event>
 6    1  0.5818426E-006  0.2254044E+03  0.7546771E-02  0.1133069E+00
          2   -1    0    0  501    0  0.00000000000E+00  0.00000000000E+00  0.40113839738E+03  0.40113839738E+03  0.00000000000E+00 0. -1.
         -2   -1    0    0    0  501 -0.00000000000E+00 -0.00000000000E+00 -0.13686064114E+03  0.13686064114E+03  0.00000000000E+00 0.  1.
          5    1    1    2  502    0 -0.53582440836E+02 -0.13569467404E+03 -0.15215009171E+02  0.14675731339E+03  0.47000000000E+01 0. -1.
         -5    1    1    2    0  502  0.37892965866E+02 -0.51217981056E+02  0.50410040455E+02  0.81378256459E+02  0.47000000000E+01 0. -1.
        -11    1    1    2    0    0 -0.16192437850E+02  0.17103548689E+03  0.20161992271E+03  0.26488851627E+03  0.00000000000E+00 0.  1.
         11    1    1    2    0    0  0.31881912820E+02  0.15877168210E+02  0.27462802248E+02  0.44974952393E+02  0.00000000000E+00 0. -1.
<mgrwt>
<rscale>  0 0.22109477E+03</rscale>
<asrwt>0</asrwt>
<pdfrwt beam="1">  1        2 0.61713599E-01 0.22540441E+03</pdfrwt>
<pdfrwt beam="2">  1       -2 0.21055483E-01 0.22540441E+03</pdfrwt>
<totfact> 0.15242512E+03</totfact>
</mgrwt>
</event>
<event>
 6    1  0.5818426E-006  0.1394140E+03  0.7546771E-02  0.1224263E+00
         -2   -1    0    0    0  501 -0.00000000000E+00  0.00000000000E+00  0.90805154110E+03  0.90805154110E+03  0.00000000000E+00 0.  1.
          2   -1    0    0  501    0  0.00000000000E+00 -0.00000000000E+00 -0.19808387099E+02  0.19808387099E+02  0.00000000000E+00 0. -1.
          5    1    1    2  502    0  0.46917225094E+02 -0.87982490412E+02  0.42426666644E+03  0.43585139541E+03  0.47000000000E+01 0. -1.
         -5    1    1    2    0  502 -0.15201967940E+02  0.34980857899E+02  0.21941042769E+03  0.22275050175E+03  0.47000000000E+01 0. -1.
        -11    1    1    2    0    0 -0.21033716167E+02 -0.25420577434E+02  0.83929535399E+02  0.90181982043E+02  0.00000000000E+00 0.  1.
         11    1    1    2    0    0 -0.10681540987E+02  0.78422209948E+02  0.16063652446E+03  0.17907604899E+03  0.00000000000E+00 0. -1.
<mgrwt>
<rscale>  0 0.13217552E+03</rscale>
<asrwt>0</asrwt>
<pdfrwt beam="2">  1        2 0.30474449E-02 0.13941398E+03</pdfrwt>
<pdfrwt beam="1">  1       -2 0.13970021E+00 0.13941398E+03</pdfrwt>
<totfact> 0.11295079E+03</totfact>
</mgrwt>
</event>
<event>
 6    1  0.5818426E-006  0.1252738E+03  0.7546771E-02  0.1249820E+00
          2   -1    0    0  501    0  0.00000000000E+00  0.00000000000E+00  0.20848478782E+03  0.20848478782E+03  0.00000000000E+00 0. -1.
         -2   -1    0    0    0  501 -0.00000000000E+00 -0.00000000000E+00 -0.57031036392E+02  0.57031036392E+02  0.00000000000E+00 0.  1.
          5    1    1    2  502    0  0.51211593682E+02  0.35044534205E+02  0.68129355216E+02  0.92273754379E+02  0.47000000000E+01 0. -1.
         -5    1    1    2    0  502 -0.44327086708E+02 -0.30536947570E+02  0.88245705179E+01  0.54748139947E+02  0.47000000000E+01 0. -1.
        -11    1    1    2    0    0 -0.31014654567E+02 -0.17587924778E+02  0.82524625666E+02  0.89897484599E+02  0.00000000000E+00 0. -1.
         11    1    1    2    0    0  0.24130147593E+02  0.13080338143E+02 -0.80247999671E+01  0.28596445291E+02  0.00000000000E+00 0.  1.
<mgrwt>
<rscale>  0 0.11601455E+03</rscale>
<asrwt>0</asrwt>
<pdfrwt beam="1">  1        2 0.32074582E-01 0.12527382E+03</pdfrwt>
<pdfrwt beam="2">  1       -2 0.87740057E-02 0.12527382E+03</pdfrwt>
<totfact> 0.12417116E+04</totfact>
</mgrwt>
</event>
<event>
 6    1  0.5818426E-006  0.1349470E+03  0.7546771E-02  0.1233068E+00
          2   -1    0    0  501    0  0.00000000000E+00  0.00000000000E+00  0.52505295283E+02  0.52505295283E+02  0.00000000000E+00 0. -1.
         -2   -1    0    0    0  501 -0.00000000000E+00 -0.00000000000E+00 -0.37914400950E+03  0.37914400950E+03  0.00000000000E+00 0.  1.
          5    1    1    2  502    0 -0.55479009330E+02  0.24897610912E+02 -0.25545494379E+03  0.26263497446E+03  0.47000000000E+01 0.  1.
         -5    1    1    2    0  502  0.40212946628E+02  0.23617379905E+02 -0.37925357062E+02  0.60293319849E+02  0.47000000000E+01 0.  1.
        -11    1    1    2    0    0 -0.31185588432E+02  0.47172246533E+01 -0.24175540687E+01  0.31632857948E+02  0.00000000000E+00 0.  1.
         11    1    1    2    0    0  0.46451651134E+02 -0.53232215471E+02 -0.30840859296E+02  0.77088152521E+02  0.00000000000E+00 0. -1.
<mgrwt>
<rscale>  0 0.12628942E+03</rscale>
<asrwt>0</asrwt>
<pdfrwt beam="1">  1        2 0.80777377E-02 0.13494696E+03</pdfrwt>
<pdfrwt beam="2">  1       -2 0.58329848E-01 0.13494696E+03</pdfrwt>
<totfact> 0.22669464E+03</totfact>
</mgrwt>
</event>
<event>
 6    1  0.5818426E-006  0.3321646E+03  0.7546771E-02  0.1117841E+00
          2   -1    0    0  501    0  0.00000000000E+00  0.00000000000E+00  0.68423415868E+03  0.68423415868E+03  0.00000000000E+00 0. -1.
         -2   -1    0    0    0  501 -0.00000000000E+00 -0.00000000000E+00 -0.75493656064E+02  0.75493656064E+02  0.00000000000E+00 0.  1.
          5    1    1    2  502    0 -0.11285912578E+03 -0.47611448600E+02  0.32628741906E+03  0.34855358576E+03  0.47000000000E+01 0. -1.
         -5    1    1    2    0  502  0.12553960486E+03  0.23361552391E+02  0.16624534522E+02  0.12885813776E+03  0.47000000000E+01 0.  1.
        -11    1    1    2    0    0 -0.42817763359E+02 -0.15121163665E+02  0.12148146362E+03  0.12969100375E+03  0.00000000000E+00 0. -1.
         11    1    1    2    0    0  0.30137284275E+02  0.39371059874E+02  0.14434708541E+03  0.15262508747E+03  0.00000000000E+00 0.  1.
<mgrwt>
<rscale>  0 0.24295253E+03</rscale>
<asrwt>0</asrwt>
<pdfrwt beam="1">  1        2 0.10526679E+00 0.33216464E+03</pdfrwt>
<pdfrwt beam="2">  1       -2 0.11614409E-01 0.33216464E+03</pdfrwt>
<totfact> 0.22511275E+03</totfact>
</mgrwt>
</event>
<event>
 6    1  0.5818426E-006  0.2801855E+03  0.7546771E-02  0.1095588E+00
         -3   -1    0    0    0  501 -0.00000000000E+00  0.00000000000E+00  0.31309236830E+02  0.31309236830E+02  0.00000000000E+00 0.  1.
          3   -1    0    0  501    0  0.00000000000E+00 -0.00000000000E+00 -0.62684330300E+03  0.62684330300E+03  0.00000000000E+00 0. -1.
          5    1    1    2  502    0  0.40656292703E+02 -0.17353399196E+02 -0.69740756827E+02  0.82703916249E+02  0.47000000000E+01 0. -1.
         -5    1    1    2    0  502 -0.60404450384E+02  0.66966640315E+02 -0.99417428505E+02  0.13430987913E+03  0.47000000000E+01 0. -1.
        -11    1    1    2    0    0 -0.36019306988E+02 -0.44117230398E+02 -0.22723204103E+03  0.23426079690E+03  0.00000000000E+00 0.  1.
         11    1    1    2    0    0  0.55767464668E+02 -0.54960107202E+01 -0.19914383981E+03  0.20687794755E+03  0.00000000000E+00 0. -1.
<mgrwt>
<rscale>  0 0.28018555E+03</rscale>
<asrwt>0</asrwt>
<pdfrwt beam="2">  1        3 0.96437429E-01 0.28018555E+03</pdfrwt>
<pdfrwt beam="1">  1       -3 0.48168058E-02 0.28018555E+03</pdfrwt>
<totfact> 0.60581861E+02</totfact>
</mgrwt>
</event>
<event>
 6    1  0.5818426E-006  0.1277305E+03  0.7546771E-02  0.1245053E+00
         -1   -1    0    0    0  501 -0.00000000000E+00  0.00000000000E+00  0.21075748693E+03  0.21075748693E+03  0.00000000000E+00 0.  1.
          1   -1    0    0  501    0  0.00000000000E+00 -0.00000000000E+00 -0.59913266249E+02  0.59913266249E+02  0.00000000000E+00 0. -1.
          5    1    1    2  502    0  0.58633322426E+02  0.27716727382E+01  0.64133699467E+01  0.59234871339E+02  0.47000000000E+01 0.  1.
         -5    1    1    2    0  502 -0.39355341309E+02  0.15064927188E+02  0.94405216850E+02  0.10349024055E+03  0.47000000000E+01 0.  1.
        -11    1    1    2    0    0  0.64063545995E+01  0.10871508435E+02  0.65299346847E+02  0.66507411418E+02  0.00000000000E+00 0.  1.
         11    1    1    2    0    0 -0.25684335716E+02 -0.28708108361E+02 -0.15273712966E+02  0.41438229868E+02  0.00000000000E+00 0. -1.
<mgrwt>
<rscale>  0 0.11882197E+03</rscale>
<asrwt>0</asrwt>
<pdfrwt beam="2">  1        1 0.92174257E-02 0.12773048E+03</pdfrwt>
<pdfrwt beam="1">  1       -1 0.32424228E-01 0.12773048E+03</pdfrwt>
<totfact> 0.60558655E+03</totfact>
</mgrwt>
</event>
<event>
 6    1  0.5818426E-006  0.2768551E+03  0.7546771E-02  0.1097419E+00
          2   -1    0    0  501    0  0.00000000000E+00  0.00000000000E+00  0.92150871486E+03  0.92150871486E+03  0.00000000000E+00 0. -1.
         -2   -1    0    0    0  501 -0.00000000000E+00 -0.00000000000E+00 -0.20794365917E+02  0.20794365917E+02  0.00000000000E+00 0.  1.
          5    1    1    2  502    0 -0.65430106257E+02  0.25349586192E+02  0.10911872818E+03  0.12981790001E+03  0.47000000000E+01 0.  1.
         -5    1    1    2    0  502 -0.11752181161E+02  0.10087891315E+02  0.42400528641E+03  0.42431409618E+03  0.47000000000E+01 0.  1.
        -11    1    1    2    0    0  0.39222233232E+02  0.29713537687E+02  0.13737488210E+03  0.14592167808E+03  0.00000000000E+00 0.  1.
         11    1    1    2    0    0  0.37960054185E+02 -0.65151015194E+02  0.23021545225E+03  0.24224940650E+03  0.00000000000E+00 0. -1.
<mgrwt>
<rscale>  0 0.27685512E+03</rscale>
<asrwt>0</asrwt>
<pdfrwt beam="1">  1        2 0.14177054E+00 0.27685512E+03</pdfrwt>
<pdfrwt beam="2">  1       -2 0.31991339E-02 0.27685512E+03</pdfrwt>
<totfact> 0.11290235E+04</totfact>
</mgrwt>
</event>
<event>
 6    1  0.5818426E-006  0.1283776E+03  0.7546771E-02  0.1245085E+00
         -2   -1    0    0    0  501 -0.00000000000E+00  0.00000000000E+00  0.25197694691E+02  0.25197694691E+02  0.00000000000E+00 0.  1.
          2   -1    0    0  501    0  0.00000000000E+00 -0.00000000000E+00 -0.49292250509E+03  0.49292250509E+03  0.00000000000E+00 0. -1.
          5    1    1    2  502    0  0.92819954209E+01  0.59902655349E+02 -0.24360833316E+03  0.25108085060E+03  0.47000000000E+01 0. -1.
         -5    1    1    2    0  502 -0.98599544029E+01 -0.30650938750E+02 -0.11505843661E+02  0.34513376905E+02  0.47000000000E+01 0. -1.
        -11    1    1    2    0    0 -0.27450820160E+02  0.79954925938E+01 -0.21394688161E+02  0.35710056157E+02  0.00000000000E+00 0.  1.
         11    1    1    2    0    0  0.28028779142E+02 -0.37247209193E+02 -0.19121594543E+03  0.19681591612E+03  0.00000000000E+00 0. -1.
<mgrwt>
<rscale>  0 0.11880294E+03</rscale>
<asrwt>0</asrwt>
<pdfrwt beam="2">  1        2 0.75834231E-01 0.12837764E+03</pdfrwt>
<pdfrwt beam="1">  1       -2 0.38765684E-02 0.12837764E+03</pdfrwt>
<totfact> 0.17112836E+04</totfact>
</mgrwt>
</event>
<event>
 6    1  0.5818426E-006  0.1314830E+03  0.7546771E-02  0.1240731E+00
         -1   -1    0    0    0  501 -0.00000000000E+00  0.00000000000E+00  0.27644230323E+02  0.27644230323E+02  0.00000000000E+00 0.  1.
          1   -1    0    0  501    0  0.00000000000E+00 -0.00000000000E+00 -0.55013418108E+03  0.55013418108E+03  0.00000000000E+00 0. -1.
          5    1    1    2  502    0  0.39806544218E+02 -0.21572530430E+02 -0.81572216616E+02  0.93413337139E+02  0.47000000000E+01 0. -1.
         -5    1    1    2    0  502 -0.76241772676E+02  0.32570074947E+01 -0.32585376566E+03  0.33470312606E+03  0.47000000000E+01 0. -1.
        -11    1    1    2    0    0  0.44982306173E+02 -0.23276266430E+02 -0.45079404823E+02  0.67803725463E+02  0.00000000000E+00 0.  1.
         11    1    1    2    0    0 -0.85470777153E+01  0.41591789365E+02 -0.69984563659E+02  0.81858222743E+02  0.00000000000E+00 0. -1.
<mgrwt>
<rscale>  0 0.12144596E+03</rscale>
<asrwt>0</asrwt>
<pdfrwt beam="2">  1        1 0.84636023E-01 0.13148298E+03</pdfrwt>
<pdfrwt beam="1">  1       -1 0.42529587E-02 0.13148298E+03</pdfrwt>
<totfact> 0.84959655E+03</totfact>
</mgrwt>
</event>
<event>
 6    1  0.5818426E-006  0.1470894E+03  0.7546771E-02  0.1222454E+00
          2   -1    0    0  501    0  0.00000000000E+00  0.00000000000E+00  0.41456660287E+03  0.41456660287E+03  0.00000000000E+00 0. -1.
         -2   -1    0    0    0  501 -0.00000000000E+00 -0.00000000000E+00 -0.38351796905E+02  0.38351796905E+02  0.00000000000E+00 0.  1.
          5    1    1    2  502    0 -0.19217421951E+02  0.44627338570E+02  0.14100845767E+03  0.14921924738E+03  0.47000000000E+01 0. -1.
         -5    1    1    2    0  502  0.54430779895E+02 -0.47391123554E+02  0.35573031290E+02  0.80598752762E+02  0.47000000000E+01 0.  1.
        -11    1    1    2    0    0 -0.14117267390E+02  0.47770610170E+02  0.10445442759E+03  0.11572405056E+03  0.00000000000E+00 0. -1.
         11    1    1    2    0    0 -0.21096090554E+02 -0.45006825186E+02  0.95178889412E+02  0.10737634907E+03  0.00000000000E+00 0.  1.
<mgrwt>
<rscale>  0 0.13342947E+03</rscale>
<asrwt>0</asrwt>
<pdfrwt beam="1">  1        2 0.63779474E-01 0.14708940E+03</pdfrwt>
<pdfrwt beam="2">  1       -2 0.59002767E-02 0.14708940E+03</pdfrwt>
<totfact> 0.11114870E+04</totfact>
</mgrwt>
</event>
<event>
 6    1  0.5818426E-006  0.2948896E+03  0.7546771E-02  0.1089517E+00
         -2   -1    0    0    0  501 -0.00000000000E+00  0.00000000000E+00  0.34203302517E+03  0.34203302517E+03  0.00000000000E+00 0. -1.
          2   -1    0    0  501    0  0.00000000000E+00 -0.00000000000E+00 -0.25242827481E+03  0.25242827481E+03  0.00000000000E+00 0.  1.
          5    1    1    2  502    0 -0.11126559162E+03  0.22607774104E+03 -0.22773434517E+02  0.25304524535E+03  0.47000000000E+01 0. -1.
         -5    1    1    2    0  502  0.28763310291E+02  0.27942391372E+02  0.11748818526E+02  0.42050326886E+02  0.47000000000E+01 0. -1.
        -11    1    1    2    0    0  0.94696521158E+01 -0.79831297528E+02 -0.91346332209E+01  0.80908293149E+02  0.00000000000E+00 0.  1.
         11    1    1    2    0    0  0.73032629211E+02 -0.17418883488E+03  0.10976399958E+03  0.21845743460E+03  0.00000000000E+00 0. -1.
<mgrwt>
<rscale>  0 0.29159901E+03</rscale>
<asrwt>0</asrwt>
<pdfrwt beam="2">  1        2 0.38835119E-01 0.29488956E+03</pdfrwt>
<pdfrwt beam="1">  1       -2 0.52620465E-01 0.29488956E+03</pdfrwt>
<totfact> 0.45912834E+02</totfact>
</mgrwt>
</event>
<event>
 6    1  0.5818426E-006  0.1495042E+03  0.7546771E-02  0.1209385E+00
          2   -1    0    0  501    0  0.00000000000E+00  0.00000000000E+00  0.96123745085E+03  0.96123745085E+03  0.00000000000E+00 0. -1.
         -2   -1    0    0    0  501 -0.00000000000E+00 -0.00000000000E+00 -0.20153939164E+02  0.20153939164E+02  0.00000000000E+00 0.  1.
          5    1    1    2  502    0 -0.22153236447E+02  0.43077795749E+02  0.18462793018E+03  0.19093460916E+03  0.47000000000E+01 0. -1.
         -5    1    1    2    0  502  0.97580396961E+02 -0.10724964406E+02  0.24589685914E+03  0.26480995840E+03  0.47000000000E+01 0. -1.
        -11    1    1    2    0    0  0.21964393663E+02 -0.64144964714E+01  0.12830800012E+03  0.13033235688E+03  0.00000000000E+00 0.  1.
         11    1    1    2    0    0 -0.97391554177E+02 -0.25938334872E+02  0.38225072223E+03  0.39531446557E+03  0.00000000000E+00 0. -1.
<mgrwt>
<rscale>  0 0.14297173E+03</rscale>
<asrwt>0</asrwt>
<pdfrwt beam="1">  1        2 0.14788265E+00 0.14950424E+03</pdfrwt>
<pdfrwt beam="2">  1       -2 0.31006068E-02 0.14950424E+03</pdfrwt>
<totfact> 0.10829267E+04</totfact>
</mgrwt>
</event>
<event>
 6    1  0.5818426E-006  0.3460314E+03  0.7546771E-02  0.1064256E+00
          1   -1    0    0  501    0  0.00000000000E+00  0.00000000000E+00  0.59848662533E+03  0.59848662533E+03  0.00000000000E+00 0. -1.
         -1   -1    0    0    0  501 -0.00000000000E+00 -0.00000000000E+00 -0.50016865235E+02  0.50016865235E+02  0.00000000000E+00 0.  1.
          5    1    1    2  502    0 -0.38040382797E+02 -0.16802004950E+02 -0.12958304896E+02  0.43810795010E+02  0.47000000000E+01 0.  1.
         -5    1    1    2    0  502 -0.23258278229E+02  0.76342750087E+02  0.11023036154E+03  0.13616895976E+03  0.47000000000E+01 0.  1.
        -11    1    1    2    0    0  0.55664569149E+02 -0.24894335593E+01  0.32725384832E+03  0.33196358653E+03  0.00000000000E+00 0. -1.
         11    1    1    2    0    0  0.56340918763E+01 -0.57051311578E+02  0.12394385513E+03  0.13656014927E+03  0.00000000000E+00 0.  1.
<mgrwt>
<rscale>  0 0.34603136E+03</rscale>
<asrwt>0</asrwt>
<pdfrwt beam="1">  1        1 0.92074861E-01 0.34603136E+03</pdfrwt>
<pdfrwt beam="2">  1       -1 0.76949027E-02 0.34603136E+03</pdfrwt>
<totfact> 0.32352564E+03</totfact>
</mgrwt>
</event>
<event>
 6    1  0.5818426E-006  0.1810902E+03  0.7546771E-02  0.1173051E+00
          1   -1    0    0  501    0  0.00000000000E+00  0.00000000000E+00  0.53942542895E+03  0.53942542895E+03  0.00000000000E+00 0. -1.
         -1   -1    0    0    0  501 -0.00000000000E+00 -0.00000000000E+00 -0.76719398093E+02  0.76719398093E+02  0.00000000000E+00 0.  1.
          5    1    1    2  502    0 -0.50004365169E+01 -0.57657566077E+02  0.67987370814E+02  0.89407896080E+02  0.47000000000E+01 0. -1.
         -5    1    1    2    0  502  0.10494209553E+03 -0.62178241867E+01  0.35222583278E+01  0.10529008052E+03  0.47000000000E+01 0.  1.
        -11    1    1    2    0    0 -0.10814922779E+03  0.81201022753E+02  0.31362226761E+03  0.34153885329E+03  0.00000000000E+00 0.  1.
         11    1    1    2    0    0  0.82075687757E+01 -0.17325632489E+02  0.77574134110E+02  0.79907997155E+02  0.00000000000E+00 0. -1.
<mgrwt>
<rscale>  0 0.17468284E+03</rscale>
<asrwt>0</asrwt>
<pdfrwt beam="1">  1        1 0.82988525E-01 0.18109024E+03</pdfrwt>
<pdfrwt beam="2">  1       -1 0.11802985E-01 0.18109024E+03</pdfrwt>
<totfact> 0.18988893E+03</totfact>
</mgrwt>
</event>
<event>
 6    1  0.5818426E-006  0.1876578E+03  0.7546771E-02  0.1177415E+00
         -1   -1    0    0    0  501 -0.00000000000E+00  0.00000000000E+00  0.56940553337E+02  0.56940553337E+02  0.00000000000E+00 0.  1.
          1   -1    0    0  501    0  0.00000000000E+00 -0.00000000000E+00 -0.43717498643E+03  0.43717498643E+03  0.00000000000E+00 0. -1.
          5    1    1    2  502    0  0.68264825816E+02 -0.10242868787E+03 -0.15561476217E+03  0.19846855355E+03  0.47000000000E+01 0. -1.
         -5    1    1    2    0  502  0.15541699726E+02  0.61464543969E+02 -0.60649690423E+02  0.87863015792E+02  0.47000000000E+01 0.  1.
        -11    1    1    2    0    0 -0.32538471454E+01 -0.13097344231E+02 -0.74828704871E+02  0.76035932426E+02  0.00000000000E+00 0. -1.
         11    1    1    2    0    0 -0.80552678397E+02  0.54061488135E+02 -0.89141275634E+02  0.13174803800E+03  0.00000000000E+00 0.  1.
<mgrwt>
<rscale>  0 0.17041528E+03</rscale>
<asrwt>0</asrwt>
<pdfrwt beam="2">  1        1 0.67257690E-01 0.18765781E+03</pdfrwt>
<pdfrwt beam="1">  1       -1 0.87600852E-02 0.18765781E+03</pdfrwt>
<totfact> 0.39634940E+03</totfact>
</mgrwt>
</event>
<event>
 6    1  0.5818426E-006  0.2210577E+03  0.7546771E-02  0.1136570E+00
         -1   -1    0    0    0  501 -0.00000000000E+00  0.00000000000E+00  0.38546534538E+03  0.38546534538E+03  0.00000000000E+00 0.  1.
          1   -1    0    0  501    0  0.00000000000E+00 -0.00000000000E+00 -0.13583268488E+03  0.13583268488E+03  0.00000000000E+00 0. -1.
          5    1    1    2  502    0  0.11946391769E+02  0.73130652151E+02  0.64189861123E+02  0.98149054154E+02  0.47000000000E+01 0.  1.
         -5    1    1    2    0  502 -0.13047028810E+03  0.65409568220E+02  0.16289687122E+03  0.21876560138E+03  0.47000000000E+01 0.  1.
        -11    1    1    2    0    0  0.17170887319E+02 -0.88411539584E+02  0.10175756108E+02  0.90636558382E+02  0.00000000000E+00 0. -1.
         11    1    1    2    0    0  0.10135300902E+03 -0.50128680787E+02  0.12370172047E+02  0.11374681635E+03  0.00000000000E+00 0.  1.
<mgrwt>
<rscale>  0 0.21643426E+03</rscale>
<asrwt>0</asrwt>
<pdfrwt beam="2">  1        1 0.20897336E-01 0.22105772E+03</pdfrwt>
<pdfrwt beam="1">  1       -1 0.59302360E-01 0.22105772E+03</pdfrwt>
<totfact> 0.71735386E+02</totfact>
</mgrwt>
</event>
<event>
 6    1  0.5818426E-006  0.3100168E+03  0.7546771E-02  0.1080338E+00
          1   -1    0    0  501    0  0.00000000000E+00  0.00000000000E+00  0.22247504010E+03  0.22247504010E+03  0.00000000000E+00 0. -1.
         -1   -1    0    0    0  501 -0.00000000000E+00 -0.00000000000E+00 -0.10800137775E+03  0.10800137775E+03  0.00000000000E+00 0.  1.
          5    1    1    2  502    0 -0.77713660642E+02  0.66863401682E+02 -0.29331149430E+02  0.10673581340E+03  0.47000000000E+01 0. -1.
         -5    1    1    2    0  502  0.14113069019E+02  0.15308659593E+02  0.53493207965E+02  0.57594679217E+02  0.47000000000E+01 0. -1.
        -11    1    1    2    0    0  0.56098301267E+02 -0.16296021098E+02  0.57627504357E+01  0.58700843275E+02  0.00000000000E+00 0.  1.
         11    1    1    2    0    0  0.75022903559E+01 -0.65876040176E+02  0.84548853379E+02  0.10744508196E+03  0.00000000000E+00 0. -1.
<mgrwt>
<rscale>  0 0.31001684E+03</rscale>
<asrwt>0</asrwt>
<pdfrwt beam="1">  1        1 0.34226929E-01 0.31001684E+03</pdfrwt>
<pdfrwt beam="2">  1       -1 0.16615597E-01 0.31001684E+03</pdfrwt>
<totfact> 0.34890738E+03</totfact>
</mgrwt>
</event>
<event>
 6    1  0.5818426E-006  0.1460523E+03  0.7546771E-02  0.1289126E+00
         -4   -1    0    0    0  501 -0.00000000000E+00  0.00000000000E+00  0.52317843294E+02  0.52317843294E+02  0.00000000000E+00 0.  1.
          4   -1    0    0  501    0  0.00000000000E+00 -0.00000000000E+00 -0.14341133184E+03  0.14341133184E+03  0.00000000000E+00 0. -1.
          5    1    1    2  502    0  0.79528214509E+02 -0.10538043990E+02 -0.53288607610E+02  0.96423819542E+02  0.47000000000E+01 0. -1.
         -5    1    1    2    0  502 -0.59693752425E+02  0.23402233971E+02 -0.22432313873E+02  0.68090435004E+02  0.47000000000E+01 0.  1.
        -11    1    1    2    0    0 -0.58927446343E+01 -0.11667284161E+02 -0.60679775008E+01  0.14410770624E+02  0.00000000000E+00 0. -1.
         11    1    1    2    0    0 -0.13941717450E+02 -0.11969058194E+01 -0.93045895582E+01  0.16804149959E+02  0.00000000000E+00 0.  1.
<mgrwt>
<rscale>  0 0.95916314E+02</rscale>
<asrwt>0</asrwt>
<pdfrwt beam="2">  1        4 0.22063281E-01 0.14605233E+03</pdfrwt>
<pdfrwt beam="1">  1       -4 0.80488991E-02 0.14605233E+03</pdfrwt>
<totfact> 0.34345547E+03</totfact>
</mgrwt>
</event>
<event>
 6    1  0.5818426E-006  0.1334987E+03  0.7546771E-02  0.1235183E+00
          1   -1    0    0  501    0  0.00000000000E+00  0.00000000000E+00  0.26827813176E+03  0.26827813176E+03  0.00000000000E+00 0. -1.
         -1   -1    0    0    0  501 -0.00000000000E+00 -0.00000000000E+00 -0.52939201681E+02  0.52939201681E+02  0.00000000000E+00 0.  1.
          5    1    1    2  502    0 -0.39867561622E+02 -0.67563858530E+02  0.41613144100E+02  0.88927168014E+02  0.47000000000E+01 0.  1.
         -5    1    1    2    0  502 -0.41468098331E+01  0.51433475802E+02  0.57093383804E+02  0.77099565103E+02  0.47000000000E+01 0.  1.
        -11    1    1    2    0    0 -0.20190415835E+02 -0.12392252162E+02  0.65136495853E+01  0.24569257948E+02  0.00000000000E+00 0.  1.
         11    1    1    2    0    0  0.64204787290E+02  0.28522634890E+02  0.11011875259E+03  0.13062134237E+03  0.00000000000E+00 0. -1.
<mgrwt>
<rscale>  0 0.12492751E+03</rscale>
<asrwt>0</asrwt>
<pdfrwt beam="1">  1        1 0.41273558E-01 0.13349868E+03</pdfrwt>
<pdfrwt beam="2">  1       -1 0.81444927E-02 0.13349868E+03</pdfrwt>
<totfact> 0.80164031E+03</totfact>
</mgrwt>
</event>
<event>
 6    1  0.4840564E-005  0.2267583E+03  0.7546771E-02  0.1132011E+00
         -1   -1    0    0    0  501 -0.00000000000E+00  0.00000000000E+00  0.56211804654E+02  0.56211804654E+02  0.00000000000E+00 0.  1.
          1   -1    0    0  501    0  0.00000000000E+00 -0.00000000000E+00 -0.85752200665E+03  0.85752200665E+03  0.00000000000E+00 0. -1.
          5    1    1    2  502    0  0.20238155187E+02  0.11070395633E+03 -0.17285720870E+03  0.20631687636E+03  0.47000000000E+01 0.  1.
         -5    1    1    2    0  502  0.11069429558E+03  0.25865362777E+02 -0.19884140431E+03  0.22909002190E+03  0.47000000000E+01 0.  1.
        -11    1    1    2    0    0 -0.59696101192E+02 -0.12127745504E+03 -0.24423353808E+03  0.27914488482E+03  0.00000000000E+00 0.  1.
         11    1    1    2    0    0 -0.71236349577E+02 -0.15291864065E+02 -0.18537805091E+03  0.19918202822E+03  0.00000000000E+00 0. -1.
<mgrwt>
<rscale>  0 0.22252950E+03</rscale>
<asrwt>0</asrwt>
<pdfrwt beam="2">  1        1 0.13192646E+00 0.22675826E+03</pdfrwt>
<pdfrwt beam="1">  1       -1 0.86479698E-02 0.22675826E+03</pdfrwt>
<totfact> 0.15755671E+03</totfact>
</mgrwt>
</event>
<event>
 6    1  0.5818426E-006  0.2572135E+03  0.7546771E-02  0.1111200E+00
         -2   -1    0    0    0  501 -0.00000000000E+00  0.00000000000E+00  0.59185122398E+03  0.59185122398E+03  0.00000000000E+00 0.  1.
          2   -1    0    0  501    0  0.00000000000E+00 -0.00000000000E+00 -0.10564228024E+03  0.10564228024E+03  0.00000000000E+00 0. -1.
          5    1    1    2  502    0  0.11830698883E+03 -0.83746038807E+02  0.10561945550E+03  0.17940875676E+03  0.47000000000E+01 0. -1.
         -5    1    1    2    0  502  0.98843195406E+02  0.25621197599E+02  0.16379523486E+03  0.19307354041E+03  0.47000000000E+01 0. -1.
        -11    1    1    2    0    0 -0.83137541420E+01  0.27587975566E+02  0.12959160950E+02  0.31593587265E+02  0.00000000000E+00 0.  1.
         11    1    1    2    0    0 -0.20883643009E+03  0.30536865642E+02  0.20383509243E+03  0.29341761979E+03  0.00000000000E+00 0. -1.
<mgrwt>
<rscale>  0 0.25335977E+03</rscale>
<asrwt>0</asrwt>
<pdfrwt beam="2">  1        2 0.16252659E-01 0.25721350E+03</pdfrwt>
<pdfrwt beam="1">  1       -2 0.91054032E-01 0.25721350E+03</pdfrwt>
<totfact> 0.37771872E+02</totfact>
</mgrwt>
</event>
<event>
 6    1  0.5818426E-006  0.3037804E+03  0.7546771E-02  0.1085085E+00
          2   -1    0    0  501    0  0.00000000000E+00  0.00000000000E+00  0.16035376688E+04  0.16035376688E+04  0.00000000000E+00 0. -1.
         -2   -1    0    0    0  501 -0.00000000000E+00 -0.00000000000E+00 -0.55402339609E+02  0.55402339609E+02  0.00000000000E+00 0.  1.
          5    1    1    2  502    0  0.11730327369E+03  0.61395004152E+02  0.23341873673E+03  0.26839486063E+03  0.47000000000E+01 0. -1.
         -5    1    1    2    0  502  0.14347872820E+03  0.31612931286E+02  0.62946627491E+03  0.64640189056E+03  0.47000000000E+01 0. -1.
        -11    1    1    2    0    0 -0.11318953420E+03 -0.52426016474E+02  0.20379740104E+03  0.23894296082E+03  0.00000000000E+00 0.  1.
         11    1    1    2    0    0 -0.14759246769E+03 -0.40581918965E+02  0.48145291647E+03  0.50520029636E+03  0.00000000000E+00 0. -1.
<mgrwt>
<rscale>  0 0.30031134E+03</rscale>
<asrwt>0</asrwt>
<pdfrwt beam="1">  1        2 0.24669807E+00 0.30378043E+03</pdfrwt>
<pdfrwt beam="2">  1       -2 0.85234381E-02 0.30378043E+03</pdfrwt>
<totfact> 0.10264750E+03</totfact>
</mgrwt>
</event>
<event>
 6    1  0.5818426E-006  0.2858624E+03  0.7546771E-02  0.1092529E+00
          2   -1    0    0  501    0  0.00000000000E+00  0.00000000000E+00  0.11604343704E+03  0.11604343704E+03  0.00000000000E+00 0.  1.
         -2   -1    0    0    0  501 -0.00000000000E+00 -0.00000000000E+00 -0.17604901373E+03  0.17604901373E+03  0.00000000000E+00 0. -1.
          5    1    1    2  502    0 -0.25326715630E+02 -0.23527720349E+02 -0.88642668649E+02  0.95260741414E+02  0.47000000000E+01 0.  1.
         -5    1    1    2    0  502  0.66464909367E+02 -0.35193578301E+02 -0.27985870876E+01  0.75406194841E+02  0.47000000000E+01 0.  1.
        -11    1    1    2    0    0  0.87868282882E+01  0.47291584503E+02  0.47646656205E+02  0.67704550539E+02  0.00000000000E+00 0.  1.
         11    1    1    2    0    0 -0.49925022025E+02  0.11429714148E+02 -0.16210977154E+02  0.53720963971E+02  0.00000000000E+00 0. -1.
<mgrwt>
<rscale>  0 0.28586243E+03</rscale>
<asrwt>0</asrwt>
<pdfrwt beam="1">  1        2 0.17852836E-01 0.28586243E+03</pdfrwt>
<pdfrwt beam="2">  1       -2 0.27084464E-01 0.28586243E+03</pdfrwt>
<totfact> 0.38889739E+03</totfact>
</mgrwt>
</event>
<event>
 6    1  0.5818426E-006  0.1435022E+03  0.7546771E-02  0.1220617E+00
          2   -1    0    0  501    0  0.00000000000E+00  0.00000000000E+00  0.25910495542E+02  0.25910495542E+02  0.00000000000E+00 0. -1.
         -2   -1    0    0    0  501 -0.00000000000E+00 -0.00000000000E+00 -0.66508839689E+03  0.66508839689E+03  0.00000000000E+00 0.  1.
          5    1    1    2  502    0  0.43294213733E+02 -0.78115408299E+01 -0.21843618035E+03  0.22287185556E+03  0.47000000000E+01 0. -1.
         -5    1    1    2    0  502 -0.48441834986E+02  0.78111199634E+02 -0.22083211592E+03  0.23924231295E+03  0.47000000000E+01 0. -1.
        -11    1    1    2    0    0  0.26873119834E+02  0.84459561798E+01 -0.35665191466E+02  0.45447823135E+02  0.00000000000E+00 0. -1.
         11    1    1    2    0    0 -0.21725498581E+02 -0.78745614984E+02 -0.16424441361E+03  0.18343690078E+03  0.00000000000E+00 0.  1.
<mgrwt>
<rscale>  0 0.13471877E+03</rscale>
<asrwt>0</asrwt>
<pdfrwt beam="1">  1        2 0.39862309E-02 0.14350216E+03</pdfrwt>
<pdfrwt beam="2">  1       -2 0.10232127E+00 0.14350216E+03</pdfrwt>
<totfact> 0.16711855E+03</totfact>
</mgrwt>
</event>
<event>
 6    1  0.5818426E-006  0.1467561E+03  0.7546771E-02  0.1214071E+00
         -3   -1    0    0    0  501 -0.00000000000E+00  0.00000000000E+00  0.46046214173E+03  0.46046214173E+03  0.00000000000E+00 0.  1.
          3   -1    0    0  501    0  0.00000000000E+00 -0.00000000000E+00 -0.41848549212E+02  0.41848549212E+02  0.00000000000E+00 0. -1.
          5    1    1    2  502    0  0.83351074607E+02  0.34228161092E+02  0.14868763502E+03  0.17392260192E+03  0.47000000000E+01 0.  1.
         -5    1    1    2    0  502 -0.42070702029E+02  0.30642554422E+02  0.15060648578E+03  0.15941553773E+03  0.47000000000E+01 0.  1.
        -11    1    1    2    0    0 -0.26373162350E+02  0.14676259795E+02  0.64528954936E+02  0.71238489029E+02  0.00000000000E+00 0. -1.
         11    1    1    2    0    0 -0.14907210227E+02 -0.79546975309E+02  0.54790516777E+02  0.97734062262E+02  0.00000000000E+00 0.  1.
<mgrwt>
<rscale>  0 0.13945029E+03</rscale>
<asrwt>0</asrwt>
<pdfrwt beam="2">  1        3 0.64382387E-02 0.14675607E+03</pdfrwt>
<pdfrwt beam="1">  1       -3 0.70840326E-01 0.14675607E+03</pdfrwt>
<totfact> 0.68973839E+02</totfact>
</mgrwt>
</event>
<event>
 6    1  0.5818426E-006  0.1406129E+03  0.7546771E-02  0.1218069E+00
          1   -1    0    0  501    0  0.00000000000E+00  0.00000000000E+00  0.78781078136E+02  0.78781078136E+02  0.00000000000E+00 0. -1.
         -1   -1    0    0    0  501 -0.00000000000E+00 -0.00000000000E+00 -0.26901516638E+03  0.26901516638E+03  0.00000000000E+00 0.  1.
          5    1    1    2  502    0  0.21167738709E+02 -0.17927692182E+02 -0.34886990742E+02  0.44818159624E+02  0.47000000000E+01 0. -1.
         -5    1    1    2    0  502 -0.72062648991E+02  0.86227943528E+02 -0.13601540077E+03  0.17649522054E+03  0.47000000000E+01 0.  1.
        -11    1    1    2    0    0  0.37649178626E+02 -0.88917235156E+02 -0.27921977312E+02  0.10051553201E+03  0.00000000000E+00 0. -1.
         11    1    1    2    0    0  0.13245731656E+02  0.20616983809E+02  0.85902805823E+01  0.25967332342E+02  0.00000000000E+00 0.  1.
<mgrwt>
<rscale>  0 0.13653487E+03</rscale>
<asrwt>0</asrwt>
<pdfrwt beam="1">  1        1 0.12120166E-01 0.14061289E+03</pdfrwt>
<pdfrwt beam="2">  1       -1 0.41386949E-01 0.14061289E+03</pdfrwt>
<totfact> 0.27826926E+03</totfact>
</mgrwt>
</event>
<event>
 6    1  0.5818426E-006  0.2332664E+03  0.7546771E-02  0.1151051E+00
         -2   -1    0    0    0  501 -0.00000000000E+00  0.00000000000E+00  0.32640882305E+03  0.32640882305E+03  0.00000000000E+00 0.  1.
          2   -1    0    0  501    0  0.00000000000E+00 -0.00000000000E+00 -0.25643579494E+03  0.25643579494E+03  0.00000000000E+00 0. -1.
          5    1    1    2  502    0 -0.65426161420E+02 -0.12089731844E+03  0.14564178834E+03  0.20032564667E+03  0.47000000000E+01 0. -1.
         -5    1    1    2    0  502  0.78170397424E+02  0.54268139398E+02  0.11914236446E+03  0.15255371184E+03  0.47000000000E+01 0.  1.
        -11    1    1    2    0    0  0.35546311137E+02  0.59061329866E+02 -0.82700720008E+02  0.10766238903E+03  0.00000000000E+00 0.  1.
         11    1    1    2    0    0 -0.48290547141E+02  0.75678491723E+01 -0.11211040468E+03  0.12230287046E+03  0.00000000000E+00 0. -1.
<mgrwt>
<rscale>  0 0.19845232E+03</rscale>
<asrwt>0</asrwt>
<pdfrwt beam="2">  1        2 0.39451661E-01 0.23326636E+03</pdfrwt>
<pdfrwt beam="1">  1       -2 0.50216742E-01 0.23326636E+03</pdfrwt>
<totfact> 0.49586658E+02</totfact>
</mgrwt>
</event>
<event>
 6    1  0.5818426E-006  0.1261865E+03  0.7546771E-02  0.1248296E+00
         -1   -1    0    0    0  501 -0.00000000000E+00  0.00000000000E+00  0.93037224239E+03  0.93037224239E+03  0.00000000000E+00 0. -1.
          1   -1    0    0  501    0  0.00000000000E+00 -0.00000000000E+00 -0.13265069951E+02  0.13265069951E+02  0.00000000000E+00 0.  1.
          5    1    1    2  502    0  0.57716364522E+02 -0.22798153957E+01  0.23028518189E+03  0.23746522122E+03  0.47000000000E+01 0. -1.
         -5    1    1    2    0  502 -0.63666341354E+02  0.18510781615E+02  0.37290598091E+03  0.37878359607E+03  0.47000000000E+01 0. -1.
        -11    1    1    2    0    0 -0.33712853239E+02  0.19904781688E+02  0.12346577760E+03  0.12952434152E+03  0.00000000000E+00 0.  1.
         11    1    1    2    0    0  0.39662830070E+02 -0.36135747907E+02  0.19045023204E+03  0.19786415353E+03  0.00000000000E+00 0. -1.
<mgrwt>
<rscale>  0 0.11690245E+03</rscale>
<asrwt>0</asrwt>
<pdfrwt beam="2">  1        1 0.20407807E-02 0.12618647E+03</pdfrwt>
<pdfrwt beam="1">  1       -1 0.14313414E+00 0.12618647E+03</pdfrwt>
<totfact> 0.24165304E+03</totfact>
</mgrwt>
</event>
<event>
 6    1  0.5818426E-006  0.1871459E+03  0.7546771E-02  0.1177590E+00
          2   -1    0    0  501    0  0.00000000000E+00  0.00000000000E+00  0.90394241057E+03  0.90394241057E+03  0.00000000000E+00 0. -1.
         -2   -1    0    0    0  501 -0.00000000000E+00 -0.00000000000E+00 -0.28626061776E+02  0.28626061776E+02  0.00000000000E+00 0.  1.
          5    1    1    2  502    0  0.88583479140E+02  0.58020261506E+02  0.40848316120E+03  0.42201180849E+03  0.47000000000E+01 0. -1.
         -5    1    1    2    0  502 -0.36652671154E+02  0.12987873482E+02  0.16785578637E+02  0.42613950890E+02  0.47000000000E+01 0.  1.
        -11    1    1    2    0    0  0.20836510104E+02 -0.17644324318E+02  0.42426172937E+02  0.50452576585E+02  0.00000000000E+00 0.  1.
         11    1    1    2    0    0 -0.72767318090E+02 -0.53363810670E+02  0.40762143602E+03  0.41749013638E+03  0.00000000000E+00 0. -1.
<mgrwt>
<rscale>  0 0.17024792E+03</rscale>
<asrwt>0</asrwt>
<pdfrwt beam="1">  1        2 0.13906804E+00 0.18714592E+03</pdfrwt>
<pdfrwt beam="2">  1       -2 0.44040102E-02 0.18714592E+03</pdfrwt>
<totfact> 0.70502213E+03</totfact>
</mgrwt>
</event>
<event>
 6    1  0.5818426E-006  0.2076038E+03  0.7546771E-02  0.1147402E+00
         -2   -1    0    0    0  501 -0.00000000000E+00  0.00000000000E+00  0.20673964671E+03  0.20673964671E+03  0.00000000000E+00 0. -1.
          2   -1    0    0  501    0  0.00000000000E+00 -0.00000000000E+00 -0.20049057351E+03  0.20049057351E+03  0.00000000000E+00 0.  1.
          5    1    1    2  502    0 -0.45656471168E+01  0.49718607659E+02 -0.30672637435E+02  0.58785081172E+02  0.47000000000E+01 0.  1.
         -5    1    1    2    0  502  0.10152506379E+03  0.84716314874E+02  0.79936764982E+02  0.15458385743E+03  0.47000000000E+01 0.  1.
        -11    1    1    2    0    0 -0.67538483274E+02 -0.97579883513E+02 -0.71712541162E+02  0.13865774031E+03  0.00000000000E+00 0.  1.
         11    1    1    2    0    0 -0.29420933399E+02 -0.36855039020E+02  0.28697486814E+02  0.55203541305E+02  0.00000000000E+00 0. -1.
<mgrwt>
<rscale>  0 0.20279560E+03</rscale>
<asrwt>0</asrwt>
<pdfrwt beam="2">  1        2 0.30844703E-01 0.20760383E+03</pdfrwt>
<pdfrwt beam="1">  1       -2 0.31806100E-01 0.20760383E+03</pdfrwt>
<totfact> 0.15487348E+03</totfact>
</mgrwt>
</event>
<event>
 6    1  0.5818426E-006  0.1395739E+03  0.7546771E-02  0.1222839E+00
         -1   -1    0    0    0  501 -0.00000000000E+00  0.00000000000E+00  0.11789411437E+03  0.11789411437E+03  0.00000000000E+00 0.  1.
          1   -1    0    0  501    0  0.00000000000E+00 -0.00000000000E+00 -0.16038407918E+03  0.16038407918E+03  0.00000000000E+00 0. -1.
          5    1    1    2  502    0 -0.71591279999E+02 -0.68077708602E+02  0.19757374935E+02  0.10085796768E+03  0.47000000000E+01 0. -1.
         -5    1    1    2    0  502  0.36836979722E+02  0.16569828143E+02  0.89293287392E+01  0.41633462400E+02  0.47000000000E+01 0. -1.
        -11    1    1    2    0    0  0.57332158254E+02  0.65718937844E+02 -0.43919622079E+02  0.97646752967E+02  0.00000000000E+00 0.  1.
         11    1    1    2    0    0 -0.22577857977E+02 -0.14211057385E+02 -0.27257046399E+02  0.38140010503E+02  0.00000000000E+00 0. -1.
<mgrwt>
<rscale>  0 0.13316113E+03</rscale>
<asrwt>0</asrwt>
<pdfrwt beam="2">  1        1 0.24674474E-01 0.13957393E+03</pdfrwt>
<pdfrwt beam="1">  1       -1 0.18137556E-01 0.13957393E+03</pdfrwt>
<totfact> 0.44174979E+03</totfact>
</mgrwt>
</event>
<event>
 6    1  0.5818426E-006  0.1300922E+03  0.7546771E-02  0.1238842E+00
          1   -1    0    0  501    0  0.00000000000E+00  0.00000000000E+00  0.49842977635E+02  0.49842977635E+02  0.00000000000E+00 0. -1.
         -1   -1    0    0    0  501 -0.00000000000E+00 -0.00000000000E+00 -0.30580770454E+03  0.30580770454E+03  0.00000000000E+00 0.  1.
          5    1    1    2  502    0  0.93834518492E+01  0.27434152899E+02  0.78395413178E+01  0.30401156589E+02  0.47000000000E+01 0.  1.
         -5    1    1    2    0  502 -0.52779949150E+01  0.83747554362E+01 -0.20820219635E+03  0.20849037945E+03  0.47000000000E+01 0.  1.
        -11    1    1    2    0    0  0.78880249422E+01  0.17939861192E+02 -0.58417024457E+02  0.61616623597E+02  0.00000000000E+00 0.  1.
         11    1    1    2    0    0 -0.11993481876E+02 -0.53748769528E+02  0.28149525884E+01  0.55142522533E+02  0.00000000000E+00 0. -1.
<mgrwt>
<rscale>  0 0.12261657E+03</rscale>
<asrwt>0</asrwt>
<pdfrwt beam="1">  1        1 0.76681504E-02 0.13009217E+03</pdfrwt>
<pdfrwt beam="2">  1       -1 0.47047339E-01 0.13009217E+03</pdfrwt>
<totfact> 0.40490093E+03</totfact>
</mgrwt>
</event>
<event>
 6    1  0.5818426E-006  0.1435439E+03  0.7546771E-02  0.1219043E+00
         -1   -1    0    0    0  501 -0.00000000000E+00  0.00000000000E+00  0.10410659475E+03  0.10410659475E+03  0.00000000000E+00 0.  1.
          1   -1    0    0  501    0  0.00000000000E+00 -0.00000000000E+00 -0.16487757162E+03  0.16487757162E+03  0.00000000000E+00 0. -1.
          5    1    1    2  502    0 -0.17858910654E+02 -0.40792831511E+02  0.29600966250E+02  0.53677770030E+02  0.47000000000E+01 0. -1.
         -5    1    1    2    0  502 -0.49098402973E+02  0.63130154399E+02 -0.41855454213E+02  0.90388265922E+02  0.47000000000E+01 0. -1.
        -11    1    1    2    0    0 -0.14701375016E+02 -0.81035905250E+01  0.13381045463E+02  0.21467440100E+02  0.00000000000E+00 0.  1.
         11    1    1    2    0    0  0.81658688643E+02 -0.14233732363E+02 -0.61897534367E+02  0.10345069032E+03  0.00000000000E+00 0. -1.
<mgrwt>
<rscale>  0 0.13583709E+03</rscale>
<asrwt>0</asrwt>
<pdfrwt beam="2">  1        1 0.25365780E-01 0.14354390E+03</pdfrwt>
<pdfrwt beam="1">  1       -1 0.16016399E-01 0.14354390E+03</pdfrwt>
<totfact> 0.52047557E+03</totfact>
</mgrwt>
</event>
<event>
 6    1  0.5818426E-006  0.1555528E+03  0.7546771E-02  0.1215347E+00
         -2   -1    0    0    0  501 -0.00000000000E+00  0.00000000000E+00  0.21992077235E+02  0.21992077235E+02  0.00000000000E+00 0.  1.
          2   -1    0    0  501    0  0.00000000000E+00 -0.00000000000E+00 -0.73057491944E+03  0.73057491944E+03  0.00000000000E+00 0. -1.
          5    1    1    2  502    0 -0.23862035651E+02 -0.18242813741E+02 -0.35500177069E+03  0.35630119869E+03  0.47000000000E+01 0. -1.
         -5    1    1    2    0  502  0.33410982728E+02  0.55630944017E+02 -0.66710958205E+02  0.93185501253E+02  0.47000000000E+01 0.  1.
        -11    1    1    2    0    0  0.33858818614E+02  0.75079583625E+01 -0.11985120534E+03  0.12476818688E+03  0.00000000000E+00 0.  1.
         11    1    1    2    0    0 -0.43407765691E+02 -0.44896088639E+02 -0.16701890797E+03  0.17831210985E+03  0.00000000000E+00 0. -1.
<mgrwt>
<rscale>  0 0.13851084E+03</rscale>
<asrwt>0</asrwt>
<pdfrwt beam="2">  1        2 0.11239613E+00 0.15555278E+03</pdfrwt>
<pdfrwt beam="1">  1       -2 0.33833968E-02 0.15555278E+03</pdfrwt>
<totfact> 0.13543002E+04</totfact>
</mgrwt>
</event>
<event>
 6    1  0.5818426E-006  0.1872757E+03  0.7546771E-02  0.1166038E+00
          4   -1    0    0  501    0  0.00000000000E+00  0.00000000000E+00  0.74444384866E+02  0.74444384866E+02  0.00000000000E+00 0. -1.
         -4   -1    0    0    0  501 -0.00000000000E+00 -0.00000000000E+00 -0.42045188206E+03  0.42045188206E+03  0.00000000000E+00 0.  1.
          5    1    1    2  502    0  0.25788423860E+02 -0.10423097663E+03 -0.43235711947E+02  0.11584712376E+03  0.47000000000E+01 0. -1.
         -5    1    1    2    0  502  0.24189195880E+02 -0.25969990571E+02 -0.14625023577E+03  0.15056818745E+03  0.47000000000E+01 0. -1.
        -11    1    1    2    0    0  0.59537095481E+01  0.44637142249E+02 -0.10448391184E+03  0.11377525635E+03  0.00000000000E+00 0.  1.
         11    1    1    2    0    0 -0.55931329289E+02  0.85563824954E+02 -0.52037637634E+02  0.11470569937E+03  0.00000000000E+00 0. -1.
<mgrwt>
<rscale>  0 0.18183605E+03</rscale>
<asrwt>0</asrwt>
<pdfrwt beam="1">  1        4 0.11452982E-01 0.18727572E+03</pdfrwt>
<pdfrwt beam="2">  1       -4 0.64684905E-01 0.18727572E+03</pdfrwt>
<totfact> 0.23966872E+02</totfact>
</mgrwt>
</event>
<event>
 6    1  0.5818426E-006  0.1952286E+03  0.7546771E-02  0.1158575E+00
          2   -1    0    0  501    0  0.00000000000E+00  0.00000000000E+00  0.15023439470E+03  0.15023439470E+03  0.00000000000E+00 0. -1.
         -2   -1    0    0    0  501 -0.00000000000E+00 -0.00000000000E+00 -0.24460784309E+03  0.24460784309E+03  0.00000000000E+00 0.  1.
          5    1    1    2  502    0 -0.45077848221E+02 -0.73819584229E+02 -0.41083996383E+02  0.95871414795E+02  0.47000000000E+01 0.  1.
         -5    1    1    2    0  502  0.81271862567E+02 -0.71694419393E+02 -0.60383878487E+02  0.12415115061E+03  0.47000000000E+01 0.  1.
        -11    1    1    2    0    0 -0.49104117197E+02  0.98077574121E+02  0.38773687544E+02  0.11633496343E+03  0.00000000000E+00 0. -1.
         11    1    1    2    0    0  0.12910102850E+02  0.47436429501E+02 -0.31679261063E+02  0.58484708950E+02  0.00000000000E+00 0.  1.
<mgrwt>
<rscale>  0 0.18987407E+03</rscale>
<asrwt>0</asrwt>
<pdfrwt beam="1">  1        2 0.23112984E-01 0.19522858E+03</pdfrwt>
<pdfrwt beam="2">  1       -2 0.37631975E-01 0.19522858E+03</pdfrwt>
<totfact> 0.15574926E+03</totfact>
</mgrwt>
</event>
<event>
 6    1  0.5818426E-006  0.1525464E+03  0.7546771E-02  0.1211164E+00
         -1   -1    0    0    0  501 -0.00000000000E+00  0.00000000000E+00  0.48743189596E+02  0.48743189596E+02  0.00000000000E+00 0.  1.
          1   -1    0    0  501    0  0.00000000000E+00 -0.00000000000E+00 -0.36310777454E+03  0.36310777454E+03  0.00000000000E+00 0. -1.
          5    1    1    2  502    0 -0.19070437404E+02 -0.55540372315E+02 -0.39678935209E+01  0.59044463911E+02  0.47000000000E+01 0. -1.
         -5    1    1    2    0  502 -0.19913927802E+02 -0.22758129599E+02 -0.16828745656E+03  0.17104752269E+03  0.47000000000E+01 0. -1.
        -11    1    1    2    0    0  0.85552465745E+01  0.39523077772E+02 -0.12199614994E+03  0.12852364187E+03  0.00000000000E+00 0. -1.
         11    1    1    2    0    0  0.30429118632E+02  0.38775424141E+02 -0.20113084929E+02  0.53235335665E+02  0.00000000000E+00 0.  1.
<mgrwt>
<rscale>  0 0.14162100E+03</rscale>
<asrwt>0</asrwt>
<pdfrwt beam="2">  1        1 0.55862734E-01 0.15254644E+03</pdfrwt>
<pdfrwt beam="1">  1       -1 0.74989523E-02 0.15254644E+03</pdfrwt>
<totfact> 0.62872681E+03</totfact>
</mgrwt>
</event>
<event>
 6    1  0.5818426E-006  0.1487523E+03  0.7546771E-02  0.1212144E+00
          2   -1    0    0  501    0  0.00000000000E+00  0.00000000000E+00  0.97789149373E+03  0.97789149373E+03  0.00000000000E+00 0. -1.
         -2   -1    0    0    0  501 -0.00000000000E+00 -0.00000000000E+00 -0.21657553469E+02  0.21657553469E+02  0.00000000000E+00 0.  1.
          5    1    1    2  502    0 -0.43718653232E+02  0.56340311635E+02  0.23909300202E+03  0.24954579734E+03  0.47000000000E+01 0.  1.
         -5    1    1    2    0  502 -0.36900611850E+02 -0.54699195967E+02  0.90867411325E+02  0.11239498937E+03  0.47000000000E+01 0.  1.
        -11    1    1    2    0    0  0.57893293878E+02 -0.42104850645E+02  0.43035441811E+03  0.43626755221E+03  0.00000000000E+00 0. -1.
         11    1    1    2    0    0  0.22725971204E+02  0.40463734977E+02  0.19591910880E+03  0.20134070828E+03  0.00000000000E+00 0.  1.
<mgrwt>
<rscale>  0 0.14088429E+03</rscale>
<asrwt>0</asrwt>
<pdfrwt beam="1">  1        2 0.15044481E+00 0.14875234E+03</pdfrwt>
<pdfrwt beam="2">  1       -2 0.33319321E-02 0.14875234E+03</pdfrwt>
<totfact> 0.95101285E+03</totfact>
</mgrwt>
</event>
<event>
 6    1  0.5818426E-006  0.1539095E+03  0.7546771E-02  0.1204093E+00
          2   -1    0    0  501    0  0.00000000000E+00  0.00000000000E+00  0.14771736977E+02  0.14771736977E+02  0.00000000000E+00 0. -1.
         -2   -1    0    0    0  501 -0.00000000000E+00 -0.00000000000E+00 -0.15124480651E+04  0.15124480651E+04  0.00000000000E+00 0.  1.
          5    1    1    2  502    0  0.48168251104E+02  0.58639456967E+02 -0.29222702038E+03  0.30195610238E+03  0.47000000000E+01 0. -1.
         -5    1    1    2    0  502 -0.34739847892E+02  0.30149827078E+02 -0.76721709210E+03  0.76860915004E+03  0.47000000000E+01 0. -1.
        -11    1    1    2    0    0  0.30978522631E+02 -0.41707746950E+02 -0.29416700776E+03  0.29871965699E+03  0.00000000000E+00 0.  1.
         11    1    1    2    0    0 -0.44406925843E+02 -0.47081537094E+02 -0.14406520786E+03  0.15793489264E+03  0.00000000000E+00 0. -1.
<mgrwt>
<rscale>  0 0.14709169E+03</rscale>
<asrwt>0</asrwt>
<pdfrwt beam="1">  1        2 0.22725750E-02 0.15390949E+03</pdfrwt>
<pdfrwt beam="2">  1       -2 0.23268431E+00 0.15390949E+03</pdfrwt>
<totfact> 0.41148975E+02</totfact>
</mgrwt>
</event>
<event>
 6    1  0.5818426E-006  0.1262347E+03  0.7546771E-02  0.1275174E+00
         -2   -1    0    0    0  501 -0.00000000000E+00  0.00000000000E+00  0.12875851761E+03  0.12875851761E+03  0.00000000000E+00 0. -1.
          2   -1    0    0  501    0  0.00000000000E+00 -0.00000000000E+00 -0.74874646894E+02  0.74874646894E+02  0.00000000000E+00 0.  1.
          5    1    1    2  502    0 -0.56495795299E+02  0.43136622081E+02  0.30922046204E+02  0.77658264160E+02  0.47000000000E+01 0. -1.
         -5    1    1    2    0  502  0.42678766088E+02 -0.32202202796E+02  0.41777595984E+02  0.68014090201E+02  0.47000000000E+01 0. -1.
        -11    1    1    2    0    0 -0.15752293058E+02 -0.17328941245E+02 -0.14119291674E+02  0.27345590845E+02  0.00000000000E+00 0.  1.
         11    1    1    2    0    0  0.29569322269E+02  0.63945219600E+01 -0.46964797922E+01  0.30615219303E+02  0.00000000000E+00 0. -1.
<mgrwt>
<rscale>  0 0.10247601E+03</rscale>
<asrwt>0</asrwt>
<pdfrwt beam="2">  1        2 0.11519176E-01 0.12623469E+03</pdfrwt>
<pdfrwt beam="1">  1       -2 0.19809003E-01 0.12623469E+03</pdfrwt>
<totfact> 0.10694967E+04</totfact>
</mgrwt>
</event>
<event>
 6    1  0.5818426E-006  0.2019134E+03  0.7546771E-02  0.1151241E+00
         -1   -1    0    0    0  501 -0.00000000000E+00  0.00000000000E+00  0.23421799889E+03  0.23421799889E+03  0.00000000000E+00 0.  1.
          1   -1    0    0  501    0  0.00000000000E+00 -0.00000000000E+00 -0.18084438444E+03  0.18084438444E+03  0.00000000000E+00 0. -1.
          5    1    1    2  502    0 -0.64505338398E+02  0.29662000898E+02  0.60526771585E+02  0.93414950931E+02  0.47000000000E+01 0. -1.
         -5    1    1    2    0  502 -0.88643161076E+02 -0.88019090252E+02  0.34122294064E+02  0.12958160057E+03  0.47000000000E+01 0.  1.
        -11    1    1    2    0    0  0.54607986649E+02 -0.26805853287E+01 -0.52260834654E+02  0.75633409168E+02  0.00000000000E+00 0.  1.
         11    1    1    2    0    0  0.98540512824E+02  0.61037674682E+02  0.10985383455E+02  0.11643242267E+03  0.00000000000E+00 0. -1.
<mgrwt>
<rscale>  0 0.19823005E+03</rscale>
<asrwt>0</asrwt>
<pdfrwt beam="2">  1        1 0.27822213E-01 0.20191339E+03</pdfrwt>
<pdfrwt beam="1">  1       -1 0.36033538E-01 0.20191339E+03</pdfrwt>
<totfact> 0.12328248E+03</totfact>
</mgrwt>
</event>
<event>
 6    1  0.5818426E-006  0.1531237E+03  0.7546771E-02  0.1210773E+00
          2   -1    0    0  501    0  0.00000000000E+00  0.00000000000E+00  0.63025986861E+02  0.63025986861E+02  0.00000000000E+00 0. -1.
         -2   -1    0    0    0  501 -0.00000000000E+00 -0.00000000000E+00 -0.31513106088E+03  0.31513106088E+03  0.00000000000E+00 0.  1.
          5    1    1    2  502    0  0.45183410639E+02 -0.16519261284E+02 -0.42028620552E+02  0.64054051674E+02  0.47000000000E+01 0. -1.
         -5    1    1    2    0  502 -0.57978361359E+02  0.82810344272E+02 -0.16266780008E+03  0.19157752135E+03  0.47000000000E+01 0.  1.
        -11    1    1    2    0    0  0.16886047663E+02  0.19635177529E+02 -0.18298914145E+02  0.31710078227E+02  0.00000000000E+00 0.  1.
         11    1    1    2    0    0 -0.40910969424E+01 -0.85926260517E+02 -0.29109739241E+02  0.90815396488E+02  0.00000000000E+00 0. -1.
<mgrwt>
<rscale>  0 0.14191689E+03</rscale>
<asrwt>0</asrwt>
<pdfrwt beam="1">  1        2 0.96963056E-02 0.15312373E+03</pdfrwt>
<pdfrwt beam="2">  1       -2 0.48481702E-01 0.15312373E+03</pdfrwt>
<totfact> 0.26353091E+03</totfact>
</mgrwt>
</event>
<event>
 6    1  0.5818426E-006  0.1613561E+03  0.7546771E-02  0.1194612E+00
         -1   -1    0    0    0  501 -0.00000000000E+00  0.00000000000E+00  0.10311897197E+03  0.10311897197E+03  0.00000000000E+00 0.  1.
          1   -1    0    0  501    0  0.00000000000E+00 -0.00000000000E+00 -0.23810329224E+03  0.23810329224E+03  0.00000000000E+00 0. -1.
          5    1    1    2  502    0 -0.12656201942E+02  0.10085587684E+03 -0.31486586898E+02  0.10651564437E+03  0.47000000000E+01 0. -1.
         -5    1    1    2    0  502  0.54258482480E+02 -0.76903357611E+01  0.11138408909E+02  0.56118431358E+02  0.47000000000E+01 0. -1.
        -11    1    1    2    0    0 -0.19547190598E+02  0.15867331146E+02 -0.15377513552E+02  0.29501403034E+02  0.00000000000E+00 0. -1.
         11    1    1    2    0    0 -0.22055089940E+02 -0.10903287222E+03 -0.99258628734E+02  0.14908678545E+03  0.00000000000E+00 0.  1.
<mgrwt>
<rscale>  0 0.15487127E+03</rscale>
<asrwt>0</asrwt>
<pdfrwt beam="2">  1        1 0.36631276E-01 0.16135611E+03</pdfrwt>
<pdfrwt beam="1">  1       -1 0.15864457E-01 0.16135611E+03</pdfrwt>
<totfact> 0.33607128E+03</totfact>
</mgrwt>
</event>
<event>
 6    1  0.5818426E-006  0.3196857E+03  0.7546771E-02  0.1075794E+00
          4   -1    0    0  501    0  0.00000000000E+00  0.00000000000E+00  0.29192915860E+03  0.29192915860E+03  0.00000000000E+00 0.  1.
         -4   -1    0    0    0  501 -0.00000000000E+00 -0.00000000000E+00 -0.87520327980E+02  0.87520327980E+02  0.00000000000E+00 0. -1.
          5    1    1    2  502    0  0.55822002147E+02 -0.12080287402E+03  0.13476396277E+03  0.18945407348E+03  0.47000000000E+01 0.  1.
         -5    1    1    2    0  502 -0.17614891254E+02  0.10050897328E+02 -0.93955789900E+01  0.22840136504E+02  0.47000000000E+01 0.  1.
        -11    1    1    2    0    0 -0.46103493632E+02  0.76040766666E+02  0.93224635165E+02  0.12883541020E+03  0.00000000000E+00 0.  1.
         11    1    1    2    0    0  0.78963827381E+01  0.34711210028E+02 -0.14184188329E+02  0.38319866395E+02  0.00000000000E+00 0. -1.
<mgrwt>
<rscale>  0 0.31968569E+03</rscale>
<asrwt>0</asrwt>
<pdfrwt beam="1">  1        4 0.44912178E-01 0.31968569E+03</pdfrwt>
<pdfrwt beam="2">  1       -4 0.13464666E-01 0.31968569E+03</pdfrwt>
<totfact> 0.41892604E+02</totfact>
</mgrwt>
</event>
<event>
 6    1  0.5818426E-006  0.3059803E+03  0.7546771E-02  0.1082289E+00
         -3   -1    0    0    0  501 -0.00000000000E+00  0.00000000000E+00  0.33623984862E+03  0.33623984862E+03  0.00000000000E+00 0.  1.
          3   -1    0    0  501    0  0.00000000000E+00 -0.00000000000E+00 -0.69610976216E+02  0.69610976216E+02  0.00000000000E+00 0. -1.
          5    1    1    2  502    0  0.31466610914E+02 -0.39782080953E+01  0.55961855178E+02  0.64496457089E+02  0.47000000000E+01 0.  1.
         -5    1    1    2    0  502 -0.12003557118E+03 -0.27841232096E+02  0.15120298720E+03  0.19511049662E+03  0.47000000000E+01 0.  1.
        -11    1    1    2    0    0  0.38624952808E+02  0.50265867025E+02  0.67270408391E+02  0.92432960638E+02  0.00000000000E+00 0.  1.
         11    1    1    2    0    0  0.49944007461E+02 -0.18446426833E+02 -0.78063783656E+01  0.53810910486E+02  0.00000000000E+00 0. -1.
<mgrwt>
<rscale>  0 0.30598029E+03</rscale>
<asrwt>0</asrwt>
<pdfrwt beam="2">  1        3 0.10709381E-01 0.30598029E+03</pdfrwt>
<pdfrwt beam="1">  1       -3 0.51729207E-01 0.30598029E+03</pdfrwt>
<totfact> 0.62971429E+02</totfact>
</mgrwt>
</event>
<event>
 6    1  0.5818426E-006  0.1398109E+03  0.7546771E-02  0.1224717E+00
         -2   -1    0    0    0  501 -0.00000000000E+00  0.00000000000E+00  0.29870356853E+03  0.29870356853E+03  0.00000000000E+00 0.  1.
          2   -1    0    0  501    0  0.00000000000E+00 -0.00000000000E+00 -0.56838427099E+02  0.56838427099E+02  0.00000000000E+00 0. -1.
          5    1    1    2  502    0 -0.66242662773E+02  0.68284771287E+02  0.99619849247E+02  0.13782998485E+03  0.47000000000E+01 0. -1.
         -5    1    1    2    0  502  0.11386202927E+02 -0.38080827294E+02  0.83165946661E+02  0.92295502104E+02  0.47000000000E+01 0. -1.
        -11    1    1    2    0    0  0.44236545202E+02 -0.49113351135E+02  0.39977751779E+01  0.66219146759E+02  0.00000000000E+00 0. -1.
         11    1    1    2    0    0  0.10619914644E+02  0.18909407142E+02  0.55081570347E+02  0.59197361913E+02  0.00000000000E+00 0.  1.
<mgrwt>
<rscale>  0 0.13186324E+03</rscale>
<asrwt>0</asrwt>
<pdfrwt beam="2">  1        2 0.87443735E-02 0.13981092E+03</pdfrwt>
<pdfrwt beam="1">  1       -2 0.45954395E-01 0.13981092E+03</pdfrwt>
<totfact> 0.33088485E+03</totfact>
</mgrwt>
</event>
<event>
 6    1  0.5818426E-006  0.1284455E+03  0.7546771E-02  0.1243670E+00
         -2   -1    0    0    0  501 -0.00000000000E+00  0.00000000000E+00  0.36919923768E+02  0.36919923768E+02  0.00000000000E+00 0.  1.
          2   -1    0    0  501    0  0.00000000000E+00 -0.00000000000E+00 -0.38986267488E+03  0.38986267488E+03  0.00000000000E+00 0. -1.
          5    1    1    2  502    0 -0.67778636847E+02  0.33513503365E+02 -0.92719589127E+02  0.11973349877E+03  0.47000000000E+01 0. -1.
         -5    1    1    2    0  502  0.48558570989E+02 -0.11087359303E+02 -0.32563665273E+02  0.59693773953E+02  0.47000000000E+01 0. -1.
        -11    1    1    2    0    0  0.22244810270E+02  0.20020062980E+02 -0.21499150296E+02  0.36848988713E+02  0.00000000000E+00 0.  1.
         11    1    1    2    0    0 -0.30247444112E+01 -0.42446207043E+02 -0.20616034641E+03  0.21050633721E+03  0.00000000000E+00 0. -1.
<mgrwt>
<rscale>  0 0.11965322E+03</rscale>
<asrwt>0</asrwt>
<pdfrwt beam="2">  1        2 0.59978873E-01 0.12844552E+03</pdfrwt>
<pdfrwt beam="1">  1       -2 0.56799883E-02 0.12844552E+03</pdfrwt>
<totfact> 0.12446200E+04</totfact>
</mgrwt>
</event>
<event>
 6    1  0.5818426E-006  0.2363735E+03  0.7546771E-02  0.1125131E+00
         -3   -1    0    0    0  501 -0.00000000000E+00  0.00000000000E+00  0.20257128190E+03  0.20257128190E+03  0.00000000000E+00 0.  1.
          3   -1    0    0  501    0  0.00000000000E+00 -0.00000000000E+00 -0.25746477252E+03  0.25746477252E+03  0.00000000000E+00 0. -1.
          5    1    1    2  502    0 -0.17412292918E+03 -0.11810866875E+03  0.56313830758E+01  0.21052851250E+03  0.47000000000E+01 0.  1.
         -5    1    1    2    0  502  0.68391224547E+01  0.73655522129E+01 -0.24140759986E+02  0.26568613965E+02  0.47000000000E+01 0.  1.
        -11    1    1    2    0    0  0.58621211186E+02  0.33692287976E+02  0.30159009704E+02  0.74035008856E+02  0.00000000000E+00 0.  1.
         11    1    1    2    0    0  0.10866259554E+03  0.77050828559E+02 -0.66543123421E+02  0.14890391910E+03  0.00000000000E+00 0. -1.
<mgrwt>
<rscale>  0 0.23215610E+03</rscale>
<asrwt>0</asrwt>
<pdfrwt beam="2">  1        3 0.39609965E-01 0.23637354E+03</pdfrwt>
<pdfrwt beam="1">  1       -3 0.31164813E-01 0.23637354E+03</pdfrwt>
<totfact> 0.15705206E+02</totfact>
</mgrwt>
</event>
<event>
 6    1  0.5818426E-006  0.1586973E+03  0.7546771E-02  0.1195394E+00
         -1   -1    0    0    0  501 -0.00000000000E+00  0.00000000000E+00  0.17120679304E+03  0.17120679304E+03  0.00000000000E+00 0.  1.
          1   -1    0    0  501    0  0.00000000000E+00 -0.00000000000E+00 -0.13327989935E+03  0.13327989935E+03  0.00000000000E+00 0. -1.
          5    1    1    2  502    0  0.33841322063E+02  0.28195418487E+02  0.44343707035E+01  0.44519325536E+02  0.47000000000E+01 0. -1.
         -5    1    1    2    0  502 -0.96894812929E+02  0.59610934293E+02  0.32738388281E+02  0.11847345832E+03  0.47000000000E+01 0.  1.
        -11    1    1    2    0    0 -0.46898528313E+01 -0.43074687519E+02  0.32670460205E+02  0.54265849246E+02  0.00000000000E+00 0.  1.
         11    1    1    2    0    0  0.67743343697E+02 -0.44731665262E+02 -0.31916325502E+02  0.87228059281E+02  0.00000000000E+00 0. -1.
<mgrwt>
<rscale>  0 0.15420912E+03</rscale>
<asrwt>0</asrwt>
<pdfrwt beam="2">  1        1 0.20504600E-01 0.15869730E+03</pdfrwt>
<pdfrwt beam="1">  1       -1 0.26339507E-01 0.15869730E+03</pdfrwt>
<totfact> 0.30670716E+03</totfact>
</mgrwt>
</event>
<event>
 6    1  0.5818426E-006  0.1342451E+03  0.7546771E-02  0.1232962E+00
          1   -1    0    0  501    0  0.00000000000E+00  0.00000000000E+00  0.21616609683E+03  0.21616609683E+03  0.00000000000E+00 0. -1.
         -1   -1    0    0    0  501 -0.00000000000E+00 -0.00000000000E+00 -0.66474648259E+02  0.66474648259E+02  0.00000000000E+00 0.  1.
          5    1    1    2  502    0  0.50129831037E+02  0.74809642514E+02  0.40576158288E+02  0.98883755968E+02  0.47000000000E+01 0. -1.
         -5    1    1    2    0  502 -0.18980755422E+02 -0.37047910529E+02  0.38640851838E+02  0.56991422001E+02  0.47000000000E+01 0. -1.
        -11    1    1    2    0    0 -0.36615861003E+01  0.15673465475E+02 -0.15186892247E+02  0.22129311532E+02  0.00000000000E+00 0.  1.
         11    1    1    2    0    0 -0.27487489514E+02 -0.53435197461E+02  0.85661330692E+02  0.10463625559E+03  0.00000000000E+00 0. -1.
<mgrwt>
<rscale>  0 0.12635811E+03</rscale>
<asrwt>0</asrwt>
<pdfrwt beam="1">  1        1 0.33256322E-01 0.13424506E+03</pdfrwt>
<pdfrwt beam="2">  1       -1 0.10226869E-01 0.13424506E+03</pdfrwt>
<totfact> 0.74136814E+03</totfact>
</mgrwt>
</event>
<event>
 6    1  0.6101237E-006  0.1948988E+03  0.7546771E-02  0.1158592E+00
         -1   -1    0    0    0  501 -0.00000000000E+00  0.00000000000E+00  0.15371011448E+02  0.15371011448E+02  0.00000000000E+00 0.  1.
          1   -1    0    0  501    0  0.00000000000E+00 -0.00000000000E+00 -0.22726861676E+04  0.22726861676E+04  0.00000000000E+00 0. -1.
          5    1    1    2  502    0 -0.33502712517E+02  0.35327220259E+02 -0.11541404537E+03  0.12535125092E+03  0.47000000000E+01 0. -1.
         -5    1    1    2    0  502 -0.66989345052E+02  0.75409686538E+02 -0.12254722011E+04  0.12296253083E+04  0.47000000000E+01 0. -1.
        -11    1    1    2    0    0 -0.12595732423E+02 -0.40200581000E+02 -0.20813130643E+03  0.21235201884E+03  0.00000000000E+00 0.  1.
         11    1    1    2    0    0  0.11308778999E+03 -0.70536325797E+02 -0.70829760328E+03  0.72072860101E+03  0.00000000000E+00 0. -1.
<mgrwt>
<rscale>  0 0.18985469E+03</rscale>
<asrwt>0</asrwt>
<pdfrwt beam="2">  1        1 0.34964388E+00 0.19489882E+03</pdfrwt>
<pdfrwt beam="1">  1       -1 0.23647720E-02 0.19489882E+03</pdfrwt>
<totfact> 0.12087250E+03</totfact>
</mgrwt>
</event>
<event>
 6    1  0.5818426E-006  0.1640653E+03  0.7546771E-02  0.1191720E+00
          3   -1    0    0  501    0  0.00000000000E+00  0.00000000000E+00  0.23657381787E+03  0.23657381787E+03  0.00000000000E+00 0. -1.
         -3   -1    0    0    0  501 -0.00000000000E+00 -0.00000000000E+00 -0.96943027315E+02  0.96943027315E+02  0.00000000000E+00 0.  1.
          5    1    1    2  502    0  0.11932707399E+03 -0.19941593290E+02  0.56983427718E+02  0.13381262558E+03  0.47000000000E+01 0.  1.
         -5    1    1    2    0  502 -0.27171163002E+02 -0.32936959970E+02  0.17966865441E+02  0.46561933859E+02  0.47000000000E+01 0.  1.
        -11    1    1    2    0    0  0.17554263219E+02  0.13817818975E+02  0.95525474531E+01  0.24296819570E+02  0.00000000000E+00 0.  1.
         11    1    1    2    0    0 -0.10971017421E+03  0.39060734285E+02  0.55127949944E+02  0.12884546617E+03  0.00000000000E+00 0. -1.
<mgrwt>
<rscale>  0 0.15735118E+03</rscale>
<asrwt>0</asrwt>
<pdfrwt beam="1">  1        3 0.36395972E-01 0.16406534E+03</pdfrwt>
<pdfrwt beam="2">  1       -3 0.14914312E-01 0.16406534E+03</pdfrwt>
<totfact> 0.66441732E+02</totfact>
</mgrwt>
</event>
<event>
 6    1  0.5818426E-006  0.3495994E+03  0.7546771E-02  0.1063788E+00
         -2   -1    0    0    0  501 -0.00000000000E+00  0.00000000000E+00  0.19960314076E+04  0.19960314076E+04  0.00000000000E+00 0.  1.
          2   -1    0    0  501    0  0.00000000000E+00 -0.00000000000E+00 -0.74823854704E+02  0.74823854704E+02  0.00000000000E+00 0. -1.
          5    1    1    2  502    0 -0.18399585769E+03  0.41411868245E+02  0.10092138962E+04  0.10266957664E+04  0.47000000000E+01 0.  1.
         -5    1    1    2    0  502 -0.11359833736E+03  0.92861505678E+02  0.42989847554E+03  0.45427153858E+03  0.47000000000E+01 0.  1.
        -11    1    1    2    0    0  0.29298044419E+03 -0.10968171763E+03  0.46119411271E+03  0.55728594946E+03  0.00000000000E+00 0.  1.
         11    1    1    2    0    0  0.46137508473E+01 -0.24591656289E+02  0.20901068504E+02  0.32602007922E+02  0.00000000000E+00 0. -1.
<mgrwt>
<rscale>  0 0.34715643E+03</rscale>
<asrwt>0</asrwt>
<pdfrwt beam="2">  1        2 0.11511364E-01 0.34959940E+03</pdfrwt>
<pdfrwt beam="1">  1       -2 0.30708171E+00 0.34959940E+03</pdfrwt>
<totfact> 0.17576862E+01</totfact>
</mgrwt>
</event>
<event>
 6    1  0.5818426E-006  0.1667881E+03  0.7546771E-02  0.1188233E+00
         -2   -1    0    0    0  501 -0.00000000000E+00  0.00000000000E+00  0.20448465888E+03  0.20448465888E+03  0.00000000000E+00 0.  1.
          2   -1    0    0  501    0  0.00000000000E+00 -0.00000000000E+00 -0.20088959470E+03  0.20088959470E+03  0.00000000000E+00 0. -1.
          5    1    1    2  502    0  0.48226478166E+02  0.74161174243E+02  0.15268556440E+03  0.17652377896E+03  0.47000000000E+01 0. -1.
         -5    1    1    2    0  502 -0.85046241552E+01  0.28864350876E+02 -0.20143996899E+02  0.36515065310E+02  0.47000000000E+01 0. -1.
        -11    1    1    2    0    0  0.96165128481E+00 -0.98295774995E+02 -0.70505675924E+02  0.12097121349E+03  0.00000000000E+00 0.  1.
         11    1    1    2    0    0 -0.40683505296E+02 -0.47297501237E+01 -0.58440827398E+02  0.71364195830E+02  0.00000000000E+00 0. -1.
<mgrwt>
<rscale>  0 0.16041180E+03</rscale>
<asrwt>0</asrwt>
<pdfrwt beam="2">  1        2 0.30906091E-01 0.16678814E+03</pdfrwt>
<pdfrwt beam="1">  1       -2 0.31459178E-01 0.16678814E+03</pdfrwt>
<totfact> 0.15665553E+03</totfact>
</mgrwt>
</event>
<event>
 6    1  0.5818426E-006  0.1274231E+03  0.7546771E-02  0.1246636E+00
         -1   -1    0    0    0  501 -0.00000000000E+00  0.00000000000E+00  0.21420130845E+02  0.21420130845E+02  0.00000000000E+00 0.  1.
          1   -1    0    0  501    0  0.00000000000E+00 -0.00000000000E+00 -0.57921437836E+03  0.57921437836E+03  0.00000000000E+00 0. -1.
          5    1    1    2  502    0  0.12877013958E+02  0.38442139684E+02 -0.46188822365E+02  0.61636944307E+02  0.47000000000E+01 0. -1.
         -5    1    1    2    0  502 -0.90468791707E+01 -0.62867591335E+02 -0.31488052273E+03  0.32125692780E+03  0.47000000000E+01 0. -1.
        -11    1    1    2    0    0 -0.42328953611E+02  0.12755756752E+02 -0.55823635994E+02  0.71209044227E+02  0.00000000000E+00 0. -1.
         11    1    1    2    0    0  0.38498818823E+02  0.11669694899E+02 -0.14090126643E+03  0.14653159287E+03  0.00000000000E+00 0.  1.
<mgrwt>
<rscale>  0 0.11788003E+03</rscale>
<asrwt>0</asrwt>
<pdfrwt beam="2">  1        1 0.89109889E-01 0.12742310E+03</pdfrwt>
<pdfrwt beam="1">  1       -1 0.32954053E-02 0.12742310E+03</pdfrwt>
<totfact> 0.11493875E+04</totfact>
</mgrwt>
</event>
<event>
 6    1  0.5818426E-006  0.2533760E+03  0.7546771E-02  0.1111190E+00
          1   -1    0    0  501    0  0.00000000000E+00  0.00000000000E+00  0.21293283945E+03  0.21293283945E+03  0.00000000000E+00 0. -1.
         -1   -1    0    0    0  501 -0.00000000000E+00 -0.00000000000E+00 -0.75375165226E+02  0.75375165226E+02  0.00000000000E+00 0.  1.
          5    1    1    2  502    0 -0.61859286538E+02  0.32425803091E+02 -0.28536888819E+02  0.75593968414E+02  0.47000000000E+01 0.  1.
         -5    1    1    2    0  502  0.13391140702E+02 -0.22340328660E+02  0.55559007052E+02  0.61541093576E+02  0.47000000000E+01 0.  1.
        -11    1    1    2    0    0  0.33807933861E+02  0.39107793879E+02  0.52128666436E+02  0.73415215034E+02  0.00000000000E+00 0. -1.
         11    1    1    2    0    0  0.14660211975E+02 -0.49193268309E+02  0.58406889550E+02  0.77757727648E+02  0.00000000000E+00 0.  1.
<mgrwt>
<rscale>  0 0.25337599E+03</rscale>
<asrwt>0</asrwt>
<pdfrwt beam="1">  1        1 0.32758898E-01 0.25337599E+03</pdfrwt>
<pdfrwt beam="2">  1       -1 0.11596179E-01 0.25337599E+03</pdfrwt>
<totfact> 0.64669422E+03</totfact>
</mgrwt>
</event>
<event>
 6    1  0.5818426E-006  0.1361938E+03  0.7546771E-02  0.1230621E+00
          2   -1    0    0  501    0  0.00000000000E+00  0.00000000000E+00  0.37925951061E+03  0.37925951061E+03  0.00000000000E+00 0. -1.
         -2   -1    0    0    0  501 -0.00000000000E+00 -0.00000000000E+00 -0.47981012417E+02  0.47981012417E+02  0.00000000000E+00 0.  1.
          5    1    1    2  502    0 -0.32960413035E+02  0.55287835675E+02 -0.31503271041E+01  0.64615386418E+02  0.47000000000E+01 0.  1.
         -5    1    1    2    0  502 -0.14964202794E+02 -0.30170447481E+02  0.91782460091E+02  0.97878972445E+02  0.47000000000E+01 0.  1.
        -11    1    1    2    0    0  0.72120372502E+02 -0.18520983394E+02  0.13455588697E+03  0.15378446500E+03  0.00000000000E+00 0.  1.
         11    1    1    2    0    0 -0.24195756673E+02 -0.65964047998E+01  0.10809047824E+03  0.11096169917E+03  0.00000000000E+00 0. -1.
<mgrwt>
<rscale>  0 0.12788943E+03</rscale>
<asrwt>0</asrwt>
<pdfrwt beam="1">  1        2 0.58347615E-01 0.13619384E+03</pdfrwt>
<pdfrwt beam="2">  1       -2 0.73816945E-02 0.13619384E+03</pdfrwt>
<totfact> 0.86379986E+03</totfact>
</mgrwt>
</event>
<event>
 6    1  0.5818426E-006  0.1391804E+03  0.7546771E-02  0.1230508E+00
         -2   -1    0    0    0  501 -0.00000000000E+00  0.00000000000E+00  0.12361724924E+04  0.12361724924E+04  0.00000000000E+00 0.  1.
          2   -1    0    0  501    0  0.00000000000E+00 -0.00000000000E+00 -0.27230311604E+03  0.27230311604E+03  0.00000000000E+00 0. -1.
          5    1    1    2  502    0 -0.60498071011E+02 -0.24947092927E+02  0.32544421617E+03  0.33199156899E+03  0.47000000000E+01 0. -1.
         -5    1    1    2    0  502  0.46691080512E+02 -0.14732599897E+02  0.89756672815E+03  0.89891335955E+03  0.47000000000E+01 0.  1.
        -11    1    1    2    0    0  0.68096291584E+01  0.65429398818E+02 -0.12994217330E+03  0.14564458686E+03  0.00000000000E+00 0. -1.
         11    1    1    2    0    0  0.69973613404E+01 -0.25749705994E+02 -0.12919939470E+03  0.13192609301E+03  0.00000000000E+00 0.  1.
<mgrwt>
<rscale>  0 0.12796441E+03</rscale>
<asrwt>0</asrwt>
<pdfrwt beam="2">  1        2 0.41892788E-01 0.13918036E+03</pdfrwt>
<pdfrwt beam="1">  1       -2 0.19018038E+00 0.13918036E+03</pdfrwt>
<totfact> 0.21227822E+01</totfact>
</mgrwt>
</event>
<event>
 6    1  0.5818426E-006  0.1259007E+03  0.7546771E-02  0.1248416E+00
         -3   -1    0    0    0  501 -0.00000000000E+00  0.00000000000E+00  0.60231800648E+02  0.60231800648E+02  0.00000000000E+00 0.  1.
          3   -1    0    0  501    0  0.00000000000E+00 -0.00000000000E+00 -0.20482705953E+03  0.20482705953E+03  0.00000000000E+00 0. -1.
          5    1    1    2  502    0 -0.54237253578E+02  0.89510920269E+01 -0.10947930974E+03  0.12259531388E+03  0.47000000000E+01 0.  1.
         -5    1    1    2    0  502  0.39478787533E+02 -0.57944483382E+01  0.56801499570E+01  0.40577141350E+02  0.47000000000E+01 0.  1.
        -11    1    1    2    0    0 -0.26358670825E+02 -0.32050404563E+02 -0.27899613477E+02  0.50003963768E+02  0.00000000000E+00 0.  1.
         11    1    1    2    0    0  0.41117136869E+02  0.28893760875E+02 -0.12896485628E+02  0.51882441186E+02  0.00000000000E+00 0. -1.
<mgrwt>
<rscale>  0 0.11683258E+03</rscale>
<asrwt>0</asrwt>
<pdfrwt beam="2">  1        3 0.31511855E-01 0.12590069E+03</pdfrwt>
<pdfrwt beam="1">  1       -3 0.92664309E-02 0.12590069E+03</pdfrwt>
<totfact> 0.18565580E+03</totfact>
</mgrwt>
</event>
<event>
 6    1  0.5818426E-006  0.1536008E+03  0.7546771E-02  0.1204605E+00
          1   -1    0    0  501    0  0.00000000000E+00  0.00000000000E+00  0.20510749604E+03  0.20510749604E+03  0.00000000000E+00 0.  1.
         -1   -1    0    0    0  501 -0.00000000000E+00 -0.00000000000E+00 -0.11827285326E+03  0.11827285326E+03  0.00000000000E+00 0. -1.
          5    1    1    2  502    0  0.27970368536E+02 -0.91890085035E+01  0.43723887938E+02  0.52921146716E+02  0.47000000000E+01 0. -1.
         -5    1    1    2    0  502  0.40421714227E+02  0.66551091885E+02 -0.66209119009E+02  0.10231666654E+03  0.47000000000E+01 0. -1.
        -11    1    1    2    0    0  0.22258582085E+02 -0.11407925283E+02  0.13317101816E+02  0.28336027183E+02  0.00000000000E+00 0.  1.
         11    1    1    2    0    0 -0.90650664848E+02 -0.45954158098E+02  0.96002772035E+02  0.13980650887E+03  0.00000000000E+00 0. -1.
<mgrwt>
<rscale>  0 0.14668599E+03</rscale>
<asrwt>0</asrwt>
<pdfrwt beam="1">  1        1 0.31554999E-01 0.15360076E+03</pdfrwt>
<pdfrwt beam="2">  1       -1 0.18195824E-01 0.15360076E+03</pdfrwt>
<totfact> 0.32470684E+03</totfact>
</mgrwt>
</event>
<event>
 6    1  0.5818426E-006  0.3655762E+03  0.7546771E-02  0.1056397E+00
         -3   -1    0    0    0  501 -0.00000000000E+00  0.00000000000E+00  0.74752430198E+03  0.74752430198E+03  0.00000000000E+00 0.  1.
          3   -1    0    0  501    0  0.00000000000E+00 -0.00000000000E+00 -0.44696195886E+02  0.44696195886E+02  0.00000000000E+00 0. -1.
          5    1    1    2  502    0 -0.83410063893E+02  0.61669232234E+02  0.44482272280E+03  0.45678187101E+03  0.47000000000E+01 0. -1.
         -5    1    1    2    0  502  0.40187053225E+02 -0.30337250628E+01  0.19917319865E+03  0.20326400516E+03  0.47000000000E+01 0. -1.
        -11    1    1    2    0    0  0.48822051957E+02  0.92614347168E+01  0.18631877369E+02  0.53070837422E+02  0.00000000000E+00 0.  1.
         11    1    1    2    0    0 -0.55990412889E+01 -0.67896941888E+02  0.40200307275E+02  0.79103784272E+02  0.00000000000E+00 0. -1.
<mgrwt>
<rscale>  0 0.36557622E+03</rscale>
<asrwt>0</asrwt>
<pdfrwt beam="2">  1        3 0.68763384E-02 0.36557622E+03</pdfrwt>
<pdfrwt beam="1">  1       -3 0.11500373E+00 0.36557622E+03</pdfrwt>
<totfact> 0.23057264E+02</totfact>
</mgrwt>
</event>
<event>
 6    1  0.5818426E-006  0.1325700E+03  0.7546771E-02  0.1236496E+00
         -1   -1    0    0    0  501 -0.00000000000E+00  0.00000000000E+00  0.42315193258E+02  0.42315193258E+02  0.00000000000E+00 0.  1.
          1   -1    0    0  501    0  0.00000000000E+00 -0.00000000000E+00 -0.34781858161E+03  0.34781858161E+03  0.00000000000E+00 0. -1.
          5    1    1    2  502    0  0.14345756068E+02 -0.23685374707E+02  0.10350102029E+02  0.29933464620E+02  0.47000000000E+01 0. -1.
         -5    1    1    2    0  502 -0.46585187680E+02  0.53866563211E+02 -0.13167284183E+03  0.14977187192E+03  0.47000000000E+01 0. -1.
        -11    1    1    2    0    0  0.24600775678E+02 -0.59002015609E+02 -0.81922375063E+02  0.10391203754E+03  0.00000000000E+00 0.  1.
         11    1    1    2    0    0  0.76386559344E+01  0.28820827105E+02 -0.10225827348E+03  0.10651640078E+03  0.00000000000E+00 0. -1.
<mgrwt>
<rscale>  0 0.12409131E+03</rscale>
<asrwt>0</asrwt>
<pdfrwt beam="2">  1        1 0.53510554E-01 0.13256998E+03</pdfrwt>
<pdfrwt beam="1">  1       -1 0.65100294E-02 0.13256998E+03</pdfrwt>
<totfact> 0.81309473E+03</totfact>
</mgrwt>
</event>
<event>
 6    1  0.5818426E-006  0.1690638E+03  0.7546771E-02  0.1185847E+00
          1   -1    0    0  501    0  0.00000000000E+00  0.00000000000E+00  0.56769631908E+02  0.56769631908E+02  0.00000000000E+00 0. -1.
         -1   -1    0    0    0  501 -0.00000000000E+00 -0.00000000000E+00 -0.56418623889E+03  0.56418623889E+03  0.00000000000E+00 0.  1.
          5    1    1    2  502    0  0.26589720345E+02  0.89492964821E+02 -0.31799032228E+03  0.33144522782E+03  0.47000000000E+01 0. -1.
         -5    1    1    2    0  502  0.62492923968E+02 -0.18627520778E+02 -0.10038573777E+03  0.11979873298E+03  0.47000000000E+01 0. -1.
        -11    1    1    2    0    0 -0.58865639910E+02 -0.34730136982E+02  0.71032575828E+00  0.68350936639E+02  0.00000000000E+00 0. -1.
         11    1    1    2    0    0 -0.30217004403E+02 -0.36135307060E+02 -0.89750872695E+02  0.10136097336E+03  0.00000000000E+00 0.  1.
<mgrwt>
<rscale>  0 0.16255059E+03</rscale>
<asrwt>0</asrwt>
<pdfrwt beam="1">  1        1 0.87337898E-02 0.16906385E+03</pdfrwt>
<pdfrwt beam="2">  1       -1 0.86797880E-01 0.16906385E+03</pdfrwt>
<totfact> 0.10482416E+03</totfact>
</mgrwt>
</event>
<event>
 6    1  0.5818426E-006  0.1216091E+03  0.7546771E-02  0.1249883E+00
         -2   -1    0    0    0  501 -0.00000000000E+00  0.00000000000E+00  0.16139888995E+02  0.16139888995E+02  0.00000000000E+00 0.  1.
          2   -1    0    0  501    0  0.00000000000E+00 -0.00000000000E+00 -0.76522860779E+03  0.76522860779E+03  0.00000000000E+00 0. -1.
          5    1    1    2  502    0  0.88965041541E+01 -0.65911307721E+02 -0.31603609156E+03  0.32299280091E+03  0.47000000000E+01 0. -1.
         -5    1    1    2    0  502  0.26855854476E+02  0.35579374992E+02 -0.85260239218E+02  0.96325112177E+02  0.47000000000E+01 0.  1.
        -11    1    1    2    0    0  0.22381734773E+02  0.24147104511E+02 -0.60583832431E+02  0.68952341945E+02  0.00000000000E+00 0.  1.
         11    1    1    2    0    0 -0.58134093402E+02  0.61848282178E+01 -0.28720855558E+03  0.29309824175E+03  0.00000000000E+00 0. -1.
<mgrwt>
<rscale>  0 0.11597860E+03</rscale>
<asrwt>0</asrwt>
<pdfrwt beam="2">  1        2 0.11772747E+00 0.12160908E+03</pdfrwt>
<pdfrwt beam="1">  1       -2 0.24830601E-02 0.12160908E+03</pdfrwt>
<totfact> 0.19800005E+04</totfact>
</mgrwt>
</event>
<event>
 6    1  0.5818426E-006  0.1409340E+03  0.7546771E-02  0.1223367E+00
          1   -1    0    0  501    0  0.00000000000E+00  0.00000000000E+00  0.53272927350E+02  0.53272927350E+02  0.00000000000E+00 0. -1.
         -1   -1    0    0    0  501 -0.00000000000E+00 -0.00000000000E+00 -0.39052481348E+03  0.39052481348E+03  0.00000000000E+00 0.  1.
          5    1    1    2  502    0 -0.12010061938E+02 -0.29919043430E+02 -0.28801506008E+03  0.28985195459E+03  0.47000000000E+01 0. -1.
         -5    1    1    2    0  502 -0.54588868373E+01 -0.32772952351E+02 -0.32424869613E+01  0.33711564381E+02  0.47000000000E+01 0. -1.
        -11    1    1    2    0    0 -0.75387655284E+01  0.53781742221E+02 -0.67097057670E+02  0.86321051488E+02  0.00000000000E+00 0.  1.
         11    1    1    2    0    0  0.25007714304E+02  0.89102535597E+01  0.21102718580E+02  0.33913170372E+02  0.00000000000E+00 0. -1.
<mgrwt>
<rscale>  0 0.13279438E+03</rscale>
<asrwt>0</asrwt>
<pdfrwt beam="1">  1        1 0.81958344E-02 0.14093400E+03</pdfrwt>
<pdfrwt beam="2">  1       -1 0.60080745E-01 0.14093400E+03</pdfrwt>
<totfact> 0.23662114E+03</totfact>
</mgrwt>
</event>
<event>
 6    1  0.5818426E-006  0.1322703E+03  0.7546771E-02  0.1237427E+00
         -1   -1    0    0    0  501 -0.00000000000E+00  0.00000000000E+00  0.28543596571E+03  0.28543596571E+03  0.00000000000E+00 0.  1.
          1   -1    0    0  501    0  0.00000000000E+00 -0.00000000000E+00 -0.59737892234E+02  0.59737892234E+02  0.00000000000E+00 0. -1.
          5    1    1    2  502    0  0.26026410905E+01 -0.65749645416E+02  0.16750377547E+03  0.18002609369E+03  0.47000000000E+01 0.  1.
         -5    1    1    2    0  502 -0.34808652352E+02  0.37055508933E+02  0.35197813077E+02  0.62013942514E+02  0.47000000000E+01 0.  1.
        -11    1    1    2    0    0  0.46145012435E+02  0.48013758287E+02  0.36303516463E+02  0.75846084046E+02  0.00000000000E+00 0.  1.
         11    1    1    2    0    0 -0.13939001174E+02 -0.19319621803E+02 -0.13307031531E+02  0.27287737695E+02  0.00000000000E+00 0. -1.
<mgrwt>
<rscale>  0 0.12350333E+03</rscale>
<asrwt>0</asrwt>
<pdfrwt beam="2">  1        1 0.91904451E-02 0.13227035E+03</pdfrwt>
<pdfrwt beam="1">  1       -1 0.43913225E-01 0.13227035E+03</pdfrwt>
<totfact> 0.36000877E+03</totfact>
</mgrwt>
</event>
<event>
 6    1  0.5818426E-006  0.1267456E+03  0.7546771E-02  0.1249103E+00
         -1   -1    0    0    0  501 -0.00000000000E+00  0.00000000000E+00  0.48948520854E+02  0.48948520854E+02  0.00000000000E+00 0.  1.
          1   -1    0    0  501    0  0.00000000000E+00 -0.00000000000E+00 -0.25098316254E+03  0.25098316254E+03  0.00000000000E+00 0. -1.
          5    1    1    2  502    0 -0.66188585062E+01  0.44225776569E+02 -0.99412437495E+02  0.10910843840E+03  0.47000000000E+01 0. -1.
         -5    1    1    2    0  502 -0.11099231869E+02 -0.41204263232E+02  0.12334007019E+02  0.44667683908E+02  0.47000000000E+01 0.  1.
        -11    1    1    2    0    0  0.40182187155E+02  0.14616871818E+02 -0.10885261493E+03  0.11694936033E+03  0.00000000000E+00 0. -1.
         11    1    1    2    0    0 -0.22464096780E+02 -0.17638385155E+02 -0.61035962890E+01  0.29206200758E+02  0.00000000000E+00 0.  1.
<mgrwt>
<rscale>  0 0.11643167E+03</rscale>
<asrwt>0</asrwt>
<pdfrwt beam="2">  1        1 0.38612794E-01 0.12674558E+03</pdfrwt>
<pdfrwt beam="1">  1       -1 0.75305416E-02 0.12674558E+03</pdfrwt>
<totfact> 0.97550830E+03</totfact>
</mgrwt>
</event>
<event>
 6    1  0.5818426E-006  0.1366605E+03  0.7546771E-02  0.1230567E+00
         -1   -1    0    0    0  501 -0.00000000000E+00  0.00000000000E+00  0.87277879405E+02  0.87277879405E+02  0.00000000000E+00 0.  1.
          1   -1    0    0  501    0  0.00000000000E+00 -0.00000000000E+00 -0.28575490555E+03  0.28575490555E+03  0.00000000000E+00 0. -1.
          5    1    1    2  502    0  0.24896011875E+02  0.35459659922E+02  0.57474844582E+02  0.72129374383E+02  0.47000000000E+01 0.  1.
         -5    1    1    2    0  502  0.30336645054E+02 -0.35927779354E+02 -0.44800608022E+02  0.65117600091E+02  0.47000000000E+01 0.  1.
        -11    1    1    2    0    0 -0.70490612766E+02 -0.26181384535E+01 -0.20835229296E+03  0.21996922312E+03  0.00000000000E+00 0. -1.
         11    1    1    2    0    0  0.15257955837E+02  0.30862578859E+01 -0.27989697393E+01  0.15816587358E+02  0.00000000000E+00 0.  1.
<mgrwt>
<rscale>  0 0.12792522E+03</rscale>
<asrwt>0</asrwt>
<pdfrwt beam="2">  1        1 0.43962294E-01 0.13666051E+03</pdfrwt>
<pdfrwt beam="1">  1       -1 0.13427366E-01 0.13666051E+03</pdfrwt>
<totfact> 0.34544781E+03</totfact>
</mgrwt>
</event>
<event>
 6    1  0.5818426E-006  0.1404793E+03  0.7546771E-02  0.1224494E+00
          2   -1    0    0  501    0  0.00000000000E+00  0.00000000000E+00  0.30861359208E+03  0.30861359208E+03  0.00000000000E+00 0. -1.
         -2   -1    0    0    0  501 -0.00000000000E+00 -0.00000000000E+00 -0.50679936193E+02  0.50679936193E+02  0.00000000000E+00 0.  1.
          5    1    1    2  502    0 -0.14322918397E+02 -0.16134137001E+02 -0.19935886998E+02  0.29748713562E+02  0.47000000000E+01 0. -1.
         -5    1    1    2    0  502 -0.51619354860E+01 -0.44931596039E+02  0.16929095113E+03  0.17529121494E+03  0.47000000000E+01 0. -1.
        -11    1    1    2    0    0 -0.23119012852E+02  0.38680702678E+02  0.93545320877E+02  0.10383358114E+03  0.00000000000E+00 0. -1.
         11    1    1    2    0    0  0.42603866735E+02  0.22385030363E+02  0.15033270877E+02  0.50420018627E+02  0.00000000000E+00 0.  1.
<mgrwt>
<rscale>  0 0.13201672E+03</rscale>
<asrwt>0</asrwt>
<pdfrwt beam="1">  1        2 0.47479013E-01 0.14047931E+03</pdfrwt>
<pdfrwt beam="2">  1       -2 0.77969135E-02 0.14047931E+03</pdfrwt>
<totfact> 0.99058255E+03</totfact>
</mgrwt>
</event>
<event>
 6    1  0.5818426E-006  0.3406107E+03  0.7546771E-02  0.1066536E+00
         -4   -1    0    0    0  501 -0.00000000000E+00  0.00000000000E+00  0.61073412150E+02  0.61073412150E+02  0.00000000000E+00 0.  1.
          4   -1    0    0  501    0  0.00000000000E+00 -0.00000000000E+00 -0.47490257481E+03  0.47490257481E+03  0.00000000000E+00 0. -1.
          5    1    1    2  502    0  0.37149979701E+01 -0.30905989115E+02 -0.11727082887E+03  0.12142289189E+03  0.47000000000E+01 0.  1.
         -5    1    1    2    0  502 -0.13066858115E+03  0.51617417466E+01 -0.13016367925E+03  0.18456867305E+03  0.47000000000E+01 0.  1.
        -11    1    1    2    0    0  0.51324582865E+02  0.47818851044E+02 -0.39177964644E+02  0.80347795459E+02  0.00000000000E+00 0. -1.
         11    1    1    2    0    0  0.75629000315E+02 -0.22074603676E+02 -0.12721668991E+03  0.14963662656E+03  0.00000000000E+00 0.  1.
<mgrwt>
<rscale>  0 0.34061075E+03</rscale>
<asrwt>0</asrwt>
<pdfrwt beam="2">  1        4 0.73061933E-01 0.34061075E+03</pdfrwt>
<pdfrwt beam="1">  1       -4 0.93959097E-02 0.34061075E+03</pdfrwt>
<totfact> 0.28041065E+02</totfact>
</mgrwt>
</event>
<event>
 6    1  0.5818426E-006  0.1270312E+03  0.7546771E-02  0.1246768E+00
         -2   -1    0    0    0  501 -0.00000000000E+00  0.00000000000E+00  0.21041554679E+03  0.21041554679E+03  0.00000000000E+00 0.  1.
          2   -1    0    0  501    0  0.00000000000E+00 -0.00000000000E+00 -0.59395183266E+02  0.59395183266E+02  0.00000000000E+00 0. -1.
          5    1    1    2  502    0  0.59126203646E+02 -0.89916806651E+00  0.10925414393E+03  0.12431924399E+03  0.47000000000E+01 0.  1.
         -5    1    1    2    0  502 -0.39857422805E+02 -0.11033832626E+02 -0.23787979465E+01  0.41690625982E+02  0.47000000000E+01 0.  1.
        -11    1    1    2    0    0 -0.50386781253E+02  0.13756057724E+01  0.21148347588E+01  0.50449901312E+02  0.00000000000E+00 0.  1.
         11    1    1    2    0    0  0.31118000412E+02  0.10557394920E+02  0.42030182784E+02  0.53350958773E+02  0.00000000000E+00 0. -1.
<mgrwt>
<rscale>  0 0.11780193E+03</rscale>
<asrwt>0</asrwt>
<pdfrwt beam="2">  1        2 0.91377206E-02 0.12703125E+03</pdfrwt>
<pdfrwt beam="1">  1       -2 0.32371622E-01 0.12703125E+03</pdfrwt>
<totfact> 0.60132108E+03</totfact>
</mgrwt>
</event>
<event>
 6    1  0.5818426E-006  0.2877031E+03  0.7546771E-02  0.1091554E+00
         -2   -1    0    0    0  501 -0.00000000000E+00  0.00000000000E+00  0.25866921889E+03  0.25866921889E+03  0.00000000000E+00 0.  1.
          2   -1    0    0  501    0  0.00000000000E+00 -0.00000000000E+00 -0.79998983366E+02  0.79998983366E+02  0.00000000000E+00 0. -1.
          5    1    1    2  502    0  0.39911231989E+02  0.82860100771E+02  0.15884364265E+02  0.93451087563E+02  0.47000000000E+01 0.  1.
         -5    1    1    2    0  502  0.20338826001E+01 -0.23538631005E+00  0.10108495396E+03  0.10121487046E+03  0.47000000000E+01 0.  1.
        -11    1    1    2    0    0  0.28391656711E+02 -0.20105643839E+02  0.81683709700E+01  0.35735771564E+02  0.00000000000E+00 0.  1.
         11    1    1    2    0    0 -0.70336771300E+02 -0.62519070622E+02  0.53532546334E+02  0.10826647267E+03  0.00000000000E+00 0. -1.
<mgrwt>
<rscale>  0 0.28770314E+03</rscale>
<asrwt>0</asrwt>
<pdfrwt beam="2">  1        2 0.12307536E-01 0.28770314E+03</pdfrwt>
<pdfrwt beam="1">  1       -2 0.39795264E-01 0.28770314E+03</pdfrwt>
<totfact> 0.29739162E+03</totfact>
</mgrwt>
</event>
<event>
 6    1  0.5818426E-006  0.1363394E+03  0.7546771E-02  0.1230360E+00
         -2   -1    0    0    0  501 -0.00000000000E+00  0.00000000000E+00  0.93497270809E+02  0.93497270809E+02  0.00000000000E+00 0.  1.
          2   -1    0    0  501    0  0.00000000000E+00 -0.00000000000E+00 -0.19325250994E+03  0.19325250994E+03  0.00000000000E+00 0. -1.
          5    1    1    2  502    0  0.31711799673E+02  0.48904695545E+02  0.56542153432E+01  0.58748341559E+02  0.47000000000E+01 0. -1.
         -5    1    1    2    0  502  0.15490284203E+02 -0.76041264542E+02  0.95106991859E+00  0.77750995826E+02  0.47000000000E+01 0. -1.
        -11    1    1    2    0    0  0.25840486383E+02 -0.17411153842E+01 -0.15648226375E+02  0.30259365624E+02  0.00000000000E+00 0.  1.
         11    1    1    2    0    0 -0.73042570260E+02  0.28877684382E+02 -0.90712298017E+02  0.11999107774E+03  0.00000000000E+00 0. -1.
<mgrwt>
<rscale>  0 0.12806224E+03</rscale>
<asrwt>0</asrwt>
<pdfrwt beam="2">  1        2 0.29731155E-01 0.13633943E+03</pdfrwt>
<pdfrwt beam="1">  1       -2 0.14384196E-01 0.13633943E+03</pdfrwt>
<totfact> 0.61901201E+03</totfact>
</mgrwt>
</event>
<event>
 6    1  0.5818426E-006  0.1440050E+03  0.7546771E-02  0.1218125E+00
          3   -1    0    0  501    0  0.00000000000E+00  0.00000000000E+00  0.40676691173E+02  0.40676691173E+02  0.00000000000E+00 0. -1.
         -3   -1    0    0    0  501 -0.00000000000E+00 -0.00000000000E+00 -0.45087427493E+03  0.45087427493E+03  0.00000000000E+00 0.  1.
          5    1    1    2  502    0  0.34712006613E+02  0.86803712925E+01 -0.86300722395E+02  0.93542380420E+02  0.47000000000E+01 0.  1.
         -5    1    1    2    0  502 -0.10398264595E+03 -0.26443221176E+02 -0.20677257924E+03  0.23299919342E+03  0.47000000000E+01 0.  1.
        -11    1    1    2    0    0  0.15961966992E+02  0.16336775894E+02  0.11642792845E+02  0.25636483029E+02  0.00000000000E+00 0. -1.
         11    1    1    2    0    0  0.53308672348E+02  0.14260739898E+01 -0.12876707497E+03  0.13937290924E+03  0.00000000000E+00 0.  1.
<mgrwt>
<rscale>  0 0.13649448E+03</rscale>
<asrwt>0</asrwt>
<pdfrwt beam="1">  1        3 0.62579524E-02 0.14400500E+03</pdfrwt>
<pdfrwt beam="2">  1       -3 0.69365274E-01 0.14400500E+03</pdfrwt>
<totfact> 0.75276905E+02</totfact>
</mgrwt>
</event>
<event>
 6    1  0.5818426E-006  0.1594360E+03  0.7546771E-02  0.1196822E+00
          2   -1    0    0  501    0  0.00000000000E+00  0.00000000000E+00  0.67130505034E+03  0.67130505034E+03  0.00000000000E+00 0. -1.
         -2   -1    0    0    0  501 -0.00000000000E+00 -0.00000000000E+00 -0.41309102917E+02  0.41309102917E+02  0.00000000000E+00 0.  1.
          5    1    1    2  502    0  0.93009999299E+02 -0.70054263460E+02  0.97830226841E+02  0.15215552268E+03  0.47000000000E+01 0.  1.
         -5    1    1    2    0  502 -0.34972893497E+02 -0.10109149714E+02  0.71813357646E+02  0.80650768898E+02  0.47000000000E+01 0.  1.
        -11    1    1    2    0    0  0.15793640783E+02 -0.68800016433E+01  0.30178313871E+02  0.34749160277E+02  0.00000000000E+00 0. -1.
         11    1    1    2    0    0 -0.73830746585E+02  0.87043414818E+02  0.43017404907E+03  0.44505870141E+03  0.00000000000E+00 0.  1.
<mgrwt>
<rscale>  0 0.15301015E+03</rscale>
<asrwt>0</asrwt>
<pdfrwt beam="1">  1        2 0.10327769E+00 0.15943595E+03</pdfrwt>
<pdfrwt beam="2">  1       -2 0.63552471E-02 0.15943595E+03</pdfrwt>
<totfact> 0.58197479E+03</totfact>
</mgrwt>
</event>
<event>
 6    1  0.5818426E-006  0.1442915E+03  0.7546771E-02  0.1217930E+00
          3   -1    0    0  501    0  0.00000000000E+00  0.00000000000E+00  0.45513007364E+03  0.45513007364E+03  0.00000000000E+00 0. -1.
         -3   -1    0    0    0  501 -0.00000000000E+00 -0.00000000000E+00 -0.37401841068E+02  0.37401841068E+02  0.00000000000E+00 0.  1.
          5    1    1    2  502    0 -0.15125449625E+02  0.88904119078E+01 -0.74215528196E+01  0.19621113539E+02  0.47000000000E+01 0.  1.
         -5    1    1    2    0  502  0.56595147166E+02 -0.67836269418E+02  0.22180591575E+03  0.23879850165E+03  0.47000000000E+01 0.  1.
        -11    1    1    2    0    0  0.23642691008E+02  0.15195403007E+02  0.10287964928E+03  0.10664942263E+03  0.00000000000E+00 0. -1.
         11    1    1    2    0    0 -0.65112388549E+02  0.43750454503E+02  0.10046422037E+03  0.12746287690E+03  0.00000000000E+00 0.  1.
<mgrwt>
<rscale>  0 0.13663457E+03</rscale>
<asrwt>0</asrwt>
<pdfrwt beam="1">  1        3 0.70020007E-01 0.14429152E+03</pdfrwt>
<pdfrwt beam="2">  1       -3 0.57541297E-02 0.14429152E+03</pdfrwt>
<totfact> 0.84513891E+02</totfact>
</mgrwt>
</event>
<event>
 6    1  0.5818426E-006  0.2503869E+03  0.7546771E-02  0.1115506E+00
         -2   -1    0    0    0  501 -0.00000000000E+00  0.00000000000E+00  0.60685974182E+02  0.60685974182E+02  0.00000000000E+00 0. -1.
          2   -1    0    0  501    0  0.00000000000E+00 -0.00000000000E+00 -0.10963389870E+04  0.10963389870E+04  0.00000000000E+00 0.  1.
          5    1    1    2  502    0  0.32327212875E+02 -0.66458622043E+02 -0.24894835040E+03  0.25972902861E+03  0.47000000000E+01 0. -1.
         -5    1    1    2    0  502 -0.11069739288E+03 -0.13584449145E+03 -0.47773362168E+03  0.50888028251E+03  0.47000000000E+01 0. -1.
        -11    1    1    2    0    0  0.31304937773E+02  0.13825196649E+03 -0.25684236544E+03  0.29336258462E+03  0.00000000000E+00 0.  1.
         11    1    1    2    0    0  0.47065242229E+02  0.64051147010E+02 -0.52128675266E+02  0.95053065413E+02  0.00000000000E+00 0. -1.
<mgrwt>
<rscale>  0 0.24654768E+03</rscale>
<asrwt>0</asrwt>
<pdfrwt beam="2">  1        2 0.16866752E+00 0.25038687E+03</pdfrwt>
<pdfrwt beam="1">  1       -2 0.93363044E-02 0.25038687E+03</pdfrwt>
<totfact> 0.17001189E+03</totfact>
</mgrwt>
</event>
<event>
 6    1  0.5818426E-006  0.2705379E+03  0.7546771E-02  0.1100972E+00
         -2   -1    0    0    0  501 -0.00000000000E+00  0.00000000000E+00  0.39618974657E+02  0.39618974657E+02  0.00000000000E+00 0.  1.
          2   -1    0    0  501    0  0.00000000000E+00 -0.00000000000E+00 -0.46184162271E+03  0.46184162271E+03  0.00000000000E+00 0. -1.
          5    1    1    2  502    0 -0.18295261871E+02  0.82833944391E+01  0.52919680182E+01  0.21293805575E+02  0.47000000000E+01 0. -1.
         -5    1    1    2    0  502  0.60653403388E+02 -0.76594188681E+02 -0.21007330198E+03  0.23172912481E+03  0.47000000000E+01 0. -1.
        -11    1    1    2    0    0  0.10324066093E+02  0.60440664369E+02 -0.78316155679E+02  0.99463965788E+02  0.00000000000E+00 0.  1.
         11    1    1    2    0    0 -0.52682207611E+02  0.78701298728E+01 -0.13912515841E+03  0.14897370119E+03  0.00000000000E+00 0. -1.
<mgrwt>
<rscale>  0 0.27053792E+03</rscale>
<asrwt>0</asrwt>
<pdfrwt beam="2">  1        2 0.71052554E-01 0.27053792E+03</pdfrwt>
<pdfrwt beam="1">  1       -2 0.60952271E-02 0.27053792E+03</pdfrwt>
<totfact> 0.97631095E+03</totfact>
</mgrwt>
</event>
<event>
 6    1  0.5818426E-006  0.1290393E+03  0.7546771E-02  0.1243019E+00
         -1   -1    0    0    0  501 -0.00000000000E+00  0.00000000000E+00  0.12187538453E+03  0.12187538453E+03  0.00000000000E+00 0.  1.
          1   -1    0    0  501    0  0.00000000000E+00 -0.00000000000E+00 -0.13412452156E+03  0.13412452156E+03  0.00000000000E+00 0. -1.
          5    1    1    2  502    0  0.29502220039E+02 -0.10237314376E+02 -0.24436065729E+02  0.39929874795E+02  0.47000000000E+01 0.  1.
         -5    1    1    2    0  502 -0.61506269564E+02  0.11084819174E+02  0.77307246840E+02  0.99520826091E+02  0.47000000000E+01 0.  1.
        -11    1    1    2    0    0  0.27790034569E+02  0.18932227841E+02  0.12850802062E+02  0.35998033086E+02  0.00000000000E+00 0.  1.
         11    1    1    2    0    0  0.42140149557E+01 -0.19779732640E+02 -0.77971120197E+02  0.80551172122E+02  0.00000000000E+00 0. -1.
<mgrwt>
<rscale>  0 0.12004736E+03</rscale>
<asrwt>0</asrwt>
<pdfrwt beam="2">  1        1 0.20634542E-01 0.12903928E+03</pdfrwt>
<pdfrwt beam="1">  1       -1 0.18750059E-01 0.12903928E+03</pdfrwt>
<totfact> 0.52252065E+03</totfact>
</mgrwt>
</event>
<event>
 6    1  0.5818426E-006  0.3423927E+03  0.7546771E-02  0.1065781E+00
         -1   -1    0    0    0  501 -0.00000000000E+00  0.00000000000E+00  0.11452221126E+04  0.11452221126E+04  0.00000000000E+00 0.  1.
          1   -1    0    0  501    0  0.00000000000E+00 -0.00000000000E+00 -0.25591709692E+02  0.25591709692E+02  0.00000000000E+00 0. -1.
          5    1    1    2  502    0  0.87331535007E+02 -0.63379329189E+02  0.76156455732E+03  0.76918554416E+03  0.47000000000E+01 0. -1.
         -5    1    1    2    0  502  0.21640671398E+02  0.14134689938E+02  0.25310351349E+02  0.36480296101E+02  0.47000000000E+01 0. -1.
        -11    1    1    2    0    0 -0.64767566744E+02  0.27530634334E+02  0.29448284354E+03  0.30277536008E+03  0.00000000000E+00 0.  1.
         11    1    1    2    0    0 -0.44204639661E+02  0.21714004917E+02  0.38272650669E+02  0.62372621929E+02  0.00000000000E+00 0. -1.
<mgrwt>
<rscale>  0 0.34239271E+03</rscale>
<asrwt>0</asrwt>
<pdfrwt beam="2">  1        1 0.39371870E-02 0.34239271E+03</pdfrwt>
<pdfrwt beam="1">  1       -1 0.17618798E+00 0.34239271E+03</pdfrwt>
<totfact> 0.56595239E+02</totfact>
</mgrwt>
</event>
<event>
 6    1  0.5818426E-006  0.1274486E+03  0.7546771E-02  0.1245748E+00
         -1   -1    0    0    0  501 -0.00000000000E+00  0.00000000000E+00  0.38119287275E+03  0.38119287275E+03  0.00000000000E+00 0.  1.
          1   -1    0    0  501    0  0.00000000000E+00 -0.00000000000E+00 -0.32736765093E+02  0.32736765093E+02  0.00000000000E+00 0. -1.
          5    1    1    2  502    0 -0.28776878344E+00 -0.47455021942E+02  0.14044264890E+03  0.14831820370E+03  0.47000000000E+01 0.  1.
         -5    1    1    2    0  502  0.21675866792E+02  0.56201345766E+02  0.39495428643E+02  0.72183192993E+02  0.47000000000E+01 0.  1.
        -11    1    1    2    0    0 -0.54668157896E+02 -0.22223848744E+02  0.10730895746E+03  0.12246517583E+03  0.00000000000E+00 0.  1.
         11    1    1    2    0    0  0.33280059887E+02  0.13477524921E+02  0.61209072658E+02  0.70963065321E+02  0.00000000000E+00 0. -1.
<mgrwt>
<rscale>  0 0.11840746E+03</rscale>
<asrwt>0</asrwt>
<pdfrwt beam="2">  1        1 0.50364257E-02 0.12744863E+03</pdfrwt>
<pdfrwt beam="1">  1       -1 0.58645054E-01 0.12744863E+03</pdfrwt>
<totfact> 0.47597742E+03</totfact>
</mgrwt>
</event>
<event>
 6    1  0.5818426E-006  0.1477910E+03  0.7546771E-02  0.1212846E+00
         -3   -1    0    0    0  501 -0.00000000000E+00  0.00000000000E+00  0.12253142676E+03  0.12253142676E+03  0.00000000000E+00 0.  1.
          3   -1    0    0  501    0  0.00000000000E+00 -0.00000000000E+00 -0.20519020587E+03  0.20519020587E+03  0.00000000000E+00 0. -1.
          5    1    1    2  502    0  0.49486756792E+02 -0.21165330333E+02 -0.20542036509E+02  0.57801172737E+02  0.47000000000E+01 0. -1.
         -5    1    1    2    0  502  0.11527360230E+02  0.71094150288E+02  0.63429776019E+02  0.96086860313E+02  0.47000000000E+01 0. -1.
        -11    1    1    2    0    0 -0.84931645730E+02 -0.42760053848E+02 -0.95501706342E+02  0.13476788403E+03  0.00000000000E+00 0.  1.
         11    1    1    2    0    0  0.23917528708E+02 -0.71687661069E+01 -0.30044812271E+02  0.39065715549E+02  0.00000000000E+00 0. -1.
<mgrwt>
<rscale>  0 0.14035977E+03</rscale>
<asrwt>0</asrwt>
<pdfrwt beam="2">  1        3 0.31567724E-01 0.14779096E+03</pdfrwt>
<pdfrwt beam="1">  1       -3 0.18850989E-01 0.14779096E+03</pdfrwt>
<totfact> 0.57045643E+02</totfact>
</mgrwt>
</event>
<event>
 6    1  0.5818426E-006  0.1841688E+03  0.7546771E-02  0.1169808E+00
         -1   -1    0    0    0  501 -0.00000000000E+00  0.00000000000E+00  0.64704476506E+02  0.64704476506E+02  0.00000000000E+00 0.  1.
          1   -1    0    0  501    0  0.00000000000E+00 -0.00000000000E+00 -0.46656559523E+03  0.46656559523E+03  0.00000000000E+00 0. -1.
          5    1    1    2  502    0 -0.90595335507E+02 -0.31000263541E+02 -0.98221997219E+02  0.13725225642E+03  0.47000000000E+01 0.  1.
         -5    1    1    2    0  502  0.21645594906E+02 -0.85382368636E+02 -0.82541294068E+02  0.12080494973E+03  0.47000000000E+01 0.  1.
        -11    1    1    2    0    0  0.59049312114E+02  0.96257394793E+02 -0.10248290700E+03  0.15249607713E+03  0.00000000000E+00 0.  1.
         11    1    1    2    0    0  0.99004284869E+01  0.20125237384E+02 -0.11861492044E+03  0.12071678846E+03  0.00000000000E+00 0. -1.
<mgrwt>
<rscale>  0 0.17794364E+03</rscale>
<asrwt>0</asrwt>
<pdfrwt beam="2">  1        1 0.71779322E-01 0.18416882E+03</pdfrwt>
<pdfrwt beam="1">  1       -1 0.99545349E-02 0.18416882E+03</pdfrwt>
<totfact> 0.29929266E+03</totfact>
</mgrwt>
</event>
<event>
 6    1  0.5818426E-006  0.1526055E+03  0.7546771E-02  0.1205943E+00
          1   -1    0    0  501    0  0.00000000000E+00  0.00000000000E+00  0.38371195878E+03  0.38371195878E+03  0.00000000000E+00 0. -1.
         -1   -1    0    0    0  501 -0.00000000000E+00 -0.00000000000E+00 -0.50808700524E+02  0.50808700524E+02  0.00000000000E+00 0.  1.
          5    1    1    2  502    0 -0.95258162561E+02  0.10896709316E+02  0.57704247913E+02  0.11200324118E+03  0.47000000000E+01 0.  1.
         -5    1    1    2    0  502  0.84457417136E+01 -0.22188279789E+02  0.11918125221E+03  0.12161377878E+03  0.47000000000E+01 0.  1.
        -11    1    1    2    0    0  0.89692653972E+02  0.25439424630E+02  0.77985787741E+02  0.12154719080E+03  0.00000000000E+00 0.  1.
         11    1    1    2    0    0 -0.28802331242E+01 -0.14147854157E+02  0.78031970401E+02  0.79356448539E+02  0.00000000000E+00 0. -1.
<mgrwt>
<rscale>  0 0.14563404E+03</rscale>
<asrwt>0</asrwt>
<pdfrwt beam="1">  1        1 0.59032607E-01 0.15260548E+03</pdfrwt>
<pdfrwt beam="2">  1       -1 0.78167234E-02 0.15260548E+03</pdfrwt>
<totfact> 0.55094549E+03</totfact>
</mgrwt>
</event>
<event>
 6    1  0.5818426E-006  0.1532119E+03  0.7546771E-02  0.1205152E+00
          2   -1    0    0  501    0  0.00000000000E+00  0.00000000000E+00  0.26555441194E+03  0.26555441194E+03  0.00000000000E+00 0. -1.
         -2   -1    0    0    0  501 -0.00000000000E+00 -0.00000000000E+00 -0.75491041553E+02  0.75491041553E+02  0.00000000000E+00 0.  1.
          5    1    1    2  502    0 -0.27055037199E+02 -0.11398880479E+01 -0.93924197700E+01  0.29044481949E+02  0.47000000000E+01 0.  1.
         -5    1    1    2    0  502  0.10422780074E+03 -0.42381222491E+02  0.89494005031E+02  0.14384321118E+03  0.47000000000E+01 0.  1.
        -11    1    1    2    0    0 -0.73619821125E+02  0.68839130974E+02  0.79373152208E+02  0.12829185986E+03  0.00000000000E+00 0. -1.
         11    1    1    2    0    0 -0.35529424173E+01 -0.25318020435E+02  0.30588632917E+02  0.39865900495E+02  0.00000000000E+00 0.  1.
<mgrwt>
<rscale>  0 0.14625474E+03</rscale>
<asrwt>0</asrwt>
<pdfrwt beam="1">  1        2 0.40854525E-01 0.15321191E+03</pdfrwt>
<pdfrwt beam="2">  1       -2 0.11614006E-01 0.15321191E+03</pdfrwt>
<totfact> 0.62567707E+03</totfact>
</mgrwt>
</event>
<event>
 6    1  0.5818426E-006  0.1433883E+03  0.7546771E-02  0.1223159E+00
          2   -1    0    0  501    0  0.00000000000E+00  0.00000000000E+00  0.48358558035E+03  0.48358558035E+03  0.00000000000E+00 0. -1.
         -2   -1    0    0    0  501 -0.00000000000E+00 -0.00000000000E+00 -0.33691460175E+02  0.33691460175E+02  0.00000000000E+00 0.  1.
          5    1    1    2  502    0 -0.84830700269E+02 -0.12844332015E+01  0.16692127131E+03  0.18730375942E+03  0.47000000000E+01 0. -1.
         -5    1    1    2    0  502  0.28106557511E+02 -0.40172864620E+02  0.35310488404E+02  0.60603285540E+02  0.47000000000E+01 0. -1.
        -11    1    1    2    0    0  0.75705158456E+02  0.22725692193E+02  0.17718584710E+03  0.19401688719E+03  0.00000000000E+00 0.  1.
         11    1    1    2    0    0 -0.18981015699E+02  0.18731605628E+02  0.70476513358E+02  0.75353108373E+02  0.00000000000E+00 0. -1.
<mgrwt>
<rscale>  0 0.13293878E+03</rscale>
<asrwt>0</asrwt>
<pdfrwt beam="1">  1        2 0.74397776E-01 0.14338835E+03</pdfrwt>
<pdfrwt beam="2">  1       -2 0.51833019E-02 0.14338835E+03</pdfrwt>
<totfact> 0.11420221E+04</totfact>
</mgrwt>
</event>
<event>
 6    1  0.5818426E-006  0.1255195E+03  0.7546771E-02  0.1249755E+00
         -2   -1    0    0    0  501 -0.00000000000E+00  0.00000000000E+00  0.24756581258E+03  0.24756581258E+03  0.00000000000E+00 0.  1.
          2   -1    0    0  501    0  0.00000000000E+00 -0.00000000000E+00 -0.51351150563E+02  0.51351150563E+02  0.00000000000E+00 0. -1.
          5    1    1    2  502    0 -0.21249083337E+02 -0.56498536229E+02  0.79829257837E+02  0.10019185868E+03  0.47000000000E+01 0.  1.
         -5    1    1    2    0  502  0.32588188195E+02  0.55706694694E+02  0.72066387286E+02  0.96854943188E+02  0.47000000000E+01 0.  1.
        -11    1    1    2    0    0 -0.48889531423E+02  0.77318625153E+01  0.39609182028E+02  0.63394442041E+02  0.00000000000E+00 0.  1.
         11    1    1    2    0    0  0.37550426565E+02 -0.69400209800E+01  0.47098348688E+01  0.38475719239E+02  0.00000000000E+00 0. -1.
<mgrwt>
<rscale>  0 0.11605254E+03</rscale>
<asrwt>0</asrwt>
<pdfrwt beam="2">  1        2 0.79001772E-02 0.12551954E+03</pdfrwt>
<pdfrwt beam="1">  1       -2 0.38087047E-01 0.12551954E+03</pdfrwt>
<totfact> 0.53348812E+03</totfact>
</mgrwt>
</event>
<event>
 6    1  0.5818426E-006  0.4513629E+03  0.7546771E-02  0.1027316E+00
         -2   -1    0    0    0  501 -0.00000000000E+00  0.00000000000E+00  0.28259247111E+04  0.28259247111E+04  0.00000000000E+00 0.  1.
          2   -1    0    0  501    0  0.00000000000E+00 -0.00000000000E+00 -0.18023166973E+02  0.18023166973E+02  0.00000000000E+00 0. -1.
          5    1    1    2  502    0 -0.18856343655E+02 -0.11820589380E+02  0.38145298481E+03  0.38213055053E+03  0.47000000000E+01 0. -1.
         -5    1    1    2    0  502  0.16760999368E+03  0.33183241460E+02  0.18789081640E+04  0.18866669595E+04  0.47000000000E+01 0. -1.
        -11    1    1    2    0    0 -0.75777052031E+02  0.31169524010E+02  0.19923868003E+03  0.21542922843E+03  0.00000000000E+00 0. -1.
         11    1    1    2    0    0 -0.72976597996E+02 -0.52532176090E+02  0.34830171533E+03  0.35972113961E+03  0.00000000000E+00 0.  1.
<mgrwt>
<rscale>  0 0.45136288E+03</rscale>
<asrwt>0</asrwt>
<pdfrwt beam="2">  1        2 0.27727972E-02 0.45136288E+03</pdfrwt>
<pdfrwt beam="1">  1       -2 0.43475730E+00 0.45136288E+03</pdfrwt>
<totfact> 0.18141948E+01</totfact>
</mgrwt>
</event>
<event>
 6    1  0.5818426E-006  0.1555991E+03  0.7546771E-02  0.1207837E+00
         -1   -1    0    0    0  501 -0.00000000000E+00  0.00000000000E+00  0.17228736502E+03  0.17228736502E+03  0.00000000000E+00 0.  1.
          1   -1    0    0  501    0  0.00000000000E+00 -0.00000000000E+00 -0.15364724096E+03  0.15364724096E+03  0.00000000000E+00 0. -1.
          5    1    1    2  502    0 -0.44656445779E+02 -0.45106918897E+02  0.75283424805E+02  0.98582535635E+02  0.47000000000E+01 0. -1.
         -5    1    1    2    0  502  0.79188443034E+02  0.23934921614E+02  0.25063559917E+02  0.86567673057E+02  0.47000000000E+01 0.  1.
        -11    1    1    2    0    0  0.84420578422E+01 -0.38952543700E+02 -0.20465874050E+02  0.44804252052E+02  0.00000000000E+00 0. -1.
         11    1    1    2    0    0 -0.42974055098E+02  0.60124540983E+02 -0.61240986609E+02  0.95980145243E+02  0.00000000000E+00 0.  1.
<mgrwt>
<rscale>  0 0.14416082E+03</rscale>
<asrwt>0</asrwt>
<pdfrwt beam="2">  1        1 0.23638037E-01 0.15559911E+03</pdfrwt>
<pdfrwt beam="1">  1       -1 0.26505748E-01 0.15559911E+03</pdfrwt>
<totfact> 0.25316820E+03</totfact>
</mgrwt>
</event>
<event>
 6    1  0.5818426E-006  0.1568573E+03  0.7546771E-02  0.1202102E+00
          2   -1    0    0  501    0  0.00000000000E+00  0.00000000000E+00  0.14626065786E+03  0.14626065786E+03  0.00000000000E+00 0. -1.
         -2   -1    0    0    0  501 -0.00000000000E+00 -0.00000000000E+00 -0.13737232045E+03  0.13737232045E+03  0.00000000000E+00 0.  1.
          5    1    1    2  502    0 -0.85054082935E+02  0.18922826823E+02  0.36340138864E+02  0.94524949572E+02  0.47000000000E+01 0.  1.
         -5    1    1    2    0  502 -0.28087015380E+01 -0.54434430754E+02 -0.30126176552E+02  0.62455364617E+02  0.47000000000E+01 0.  1.
        -11    1    1    2    0    0  0.68679761190E+02  0.36914465114E+02 -0.34138577233E+02  0.85117740731E+02  0.00000000000E+00 0.  1.
         11    1    1    2    0    0  0.19183023284E+02 -0.14028611835E+01  0.36812952325E+02  0.41534923386E+02  0.00000000000E+00 0. -1.
<mgrwt>
<rscale>  0 0.14868182E+03</rscale>
<asrwt>0</asrwt>
<pdfrwt beam="1">  1        2 0.22501640E-01 0.15685728E+03</pdfrwt>
<pdfrwt beam="2">  1       -2 0.21134203E-01 0.15685728E+03</pdfrwt>
<totfact> 0.44699911E+03</totfact>
</mgrwt>
</event>
<event>
 6    1  0.5818426E-006  0.3820425E+03  0.7546771E-02  0.1050181E+00
          3   -1    0    0  501    0  0.00000000000E+00  0.00000000000E+00  0.24016690915E+03  0.24016690915E+03  0.00000000000E+00 0. -1.
         -3   -1    0    0    0  501 -0.00000000000E+00 -0.00000000000E+00 -0.15193236650E+03  0.15193236650E+03  0.00000000000E+00 0.  1.
          5    1    1    2  502    0 -0.15659868769E+02 -0.35261495110E+02 -0.81326415874E+02  0.90137009303E+02  0.47000000000E+01 0.  1.
         -5    1    1    2    0  502  0.12873737847E+02 -0.87774340579E+02  0.28102268640E+02  0.93176689643E+02  0.47000000000E+01 0.  1.
        -11    1    1    2    0    0 -0.44499494540E+02  0.63230287101E+02  0.70919775153E+02  0.10491848612E+03  0.00000000000E+00 0.  1.
         11    1    1    2    0    0  0.47285625462E+02  0.59805548587E+02  0.70538914726E+02  0.10386709059E+03  0.00000000000E+00 0. -1.
<mgrwt>
<rscale>  0 0.38204255E+03</rscale>
<asrwt>0</asrwt>
<pdfrwt beam="1">  1        3 0.36948755E-01 0.38204255E+03</pdfrwt>
<pdfrwt beam="2">  1       -3 0.23374210E-01 0.38204255E+03</pdfrwt>
<totfact> 0.31973717E+02</totfact>
</mgrwt>
</event>
<event>
 6    1  0.5818426E-006  0.1366635E+03  0.7546771E-02  0.1230019E+00
          3   -1    0    0  501    0  0.00000000000E+00  0.00000000000E+00  0.15668909208E+03  0.15668909208E+03  0.00000000000E+00 0. -1.
         -3   -1    0    0    0  501 -0.00000000000E+00 -0.00000000000E+00 -0.95050497803E+02  0.95050497803E+02  0.00000000000E+00 0.  1.
          5    1    1    2  502    0  0.46132308137E+02  0.55125717666E+02  0.60594034682E+02  0.94131618712E+02  0.47000000000E+01 0.  1.
         -5    1    1    2    0  502 -0.30545006606E+01 -0.20542682731E+02 -0.38799686465E+02  0.44258755719E+02  0.47000000000E+01 0.  1.
        -11    1    1    2    0    0  0.25035251222E+02 -0.10793075426E+02  0.29992596857E+02  0.40531594431E+02  0.00000000000E+00 0. -1.
         11    1    1    2    0    0 -0.68113058698E+02 -0.23789959509E+02  0.98516491980E+01  0.72817621017E+02  0.00000000000E+00 0.  1.
<mgrwt>
<rscale>  0 0.12828738E+03</rscale>
<asrwt>0</asrwt>
<pdfrwt beam="1">  1        3 0.24106014E-01 0.13666346E+03</pdfrwt>
<pdfrwt beam="2">  1       -3 0.14623153E-01 0.13666346E+03</pdfrwt>
<totfact> 0.14328315E+03</totfact>
</mgrwt>
</event>
<event>
 6    1  0.5818426E-006  0.1715880E+03  0.7546771E-02  0.1185031E+00
         -2   -1    0    0    0  501 -0.00000000000E+00  0.00000000000E+00  0.12136668096E+03  0.12136668096E+03  0.00000000000E+00 0.  1.
          2   -1    0    0  501    0  0.00000000000E+00 -0.00000000000E+00 -0.21968495885E+03  0.21968495885E+03  0.00000000000E+00 0. -1.
          5    1    1    2  502    0 -0.11589640425E+02  0.60852286604E+02 -0.54458582466E+02  0.82614452454E+02  0.47000000000E+01 0. -1.
         -5    1    1    2    0  502  0.66381808313E+02  0.30806145160E+02  0.50466786738E+02  0.89019939441E+02  0.47000000000E+01 0.  1.
        -11    1    1    2    0    0 -0.34849153938E+02 -0.71879415440E+02 -0.99629440854E+01  0.80500771109E+02  0.00000000000E+00 0. -1.
         11    1    1    2    0    0 -0.19943013950E+02 -0.19779016323E+02 -0.84363538076E+02  0.88916476813E+02  0.00000000000E+00 0.  1.
<mgrwt>
<rscale>  0 0.16329061E+03</rscale>
<asrwt>0</asrwt>
<pdfrwt beam="2">  1        2 0.33797685E-01 0.17158797E+03</pdfrwt>
<pdfrwt beam="1">  1       -2 0.18671797E-01 0.17158797E+03</pdfrwt>
<totfact> 0.35444462E+03</totfact>
</mgrwt>
</event>
<event>
 6    1  0.5818426E-006  0.1565077E+03  0.7546771E-02  0.1200855E+00
          1   -1    0    0  501    0  0.00000000000E+00  0.00000000000E+00  0.16165464284E+03  0.16165464284E+03  0.00000000000E+00 0. -1.
         -1   -1    0    0    0  501 -0.00000000000E+00 -0.00000000000E+00 -0.12781999021E+03  0.12781999021E+03  0.00000000000E+00 0.  1.
          5    1    1    2  502    0  0.87680105262E+00  0.24359022651E+02 -0.44284120378E+02  0.50767155546E+02  0.47000000000E+01 0.  1.
         -5    1    1    2    0  502 -0.85629334177E+02  0.16711780949E+02  0.61154314023E+02  0.10664711256E+03  0.47000000000E+01 0.  1.
        -11    1    1    2    0    0  0.56447851689E+02 -0.64060323834E+02  0.33886313832E+02  0.91860586299E+02  0.00000000000E+00 0. -1.
         11    1    1    2    0    0  0.28304681436E+02  0.22989520235E+02 -0.16921854844E+02  0.40199778646E+02  0.00000000000E+00 0.  1.
<mgrwt>
<rscale>  0 0.14968956E+03</rscale>
<asrwt>0</asrwt>
<pdfrwt beam="1">  1        1 0.24869945E-01 0.15650766E+03</pdfrwt>
<pdfrwt beam="2">  1       -1 0.19664614E-01 0.15650766E+03</pdfrwt>
<totfact> 0.38672619E+03</totfact>
</mgrwt>
</event>
<event>
 6    1  0.5818426E-006  0.1434816E+03  0.7546771E-02  0.1218806E+00
          3   -1    0    0  501    0  0.00000000000E+00  0.00000000000E+00  0.33367209551E+03  0.33367209551E+03  0.00000000000E+00 0.  1.
         -3   -1    0    0    0  501 -0.00000000000E+00 -0.00000000000E+00 -0.71988853581E+02  0.71988853581E+02  0.00000000000E+00 0. -1.
          5    1    1    2  502    0  0.34496414077E+02  0.40679952115E+02 -0.82650922573E+01  0.54178066026E+02  0.47000000000E+01 0.  1.
         -5    1    1    2    0  502  0.23527361732E+02 -0.80633954040E+02  0.38193775206E+02  0.92391697456E+02  0.47000000000E+01 0.  1.
        -11    1    1    2    0    0 -0.65648774535E+02  0.47839612543E+01  0.82403139302E+02  0.10546527983E+03  0.00000000000E+00 0. -1.
         11    1    1    2    0    0  0.76249987264E+01  0.35170040671E+02  0.14935141968E+03  0.15362590578E+03  0.00000000000E+00 0.  1.
<mgrwt>
<rscale>  0 0.13600610E+03</rscale>
<asrwt>0</asrwt>
<pdfrwt beam="1">  1        3 0.51334168E-01 0.14348160E+03</pdfrwt>
<pdfrwt beam="2">  1       -3 0.11075208E-01 0.14348160E+03</pdfrwt>
<totfact> 0.55074011E+02</totfact>
</mgrwt>
</event>
<event>
 6    1  0.5818426E-006  0.1452316E+03  0.7546771E-02  0.1216471E+00
         -2   -1    0    0    0  501 -0.00000000000E+00  0.00000000000E+00  0.53002361950E+02  0.53002361950E+02  0.00000000000E+00 0.  1.
          2   -1    0    0  501    0  0.00000000000E+00 -0.00000000000E+00 -0.34609250443E+03  0.34609250443E+03  0.00000000000E+00 0. -1.
          5    1    1    2  502    0  0.19378024721E+02  0.51334854137E+02 -0.30498849313E+02  0.62952719566E+02  0.47000000000E+01 0.  1.
         -5    1    1    2    0  502 -0.86254399141E+02 -0.19936905506E+02 -0.81886145114E+02  0.12068443286E+03  0.47000000000E+01 0.  1.
        -11    1    1    2    0    0  0.26144946641E+02  0.12230656834E+02 -0.42428348283E+01  0.29174455416E+02  0.00000000000E+00 0.  1.
         11    1    1    2    0    0  0.40731427779E+02 -0.43628605465E+02 -0.17646231323E+03  0.18628325854E+03  0.00000000000E+00 0. -1.
<mgrwt>
<rscale>  0 0.13769032E+03</rscale>
<asrwt>0</asrwt>
<pdfrwt beam="2">  1        2 0.53245000E-01 0.14523160E+03</pdfrwt>
<pdfrwt beam="1">  1       -2 0.81542096E-02 0.14523160E+03</pdfrwt>
<totfact> 0.82023732E+03</totfact>
</mgrwt>
</event>
<event>
 6    1  0.5818426E-006  0.1540128E+03  0.7546771E-02  0.1203327E+00
         -2   -1    0    0    0  501 -0.00000000000E+00  0.00000000000E+00  0.17665164725E+03  0.17665164725E+03  0.00000000000E+00 0.  1.
          2   -1    0    0  501    0  0.00000000000E+00 -0.00000000000E+00 -0.14208153157E+03  0.14208153157E+03  0.00000000000E+00 0. -1.
          5    1    1    2  502    0 -0.22022094825E+02  0.69317607642E+02  0.37286712372E+01  0.72978739225E+02  0.47000000000E+01 0. -1.
         -5    1    1    2    0  502 -0.55864059274E+02 -0.24795417591E+02  0.84891939454E+02  0.10471073124E+03  0.47000000000E+01 0. -1.
        -11    1    1    2    0    0  0.76335891086E+02 -0.70016451650E+02 -0.35579972086E+02  0.10952354169E+03  0.00000000000E+00 0.  1.
         11    1    1    2    0    0  0.15502630120E+01  0.25494261600E+02 -0.18470522920E+02  0.31520166670E+02  0.00000000000E+00 0. -1.
<mgrwt>
<rscale>  0 0.14770112E+03</rscale>
<asrwt>0</asrwt>
<pdfrwt beam="2">  1        2 0.21858697E-01 0.15401278E+03</pdfrwt>
<pdfrwt beam="1">  1       -2 0.27177176E-01 0.15401278E+03</pdfrwt>
<totfact> 0.29774684E+03</totfact>
</mgrwt>
</event>
<event>
 6    1  0.5818426E-006  0.1840099E+03  0.7546771E-02  0.1169194E+00
          1   -1    0    0  501    0  0.00000000000E+00  0.00000000000E+00  0.60247363168E+03  0.60247363168E+03  0.00000000000E+00 0. -1.
         -1   -1    0    0    0  501 -0.00000000000E+00 -0.00000000000E+00 -0.55039072996E+02  0.55039072996E+02  0.00000000000E+00 0.  1.
          5    1    1    2  502    0  0.97193779504E+02  0.10843497547E+03  0.11476837126E+03  0.18546871359E+03  0.47000000000E+01 0.  1.
         -5    1    1    2    0  502  0.71781589171E+01 -0.22993540429E+02  0.74786989736E+02  0.78710943970E+02  0.47000000000E+01 0.  1.
        -11    1    1    2    0    0  0.13965105309E+02 -0.78820666831E+01  0.13291281274E+02  0.20828089192E+02  0.00000000000E+00 0.  1.
         11    1    1    2    0    0 -0.11833704373E+03 -0.77559368356E+02  0.34458791641E+03  0.37250495792E+03  0.00000000000E+00 0. -1.
<mgrwt>
<rscale>  0 0.17857029E+03</rscale>
<asrwt>0</asrwt>
<pdfrwt beam="1">  1        1 0.92688246E-01 0.18400994E+03</pdfrwt>
<pdfrwt beam="2">  1       -1 0.84675501E-02 0.18400994E+03</pdfrwt>
<totfact> 0.27245489E+03</totfact>
</mgrwt>
</event>
<event>
 6    1  0.5818426E-006  0.1437049E+03  0.7546771E-02  0.1216108E+00
          1   -1    0    0  501    0  0.00000000000E+00  0.00000000000E+00  0.41691734631E+03  0.41691734631E+03  0.00000000000E+00 0. -1.
         -1   -1    0    0    0  501 -0.00000000000E+00 -0.00000000000E+00 -0.42389371280E+02  0.42389371280E+02  0.00000000000E+00 0.  1.
          5    1    1    2  502    0 -0.50529041764E+02 -0.81377489606E+01  0.40903113390E+02  0.65685323359E+02  0.47000000000E+01 0. -1.
         -5    1    1    2    0  502  0.36784380989E+02  0.77691923672E+02  0.15457589835E+03  0.17693197574E+03  0.47000000000E+01 0. -1.
        -11    1    1    2    0    0 -0.76665057382E+01 -0.94606663084E+01 -0.10882166622E+02  0.16330984895E+02  0.00000000000E+00 0.  1.
         11    1    1    2    0    0  0.21411166513E+02 -0.60093508403E+02  0.18993112991E+03  0.20035843360E+03  0.00000000000E+00 0. -1.
<mgrwt>
<rscale>  0 0.13795475E+03</rscale>
<asrwt>0</asrwt>
<pdfrwt beam="1">  1        1 0.64141127E-01 0.14370494E+03</pdfrwt>
<pdfrwt beam="2">  1       -1 0.65214420E-02 0.14370494E+03</pdfrwt>
<totfact> 0.64917856E+03</totfact>
</mgrwt>
</event>
<event>
 6    1  0.5818426E-006  0.1327886E+03  0.7546771E-02  0.1236064E+00
         -2   -1    0    0    0  501 -0.00000000000E+00  0.00000000000E+00  0.94787918802E+02  0.94787918802E+02  0.00000000000E+00 0.  1.
          2   -1    0    0  501    0  0.00000000000E+00 -0.00000000000E+00 -0.16371095596E+03  0.16371095596E+03  0.00000000000E+00 0. -1.
          5    1    1    2  502    0  0.60723603144E+02 -0.63939165584E+02  0.98923100478E+01  0.88856742414E+02  0.47000000000E+01 0.  1.
         -5    1    1    2    0  502 -0.30254074969E+02  0.31082342706E+02 -0.56878430146E+01  0.43998439046E+02  0.47000000000E+01 0.  1.
        -11    1    1    2    0    0  0.24362033842E+02 -0.11827573737E+02 -0.52008552938E+01  0.27576241391E+02  0.00000000000E+00 0.  1.
         11    1    1    2    0    0 -0.54831562017E+02  0.44684396615E+02 -0.67926648902E+02  0.98067451915E+02  0.00000000000E+00 0. -1.
<mgrwt>
<rscale>  0 0.12436596E+03</rscale>
<asrwt>0</asrwt>
<pdfrwt beam="2">  1        2 0.25186301E-01 0.13278864E+03</pdfrwt>
<pdfrwt beam="1">  1       -2 0.14582757E-01 0.13278864E+03</pdfrwt>
<totfact> 0.72434504E+03</totfact>
</mgrwt>
</event>
<event>
 6    1  0.5818426E-006  0.1325632E+03  0.7546771E-02  0.1236463E+00
          1   -1    0    0  501    0  0.00000000000E+00  0.00000000000E+00  0.20244841925E+03  0.20244841925E+03  0.00000000000E+00 0. -1.
         -1   -1    0    0    0  501 -0.00000000000E+00 -0.00000000000E+00 -0.76891813205E+02  0.76891813205E+02  0.00000000000E+00 0.  1.
          5    1    1    2  502    0  0.17527757702E+02 -0.10731863167E+02  0.66820436322E+02  0.70067509499E+02  0.47000000000E+01 0. -1.
         -5    1    1    2    0  502 -0.36248849248E+02 -0.29145844128E+02 -0.44288066070E+02  0.64397065911E+02  0.47000000000E+01 0. -1.
        -11    1    1    2    0    0  0.15472665878E+02  0.54210425613E+02  0.18872603023E+02  0.59450389228E+02  0.00000000000E+00 0.  1.
         11    1    1    2    0    0  0.32484256683E+01 -0.14332718318E+02  0.84151632772E+02  0.85425267818E+02  0.00000000000E+00 0. -1.
<mgrwt>
<rscale>  0 0.12411254E+03</rscale>
<asrwt>0</asrwt>
<pdfrwt beam="1">  1        1 0.31145910E-01 0.13256325E+03</pdfrwt>
<pdfrwt beam="2">  1       -1 0.11829510E-01 0.13256325E+03</pdfrwt>
<totfact> 0.64268308E+03</totfact>
</mgrwt>
</event>
<event>
 6    1  0.5818426E-006  0.1298450E+03  0.7546771E-02  0.1242307E+00
         -1   -1    0    0    0  501 -0.00000000000E+00  0.00000000000E+00  0.38913003705E+03  0.38913003705E+03  0.00000000000E+00 0.  1.
          1   -1    0    0  501    0  0.00000000000E+00 -0.00000000000E+00 -0.39463839328E+02  0.39463839328E+02  0.00000000000E+00 0. -1.
          5    1    1    2  502    0  0.45308843068E+02 -0.13574954352E+01  0.51590605521E+02  0.68836143355E+02  0.47000000000E+01 0. -1.
         -5    1    1    2    0  502 -0.65941577457E+02  0.29840281169E+02  0.23184442106E+03  0.24292521399E+03  0.47000000000E+01 0. -1.
        -11    1    1    2    0    0  0.16474679769E+02 -0.10391153613E+02 -0.20417211540E+02  0.28217967219E+02  0.00000000000E+00 0. -1.
         11    1    1    2    0    0  0.41580546205E+01 -0.18091632120E+02  0.86648382680E+02  0.88614551807E+02  0.00000000000E+00 0.  1.
<mgrwt>
<rscale>  0 0.12047988E+03</rscale>
<asrwt>0</asrwt>
<pdfrwt beam="2">  1        1 0.60713602E-02 0.12984502E+03</pdfrwt>
<pdfrwt beam="1">  1       -1 0.59866157E-01 0.12984502E+03</pdfrwt>
<totfact> 0.35548625E+03</totfact>
</mgrwt>
</event>
<event>
 6    1  0.5818426E-006  0.1708604E+03  0.7546771E-02  0.1183871E+00
          1   -1    0    0  501    0  0.00000000000E+00  0.00000000000E+00  0.16134939737E+03  0.16134939737E+03  0.00000000000E+00 0. -1.
         -1   -1    0    0    0  501 -0.00000000000E+00 -0.00000000000E+00 -0.15593004378E+03  0.15593004378E+03  0.00000000000E+00 0.  1.
          5    1    1    2  502    0  0.20893131516E+02 -0.31917910793E+02 -0.53104020628E+02  0.65554580166E+02  0.47000000000E+01 0. -1.
         -5    1    1    2    0  502 -0.37560680692E+02 -0.83366015112E+02  0.52031219027E+02  0.10530923494E+03  0.47000000000E+01 0. -1.
        -11    1    1    2    0    0  0.37543117942E+02  0.41449706863E+02  0.33360126418E+02  0.65118829370E+02  0.00000000000E+00 0.  1.
         11    1    1    2    0    0 -0.20875568766E+02  0.73834219042E+02 -0.26867971223E+02  0.81296796680E+02  0.00000000000E+00 0. -1.
<mgrwt>
<rscale>  0 0.16435055E+03</rscale>
<asrwt>0</asrwt>
<pdfrwt beam="1">  1        1 0.24822984E-01 0.17086045E+03</pdfrwt>
<pdfrwt beam="2">  1       -1 0.23989237E-01 0.17086045E+03</pdfrwt>
<totfact> 0.28171648E+03</totfact>
</mgrwt>
</event>
<event>
 6    1  0.5818426E-006  0.1888806E+03  0.7546771E-02  0.1175692E+00
         -1   -1    0    0    0  501 -0.00000000000E+00  0.00000000000E+00  0.32977411534E+03  0.32977411534E+03  0.00000000000E+00 0.  1.
          1   -1    0    0  501    0  0.00000000000E+00 -0.00000000000E+00 -0.10499137362E+03  0.10499137362E+03  0.00000000000E+00 0. -1.
          5    1    1    2  502    0 -0.78756922210E+02 -0.54878659119E+02  0.15814079003E+03  0.18505382864E+03  0.47000000000E+01 0. -1.
         -5    1    1    2    0  502  0.78461556975E+02 -0.39475086150E+02  0.79991703120E+02  0.11889180341E+03  0.47000000000E+01 0.  1.
        -11    1    1    2    0    0  0.27036337066E+02  0.72206649410E+02  0.23091188972E+02  0.80485817068E+02  0.00000000000E+00 0. -1.
         11    1    1    2    0    0 -0.26740971831E+02  0.22147095858E+02 -0.36440940399E+02  0.50334039840E+02  0.00000000000E+00 0.  1.
<mgrwt>
<rscale>  0 0.17208403E+03</rscale>
<asrwt>0</asrwt>
<pdfrwt beam="2">  1        1 0.16152519E-01 0.18888055E+03</pdfrwt>
<pdfrwt beam="1">  1       -1 0.50734479E-01 0.18888055E+03</pdfrwt>
<totfact> 0.13386215E+03</totfact>
</mgrwt>
</event>
<event>
 6    1  0.5818426E-006  0.2298917E+03  0.7546771E-02  0.1129631E+00
          2   -1    0    0  501    0  0.00000000000E+00  0.00000000000E+00  0.39679345255E+03  0.39679345255E+03  0.00000000000E+00 0. -1.
         -2   -1    0    0    0  501 -0.00000000000E+00 -0.00000000000E+00 -0.14009522770E+03  0.14009522770E+03  0.00000000000E+00 0.  1.
          5    1    1    2  502    0 -0.10840867968E+02 -0.13153864076E+03  0.78047347869E+02  0.15340605249E+03  0.47000000000E+01 0.  1.
         -5    1    1    2    0  502 -0.49244330033E+02 -0.51806973588E+02 -0.36206971803E+02  0.80262079215E+02  0.47000000000E+01 0.  1.
        -11    1    1    2    0    0  0.25224709099E+02  0.14835205928E+03  0.10716460222E+03  0.18474001032E+03  0.00000000000E+00 0.  1.
         11    1    1    2    0    0  0.34860488902E+02  0.34993555059E+02  0.10769324657E+03  0.11848053823E+03  0.00000000000E+00 0. -1.
<mgrwt>
<rscale>  0 0.22580080E+03</rscale>
<asrwt>0</asrwt>
<pdfrwt beam="1">  1        2 0.61045146E-01 0.22989167E+03</pdfrwt>
<pdfrwt beam="2">  1       -2 0.21553112E-01 0.22989167E+03</pdfrwt>
<totfact> 0.14820246E+03</totfact>
</mgrwt>
</event>
<event>
 6    1  0.5818426E-006  0.1331889E+03  0.7546771E-02  0.1235049E+00
          2   -1    0    0  501    0  0.00000000000E+00  0.00000000000E+00  0.66160765826E+03  0.66160765826E+03  0.00000000000E+00 0. -1.
         -2   -1    0    0    0  501 -0.00000000000E+00 -0.00000000000E+00 -0.23043314202E+02  0.23043314202E+02  0.00000000000E+00 0.  1.
          5    1    1    2  502    0 -0.96844243151E+01  0.64493004490E+02  0.11749217891E+03  0.13446054368E+03  0.47000000000E+01 0.  1.
         -5    1    1    2    0  502 -0.35704583908E+02 -0.57090848946E+02  0.14122056079E+03  0.15652322235E+03  0.47000000000E+01 0.  1.
        -11    1    1    2    0    0  0.66989694020E+02 -0.27264471830E+02  0.23519887893E+03  0.24606804583E+03  0.00000000000E+00 0. -1.
         11    1    1    2    0    0 -0.21600685797E+02  0.19862316286E+02  0.14465272544E+03  0.14759916060E+03  0.00000000000E+00 0.  1.
<mgrwt>
<rscale>  0 0.12501324E+03</rscale>
<asrwt>0</asrwt>
<pdfrwt beam="1">  1        2 0.10178578E+00 0.13318885E+03</pdfrwt>
<pdfrwt beam="2">  1       -2 0.35451258E-02 0.13318885E+03</pdfrwt>
<totfact> 0.14065468E+04</totfact>
</mgrwt>
</event>
<event>
 6    1  0.5818426E-006  0.1416459E+03  0.7546771E-02  0.1224135E+00
         -1   -1    0    0    0  501 -0.00000000000E+00  0.00000000000E+00  0.16131526133E+03  0.16131526133E+03  0.00000000000E+00 0.  1.
          1   -1    0    0  501    0  0.00000000000E+00 -0.00000000000E+00 -0.97258818610E+02  0.97258818610E+02  0.00000000000E+00 0. -1.
          5    1    1    2  502    0 -0.31502931311E+02  0.75534524404E+01 -0.34868446482E+02  0.47826644091E+02  0.47000000000E+01 0. -1.
         -5    1    1    2    0  502  0.26384449037E+02  0.51811103782E+02  0.83657589390E+02  0.10198633187E+03  0.47000000000E+01 0.  1.
        -11    1    1    2    0    0 -0.31237167278E+02  0.59094725755E+01  0.11978658514E+02  0.33973088548E+02  0.00000000000E+00 0. -1.
         11    1    1    2    0    0  0.36355649552E+02 -0.65274028798E+02  0.32886412956E+01  0.74788015426E+02  0.00000000000E+00 0.  1.
<mgrwt>
<rscale>  0 0.13226377E+03</rscale>
<asrwt>0</asrwt>
<pdfrwt beam="2">  1        1 0.14962895E-01 0.14164585E+03</pdfrwt>
<pdfrwt beam="1">  1       -1 0.24817732E-01 0.14164585E+03</pdfrwt>
<totfact> 0.50416043E+03</totfact>
</mgrwt>
</event>
<event>
 6    1  0.5818426E-006  0.3793241E+03  0.7546771E-02  0.1051184E+00
          2   -1    0    0  501    0  0.00000000000E+00  0.00000000000E+00  0.18724155097E+03  0.18724155097E+03  0.00000000000E+00 0. -1.
         -2   -1    0    0    0  501 -0.00000000000E+00 -0.00000000000E+00 -0.19211383543E+03  0.19211383543E+03  0.00000000000E+00 0.  1.
          5    1    1    2  502    0 -0.15246321614E+02 -0.43223749130E+01 -0.11719031399E+03  0.11835029759E+03  0.47000000000E+01 0. -1.
         -5    1    1    2    0  502  0.65798093368E+02 -0.27179658568E+02 -0.30815776876E+02  0.77716311256E+02  0.47000000000E+01 0.  1.
        -11    1    1    2    0    0 -0.49085872925E+02  0.37773028837E+01  0.13969859785E+02  0.51174680462E+02  0.00000000000E+00 0.  1.
         11    1    1    2    0    0 -0.14658988284E+01  0.27724730597E+02  0.12916394661E+03  0.13211409709E+03  0.00000000000E+00 0. -1.
<mgrwt>
<rscale>  0 0.37932410E+03</rscale>
<asrwt>0</asrwt>
<pdfrwt beam="1">  1        2 0.28806392E-01 0.37932410E+03</pdfrwt>
<pdfrwt beam="2">  1       -2 0.29555975E-01 0.37932410E+03</pdfrwt>
<totfact> 0.19400905E+03</totfact>
</mgrwt>
</event>
<event>
 6    1  0.5818426E-006  0.2066519E+03  0.7546771E-02  0.1148228E+00
         -2   -1    0    0    0  501 -0.00000000000E+00  0.00000000000E+00  0.75035891944E+02  0.75035891944E+02  0.00000000000E+00 0.  1.
          2   -1    0    0  501    0  0.00000000000E+00 -0.00000000000E+00 -0.71155930286E+03  0.71155930286E+03  0.00000000000E+00 0. -1.
          5    1    1    2  502    0  0.27359084706E+02  0.66158303631E+02 -0.52194960331E+02  0.88723415958E+02  0.47000000000E+01 0. -1.
         -5    1    1    2    0  502 -0.11088918163E+03  0.75648154971E+02 -0.72498567778E+02  0.15263415831E+03  0.47000000000E+01 0. -1.
        -11    1    1    2    0    0  0.45412986818E+02 -0.14123705416E+03 -0.43217630655E+03  0.45693172880E+03  0.00000000000E+00 0. -1.
         11    1    1    2    0    0  0.38117110111E+02 -0.56940444432E+00 -0.79653576250E+02  0.88305891729E+02  0.00000000000E+00 0.  1.
<mgrwt>
<rscale>  0 0.20180097E+03</rscale>
<asrwt>0</asrwt>
<pdfrwt beam="2">  1        2 0.10947066E+00 0.20665189E+03</pdfrwt>
<pdfrwt beam="1">  1       -2 0.11543984E-01 0.20665189E+03</pdfrwt>
<totfact> 0.21515379E+03</totfact>
</mgrwt>
</event>
<event>
 6    1  0.5818426E-006  0.1483436E+03  0.7546771E-02  0.1211966E+00
         -2   -1    0    0    0  501 -0.00000000000E+00  0.00000000000E+00  0.68585249774E+02  0.68585249774E+02  0.00000000000E+00 0.  1.
          2   -1    0    0  501    0  0.00000000000E+00 -0.00000000000E+00 -0.39901606097E+03  0.39901606097E+03  0.00000000000E+00 0. -1.
          5    1    1    2  502    0 -0.61208606979E+02 -0.73639818368E+02 -0.17606933178E+02  0.97475178962E+02  0.47000000000E+01 0. -1.
         -5    1    1    2    0  502 -0.14757339125E+02  0.48944997868E+02 -0.23490267488E+02  0.56455952220E+02  0.47000000000E+01 0. -1.
        -11    1    1    2    0    0  0.27507411286E+02  0.36689425052E+02 -0.44852889045E+02  0.64144783435E+02  0.00000000000E+00 0.  1.
         11    1    1    2    0    0  0.48458534819E+02 -0.11994604552E+02 -0.24448072149E+03  0.24952539613E+03  0.00000000000E+00 0. -1.
<mgrwt>
<rscale>  0 0.14101781E+03</rscale>
<asrwt>0</asrwt>
<pdfrwt beam="2">  1        2 0.61387086E-01 0.14834356E+03</pdfrwt>
<pdfrwt beam="1">  1       -2 0.10551577E-01 0.14834356E+03</pdfrwt>
<totfact> 0.47134681E+03</totfact>
</mgrwt>
</event>
<event>
 6    1  0.5818426E-006  0.3135382E+03  0.7546771E-02  0.1078662E+00
         -2   -1    0    0    0  501 -0.00000000000E+00  0.00000000000E+00  0.36682260087E+02  0.36682260087E+02  0.00000000000E+00 0.  1.
          2   -1    0    0  501    0  0.00000000000E+00 -0.00000000000E+00 -0.66998456652E+03  0.66998456652E+03  0.00000000000E+00 0. -1.
          5    1    1    2  502    0  0.51408820803E+02 -0.71017496294E+02 -0.24866748529E+03  0.26371188801E+03  0.47000000000E+01 0. -1.
         -5    1    1    2    0  502  0.11885506015E+02 -0.14502140852E+02  0.13140170757E+02  0.23373733763E+02  0.47000000000E+01 0. -1.
        -11    1    1    2    0    0 -0.68896561881E+02  0.32159481352E+02 -0.28038379776E+03  0.29050996976E+03  0.00000000000E+00 0. -1.
         11    1    1    2    0    0  0.56022350634E+01  0.53360155793E+02 -0.11739119413E+03  0.12907123508E+03  0.00000000000E+00 0.  1.
<mgrwt>
<rscale>  0 0.31353818E+03</rscale>
<asrwt>0</asrwt>
<pdfrwt beam="2">  1        2 0.10307454E+00 0.31353818E+03</pdfrwt>
<pdfrwt beam="1">  1       -2 0.56434249E-02 0.31353818E+03</pdfrwt>
<totfact> 0.72048003E+03</totfact>
</mgrwt>
</event>
<event>
 6    1  0.5818426E-006  0.1282271E+03  0.7546771E-02  0.1246445E+00
         -3   -1    0    0    0  501 -0.00000000000E+00  0.00000000000E+00  0.10072574822E+03  0.10072574822E+03  0.00000000000E+00 0.  1.
          3   -1    0    0  501    0  0.00000000000E+00 -0.00000000000E+00 -0.15314058027E+03  0.15314058027E+03  0.00000000000E+00 0. -1.
          5    1    1    2  502    0  0.29355099183E+02  0.68808745438E+02 -0.25830290986E+01  0.75000848903E+02  0.47000000000E+01 0.  1.
         -5    1    1    2    0  502 -0.14207295454E+02 -0.44544330655E+02  0.31126331595E+02  0.56364733266E+02  0.47000000000E+01 0.  1.
        -11    1    1    2    0    0 -0.47817974267E+02 -0.29697453644E+02 -0.36597140590E+02  0.67140510240E+02  0.00000000000E+00 0.  1.
         11    1    1    2    0    0  0.32670170538E+02  0.54330388604E+01 -0.44360993954E+02  0.55360236080E+02  0.00000000000E+00 0. -1.
<mgrwt>
<rscale>  0 0.11799300E+03</rscale>
<asrwt>0</asrwt>
<pdfrwt beam="2">  1        3 0.23560089E-01 0.12822713E+03</pdfrwt>
<pdfrwt beam="1">  1       -3 0.15496269E-01 0.12822713E+03</pdfrwt>
<totfact> 0.13377450E+03</totfact>
</mgrwt>
</event>
<event>
 6    1  0.5818426E-006  0.2254699E+03  0.7546771E-02  0.1129869E+00
         -2   -1    0    0    0  501 -0.00000000000E+00  0.00000000000E+00  0.23585291345E+02  0.23585291345E+02  0.00000000000E+00 0.  1.
          2   -1    0    0  501    0  0.00000000000E+00 -0.00000000000E+00 -0.53886002222E+03  0.53886002222E+03  0.00000000000E+00 0. -1.
          5    1    1    2  502    0 -0.43797230217E+02 -0.36547720550E+02 -0.22599506542E+03  0.23313042026E+03  0.47000000000E+01 0. -1.
         -5    1    1    2    0  502  0.90474932209E+01  0.77303705118E+01  0.82026464281E+01  0.15198327877E+02  0.47000000000E+01 0.  1.
        -11    1    1    2    0    0  0.43398458394E+01 -0.30932222903E+02 -0.13032096438E+03  0.13401190407E+03  0.00000000000E+00 0. -1.
         11    1    1    2    0    0  0.30409891157E+02  0.59749572941E+02 -0.16716134750E+03  0.18010466136E+03  0.00000000000E+00 0.  1.
<mgrwt>
<rscale>  0 0.22546991E+03</rscale>
<asrwt>0</asrwt>
<pdfrwt beam="2">  1        2 0.82901545E-01 0.22546991E+03</pdfrwt>
<pdfrwt beam="1">  1       -2 0.36285062E-02 0.22546991E+03</pdfrwt>
<totfact> 0.17855578E+04</totfact>
</mgrwt>
</event>
<event>
 6    1  0.5818426E-006  0.1315832E+03  0.7546771E-02  0.1238516E+00
         -2   -1    0    0    0  501 -0.00000000000E+00  0.00000000000E+00  0.22714066753E+02  0.22714066753E+02  0.00000000000E+00 0.  1.
          2   -1    0    0  501    0  0.00000000000E+00 -0.00000000000E+00 -0.59067317861E+03  0.59067317861E+03  0.00000000000E+00 0. -1.
          5    1    1    2  502    0  0.59826099318E+02  0.52460081111E+02 -0.15185445348E+03  0.17150244112E+03  0.47000000000E+01 0.  1.
         -5    1    1    2    0  502 -0.19694758701E+02 -0.43478005945E+02 -0.15840199666E+03  0.16550378566E+03  0.47000000000E+01 0.  1.
        -11    1    1    2    0    0  0.22895766188E+02 -0.23422077456E+02 -0.11761917514E+03  0.12209455427E+03  0.00000000000E+00 0. -1.
         11    1    1    2    0    0 -0.63027106805E+02  0.14440002290E+02 -0.14008348657E+03  0.15428646431E+03  0.00000000000E+00 0.  1.
<mgrwt>
<rscale>  0 0.12281991E+03</rscale>
<asrwt>0</asrwt>
<pdfrwt beam="2">  1        2 0.90872804E-01 0.13158318E+03</pdfrwt>
<pdfrwt beam="1">  1       -2 0.34944715E-02 0.13158318E+03</pdfrwt>
<totfact> 0.16351727E+04</totfact>
</mgrwt>
</event>
<event>
 6    1  0.5818426E-006  0.1419618E+03  0.7546771E-02  0.1221622E+00
         -1   -1    0    0    0  501 -0.00000000000E+00  0.00000000000E+00  0.50232107897E+02  0.50232107897E+02  0.00000000000E+00 0.  1.
          1   -1    0    0  501    0  0.00000000000E+00 -0.00000000000E+00 -0.36306988819E+03  0.36306988819E+03  0.00000000000E+00 0. -1.
          5    1    1    2  502    0 -0.99954688935E+02  0.19300285666E+02 -0.66919314688E+02  0.12191687966E+03  0.47000000000E+01 0. -1.
         -5    1    1    2    0  502  0.32704917214E+02 -0.21357509833E+02 -0.37086591283E+02  0.54067181259E+02  0.47000000000E+01 0. -1.
        -11    1    1    2    0    0  0.57654480211E+02 -0.36032138454E+02 -0.94416290558E+02  0.11634771168E+03  0.00000000000E+00 0.  1.
         11    1    1    2    0    0  0.95952915098E+01  0.38089362621E+02 -0.11441558376E+03  0.12097022349E+03  0.00000000000E+00 0. -1.
<mgrwt>
<rscale>  0 0.13401174E+03</rscale>
<asrwt>0</asrwt>
<pdfrwt beam="2">  1        1 0.55856907E-01 0.14196183E+03</pdfrwt>
<pdfrwt beam="1">  1       -1 0.77280165E-02 0.14196183E+03</pdfrwt>
<totfact> 0.59835875E+03</totfact>
</mgrwt>
</event>
<event>
 6    1  0.5818426E-006  0.1460521E+03  0.7546771E-02  0.1215553E+00
          1   -1    0    0  501    0  0.00000000000E+00  0.00000000000E+00  0.38324040857E+02  0.38324040857E+02  0.00000000000E+00 0. -1.
         -1   -1    0    0    0  501 -0.00000000000E+00 -0.00000000000E+00 -0.46921039665E+03  0.46921039665E+03  0.00000000000E+00 0.  1.
          5    1    1    2  502    0 -0.78442959978E+01  0.98325757566E+02 -0.23461687047E+03  0.25455186797E+03  0.47000000000E+01 0. -1.
         -5    1    1    2    0  502 -0.27343625447E+02 -0.31475188422E+02 -0.49369812524E+02  0.64790660804E+02  0.47000000000E+01 0. -1.
        -11    1    1    2    0    0  0.46746767117E+02 -0.83981908937E+02 -0.12887292218E+03  0.16076831571E+03  0.00000000000E+00 0. -1.
         11    1    1    2    0    0 -0.11558845672E+02  0.17131339793E+02 -0.18026750628E+02  0.27423593028E+02  0.00000000000E+00 0.  1.
<mgrwt>
<rscale>  0 0.13835977E+03</rscale>
<asrwt>0</asrwt>
<pdfrwt beam="1">  1        1 0.58960064E-02 0.14605210E+03</pdfrwt>
<pdfrwt beam="2">  1       -1 0.72186213E-01 0.14605210E+03</pdfrwt>
<totfact> 0.25882398E+03</totfact>
</mgrwt>
</event>
<event>
 6    1  0.5818426E-006  0.1263126E+03  0.7546771E-02  0.1248157E+00
          1   -1    0    0  501    0  0.00000000000E+00  0.00000000000E+00  0.47602722970E+02  0.47602722970E+02  0.00000000000E+00 0. -1.
         -1   -1    0    0    0  501 -0.00000000000E+00 -0.00000000000E+00 -0.50824596788E+03  0.50824596788E+03  0.00000000000E+00 0.  1.
          5    1    1    2  502    0  0.81557443557E+01 -0.64229004601E+02 -0.21420742359E+03  0.22382759330E+03  0.47000000000E+01 0. -1.
         -5    1    1    2    0  502  0.95364854682E+01  0.60224139159E+02 -0.22956412174E+03  0.23757034217E+03  0.47000000000E+01 0. -1.
        -11    1    1    2    0    0 -0.49564770859E+02  0.19340307440E+01  0.12397502916E+02  0.51128319587E+02  0.00000000000E+00 0. -1.
         11    1    1    2    0    0  0.31872541035E+02  0.20708346983E+01 -0.29269202499E+02  0.43322435796E+02  0.00000000000E+00 0.  1.
<mgrwt>
<rscale>  0 0.11698384E+03</rscale>
<asrwt>0</asrwt>
<pdfrwt beam="1">  1        1 0.73234959E-02 0.12631259E+03</pdfrwt>
<pdfrwt beam="2">  1       -1 0.78191687E-01 0.12631259E+03</pdfrwt>
<totfact> 0.16329372E+03</totfact>
</mgrwt>
</event>
<event>
 6    1  0.5818426E-006  0.1306085E+03  0.7546771E-02  0.1238904E+00
          1   -1    0    0  501    0  0.00000000000E+00  0.00000000000E+00  0.61181076423E+02  0.61181076423E+02  0.00000000000E+00 0. -1.
         -1   -1    0    0    0  501 -0.00000000000E+00 -0.00000000000E+00 -0.21997771584E+03  0.21997771584E+03  0.00000000000E+00 0.  1.
          5    1    1    2  502    0 -0.12432191748E+02 -0.12651227590E+02 -0.10291742712E+03  0.10454042164E+03  0.47000000000E+01 0. -1.
         -5    1    1    2    0  502  0.17167565404E+00  0.48450412535E+02  0.17264006022E+02  0.51648890126E+02  0.47000000000E+01 0. -1.
        -11    1    1    2    0    0  0.47043572708E+02 -0.36788541811E+02 -0.66792434997E+02  0.89597566455E+02  0.00000000000E+00 0. -1.
         11    1    1    2    0    0 -0.34783056614E+02  0.98935686588E+00 -0.63507833216E+01  0.35371914045E+02  0.00000000000E+00 0.  1.
<mgrwt>
<rscale>  0 0.12257770E+03</rscale>
<asrwt>0</asrwt>
<pdfrwt beam="1">  1        1 0.94124732E-02 0.13060855E+03</pdfrwt>
<pdfrwt beam="2">  1       -1 0.33842726E-01 0.13060855E+03</pdfrwt>
<totfact> 0.54849741E+03</totfact>
</mgrwt>
</event>
<event>
 6    1  0.5818426E-006  0.1311139E+03  0.7546771E-02  0.1239267E+00
         -2   -1    0    0    0  501 -0.00000000000E+00  0.00000000000E+00  0.59402003786E+02  0.59402003786E+02  0.00000000000E+00 0.  1.
          2   -1    0    0  501    0  0.00000000000E+00 -0.00000000000E+00 -0.27120190712E+03  0.27120190712E+03  0.00000000000E+00 0. -1.
          5    1    1    2  502    0 -0.12799101757E+02 -0.41721506622E+02 -0.48636678882E+02  0.65514255344E+02  0.47000000000E+01 0. -1.
         -5    1    1    2    0  502  0.50063404454E+02  0.55028610215E+02 -0.61509673032E+00  0.74545024996E+02  0.47000000000E+01 0. -1.
        -11    1    1    2    0    0  0.23499792727E+02  0.19322889325E+00 -0.95460463094E+01  0.25365421262E+02  0.00000000000E+00 0.  1.
         11    1    1    2    0    0 -0.60764095424E+02 -0.13500332486E+02 -0.15300208141E+03  0.16517920930E+03  0.00000000000E+00 0. -1.
<mgrwt>
<rscale>  0 0.12235190E+03</rscale>
<asrwt>0</asrwt>
<pdfrwt beam="2">  1        2 0.41723369E-01 0.13111394E+03</pdfrwt>
<pdfrwt beam="1">  1       -2 0.91387701E-02 0.13111394E+03</pdfrwt>
<totfact> 0.88363823E+03</totfact>
</mgrwt>
</event>
<event>
 6    1  0.5818426E-006  0.1491360E+03  0.7546771E-02  0.1210733E+00
          1   -1    0    0  501    0  0.00000000000E+00  0.00000000000E+00  0.43794417374E+03  0.43794417374E+03  0.00000000000E+00 0. -1.
         -1   -1    0    0    0  501 -0.00000000000E+00 -0.00000000000E+00 -0.49274925111E+02  0.49274925111E+02  0.00000000000E+00 0.  1.
          5    1    1    2  502    0 -0.49899587141E+01  0.65439577056E+02  0.92981241021E+02  0.11390715129E+03  0.47000000000E+01 0.  1.
         -5    1    1    2    0  502  0.69965126951E+02 -0.16568667538E+02  0.25047467283E+02  0.76283060706E+02  0.47000000000E+01 0.  1.
        -11    1    1    2    0    0 -0.71915537845E+02 -0.33820994029E+01  0.12452936124E+03  0.14384312632E+03  0.00000000000E+00 0.  1.
         11    1    1    2    0    0  0.69403696076E+01 -0.45488810116E+02  0.14611117909E+03  0.15318576053E+03  0.00000000000E+00 0. -1.
<mgrwt>
<rscale>  0 0.14194670E+03</rscale>
<asrwt>0</asrwt>
<pdfrwt beam="1">  1        1 0.67376024E-01 0.14913598E+03</pdfrwt>
<pdfrwt beam="2">  1       -1 0.75807580E-02 0.14913598E+03</pdfrwt>
<totfact> 0.48731075E+03</totfact>
</mgrwt>
</event>
<event>
 6    1  0.5818426E-006  0.2366866E+03  0.7546771E-02  0.1125166E+00
         -1   -1    0    0    0  501 -0.00000000000E+00  0.00000000000E+00  0.26032992069E+03  0.26032992069E+03  0.00000000000E+00 0.  1.
          1   -1    0    0  501    0  0.00000000000E+00 -0.00000000000E+00 -0.27707795978E+03  0.27707795978E+03  0.00000000000E+00 0. -1.
          5    1    1    2  502    0 -0.11368030506E+03  0.34540648297E+02  0.12704722186E+03  0.17400963975E+03  0.47000000000E+01 0.  1.
         -5    1    1    2    0  502 -0.87093661614E+02 -0.43770617407E+02  0.66167784516E+01  0.97811270304E+02  0.47000000000E+01 0.  1.
        -11    1    1    2    0    0  0.11293285384E+02  0.25493307099E+02 -0.27406356009E+02  0.39096743487E+02  0.00000000000E+00 0. -1.
         11    1    1    2    0    0  0.18948068129E+03 -0.16263337989E+02 -0.12300568339E+03  0.22649022692E+03  0.00000000000E+00 0.  1.
<mgrwt>
<rscale>  0 0.23210608E+03</rscale>
<asrwt>0</asrwt>
<pdfrwt beam="2">  1        1 0.42627379E-01 0.23668659E+03</pdfrwt>
<pdfrwt beam="1">  1       -1 0.40050757E-01 0.23668659E+03</pdfrwt>
<totfact> 0.59955929E+02</totfact>
</mgrwt>
</event>
<event>
 6    1  0.5818426E-006  0.2635902E+03  0.7546771E-02  0.1107200E+00
          2   -1    0    0  501    0  0.00000000000E+00  0.00000000000E+00  0.26161327089E+03  0.26161327089E+03  0.00000000000E+00 0. -1.
         -2   -1    0    0    0  501 -0.00000000000E+00 -0.00000000000E+00 -0.25910086965E+03  0.25910086965E+03  0.00000000000E+00 0.  1.
          5    1    1    2  502    0  0.59333943230E+01  0.11394267030E+03 -0.78606806816E+02  0.13863353621E+03  0.47000000000E+01 0.  1.
         -5    1    1    2    0  502 -0.47264204318E+02  0.11441216930E+03  0.34563473603E+02  0.12861093733E+03  0.47000000000E+01 0.  1.
        -11    1    1    2    0    0  0.19911364831E+02 -0.25472043193E+02 -0.21014711823E+02  0.38560414246E+02  0.00000000000E+00 0. -1.
         11    1    1    2    0    0  0.21419445164E+02 -0.20288279641E+03  0.67570446280E+02  0.21490925276E+03  0.00000000000E+00 0.  1.
<mgrwt>
<rscale>  0 0.25990547E+03</rscale>
<asrwt>0</asrwt>
<pdfrwt beam="1">  1        2 0.40248195E-01 0.26359020E+03</pdfrwt>
<pdfrwt beam="2">  1       -2 0.39861672E-01 0.26359020E+03</pdfrwt>
<totfact> 0.76282441E+02</totfact>
</mgrwt>
</event>
<event>
 6    1  0.5818426E-006  0.2849452E+03  0.7546771E-02  0.1093018E+00
          1   -1    0    0  501    0  0.00000000000E+00  0.00000000000E+00  0.45509760470E+02  0.45509760470E+02  0.00000000000E+00 0. -1.
         -1   -1    0    0    0  501 -0.00000000000E+00 -0.00000000000E+00 -0.44602387816E+03  0.44602387816E+03  0.00000000000E+00 0.  1.
          5    1    1    2  502    0  0.10953232997E+03  0.33554977920E+02 -0.22629580797E+03  0.25368316964E+03  0.47000000000E+01 0.  1.
         -5    1    1    2    0  502 -0.33242934361E+02 -0.66859248981E+01 -0.66590522927E+02  0.74874441703E+02  0.47000000000E+01 0.  1.
        -11    1    1    2    0    0 -0.47083859598E+02  0.28545038712E+02 -0.72890346999E+02  0.91349393842E+02  0.00000000000E+00 0. -1.
         11    1    1    2    0    0 -0.29205536007E+02 -0.55414091733E+02 -0.34737439795E+02  0.71626633452E+02  0.00000000000E+00 0.  1.
<mgrwt>
<rscale>  0 0.28494519E+03</rscale>
<asrwt>0</asrwt>
<pdfrwt beam="1">  1        1 0.70015015E-02 0.28494519E+03</pdfrwt>
<pdfrwt beam="2">  1       -1 0.68619059E-01 0.28494519E+03</pdfrwt>
<totfact> 0.23272503E+03</totfact>
</mgrwt>
</event>
<event>
 6    1  0.5818426E-006  0.2977724E+03  0.7546771E-02  0.1086359E+00
         -2   -1    0    0    0  501 -0.00000000000E+00  0.00000000000E+00  0.22708549887E+03  0.22708549887E+03  0.00000000000E+00 0.  1.
          2   -1    0    0  501    0  0.00000000000E+00 -0.00000000000E+00 -0.97615670731E+02  0.97615670731E+02  0.00000000000E+00 0. -1.
          5    1    1    2  502    0 -0.38165192655E+02  0.88475545139E+01  0.14983393867E+02  0.42207265287E+02  0.47000000000E+01 0. -1.
         -5    1    1    2    0  502  0.55835526970E+02 -0.80979984260E+02  0.13038669438E+03  0.16339566700E+03  0.47000000000E+01 0. -1.
        -11    1    1    2    0    0  0.18438534871E+02  0.34166972715E+02  0.30295756235E+02  0.49246263194E+02  0.00000000000E+00 0.  1.
         11    1    1    2    0    0 -0.36108869186E+02  0.37965457031E+02 -0.46196016348E+02  0.69851974116E+02  0.00000000000E+00 0. -1.
<mgrwt>
<rscale>  0 0.29777242E+03</rscale>
<asrwt>0</asrwt>
<pdfrwt beam="2">  1        2 0.15017796E-01 0.29777242E+03</pdfrwt>
<pdfrwt beam="1">  1       -2 0.34936231E-01 0.29777242E+03</pdfrwt>
<totfact> 0.29965491E+03</totfact>
</mgrwt>
</event>
<event>
 6    1  0.5818426E-006  0.1298228E+03  0.7546771E-02  0.1242625E+00
          2   -1    0    0  501    0  0.00000000000E+00  0.00000000000E+00  0.57942600924E+02  0.57942600924E+02  0.00000000000E+00 0. -1.
         -2   -1    0    0    0  501 -0.00000000000E+00 -0.00000000000E+00 -0.27008578777E+03  0.27008578777E+03  0.00000000000E+00 0.  1.
          5    1    1    2  502    0  0.62467866933E+02 -0.90836465808E+01 -0.17162667727E+03  0.18292772722E+03  0.47000000000E+01 0. -1.
         -5    1    1    2    0  502 -0.39354032575E+02 -0.17262500740E+02 -0.17878214420E+02  0.46780918787E+02  0.47000000000E+01 0. -1.
        -11    1    1    2    0    0 -0.34715767613E+02  0.51463018338E+02 -0.31039741985E+02  0.69405276168E+02  0.00000000000E+00 0.  1.
         11    1    1    2    0    0  0.11601933254E+02 -0.25116871017E+02  0.84014468363E+01  0.28914466515E+02  0.00000000000E+00 0. -1.
<mgrwt>
<rscale>  0 0.12028632E+03</rscale>
<asrwt>0</asrwt>
<pdfrwt beam="1">  1        2 0.89142464E-02 0.12982279E+03</pdfrwt>
<pdfrwt beam="2">  1       -2 0.41551659E-01 0.12982279E+03</pdfrwt>
<totfact> 0.39029838E+03</totfact>
</mgrwt>
</event>
<event>
 6    1  0.5818426E-006  0.1265512E+03  0.7546771E-02  0.1247140E+00
         -2   -1    0    0    0  501 -0.00000000000E+00  0.00000000000E+00  0.31769178096E+03  0.31769178096E+03  0.00000000000E+00 0.  1.
          2   -1    0    0  501    0  0.00000000000E+00 -0.00000000000E+00 -0.41386908886E+02  0.41386908886E+02  0.00000000000E+00 0. -1.
          5    1    1    2  502    0 -0.54671466530E+02  0.27982148183E+02  0.78676038851E+02  0.99919862684E+02  0.47000000000E+01 0.  1.
         -5    1    1    2    0  502  0.43907217425E+02 -0.44448196089E+02  0.12603979707E+03  0.14075370803E+03  0.47000000000E+01 0.  1.
        -11    1    1    2    0    0  0.42986718996E+01  0.41474667091E+02  0.80846187169E+02  0.90965557055E+02  0.00000000000E+00 0.  1.
         11    1    1    2    0    0  0.64655772055E+01 -0.25008619185E+02 -0.92571510191E+01  0.27439562080E+02  0.00000000000E+00 0. -1.
<mgrwt>
<rscale>  0 0.11758218E+03</rscale>
<asrwt>0</asrwt>
<pdfrwt beam="2">  1        2 0.63672170E-02 0.12655115E+03</pdfrwt>
<pdfrwt beam="1">  1       -2 0.48875657E-01 0.12655115E+03</pdfrwt>
<totfact> 0.43483844E+03</totfact>
</mgrwt>
</event>
<event>
 6    1  0.5818426E-006  0.1557712E+03  0.7546771E-02  0.1201942E+00
          1   -1    0    0  501    0  0.00000000000E+00  0.00000000000E+00  0.21487573026E+03  0.21487573026E+03  0.00000000000E+00 0. -1.
         -1   -1    0    0    0  501 -0.00000000000E+00 -0.00000000000E+00 -0.95637300459E+02  0.95637300459E+02  0.00000000000E+00 0.  1.
          5    1    1    2  502    0  0.19090062228E+02  0.30490235113E+02  0.69781874011E+02  0.78649124939E+02  0.47000000000E+01 0. -1.
         -5    1    1    2    0  502  0.73505922671E+02 -0.38511928222E+02 -0.18868418455E+02  0.85231429051E+02  0.47000000000E+01 0. -1.
        -11    1    1    2    0    0  0.54217691726E+01 -0.13891888736E+02  0.39377592658E+02  0.42106709171E+02  0.00000000000E+00 0. -1.
         11    1    1    2    0    0 -0.98017754072E+02  0.21913581845E+02  0.28947381582E+02  0.10452576756E+03  0.00000000000E+00 0.  1.
<mgrwt>
<rscale>  0 0.14881091E+03</rscale>
<asrwt>0</asrwt>
<pdfrwt beam="1">  1        1 0.33057805E-01 0.15577117E+03</pdfrwt>
<pdfrwt beam="2">  1       -1 0.14713431E-01 0.15577117E+03</pdfrwt>
<totfact> 0.42921597E+03</totfact>
</mgrwt>
</event>
<event>
 6    1  0.5818426E-006  0.3184268E+03  0.7546771E-02  0.1076376E+00
          1   -1    0    0  501    0  0.00000000000E+00  0.00000000000E+00  0.17150350168E+03  0.17150350168E+03  0.00000000000E+00 0. -1.
         -1   -1    0    0    0  501 -0.00000000000E+00 -0.00000000000E+00 -0.14780400713E+03  0.14780400713E+03  0.00000000000E+00 0.  1.
          5    1    1    2  502    0  0.26292588301E+02  0.53871567977E+02  0.17045417529E+01  0.60153482845E+02  0.47000000000E+01 0. -1.
         -5    1    1    2    0  502  0.12027383947E+02 -0.51988187978E+02 -0.67645107623E+02  0.86286616802E+02  0.47000000000E+01 0. -1.
        -11    1    1    2    0    0 -0.17139461037E+02 -0.27673855490E+02 -0.32650497217E+02  0.46104862768E+02  0.00000000000E+00 0.  1.
         11    1    1    2    0    0 -0.21180511211E+02  0.25790475491E+02  0.12229055764E+03  0.12676254639E+03  0.00000000000E+00 0. -1.
<mgrwt>
<rscale>  0 0.31842679E+03</rscale>
<asrwt>0</asrwt>
<pdfrwt beam="1">  1        1 0.26385154E-01 0.31842679E+03</pdfrwt>
<pdfrwt beam="2">  1       -1 0.22739078E-01 0.31842679E+03</pdfrwt>
<totfact> 0.29135087E+03</totfact>
</mgrwt>
</event>
<event>
 6    1  0.5818426E-006  0.1868777E+03  0.7546771E-02  0.1166337E+00
          2   -1    0    0  501    0  0.00000000000E+00  0.00000000000E+00  0.50409982347E+03  0.50409982347E+03  0.00000000000E+00 0. -1.
         -2   -1    0    0    0  501 -0.00000000000E+00 -0.00000000000E+00 -0.11340903776E+03  0.11340903776E+03  0.00000000000E+00 0.  1.
          5    1    1    2  502    0 -0.45675151081E+02 -0.59502420998E+02 -0.53139412973E+02  0.92046970303E+02  0.47000000000E+01 0.  1.
         -5    1    1    2    0  502 -0.82314715961E+02  0.54901105899E+01  0.46750806380E+02  0.94939884533E+02  0.47000000000E+01 0.  1.
        -11    1    1    2    0    0  0.54595942529E+02  0.63636959755E+02  0.14187813393E+03  0.16480225871E+03  0.00000000000E+00 0.  1.
         11    1    1    2    0    0  0.73393924512E+02 -0.96246493466E+01  0.25520125837E+03  0.26571974768E+03  0.00000000000E+00 0. -1.
<mgrwt>
<rscale>  0 0.18152367E+03</rscale>
<asrwt>0</asrwt>
<pdfrwt beam="1">  1        2 0.77553817E-01 0.18687769E+03</pdfrwt>
<pdfrwt beam="2">  1       -2 0.17447545E-01 0.18687769E+03</pdfrwt>
<totfact> 0.16261017E+03</totfact>
</mgrwt>
</event>
<event>
 6    1  0.5818426E-006  0.2204250E+03  0.7546771E-02  0.1138685E+00
          2   -1    0    0  501    0  0.00000000000E+00  0.00000000000E+00  0.61052658957E+03  0.61052658957E+03  0.00000000000E+00 0. -1.
         -2   -1    0    0    0  501 -0.00000000000E+00 -0.00000000000E+00 -0.71294119794E+02  0.71294119794E+02  0.00000000000E+00 0.  1.
          5    1    1    2  502    0 -0.59897410022E+02 -0.10675398798E+03  0.14518835441E+03  0.18996279092E+03  0.47000000000E+01 0. -1.
         -5    1    1    2    0  502 -0.93536152809E+02  0.96977108474E+01  0.17573145117E+03  0.19936572024E+03  0.47000000000E+01 0. -1.
        -11    1    1    2    0    0  0.10292663339E+03  0.93853404483E+02  0.12906955481E+03  0.18989813947E+03  0.00000000000E+00 0.  1.
         11    1    1    2    0    0  0.50506929436E+02  0.32028726502E+01  0.89243109385E+02  0.10259405873E+03  0.00000000000E+00 0. -1.
<mgrwt>
<rscale>  0 0.21367956E+03</rscale>
<asrwt>0</asrwt>
<pdfrwt beam="1">  1        2 0.93927164E-01 0.22042497E+03</pdfrwt>
<pdfrwt beam="2">  1       -2 0.10968327E-01 0.22042497E+03</pdfrwt>
<totfact> 0.28053989E+03</totfact>
</mgrwt>
</event>
<event>
 6    1  0.5818426E-006  0.2587566E+03  0.7546771E-02  0.1110153E+00
          3   -1    0    0  501    0  0.00000000000E+00  0.00000000000E+00  0.29014644366E+03  0.29014644366E+03  0.00000000000E+00 0. -1.
         -3   -1    0    0    0  501 -0.00000000000E+00 -0.00000000000E+00 -0.23536165507E+03  0.23536165507E+03  0.00000000000E+00 0.  1.
          5    1    1    2  502    0 -0.19340047538E+03 -0.29770664234E+02 -0.13045816605E+02  0.19616910984E+03  0.47000000000E+01 0.  1.
         -5    1    1    2    0  502 -0.32343752753E+02  0.49001764514E+02 -0.30145330424E+02  0.66167380286E+02  0.47000000000E+01 0.  1.
        -11    1    1    2    0    0  0.10187151642E+03 -0.46834762412E+02  0.73097117775E+02  0.13384502028E+03  0.00000000000E+00 0. -1.
         11    1    1    2    0    0  0.12387271171E+03  0.27603662132E+02  0.24878817846E+02  0.12932658832E+03  0.00000000000E+00 0.  1.
<mgrwt>
<rscale>  0 0.25505213E+03</rscale>
<asrwt>0</asrwt>
<pdfrwt beam="1">  1        3 0.44637914E-01 0.25875656E+03</pdfrwt>
<pdfrwt beam="2">  1       -3 0.36209485E-01 0.25875656E+03</pdfrwt>
<totfact> 0.94064911E+01</totfact>
</mgrwt>
</event>
<event>
 6    1  0.5818426E-006  0.1455882E+03  0.7546771E-02  0.1215014E+00
          2   -1    0    0  501    0  0.00000000000E+00  0.00000000000E+00  0.39137833293E+03  0.39137833293E+03  0.00000000000E+00 0. -1.
         -2   -1    0    0    0  501 -0.00000000000E+00 -0.00000000000E+00 -0.47253289802E+02  0.47253289802E+02  0.00000000000E+00 0.  1.
          5    1    1    2  502    0  0.52964444796E+02  0.21116095309E+02  0.88098501308E+02  0.10504550360E+03  0.47000000000E+01 0. -1.
         -5    1    1    2    0  502 -0.17017761944E+02 -0.86526219327E+02  0.14634501742E+03  0.17092496885E+03  0.47000000000E+01 0. -1.
        -11    1    1    2    0    0 -0.55862755524E+02  0.58244316487E+02  0.40463417457E+02  0.90279211395E+02  0.00000000000E+00 0.  1.
         11    1    1    2    0    0  0.19916072672E+02  0.71658075308E+01  0.69218106939E+02  0.72381938883E+02  0.00000000000E+00 0. -1.
<mgrwt>
<rscale>  0 0.13875474E+03</rscale>
<asrwt>0</asrwt>
<pdfrwt beam="1">  1        2 0.60212049E-01 0.14558825E+03</pdfrwt>
<pdfrwt beam="2">  1       -2 0.72697372E-02 0.14558825E+03</pdfrwt>
<totfact> 0.85895219E+03</totfact>
</mgrwt>
</event>
<event>
 6    1  0.5818426E-006  0.1379503E+03  0.7546771E-02  0.1233880E+00
          1   -1    0    0  501    0  0.00000000000E+00  0.00000000000E+00  0.43118730724E+02  0.43118730724E+02  0.00000000000E+00 0. -1.
         -1   -1    0    0    0  501 -0.00000000000E+00 -0.00000000000E+00 -0.32182283248E+03  0.32182283248E+03  0.00000000000E+00 0.  1.
          5    1    1    2  502    0  0.45259459927E+02  0.67478406074E+02 -0.11556897516E+03  0.14135074114E+03  0.47000000000E+01 0. -1.
         -5    1    1    2    0  502 -0.55395725558E+02 -0.10041743699E+02 -0.74075873868E+02  0.93160335529E+02  0.47000000000E+01 0. -1.
        -11    1    1    2    0    0 -0.24936642222E+02 -0.22488961020E+02 -0.65602830024E+01  0.34214423949E+02  0.00000000000E+00 0.  1.
         11    1    1    2    0    0  0.35072907852E+02 -0.34947701355E+02 -0.82498969721E+02  0.96216062590E+02  0.00000000000E+00 0. -1.
<mgrwt>
<rscale>  0 0.12576390E+03</rscale>
<asrwt>0</asrwt>
<pdfrwt beam="1">  1        1 0.66336511E-02 0.13795027E+03</pdfrwt>
<pdfrwt beam="2">  1       -1 0.49511203E-01 0.13795027E+03</pdfrwt>
<totfact> 0.45040192E+03</totfact>
</mgrwt>
</event>
<event>
 6    1  0.5818426E-006  0.1384584E+03  0.7546771E-02  0.1226095E+00
         -1   -1    0    0    0  501 -0.00000000000E+00  0.00000000000E+00  0.56082963274E+02  0.56082963274E+02  0.00000000000E+00 0.  1.
          1   -1    0    0  501    0  0.00000000000E+00 -0.00000000000E+00 -0.29155763940E+03  0.29155763940E+03  0.00000000000E+00 0. -1.
          5    1    1    2  502    0  0.26339093088E+02 -0.34987025369E+00  0.15454125193E+02  0.30899679924E+02  0.47000000000E+01 0. -1.
         -5    1    1    2    0  502 -0.74500785446E+02  0.35362268775E+02 -0.10663638487E+03  0.13488612109E+03  0.47000000000E+01 0. -1.
        -11    1    1    2    0    0 -0.22573018624E+02  0.69440197387E+01 -0.58121517566E+02  0.62736523525E+02  0.00000000000E+00 0. -1.
         11    1    1    2    0    0  0.70734710982E+02 -0.41956418260E+02 -0.86170898882E+02  0.11911827813E+03  0.00000000000E+00 0.  1.
<mgrwt>
<rscale>  0 0.13092131E+03</rscale>
<asrwt>0</asrwt>
<pdfrwt beam="2">  1        1 0.44855021E-01 0.13845840E+03</pdfrwt>
<pdfrwt beam="1">  1       -1 0.86281483E-02 0.13845840E+03</pdfrwt>
<totfact> 0.66448294E+03</totfact>
</mgrwt>
</event>
<event>
 6    1  0.5818426E-006  0.1415813E+03  0.7546771E-02  0.1221529E+00
         -2   -1    0    0    0  501 -0.00000000000E+00  0.00000000000E+00  0.19179097881E+03  0.19179097881E+03  0.00000000000E+00 0.  1.
          2   -1    0    0  501    0  0.00000000000E+00 -0.00000000000E+00 -0.93905510355E+02  0.93905510355E+02  0.00000000000E+00 0. -1.
          5    1    1    2  502    0  0.10229200961E+02  0.67296757028E+02  0.30809328476E+00  0.68232506771E+02  0.47000000000E+01 0.  1.
         -5    1    1    2    0  502 -0.35451496463E+02 -0.57839667161E+01  0.97054815911E+02  0.10359531922E+03  0.47000000000E+01 0.  1.
        -11    1    1    2    0    0 -0.15888883643E+02 -0.49499652477E+02  0.31702445585E+02  0.60891027868E+02  0.00000000000E+00 0.  1.
         11    1    1    2    0    0  0.41111179145E+02 -0.12013137834E+02 -0.31179886327E+02  0.52977635307E+02  0.00000000000E+00 0. -1.
<mgrwt>
<rscale>  0 0.13407702E+03</rscale>
<asrwt>0</asrwt>
<pdfrwt beam="2">  1        2 0.14447002E-01 0.14158130E+03</pdfrwt>
<pdfrwt beam="1">  1       -2 0.29506304E-01 0.14158130E+03</pdfrwt>
<totfact> 0.41199480E+03</totfact>
</mgrwt>
</event>
<event>
 6    1  0.5818426E-006  0.1401143E+03  0.7546771E-02  0.1223812E+00
          2   -1    0    0  501    0  0.00000000000E+00  0.00000000000E+00  0.24595623977E+03  0.24595623977E+03  0.00000000000E+00 0. -1.
         -2   -1    0    0    0  501 -0.00000000000E+00 -0.00000000000E+00 -0.76547463050E+02  0.76547463050E+02  0.00000000000E+00 0.  1.
          5    1    1    2  502    0 -0.25855099489E+02  0.80720322516E+02 -0.59260371685E+01  0.85096795200E+02  0.47000000000E+01 0. -1.
         -5    1    1    2    0  502  0.41571506206E+02 -0.19417438663E+02  0.35256219973E+02  0.58054440823E+02  0.47000000000E+01 0. -1.
        -11    1    1    2    0    0  0.32177738221E+02 -0.11921007305E+02  0.16864842498E+02  0.38235326135E+02  0.00000000000E+00 0.  1.
         11    1    1    2    0    0 -0.47894144937E+02 -0.49381876549E+02  0.12321375142E+03  0.14111714067E+03  0.00000000000E+00 0. -1.
<mgrwt>
<rscale>  0 0.13248660E+03</rscale>
<asrwt>0</asrwt>
<pdfrwt beam="1">  1        2 0.37839421E-01 0.14011430E+03</pdfrwt>
<pdfrwt beam="2">  1       -2 0.11776533E-01 0.14011430E+03</pdfrwt>
<totfact> 0.66035140E+03</totfact>
</mgrwt>
</event>
<event>
 6    1  0.5818426E-006  0.2171775E+03  0.7546771E-02  0.1139831E+00
          2   -1    0    0  501    0  0.00000000000E+00  0.00000000000E+00  0.86638160645E+02  0.86638160645E+02  0.00000000000E+00 0. -1.
         -2   -1    0    0    0  501 -0.00000000000E+00 -0.00000000000E+00 -0.50945956912E+03  0.50945956912E+03  0.00000000000E+00 0.  1.
          5    1    1    2  502    0  0.32563585874E+02  0.14669355518E+03 -0.17582659010E+03  0.23133626184E+03  0.47000000000E+01 0.  1.
         -5    1    1    2    0  502  0.66310106904E+02  0.83032840734E+00 -0.91136545720E+02  0.11280815435E+03  0.47000000000E+01 0.  1.
        -11    1    1    2    0    0 -0.10112252192E+02 -0.44399380622E+02 -0.89835943277E+02  0.10071772112E+03  0.00000000000E+00 0.  1.
         11    1    1    2    0    0 -0.88761440587E+02 -0.10312450296E+03 -0.66022329377E+02  0.15123559245E+03  0.00000000000E+00 0. -1.
<mgrwt>
<rscale>  0 0.21220528E+03</rscale>
<asrwt>0</asrwt>
<pdfrwt beam="1">  1        2 0.13328948E-01 0.21717749E+03</pdfrwt>
<pdfrwt beam="2">  1       -2 0.78378393E-01 0.21717749E+03</pdfrwt>
<totfact> 0.66724977E+02</totfact>
</mgrwt>
</event>
<event>
 6    1  0.5818426E-006  0.1317426E+03  0.7546771E-02  0.1236192E+00
          1   -1    0    0  501    0  0.00000000000E+00  0.00000000000E+00  0.20236396237E+03  0.20236396237E+03  0.00000000000E+00 0. -1.
         -1   -1    0    0    0  501 -0.00000000000E+00 -0.00000000000E+00 -0.74899587960E+02  0.74899587960E+02  0.00000000000E+00 0.  1.
          5    1    1    2  502    0  0.58710738841E+02 -0.11301695014E+02 -0.20324412790E+02  0.63323383681E+02  0.47000000000E+01 0.  1.
         -5    1    1    2    0  502 -0.29187322527E+02  0.40616795516E+02  0.51733819652E+02  0.72111732541E+02  0.47000000000E+01 0.  1.
        -11    1    1    2    0    0  0.14023765192E+02  0.26328674770E+02  0.12344853276E+02  0.32284059653E+02  0.00000000000E+00 0.  1.
         11    1    1    2    0    0 -0.43547181506E+02 -0.55643775271E+02  0.83710114274E+02  0.10954437446E+03  0.00000000000E+00 0. -1.
<mgrwt>
<rscale>  0 0.12428450E+03</rscale>
<asrwt>0</asrwt>
<pdfrwt beam="1">  1        1 0.31132917E-01 0.13174263E+03</pdfrwt>
<pdfrwt beam="2">  1       -1 0.11523014E-01 0.13174263E+03</pdfrwt>
<totfact> 0.66923824E+03</totfact>
</mgrwt>
</event>
<event>
 6    1  0.5818426E-006  0.1444204E+03  0.7546771E-02  0.1217414E+00
          2   -1    0    0  501    0  0.00000000000E+00  0.00000000000E+00  0.10762479063E+03  0.10762479063E+03  0.00000000000E+00 0. -1.
         -2   -1    0    0    0  501 -0.00000000000E+00 -0.00000000000E+00 -0.19232991261E+03  0.19232991261E+03  0.00000000000E+00 0.  1.
          5    1    1    2  502    0 -0.60812250582E+02  0.38936870178E+02 -0.82448152262E+01  0.72830465179E+02  0.47000000000E+01 0. -1.
         -5    1    1    2    0  502  0.29413561408E+02  0.26233187910E+02 -0.10019291259E+03  0.10776849018E+03  0.47000000000E+01 0. -1.
        -11    1    1    2    0    0  0.18153756048E+02 -0.66246704440E+01  0.50172653842E+02  0.53765605276E+02  0.00000000000E+00 0. -1.
         11    1    1    2    0    0  0.13244933126E+02 -0.58545387644E+02 -0.26440048007E+02  0.65590142601E+02  0.00000000000E+00 0.  1.
<mgrwt>
<rscale>  0 0.13700684E+03</rscale>
<asrwt>0</asrwt>
<pdfrwt beam="1">  1        2 0.16557660E-01 0.14442037E+03</pdfrwt>
<pdfrwt beam="2">  1       -2 0.29589217E-01 0.14442037E+03</pdfrwt>
<totfact> 0.34997090E+03</totfact>
</mgrwt>
</event>
<event>
 6    1  0.5818426E-006  0.1453437E+03  0.7546771E-02  0.1225826E+00
         -2   -1    0    0    0  501 -0.00000000000E+00  0.00000000000E+00  0.48520476707E+02  0.48520476707E+02  0.00000000000E+00 0.  1.
          2   -1    0    0  501    0  0.00000000000E+00 -0.00000000000E+00 -0.48574982796E+03  0.48574982796E+03  0.00000000000E+00 0. -1.
          5    1    1    2  502    0 -0.53754795217E+02  0.14033992444E+02 -0.76327537856E+02  0.94522558090E+02  0.47000000000E+01 0.  1.
         -5    1    1    2    0  502  0.76711524239E+01 -0.72131398579E+02 -0.70328414169E+01  0.73029693269E+02  0.47000000000E+01 0.  1.
        -11    1    1    2    0    0 -0.10494060447E+02  0.32429307045E+02 -0.12283146735E+03  0.12747295648E+03  0.00000000000E+00 0. -1.
         11    1    1    2    0    0  0.56577703240E+02  0.25668099090E+02 -0.23103750463E+03  0.23924509683E+03  0.00000000000E+00 0.  1.
<mgrwt>
<rscale>  0 0.13110434E+03</rscale>
<asrwt>0</asrwt>
<pdfrwt beam="2">  1        2 0.74730740E-01 0.14534374E+03</pdfrwt>
<pdfrwt beam="1">  1       -2 0.74646890E-02 0.14534374E+03</pdfrwt>
<totfact> 0.65284564E+03</totfact>
</mgrwt>
</event>
<event>
 6    1  0.5818426E-006  0.3081647E+03  0.7546771E-02  0.1081229E+00
         -1   -1    0    0    0  501 -0.00000000000E+00  0.00000000000E+00  0.56586260329E+02  0.56586260329E+02  0.00000000000E+00 0.  1.
          1   -1    0    0  501    0  0.00000000000E+00 -0.00000000000E+00 -0.41956067925E+03  0.41956067925E+03  0.00000000000E+00 0. -1.
          5    1    1    2  502    0 -0.25941660038E+02 -0.79234294233E+01 -0.29887114997E+01  0.27690663693E+02  0.47000000000E+01 0.  1.
         -5    1    1    2    0  502  0.10005833679E+03  0.76567540452E+02 -0.12888757853E+03  0.18030074018E+03  0.47000000000E+01 0.  1.
        -11    1    1    2    0    0  0.13182011503E+02 -0.39354261277E+02 -0.96792036496E+02  0.10531486902E+03  0.00000000000E+00 0.  1.
         11    1    1    2    0    0 -0.87298688255E+02 -0.29289849752E+02 -0.13430609239E+03  0.16284066668E+03  0.00000000000E+00 0. -1.
<mgrwt>
<rscale>  0 0.30816470E+03</rscale>
<asrwt>0</asrwt>
<pdfrwt beam="2">  1        1 0.64547795E-01 0.30816470E+03</pdfrwt>
<pdfrwt beam="1">  1       -1 0.87055787E-02 0.30816470E+03</pdfrwt>
<totfact> 0.43006309E+03</totfact>
</mgrwt>
</event>
<event>
 6    1  0.5818426E-006  0.1365794E+03  0.7546771E-02  0.1220492E+00
         -1   -1    0    0    0  501 -0.00000000000E+00  0.00000000000E+00  0.17321396481E+03  0.17321396481E+03  0.00000000000E+00 0.  1.
          1   -1    0    0  501    0  0.00000000000E+00 -0.00000000000E+00 -0.14013297345E+03  0.14013297345E+03  0.00000000000E+00 0. -1.
          5    1    1    2  502    0  0.81120763454E+01  0.27461031162E+02  0.10762741113E+03  0.11147046085E+03  0.47000000000E+01 0. -1.
         -5    1    1    2    0  502 -0.55809146840E+02 -0.18212803041E-01 -0.93641239153E+01  0.56784135279E+02  0.47000000000E+01 0. -1.
        -11    1    1    2    0    0  0.82926714771E+02 -0.38920020654E+02 -0.38173803385E+02  0.99241358794E+02  0.00000000000E+00 0.  1.
         11    1    1    2    0    0 -0.35229644276E+02  0.11477202295E+02 -0.27008492467E+02  0.45850983345E+02  0.00000000000E+00 0. -1.
<mgrwt>
<rscale>  0 0.13480701E+03</rscale>
<asrwt>0</asrwt>
<pdfrwt beam="2">  1        1 0.21558919E-01 0.13657941E+03</pdfrwt>
<pdfrwt beam="1">  1       -1 0.26648302E-01 0.13657941E+03</pdfrwt>
<totfact> 0.28028906E+03</totfact>
</mgrwt>
</event>
<event>
 6    1  0.5818426E-006  0.2358054E+03  0.7546771E-02  0.1122619E+00
          2   -1    0    0  501    0  0.00000000000E+00  0.00000000000E+00  0.17061934600E+03  0.17061934600E+03  0.00000000000E+00 0. -1.
         -2   -1    0    0    0  501 -0.00000000000E+00 -0.00000000000E+00 -0.81474003173E+02  0.81474003173E+02  0.00000000000E+00 0.  1.
          5    1    1    2  502    0  0.58814673503E+02  0.62562663508E+02  0.53541453377E+02  0.10130167775E+03  0.47000000000E+01 0. -1.
         -5    1    1    2    0  502 -0.23450267030E+02 -0.13385861190E+02 -0.13649134056E+02  0.30618379514E+02  0.47000000000E+01 0.  1.
        -11    1    1    2    0    0  0.14130712396E+02 -0.31727114411E+02 -0.14466223321E+02  0.37623907809E+02  0.00000000000E+00 0. -1.
         11    1    1    2    0    0 -0.49495118868E+02 -0.17449687907E+02  0.63719246832E+02  0.82549384108E+02  0.00000000000E+00 0.  1.
<mgrwt>
<rscale>  0 0.23580535E+03</rscale>
<asrwt>0</asrwt>
<pdfrwt beam="1">  1        2 0.26249130E-01 0.23580535E+03</pdfrwt>
<pdfrwt beam="2">  1       -2 0.12534462E-01 0.23580535E+03</pdfrwt>
<totfact> 0.91990898E+03</totfact>
</mgrwt>
</event>
<event>
 6    1  0.5818426E-006  0.2419363E+03  0.7546771E-02  0.1121175E+00
         -2   -1    0    0    0  501 -0.00000000000E+00  0.00000000000E+00  0.46870825374E+02  0.46870825374E+02  0.00000000000E+00 0.  1.
          2   -1    0    0  501    0  0.00000000000E+00 -0.00000000000E+00 -0.11926622477E+04  0.11926622477E+04  0.00000000000E+00 0. -1.
          5    1    1    2  502    0  0.98420881510E+02  0.63236502778E+02 -0.34886041991E+03  0.36798261886E+03  0.47000000000E+01 0. -1.
         -5    1    1    2    0  502  0.13915917437E+02  0.11079079773E+03 -0.15653944060E+03  0.19234068754E+03  0.47000000000E+01 0. -1.
        -11    1    1    2    0    0 -0.56670063373E+02 -0.28554964100E+02 -0.11659787663E+03  0.13274768131E+03  0.00000000000E+00 0.  1.
         11    1    1    2    0    0 -0.55666735575E+02 -0.14547233641E+03 -0.52379368518E+03  0.54646208537E+03  0.00000000000E+00 0. -1.
<mgrwt>
<rscale>  0 0.23793624E+03</rscale>
<asrwt>0</asrwt>
<pdfrwt beam="2">  1        2 0.18348649E+00 0.24193633E+03</pdfrwt>
<pdfrwt beam="1">  1       -2 0.72108968E-02 0.24193633E+03</pdfrwt>
<totfact> 0.22428367E+03</totfact>
</mgrwt>
</event>
<event>
 6    1  0.5818426E-006  0.4100843E+03  0.7546771E-02  0.1040879E+00
         -1   -1    0    0    0  501 -0.00000000000E+00  0.00000000000E+00  0.20949848591E+03  0.20949848591E+03  0.00000000000E+00 0.  1.
          1   -1    0    0  501    0  0.00000000000E+00 -0.00000000000E+00 -0.91780299675E+03  0.91780299675E+03  0.00000000000E+00 0. -1.
          5    1    1    2  502    0  0.87533753628E+02 -0.15710094056E+03 -0.12032873146E+03  0.21643464872E+03  0.47000000000E+01 0. -1.
         -5    1    1    2    0  502  0.48640966621E+02 -0.21190022211E+03 -0.26166638109E+02  0.21903066159E+03  0.47000000000E+01 0.  1.
        -11    1    1    2    0    0 -0.10881712956E+03  0.34690539224E+03 -0.53814428667E+03  0.64944883719E+03  0.00000000000E+00 0. -1.
         11    1    1    2    0    0 -0.27357590692E+02  0.22095770434E+02 -0.23664854600E+02  0.42387335170E+02  0.00000000000E+00 0.  1.
<mgrwt>
<rscale>  0 0.40848951E+03</rscale>
<asrwt>0</asrwt>
<pdfrwt beam="2">  1        1 0.14120046E+00 0.41008431E+03</pdfrwt>
<pdfrwt beam="1">  1       -1 0.32230537E-01 0.41008431E+03</pdfrwt>
<totfact> 0.16543602E+02</totfact>
</mgrwt>
</event>
<event>
 6    1  0.5818426E-006  0.1887819E+03  0.7546771E-02  0.1164463E+00
          3   -1    0    0  501    0  0.00000000000E+00  0.00000000000E+00  0.14120660168E+03  0.14120660168E+03  0.00000000000E+00 0. -1.
         -3   -1    0    0    0  501 -0.00000000000E+00 -0.00000000000E+00 -0.22872977864E+03  0.22872977864E+03  0.00000000000E+00 0.  1.
          5    1    1    2  502    0  0.54215949011E+02 -0.40625977584E+01 -0.70061408131E+02  0.88806332753E+02  0.47000000000E+01 0. -1.
         -5    1    1    2    0  502  0.50808069261E+02  0.98848854328E+02  0.36913679155E+01  0.11130261498E+03  0.47000000000E+01 0. -1.
        -11    1    1    2    0    0 -0.72247547519E+01 -0.23415375553E+02 -0.40384254111E+02  0.47237325005E+02  0.00000000000E+00 0.  1.
         11    1    1    2    0    0 -0.97799263520E+02 -0.71370881017E+02  0.19231117370E+02  0.12259010758E+03  0.00000000000E+00 0. -1.
<mgrwt>
<rscale>  0 0.18349465E+03</rscale>
<asrwt>0</asrwt>
<pdfrwt beam="1">  1        3 0.21724093E-01 0.18878191E+03</pdfrwt>
<pdfrwt beam="2">  1       -3 0.35189196E-01 0.18878191E+03</pdfrwt>
<totfact> 0.37321169E+02</totfact>
</mgrwt>
</event>
<event>
 6    1  0.5818426E-006  0.2613822E+03  0.7546771E-02  0.1106316E+00
         -2   -1    0    0    0  501 -0.00000000000E+00  0.00000000000E+00  0.81666521341E+02  0.81666521341E+02  0.00000000000E+00 0.  1.
          2   -1    0    0  501    0  0.00000000000E+00 -0.00000000000E+00 -0.20914517516E+03  0.20914517516E+03  0.00000000000E+00 0. -1.
          5    1    1    2  502    0  0.19926894252E+02  0.22510566313E+02  0.37899555356E+02  0.48603220124E+02  0.47000000000E+01 0. -1.
         -5    1    1    2    0  502  0.39009258128E+01 -0.69656025970E+02 -0.53400827799E+02  0.87982484539E+02  0.47000000000E+01 0. -1.
        -11    1    1    2    0    0 -0.49462517474E+02  0.13799026917E+02 -0.23941078225E+02  0.56658000364E+02  0.00000000000E+00 0.  1.
         11    1    1    2    0    0  0.25634697409E+02  0.33346432739E+02 -0.88036303152E+02  0.97567991474E+02  0.00000000000E+00 0. -1.
<mgrwt>
<rscale>  0 0.26138216E+03</rscale>
<asrwt>0</asrwt>
<pdfrwt beam="2">  1        2 0.32176180E-01 0.26138216E+03</pdfrwt>
<pdfrwt beam="1">  1       -2 0.12564080E-01 0.26138216E+03</pdfrwt>
<totfact> 0.73613636E+03</totfact>
</mgrwt>
</event>
<event>
 6    1  0.5818426E-006  0.1314303E+03  0.7546771E-02  0.1239026E+00
          1   -1    0    0  501    0  0.00000000000E+00  0.00000000000E+00  0.76064227266E+02  0.76064227266E+02  0.00000000000E+00 0. -1.
         -1   -1    0    0    0  501 -0.00000000000E+00 -0.00000000000E+00 -0.18229369923E+03  0.18229369923E+03  0.00000000000E+00 0.  1.
          5    1    1    2  502    0 -0.31418970242E+02  0.56020316360E+01 -0.78204153592E+02  0.84596182471E+02  0.47000000000E+01 0. -1.
         -5    1    1    2    0  502  0.68440576271E+02 -0.22252204625E+02 -0.79554766325E+01  0.72557926510E+02  0.47000000000E+01 0. -1.
        -11    1    1    2    0    0 -0.58840200268E+02 -0.19454930245E+01 -0.35398551274E+02  0.68695061999E+02  0.00000000000E+00 0.  1.
         11    1    1    2    0    0  0.21818594239E+02  0.18595666014E+02  0.15328709537E+02  0.32508755515E+02  0.00000000000E+00 0. -1.
<mgrwt>
<rscale>  0 0.12250191E+03</rscale>
<asrwt>0</asrwt>
<pdfrwt beam="1">  1        1 0.11702189E-01 0.13143033E+03</pdfrwt>
<pdfrwt beam="2">  1       -1 0.28045184E-01 0.13143033E+03</pdfrwt>
<totfact> 0.56484570E+03</totfact>
</mgrwt>
</event>
<event>
 6    1  0.5818426E-006  0.1656745E+03  0.7546771E-02  0.1188102E+00
         -1   -1    0    0    0  501 -0.00000000000E+00  0.00000000000E+00  0.29628789715E+03  0.29628789715E+03  0.00000000000E+00 0.  1.
          1   -1    0    0  501    0  0.00000000000E+00 -0.00000000000E+00 -0.87364670675E+02  0.87364670675E+02  0.00000000000E+00 0. -1.
          5    1    1    2  502    0  0.48231838378E+02  0.40360310969E+02  0.16801147009E+01  0.63088649695E+02  0.47000000000E+01 0. -1.
         -5    1    1    2    0  502  0.94288477480E+01  0.54257116343E+02  0.15649742505E+03  0.16597069588E+03  0.47000000000E+01 0.  1.
        -11    1    1    2    0    0  0.22828340449E+02 -0.45296110290E+02  0.96311872624E+01  0.51629744365E+02  0.00000000000E+00 0.  1.
         11    1    1    2    0    0 -0.80489026575E+02 -0.49321317022E+02  0.41114499458E+02  0.10296347788E+03  0.00000000000E+00 0. -1.
<mgrwt>
<rscale>  0 0.16052779E+03</rscale>
<asrwt>0</asrwt>
<pdfrwt beam="2">  1        1 0.13440719E-01 0.16567453E+03</pdfrwt>
<pdfrwt beam="1">  1       -1 0.45582753E-01 0.16567453E+03</pdfrwt>
<totfact> 0.20600408E+03</totfact>
</mgrwt>
</event>
<event>
 6    1  0.5818426E-006  0.1351428E+03  0.7546771E-02  0.1233256E+00
         -2   -1    0    0    0  501 -0.00000000000E+00  0.00000000000E+00  0.22707432295E+03  0.22707432295E+03  0.00000000000E+00 0.  1.
          2   -1    0    0  501    0  0.00000000000E+00 -0.00000000000E+00 -0.71967908949E+02  0.71967908949E+02  0.00000000000E+00 0. -1.
          5    1    1    2  502    0 -0.43224042405E+02 -0.56736556198E+02  0.39341631642E+02  0.81591719134E+02  0.47000000000E+01 0. -1.
         -5    1    1    2    0  502 -0.77006854768E+01  0.50078607114E+02  0.10184562390E+03  0.11384985092E+03  0.47000000000E+01 0. -1.
        -11    1    1    2    0    0  0.21988829647E+02 -0.15506763565E+02  0.47143270979E+02  0.54281270657E+02  0.00000000000E+00 0.  1.
         11    1    1    2    0    0  0.28935898235E+02  0.22164712649E+02 -0.33224112525E+02  0.49319391182E+02  0.00000000000E+00 0. -1.
<mgrwt>
<rscale>  0 0.12616716E+03</rscale>
<asrwt>0</asrwt>
<pdfrwt beam="2">  1        2 0.11071986E-01 0.13514276E+03</pdfrwt>
<pdfrwt beam="1">  1       -2 0.34934511E-01 0.13514276E+03</pdfrwt>
<totfact> 0.41522698E+03</totfact>
</mgrwt>
</event>
<event>
 6    1  0.5818426E-006  0.3062019E+03  0.7546771E-02  0.1083848E+00
          2   -1    0    0  501    0  0.00000000000E+00  0.00000000000E+00  0.78388277178E+03  0.78388277178E+03  0.00000000000E+00 0. -1.
         -2   -1    0    0    0  501 -0.00000000000E+00 -0.00000000000E+00 -0.50393801011E+03  0.50393801011E+03  0.00000000000E+00 0.  1.
          5    1    1    2  502    0  0.10991816847E+02 -0.40255366421E+02 -0.70800812508E+02  0.82317432024E+02  0.47000000000E+01 0. -1.
         -5    1    1    2    0  502 -0.22631344498E+03 -0.13501201395E+03 -0.35457773079E+03  0.44180705796E+03  0.47000000000E+01 0.  1.
        -11    1    1    2    0    0  0.14645160160E+03  0.10354791846E+03  0.33192288288E+03  0.37728377013E+03  0.00000000000E+00 0.  1.
         11    1    1    2    0    0  0.68870026534E+02  0.71719461913E+02  0.37340042208E+03  0.38641252177E+03  0.00000000000E+00 0. -1.
<mgrwt>
<rscale>  0 0.30280344E+03</rscale>
<asrwt>0</asrwt>
<pdfrwt beam="1">  1        2 0.12059735E+00 0.30620185E+03</pdfrwt>
<pdfrwt beam="2">  1       -2 0.77528925E-01 0.30620185E+03</pdfrwt>
<totfact> 0.55996637E+01</totfact>
</mgrwt>
</event>
<event>
 6    1  0.5818426E-006  0.2634769E+03  0.7546771E-02  0.1142153E+00
         -2   -1    0    0    0  501 -0.00000000000E+00  0.00000000000E+00  0.41204926115E+03  0.41204926115E+03  0.00000000000E+00 0.  1.
          2   -1    0    0  501    0  0.00000000000E+00 -0.00000000000E+00 -0.27492846248E+03  0.27492846248E+03  0.00000000000E+00 0. -1.
          5    1    1    2  502    0 -0.32102890653E+02 -0.45564078811E+02 -0.25096678754E+02  0.61307537471E+02  0.47000000000E+01 0. -1.
         -5    1    1    2    0  502  0.14668424628E+02 -0.39796406170E+01  0.38191193627E+03  0.38224313896E+03  0.47000000000E+01 0.  1.
        -11    1    1    2    0    0 -0.32431468473E+02  0.41340062132E+02 -0.89718283575E+02  0.10397197359E+03  0.00000000000E+00 0. -1.
         11    1    1    2    0    0  0.49865934497E+02  0.82036572965E+01 -0.12997617528E+03  0.13945507361E+03  0.00000000000E+00 0.  1.
<mgrwt>
<rscale>  0 0.20926033E+03</rscale>
<asrwt>0</asrwt>
<pdfrwt beam="2">  1        2 0.42296686E-01 0.26347690E+03</pdfrwt>
<pdfrwt beam="1">  1       -2 0.63392194E-01 0.26347690E+03</pdfrwt>
<totfact> 0.28512140E+02</totfact>
</mgrwt>
</event>
<event>
 6    1  0.5818426E-006  0.1342147E+03  0.7546771E-02  0.1247228E+00
         -1   -1    0    0    0  501 -0.00000000000E+00  0.00000000000E+00  0.66413949152E+03  0.66413949152E+03  0.00000000000E+00 0.  1.
          1   -1    0    0  501    0  0.00000000000E+00 -0.00000000000E+00 -0.21511530242E+02  0.21511530242E+02  0.00000000000E+00 0. -1.
          5    1    1    2  502    0  0.13558788187E+02 -0.65779869120E+01 -0.25335690784E+00  0.15788123341E+02  0.47000000000E+01 0. -1.
         -5    1    1    2    0  502 -0.20368462035E+02  0.50351103410E+01  0.53886966884E+03  0.53929846707E+03  0.47000000000E+01 0.  1.
        -11    1    1    2    0    0  0.14679868495E+02 -0.36055793639E+02  0.39347827826E+02  0.55351335562E+02  0.00000000000E+00 0. -1.
         11    1    1    2    0    0 -0.78701946462E+01  0.37598670210E+02  0.64663821519E+02  0.75213095793E+02  0.00000000000E+00 0.  1.
<mgrwt>
<rscale>  0 0.11753016E+03</rscale>
<asrwt>0</asrwt>
<pdfrwt beam="2">  1        1 0.33094667E-02 0.13421472E+03</pdfrwt>
<pdfrwt beam="1">  1       -1 0.10217529E+00 0.13421472E+03</pdfrwt>
<totfact> 0.27485444E+03</totfact>
</mgrwt>
</event>
<event>
 6    1  0.5818426E-006  0.1738173E+03  0.7546771E-02  0.1178004E+00
          1   -1    0    0  501    0  0.00000000000E+00  0.00000000000E+00  0.29297436836E+03  0.29297436836E+03  0.00000000000E+00 0. -1.
         -1   -1    0    0    0  501 -0.00000000000E+00 -0.00000000000E+00 -0.12078262533E+03  0.12078262533E+03  0.00000000000E+00 0.  1.
          5    1    1    2  502    0  0.49202002083E+02  0.60211197854E+02  0.50129741359E+02  0.92635340582E+02  0.47000000000E+01 0. -1.
         -5    1    1    2    0  502  0.26290045470E+02  0.50573014173E+02 -0.57857835234E+02  0.81353643750E+02  0.47000000000E+01 0.  1.
        -11    1    1    2    0    0 -0.40459730022E+02 -0.27302745727E+02  0.12423543061E+03  0.13347985577E+03  0.00000000000E+00 0.  1.
         11    1    1    2    0    0 -0.35032317531E+02 -0.83481466301E+02  0.55684406297E+02  0.10628815358E+03  0.00000000000E+00 0. -1.
<mgrwt>
<rscale>  0 0.16985051E+03</rscale>
<asrwt>0</asrwt>
<pdfrwt beam="1">  1        1 0.45072979E-01 0.17381727E+03</pdfrwt>
<pdfrwt beam="2">  1       -1 0.18581942E-01 0.17381727E+03</pdfrwt>
<totfact> 0.20240911E+03</totfact>
</mgrwt>
</event>
<event>
 6    1  0.5818426E-006  0.1290126E+03  0.7546771E-02  0.1241542E+00
          2   -1    0    0  501    0  0.00000000000E+00  0.00000000000E+00  0.54332699374E+03  0.54332699374E+03  0.00000000000E+00 0. -1.
         -2   -1    0    0    0  501 -0.00000000000E+00 -0.00000000000E+00 -0.26980868326E+02  0.26980868326E+02  0.00000000000E+00 0.  1.
          5    1    1    2  502    0  0.31922002056E+02  0.36119174454E+02  0.10406832142E+03  0.11478638639E+03  0.47000000000E+01 0. -1.
         -5    1    1    2    0  502 -0.62927980471E+02 -0.43705825857E+02  0.90518453247E+02  0.11868365649E+03  0.47000000000E+01 0. -1.
        -11    1    1    2    0    0 -0.15510435293E+02 -0.23259487856E+02  0.35493296912E+02  0.45181318086E+02  0.00000000000E+00 0.  1.
         11    1    1    2    0    0  0.46516413708E+02  0.30846139258E+02  0.28626605384E+03  0.29165650110E+03  0.00000000000E+00 0. -1.
<mgrwt>
<rscale>  0 0.12094731E+03</rscale>
<asrwt>0</asrwt>
<pdfrwt beam="1">  1        2 0.83588760E-01 0.12901259E+03</pdfrwt>
<pdfrwt beam="2">  1       -2 0.41509032E-02 0.12901259E+03</pdfrwt>
<totfact> 0.13893722E+04</totfact>
</mgrwt>
</event>
<event>
 6    1  0.5818426E-006  0.1997019E+03  0.7546771E-02  0.1153917E+00
          4   -1    0    0  501    0  0.00000000000E+00  0.00000000000E+00  0.14819040650E+03  0.14819040650E+03  0.00000000000E+00 0. -1.
         -4   -1    0    0    0  501 -0.00000000000E+00 -0.00000000000E+00 -0.27292532794E+03  0.27292532794E+03  0.00000000000E+00 0.  1.
          5    1    1    2  502    0  0.88500423748E+02 -0.17972264967E+01 -0.41691258115E+02  0.97958185110E+02  0.47000000000E+01 0. -1.
         -5    1    1    2    0  502  0.27479549860E+02 -0.10529249791E+03 -0.89570063597E+02  0.14101958045E+03  0.47000000000E+01 0.  1.
        -11    1    1    2    0    0  0.11203774824E+02 -0.47516261820E+01  0.38096458347E+01  0.12752094850E+02  0.00000000000E+00 0.  1.
         11    1    1    2    0    0 -0.12718374843E+03  0.11184135059E+03  0.27167544362E+01  0.16938587403E+03  0.00000000000E+00 0. -1.
<mgrwt>
<rscale>  0 0.19512683E+03</rscale>
<asrwt>0</asrwt>
<pdfrwt beam="1">  1        4 0.22798524E-01 0.19970187E+03</pdfrwt>
<pdfrwt beam="2">  1       -4 0.41988512E-01 0.19970187E+03</pdfrwt>
<totfact> 0.17438056E+02</totfact>
</mgrwt>
</event>
<event>
 6    1  0.5818426E-006  0.1999316E+03  0.7546771E-02  0.1154124E+00
          2   -1    0    0  501    0  0.00000000000E+00  0.00000000000E+00  0.56461317344E+03  0.56461317344E+03  0.00000000000E+00 0. -1.
         -2   -1    0    0    0  501 -0.00000000000E+00 -0.00000000000E+00 -0.73081149599E+02  0.73081149599E+02  0.00000000000E+00 0.  1.
          5    1    1    2  502    0  0.12288397480E+02  0.86999424830E+02  0.15723810182E+02  0.89382508580E+02  0.47000000000E+01 0.  1.
         -5    1    1    2    0  502 -0.68252607052E+02  0.58653543479E+02  0.12931619801E+03  0.15761797359E+03  0.47000000000E+01 0.  1.
        -11    1    1    2    0    0  0.25732324676E+02 -0.70997318638E+02  0.70938944331E+02  0.10361035474E+03  0.00000000000E+00 0.  1.
         11    1    1    2    0    0  0.30231884895E+02 -0.74655649671E+02  0.27555307132E+03  0.28708348613E+03  0.00000000000E+00 0. -1.
<mgrwt>
<rscale>  0 0.19488939E+03</rscale>
<asrwt>0</asrwt>
<pdfrwt beam="1">  1        2 0.86863562E-01 0.19993157E+03</pdfrwt>
<pdfrwt beam="2">  1       -2 0.11243254E-01 0.19993157E+03</pdfrwt>
<totfact> 0.29423634E+03</totfact>
</mgrwt>
</event>
<event>
 6    1  0.5818426E-006  0.1466087E+03  0.7546771E-02  0.1214457E+00
          2   -1    0    0  501    0  0.00000000000E+00  0.00000000000E+00  0.56773759918E+03  0.56773759918E+03  0.00000000000E+00 0. -1.
         -2   -1    0    0    0  501 -0.00000000000E+00 -0.00000000000E+00 -0.34207114783E+02  0.34207114783E+02  0.00000000000E+00 0.  1.
          5    1    1    2  502    0  0.50025157360E+02 -0.40344883865E+02  0.49335523583E+02  0.81156083630E+02  0.47000000000E+01 0.  1.
         -5    1    1    2    0  502 -0.61786846480E+02 -0.35359444008E+02  0.15191409399E+03  0.16783291284E+03  0.47000000000E+01 0.  1.
        -11    1    1    2    0    0  0.44418830744E+02  0.19548369861E+02  0.91592957349E+02  0.10365539602E+03  0.00000000000E+00 0. -1.
         11    1    1    2    0    0 -0.32657141623E+02  0.56155958012E+02  0.24068790948E+03  0.24930032148E+03  0.00000000000E+00 0.  1.
<mgrwt>
<rscale>  0 0.13916505E+03</rscale>
<asrwt>0</asrwt>
<pdfrwt beam="1">  1        2 0.87344239E-01 0.14660870E+03</pdfrwt>
<pdfrwt beam="2">  1       -2 0.52626334E-02 0.14660870E+03</pdfrwt>
<totfact> 0.93550927E+03</totfact>
</mgrwt>
</event>
<event>
 6    1  0.5818426E-006  0.1645596E+03  0.7546771E-02  0.1192016E+00
          2   -1    0    0  501    0  0.00000000000E+00  0.00000000000E+00  0.26709900538E+03  0.26709900538E+03  0.00000000000E+00 0. -1.
         -2   -1    0    0    0  501 -0.00000000000E+00 -0.00000000000E+00 -0.87265789802E+02  0.87265789802E+02  0.00000000000E+00 0.  1.
          5    1    1    2  502    0  0.96600869845E+02 -0.15702083329E+01 -0.28396264664E+01  0.96769556615E+02  0.47000000000E+01 0.  1.
         -5    1    1    2    0  502  0.39704513674E+01  0.38186697701E+02  0.72001759536E+02  0.81733296407E+02  0.47000000000E+01 0.  1.
        -11    1    1    2    0    0 -0.71887215774E+02 -0.47543673032E+02  0.11619881559E+03  0.14467320893E+03  0.00000000000E+00 0. -1.
         11    1    1    2    0    0 -0.28684105438E+02  0.10927183664E+02 -0.55277330807E+01  0.31188733232E+02  0.00000000000E+00 0.  1.
<mgrwt>
<rscale>  0 0.15709510E+03</rscale>
<asrwt>0</asrwt>
<pdfrwt beam="1">  1        2 0.41092154E-01 0.16455962E+03</pdfrwt>
<pdfrwt beam="2">  1       -2 0.13425506E-01 0.16455962E+03</pdfrwt>
<totfact> 0.49451487E+03</totfact>
</mgrwt>
</event>
<event>
 6    1  0.5818426E-006  0.1402725E+03  0.7546771E-02  0.1226152E+00
          3   -1    0    0  501    0  0.00000000000E+00  0.00000000000E+00  0.10379850145E+03  0.10379850145E+03  0.00000000000E+00 0. -1.
         -3   -1    0    0    0  501 -0.00000000000E+00 -0.00000000000E+00 -0.16203751038E+03  0.16203751038E+03  0.00000000000E+00 0.  1.
          5    1    1    2  502    0  0.58134531637E+02  0.13837995369E+02 -0.50576674535E+02  0.78429611063E+02  0.47000000000E+01 0.  1.
         -5    1    1    2    0  502 -0.57974729446E+02  0.49835920001E+02 -0.23030210247E+02  0.79982302797E+02  0.47000000000E+01 0.  1.
        -11    1    1    2    0    0 -0.18726465197E+02 -0.58151377066E+02 -0.22326292543E+02  0.65044035023E+02  0.00000000000E+00 0.  1.
         11    1    1    2    0    0  0.18566663006E+02 -0.55225383046E+01  0.37694168396E+02  0.42380062949E+02  0.00000000000E+00 0. -1.
<mgrwt>
<rscale>  0 0.13088268E+03</rscale>
<asrwt>0</asrwt>
<pdfrwt beam="1">  1        3 0.15969000E-01 0.14027245E+03</pdfrwt>
<pdfrwt beam="2">  1       -3 0.24928848E-01 0.14027245E+03</pdfrwt>
<totfact> 0.11645512E+03</totfact>
</mgrwt>
</event>
<event>
 6    1  0.5818426E-006  0.1288103E+03  0.7546771E-02  0.1244853E+00
         -1   -1    0    0    0  501 -0.00000000000E+00  0.00000000000E+00  0.36595992445E+03  0.36595992445E+03  0.00000000000E+00 0.  1.
          1   -1    0    0  501    0  0.00000000000E+00 -0.00000000000E+00 -0.43777579276E+02  0.43777579276E+02  0.00000000000E+00 0. -1.
          5    1    1    2  502    0 -0.35641790399E+02  0.21691377469E+02  0.17798176912E+03  0.18286731042E+03  0.47000000000E+01 0. -1.
         -5    1    1    2    0  502  0.57415886007E+02 -0.43886389745E+02  0.99603143182E+02  0.12314818432E+03  0.47000000000E+01 0. -1.
        -11    1    1    2    0    0  0.91804484275E+01 -0.22075598465E+02  0.43563471120E+02  0.49692944136E+02  0.00000000000E+00 0.  1.
         11    1    1    2    0    0 -0.30954544036E+02  0.44270610741E+02  0.10339617543E+01  0.54029064852E+02  0.00000000000E+00 0. -1.
<mgrwt>
<rscale>  0 0.11894160E+03</rscale>
<asrwt>0</asrwt>
<pdfrwt beam="2">  1        1 0.67350124E-02 0.12881032E+03</pdfrwt>
<pdfrwt beam="1">  1       -1 0.56301525E-01 0.12881032E+03</pdfrwt>
<totfact> 0.34663672E+03</totfact>
</mgrwt>
</event>
<event>
 6    1  0.5818426E-006  0.1286822E+03  0.7546771E-02  0.1242343E+00
         -2   -1    0    0    0  501 -0.00000000000E+00  0.00000000000E+00  0.13940828054E+03  0.13940828054E+03  0.00000000000E+00 0.  1.
          2   -1    0    0  501    0  0.00000000000E+00 -0.00000000000E+00 -0.10800856236E+03  0.10800856236E+03  0.00000000000E+00 0. -1.
          5    1    1    2  502    0 -0.59777493195E+02 -0.18005650362E+02 -0.10072973099E+02  0.63412198548E+02  0.47000000000E+01 0. -1.
         -5    1    1    2    0  502  0.28560898686E+02  0.12644536828E+02  0.73610649685E+02  0.80101354498E+02  0.47000000000E+01 0. -1.
        -11    1    1    2    0    0  0.15160525664E+02  0.17914790835E+02 -0.62824591486E+02  0.67064972709E+02  0.00000000000E+00 0. -1.
         11    1    1    2    0    0  0.16056068844E+02 -0.12553677301E+02  0.30686633074E+02  0.36838317143E+02  0.00000000000E+00 0.  1.
<mgrwt>
<rscale>  0 0.12045837E+03</rscale>
<asrwt>0</asrwt>
<pdfrwt beam="2">  1        2 0.16616702E-01 0.12868218E+03</pdfrwt>
<pdfrwt beam="1">  1       -2 0.21447428E-01 0.12868218E+03</pdfrwt>
<totfact> 0.60751261E+03</totfact>
</mgrwt>
</event>
<event>
 6    1  0.5818426E-006  0.1274997E+03  0.7546771E-02  0.1246531E+00
         -1   -1    0    0    0  501 -0.00000000000E+00  0.00000000000E+00  0.54919206203E+02  0.54919206203E+02  0.00000000000E+00 0.  1.
          1   -1    0    0  501    0  0.00000000000E+00 -0.00000000000E+00 -0.23894654711E+03  0.23894654711E+03  0.00000000000E+00 0. -1.
          5    1    1    2  502    0 -0.46282867615E+02  0.20512107095E+02  0.18125614302E+02  0.53976645560E+02  0.47000000000E+01 0.  1.
         -5    1    1    2    0  502  0.29553207091E+02 -0.19164177187E+01 -0.84713557651E+02  0.89864017026E+02  0.47000000000E+01 0.  1.
        -11    1    1    2    0    0 -0.10371980982E+02 -0.37097081226E+02 -0.10976125563E+03  0.11632413620E+03  0.00000000000E+00 0.  1.
         11    1    1    2    0    0  0.27101641506E+02  0.18501391850E+02 -0.76781419306E+01  0.33700954529E+02  0.00000000000E+00 0. -1.
<mgrwt>
<rscale>  0 0.11794203E+03</rscale>
<asrwt>0</asrwt>
<pdfrwt beam="2">  1        1 0.36761007E-01 0.12749973E+03</pdfrwt>
<pdfrwt beam="1">  1       -1 0.84491087E-02 0.12749973E+03</pdfrwt>
<totfact> 0.87200022E+03</totfact>
</mgrwt>
</event>
<event>
 6    1  0.5818426E-006  0.1331924E+03  0.7546771E-02  0.1235210E+00
         -3   -1    0    0    0  501 -0.00000000000E+00  0.00000000000E+00  0.27840175113E+03  0.27840175113E+03  0.00000000000E+00 0.  1.
          3   -1    0    0  501    0  0.00000000000E+00 -0.00000000000E+00 -0.63970098650E+02  0.63970098650E+02  0.00000000000E+00 0. -1.
          5    1    1    2  502    0  0.60878689479E+01 -0.73992339972E+02  0.12503671696E+03  0.14549295210E+03  0.47000000000E+01 0.  1.
         -5    1    1    2    0  502 -0.39288254933E+02  0.42159902828E+02  0.72084282490E+02  0.92408106593E+02  0.47000000000E+01 0.  1.
        -11    1    1    2    0    0  0.22248554416E+02  0.47935650543E+02  0.45819943094E+02  0.69944920843E+02  0.00000000000E+00 0.  1.
         11    1    1    2    0    0  0.10951831569E+02 -0.16103213399E+02 -0.28509290060E+02  0.34525870246E+02  0.00000000000E+00 0. -1.
<mgrwt>
<rscale>  0 0.12490996E+03</rscale>
<asrwt>0</asrwt>
<pdfrwt beam="2">  1        3 0.98415538E-02 0.13319244E+03</pdfrwt>
<pdfrwt beam="1">  1       -3 0.42831038E-01 0.13319244E+03</pdfrwt>
<totfact> 0.94713043E+02</totfact>
</mgrwt>
</event>
<event>
 6    1  0.5818426E-006  0.1687252E+03  0.7546771E-02  0.1184385E+00
         -1   -1    0    0    0  501 -0.00000000000E+00  0.00000000000E+00  0.62925728480E+02  0.62925728480E+02  0.00000000000E+00 0.  1.
          1   -1    0    0  501    0  0.00000000000E+00 -0.00000000000E+00 -0.42805680308E+03  0.42805680308E+03  0.00000000000E+00 0. -1.
          5    1    1    2  502    0 -0.59287821468E+02  0.14372317285E+02 -0.12677732543E+01  0.61198909529E+02  0.47000000000E+01 0.  1.
         -5    1    1    2    0  502 -0.64117575706E+01  0.77973179376E+02 -0.13322714721E+03  0.15457195765E+03  0.47000000000E+01 0.  1.
        -11    1    1    2    0    0  0.34454697814E+02 -0.25025475753E+01 -0.11646968671E+02  0.36456012193E+02  0.00000000000E+00 0.  1.
         11    1    1    2    0    0  0.31244881225E+02 -0.89842949085E+02 -0.21898918546E+03  0.23875565219E+03  0.00000000000E+00 0. -1.
<mgrwt>
<rscale>  0 0.16387943E+03</rscale>
<asrwt>0</asrwt>
<pdfrwt beam="2">  1        1 0.65854892E-01 0.16872517E+03</pdfrwt>
<pdfrwt beam="1">  1       -1 0.96808814E-02 0.16872517E+03</pdfrwt>
<totfact> 0.34797324E+03</totfact>
</mgrwt>
</event>
<event>
 6    1  0.5818426E-006  0.2624490E+03  0.7546771E-02  0.1107823E+00
         -1   -1    0    0    0  501 -0.00000000000E+00  0.00000000000E+00  0.33000106746E+03  0.33000106746E+03  0.00000000000E+00 0.  1.
          1   -1    0    0  501    0  0.00000000000E+00 -0.00000000000E+00 -0.20357031645E+03  0.20357031645E+03  0.00000000000E+00 0. -1.
          5    1    1    2  502    0  0.49221212683E+02  0.49589951675E+02  0.59627905134E+02  0.91975367114E+02  0.47000000000E+01 0. -1.
         -5    1    1    2    0  502  0.50107183420E+02  0.15870730989E+03 -0.39913277287E+02  0.17121302447E+03  0.47000000000E+01 0. -1.
        -11    1    1    2    0    0 -0.11208799394E+02 -0.12347602763E+03  0.36013684733E+02  0.12910829590E+03  0.00000000000E+00 0. -1.
         11    1    1    2    0    0 -0.88119596709E+02 -0.84821233940E+02  0.70702438426E+02  0.14127469643E+03  0.00000000000E+00 0.  1.
<mgrwt>
<rscale>  0 0.25887237E+03</rscale>
<asrwt>0</asrwt>
<pdfrwt beam="2">  1        1 0.31318510E-01 0.26244897E+03</pdfrwt>
<pdfrwt beam="1">  1       -1 0.50769395E-01 0.26244897E+03</pdfrwt>
<totfact> 0.57450144E+02</totfact>
</mgrwt>
</event>
<event>
 6    1  0.7663751E-006  0.2752855E+03  0.7546771E-02  0.1100426E+00
         -1   -1    0    0    0  501 -0.00000000000E+00  0.00000000000E+00  0.50079640745E+02  0.50079640745E+02  0.00000000000E+00 0.  1.
          1   -1    0    0  501    0  0.00000000000E+00 -0.00000000000E+00 -0.16284584054E+04  0.16284584054E+04  0.00000000000E+00 0. -1.
          5    1    1    2  502    0 -0.74309224334E+02  0.13431894274E+02 -0.28755065250E+03  0.29733776140E+03  0.47000000000E+01 0.  1.
         -5    1    1    2    0  502 -0.16901568339E+03 -0.44261531961E+02 -0.23001972632E+03  0.28888847145E+03  0.47000000000E+01 0.  1.
        -11    1    1    2    0    0  0.13305327818E+03 -0.27243837465E+02 -0.55214663232E+03  0.56860470021E+03  0.00000000000E+00 0.  1.
         11    1    1    2    0    0  0.11027162954E+03  0.58073475152E+02 -0.50866175347E+03  0.52370711303E+03  0.00000000000E+00 0. -1.
<mgrwt>
<rscale>  0 0.27149744E+03</rscale>
<asrwt>0</asrwt>
<pdfrwt beam="2">  1        1 0.25053204E+00 0.27528549E+03</pdfrwt>
<pdfrwt beam="1">  1       -1 0.77045609E-02 0.27528549E+03</pdfrwt>
<totfact> 0.53750771E+02</totfact>
</mgrwt>
</event>
<event>
 6    1  0.5818426E-006  0.2697578E+03  0.7546771E-02  0.1133885E+00
         -2   -1    0    0    0  501 -0.00000000000E+00  0.00000000000E+00  0.22952990585E+02  0.22952990585E+02  0.00000000000E+00 0.  1.
          2   -1    0    0  501    0  0.00000000000E+00 -0.00000000000E+00 -0.16990995168E+04  0.16990995168E+04  0.00000000000E+00 0. -1.
          5    1    1    2  502    0  0.48941891625E+02 -0.15074917041E+03 -0.57128761983E+03  0.59288469006E+03  0.47000000000E+01 0. -1.
         -5    1    1    2    0  502 -0.59710252487E+02  0.74355861381E+02 -0.71807054293E+03  0.72439043547E+03  0.47000000000E+01 0.  1.
        -11    1    1    2    0    0  0.40061411241E+02  0.75609394843E+02 -0.23283809624E+03  0.24806304909E+03  0.00000000000E+00 0.  1.
         11    1    1    2    0    0 -0.29293050379E+02  0.78391418248E+00 -0.15395026721E+03  0.15671433277E+03  0.00000000000E+00 0. -1.
<mgrwt>
<rscale>  0 0.21999730E+03</rscale>
<asrwt>0</asrwt>
<pdfrwt beam="2">  1        2 0.26139991E+00 0.26975783E+03</pdfrwt>
<pdfrwt beam="1">  1       -2 0.35312295E-02 0.26975783E+03</pdfrwt>
<totfact> 0.35451784E+03</totfact>
</mgrwt>
</event>
<event>
 6    1  0.5818426E-006  0.1430907E+03  0.7546771E-02  0.1219655E+00
          3   -1    0    0  501    0  0.00000000000E+00  0.00000000000E+00  0.54796035463E+02  0.54796035463E+02  0.00000000000E+00 0. -1.
         -3   -1    0    0    0  501 -0.00000000000E+00 -0.00000000000E+00 -0.43454331441E+03  0.43454331441E+03  0.00000000000E+00 0.  1.
          5    1    1    2  502    0  0.74184558027E+02  0.54777271233E+02 -0.17638510758E+03  0.19909217531E+03  0.47000000000E+01 0.  1.
         -5    1    1    2    0  502 -0.52231106305E+01 -0.45086794500E+02 -0.16198625527E+03  0.16829063200E+03  0.47000000000E+01 0.  1.
        -11    1    1    2    0    0 -0.80737442113E+02 -0.27958251681E+02 -0.13330076924E+02  0.86474790238E+02  0.00000000000E+00 0. -1.
         11    1    1    2    0    0  0.11775994716E+02  0.18267774948E+02 -0.28045839180E+02  0.35481752330E+02  0.00000000000E+00 0.  1.
<mgrwt>
<rscale>  0 0.13540087E+03</rscale>
<asrwt>0</asrwt>
<pdfrwt beam="1">  1        3 0.84301596E-02 0.14309070E+03</pdfrwt>
<pdfrwt beam="2">  1       -3 0.66852815E-01 0.14309070E+03</pdfrwt>
<totfact> 0.50189375E+02</totfact>
</mgrwt>
</event>
<event>
 6    1  0.5818426E-006  0.1380568E+03  0.7546771E-02  0.1227280E+00
          2   -1    0    0  501    0  0.00000000000E+00  0.00000000000E+00  0.31860579972E+02  0.31860579972E+02  0.00000000000E+00 0. -1.
         -2   -1    0    0    0  501 -0.00000000000E+00 -0.00000000000E+00 -0.48186101166E+03  0.48186101166E+03  0.00000000000E+00 0.  1.
          5    1    1    2  502    0  0.20200496590E+02  0.68624455637E+02 -0.24287702874E+03  0.25323648447E+03  0.47000000000E+01 0.  1.
         -5    1    1    2    0  502  0.26551053400E+02 -0.33287069130E+02 -0.29140320813E+02  0.51809610160E+02  0.47000000000E+01 0.  1.
        -11    1    1    2    0    0 -0.60258384450E+02  0.71743943558E+01 -0.12816798202E+03  0.14180823829E+03  0.00000000000E+00 0. -1.
         11    1    1    2    0    0  0.13506834460E+02 -0.42511780863E+02 -0.49815100109E+02  0.66867258716E+02  0.00000000000E+00 0.  1.
<mgrwt>
<rscale>  0 0.13011825E+03</rscale>
<asrwt>0</asrwt>
<pdfrwt beam="1">  1        2 0.49016281E-02 0.13805680E+03</pdfrwt>
<pdfrwt beam="2">  1       -2 0.74132457E-01 0.13805680E+03</pdfrwt>
<totfact> 0.26062948E+03</totfact>
</mgrwt>
</event>
<event>
 6    1  0.5818426E-006  0.1321188E+03  0.7546771E-02  0.1237697E+00
          2   -1    0    0  501    0  0.00000000000E+00  0.00000000000E+00  0.29131589269E+03  0.29131589269E+03  0.00000000000E+00 0.  1.
         -2   -1    0    0    0  501 -0.00000000000E+00 -0.00000000000E+00 -0.50408769871E+02  0.50408769871E+02  0.00000000000E+00 0. -1.
          5    1    1    2  502    0 -0.10507859999E+02 -0.37077232353E+02  0.64261065064E+02  0.75078031167E+02  0.47000000000E+01 0. -1.
         -5    1    1    2    0  502  0.67720969226E+01  0.79703571321E+02  0.23393060274E+02  0.83473623660E+02  0.47000000000E+01 0. -1.
        -11    1    1    2    0    0  0.17310468809E+02 -0.34027560859E+02  0.16090712157E+03  0.16537420900E+03  0.00000000000E+00 0.  1.
         11    1    1    2    0    0 -0.13574705732E+02 -0.85987781087E+01 -0.76541240959E+01  0.17798798734E+02  0.00000000000E+00 0. -1.
<mgrwt>
<rscale>  0 0.12333318E+03</rscale>
<asrwt>0</asrwt>
<pdfrwt beam="1">  1        2 0.44817829E-01 0.13211882E+03</pdfrwt>
<pdfrwt beam="2">  1       -2 0.77551955E-02 0.13211882E+03</pdfrwt>
<totfact> 0.10569474E+04</totfact>
</mgrwt>
</event>
<event>
 6    1  0.5818426E-006  0.3423663E+03  0.7546771E-02  0.1065793E+00
         -1   -1    0    0    0  501 -0.00000000000E+00  0.00000000000E+00  0.87207034087E+02  0.87207034087E+02  0.00000000000E+00 0.  1.
          1   -1    0    0  501    0  0.00000000000E+00 -0.00000000000E+00 -0.33602412950E+03  0.33602412950E+03  0.00000000000E+00 0. -1.
          5    1    1    2  502    0  0.30828522287E+01  0.69576539774E+00  0.18924429061E+02  0.19753786539E+02  0.47000000000E+01 0.  1.
         -5    1    1    2    0  502 -0.97154364991E+02 -0.96389734100E+02 -0.16691768138E+03  0.21590172263E+03  0.47000000000E+01 0.  1.
        -11    1    1    2    0    0  0.62846622464E+02  0.20181806208E+02 -0.79100974898E+02  0.10302411119E+03  0.00000000000E+00 0.  1.
         11    1    1    2    0    0  0.31224890298E+02  0.75512162495E+02 -0.21722868191E+02  0.84551543222E+02  0.00000000000E+00 0. -1.
<mgrwt>
<rscale>  0 0.34236628E+03</rscale>
<asrwt>0</asrwt>
<pdfrwt beam="2">  1        1 0.51696019E-01 0.34236628E+03</pdfrwt>
<pdfrwt beam="1">  1       -1 0.13416467E-01 0.34236628E+03</pdfrwt>
<totfact> 0.29186057E+03</totfact>
</mgrwt>
</event>
<event>
 6    1  0.5818426E-006  0.1588214E+03  0.7546771E-02  0.1197403E+00
         -2   -1    0    0    0  501 -0.00000000000E+00  0.00000000000E+00  0.29582747296E+03  0.29582747296E+03  0.00000000000E+00 0.  1.
          2   -1    0    0  501    0  0.00000000000E+00 -0.00000000000E+00 -0.76198538136E+02  0.76198538136E+02  0.00000000000E+00 0. -1.
          5    1    1    2  502    0 -0.47109526026E+01  0.53057726167E+02 -0.11656856692E+01  0.53486112250E+02  0.47000000000E+01 0. -1.
         -5    1    1    2    0  502  0.53255229878E+02  0.32043023151E+02  0.15743320792E+03  0.16932270904E+03  0.47000000000E+01 0. -1.
        -11    1    1    2    0    0 -0.68370120678E+02 -0.26890606535E+02  0.31168867674E+02  0.79806493680E+02  0.00000000000E+00 0.  1.
         11    1    1    2    0    0  0.19825843403E+02 -0.58210142784E+02  0.32192544904E+02  0.69410696128E+02  0.00000000000E+00 0. -1.
<mgrwt>
<rscale>  0 0.15252564E+03</rscale>
<asrwt>0</asrwt>
<pdfrwt beam="2">  1        2 0.11722852E-01 0.15882139E+03</pdfrwt>
<pdfrwt beam="1">  1       -2 0.45511918E-01 0.15882139E+03</pdfrwt>
<totfact> 0.23693081E+03</totfact>
</mgrwt>
</event>
<event>
 6    1  0.5818426E-006  0.1517784E+03  0.7546771E-02  0.1206875E+00
          1   -1    0    0  501    0  0.00000000000E+00  0.00000000000E+00  0.31841494538E+02  0.31841494538E+02  0.00000000000E+00 0. -1.
         -1   -1    0    0    0  501 -0.00000000000E+00 -0.00000000000E+00 -0.61009220439E+03  0.61009220439E+03  0.00000000000E+00 0.  1.
          5    1    1    2  502    0 -0.22605757403E+02 -0.22909502192E+02 -0.42100391537E+02  0.53201489886E+02  0.47000000000E+01 0. -1.
         -5    1    1    2    0  502  0.39272513821E+02  0.10736839784E+03 -0.29886120651E+03  0.32001627138E+03  0.47000000000E+01 0. -1.
        -11    1    1    2    0    0 -0.28845568465E+02 -0.69813775672E+02 -0.23795492348E+03  0.24965691599E+03  0.00000000000E+00 0.  1.
         11    1    1    2    0    0  0.12178812047E+02 -0.14645119974E+02  0.66581166735E+00  0.19059021672E+02  0.00000000000E+00 0. -1.
<mgrwt>
<rscale>  0 0.14490702E+03</rscale>
<asrwt>0</asrwt>
<pdfrwt beam="1">  1        1 0.48986919E-02 0.15177841E+03</pdfrwt>
<pdfrwt beam="2">  1       -1 0.93860331E-01 0.15177841E+03</pdfrwt>
<totfact> 0.19395888E+03</totfact>
</mgrwt>
</event>
<event>
 6    1  0.5818426E-006  0.1163103E+03  0.7546771E-02  0.1335183E+00
         -1   -1    0    0    0  501 -0.00000000000E+00  0.00000000000E+00  0.60050003628E+02  0.60050003628E+02  0.00000000000E+00 0.  1.
          1   -1    0    0  501    0  0.00000000000E+00 -0.00000000000E+00 -0.87611319051E+02  0.87611319051E+02  0.00000000000E+00 0. -1.
          5    1    1    2  502    0  0.42434467504E+02  0.22038906454E+02  0.12747402066E+02  0.49708990027E+02  0.47000000000E+01 0. -1.
         -5    1    1    2    0  502 -0.62366337101E+02 -0.12750516090E+02 -0.19735660751E+02  0.66811091663E+02  0.47000000000E+01 0.  1.
        -11    1    1    2    0    0  0.79200352493E+01 -0.73252938049E+01 -0.12616562845E+02  0.16600136918E+02  0.00000000000E+00 0.  1.
         11    1    1    2    0    0  0.12011834348E+02 -0.19630965585E+01 -0.79564938940E+01  0.14541104070E+02  0.00000000000E+00 0. -1.
<mgrwt>
<rscale>  0 0.77878056E+02</rscale>
<asrwt>0</asrwt>
<pdfrwt beam="2">  1        1 0.13478664E-01 0.11631033E+03</pdfrwt>
<pdfrwt beam="1">  1       -1 0.92384621E-02 0.11631033E+03</pdfrwt>
<totfact> 0.26770003E+04</totfact>
</mgrwt>
</event>
<event>
 6    1  0.5818426E-006  0.1983978E+03  0.7546771E-02  0.1155589E+00
          2   -1    0    0  501    0  0.00000000000E+00  0.00000000000E+00  0.10286793430E+04  0.10286793430E+04  0.00000000000E+00 0.  1.
         -2   -1    0    0    0  501 -0.00000000000E+00 -0.00000000000E+00 -0.37233637908E+02  0.37233637908E+02  0.00000000000E+00 0. -1.
          5    1    1    2  502    0 -0.67218500075E+02  0.82278532000E+02  0.11528911666E+03  0.15684946286E+03  0.47000000000E+01 0.  1.
         -5    1    1    2    0  502 -0.63000041891E+02  0.63532924461E-01  0.26102128704E+03  0.26855765043E+03  0.47000000000E+01 0.  1.
        -11    1    1    2    0    0  0.57942993807E+02 -0.65412544700E+02  0.46361924047E+03  0.47178278018E+03  0.00000000000E+00 0.  1.
         11    1    1    2    0    0  0.72275548159E+02 -0.16929520224E+02  0.15151606087E+03  0.16872308739E+03  0.00000000000E+00 0. -1.
<mgrwt>
<rscale>  0 0.19322002E+03</rscale>
<asrwt>0</asrwt>
<pdfrwt beam="1">  1        2 0.15825834E+00 0.19839781E+03</pdfrwt>
<pdfrwt beam="2">  1       -2 0.57282528E-02 0.19839781E+03</pdfrwt>
<totfact> 0.39726892E+03</totfact>
</mgrwt>
</event>
<event>
 6    1  0.5818426E-006  0.1279916E+03  0.7546771E-02  0.1245713E+00
         -1   -1    0    0    0  501 -0.00000000000E+00  0.00000000000E+00  0.20058026949E+02  0.20058026949E+02  0.00000000000E+00 0.  1.
          1   -1    0    0  501    0  0.00000000000E+00 -0.00000000000E+00 -0.61328631252E+03  0.61328631252E+03  0.00000000000E+00 0. -1.
          5    1    1    2  502    0  0.10458967553E+02  0.17867784720E+02 -0.31617346097E+03  0.31688546062E+03  0.47000000000E+01 0.  1.
         -5    1    1    2    0  502 -0.37910349929E+02 -0.19044172587E+02 -0.29947153742E+02  0.52142086250E+02  0.47000000000E+01 0.  1.
        -11    1    1    2    0    0  0.42027948232E+02  0.17254333932E+02 -0.23522975685E+03  0.23957691662E+03  0.00000000000E+00 0. -1.
         11    1    1    2    0    0 -0.14576565855E+02 -0.16077946066E+02 -0.11877914013E+02  0.24739875972E+02  0.00000000000E+00 0.  1.
<mgrwt>
<rscale>  0 0.11842779E+03</rscale>
<asrwt>0</asrwt>
<pdfrwt beam="2">  1        1 0.94351726E-01 0.12799160E+03</pdfrwt>
<pdfrwt beam="1">  1       -1 0.30858508E-02 0.12799160E+03</pdfrwt>
<totfact> 0.11708712E+04</totfact>
</mgrwt>
</event>
<event>
 6    1  0.5818426E-006  0.1395022E+03  0.7546771E-02  0.1225248E+00
         -2   -1    0    0    0  501 -0.00000000000E+00  0.00000000000E+00  0.47784493148E+02  0.47784493148E+02  0.00000000000E+00 0.  1.
          2   -1    0    0  501    0  0.00000000000E+00 -0.00000000000E+00 -0.35340501508E+03  0.35340501508E+03  0.00000000000E+00 0. -1.
          5    1    1    2  502    0  0.67253495825E+02 -0.45212598323E+01 -0.22074492144E+02  0.71083385503E+02  0.47000000000E+01 0.  1.
         -5    1    1    2    0  502 -0.33943281983E+02 -0.47697422751E+02 -0.91874411445E+02  0.10904213868E+03  0.47000000000E+01 0.  1.
        -11    1    1    2    0    0 -0.41553445647E+02  0.44060872580E+02 -0.19854898315E+03  0.20758070249E+03  0.00000000000E+00 0. -1.
         11    1    1    2    0    0  0.82432318051E+01  0.81578100036E+01  0.68773648105E+01  0.13483281551E+02  0.00000000000E+00 0.  1.
<mgrwt>
<rscale>  0 0.13149947E+03</rscale>
<asrwt>0</asrwt>
<pdfrwt beam="2">  1        2 0.54370003E-01 0.13950216E+03</pdfrwt>
<pdfrwt beam="1">  1       -2 0.73514604E-02 0.13950216E+03</pdfrwt>
<totfact> 0.93867228E+03</totfact>
</mgrwt>
</event>
<event>
 6    1  0.5818426E-006  0.1531815E+03  0.7546771E-02  0.1205086E+00
         -3   -1    0    0    0  501 -0.00000000000E+00  0.00000000000E+00  0.86057803798E+02  0.86057803798E+02  0.00000000000E+00 0.  1.
          3   -1    0    0  501    0  0.00000000000E+00 -0.00000000000E+00 -0.24887518283E+03  0.24887518283E+03  0.00000000000E+00 0. -1.
          5    1    1    2  502    0  0.14158318145E+02 -0.96203425874E+02 -0.48097718801E+02  0.10858654464E+03  0.47000000000E+01 0.  1.
         -5    1    1    2    0  502 -0.47169133243E+02  0.14074218894E+02  0.71782119805E+01  0.49966263575E+02  0.47000000000E+01 0.  1.
        -11    1    1    2    0    0  0.61303774632E+02  0.37721805194E+02 -0.88294339493E+02  0.11391653856E+03  0.00000000000E+00 0. -1.
         11    1    1    2    0    0 -0.28292959534E+02  0.44407401786E+02 -0.33603532720E+02  0.62463639855E+02  0.00000000000E+00 0.  1.
<mgrwt>
<rscale>  0 0.14630678E+03</rscale>
<asrwt>0</asrwt>
<pdfrwt beam="2">  1        3 0.38288489E-01 0.15318155E+03</pdfrwt>
<pdfrwt beam="1">  1       -3 0.13239662E-01 0.15318155E+03</pdfrwt>
<totfact> 0.73174930E+02</totfact>
</mgrwt>
</event>
<event>
 6    1  0.5818426E-006  0.1935427E+03  0.7546771E-02  0.1160062E+00
          3   -1    0    0  501    0  0.00000000000E+00  0.00000000000E+00  0.28501163211E+02  0.28501163211E+02  0.00000000000E+00 0. -1.
         -3   -1    0    0    0  501 -0.00000000000E+00 -0.00000000000E+00 -0.11804115976E+04  0.11804115976E+04  0.00000000000E+00 0.  1.
          5    1    1    2  502    0 -0.10131065127E+03 -0.11298573846E+03 -0.58238333884E+03  0.60184887514E+03  0.47000000000E+01 0.  1.
         -5    1    1    2    0  502  0.26238562797E+02 -0.14283082827E+02 -0.41392838153E+02  0.51263297622E+02  0.47000000000E+01 0.  1.
        -11    1    1    2    0    0  0.88609787246E+02  0.93039441327E+02 -0.46780635722E+03  0.48512969389E+03  0.00000000000E+00 0.  1.
         11    1    1    2    0    0 -0.13537698770E+02  0.34229379964E+02 -0.60327900180E+02  0.70670894157E+02  0.00000000000E+00 0. -1.
<mgrwt>
<rscale>  0 0.18823570E+03</rscale>
<asrwt>0</asrwt>
<pdfrwt beam="1">  1        3 0.43847955E-02 0.19354274E+03</pdfrwt>
<pdfrwt beam="2">  1       -3 0.18160174E+00 0.19354274E+03</pdfrwt>
<totfact> 0.14267655E+02</totfact>
</mgrwt>
</event>
<event>
 6    1  0.5818426E-006  0.2438664E+03  0.7546771E-02  0.1117244E+00
          1   -1    0    0  501    0  0.00000000000E+00  0.00000000000E+00  0.40825276585E+02  0.40825276585E+02  0.00000000000E+00 0. -1.
         -1   -1    0    0    0  501 -0.00000000000E+00 -0.00000000000E+00 -0.36417890729E+03  0.36417890729E+03  0.00000000000E+00 0.  1.
          5    1    1    2  502    0 -0.29207506152E+02  0.40755035367E+02 -0.25846147147E+03  0.26332199596E+03  0.47000000000E+01 0.  1.
         -5    1    1    2    0  502 -0.30259564202E+00  0.69737801257E+01  0.14338182382E+02  0.16625241273E+02  0.47000000000E+01 0.  1.
        -11    1    1    2    0    0  0.21702801671E+01 -0.31738862258E+02 -0.86839467136E+02  0.92483287928E+02  0.00000000000E+00 0.  1.
         11    1    1    2    0    0  0.27339821627E+02 -0.15989953234E+02  0.76091255141E+01  0.32573658716E+02  0.00000000000E+00 0. -1.
<mgrwt>
<rscale>  0 0.24386639E+03</rscale>
<asrwt>0</asrwt>
<pdfrwt beam="1">  1        1 0.62808118E-02 0.24386639E+03</pdfrwt>
<pdfrwt beam="2">  1       -1 0.56027524E-01 0.24386639E+03</pdfrwt>
<totfact> 0.39831326E+03</totfact>
</mgrwt>
</event>
<event>
 6    1  0.5818426E-006  0.1469502E+03  0.7546771E-02  0.1213837E+00
         -2   -1    0    0    0  501 -0.00000000000E+00  0.00000000000E+00  0.56456546816E+03  0.56456546816E+03  0.00000000000E+00 0.  1.
          2   -1    0    0  501    0  0.00000000000E+00 -0.00000000000E+00 -0.32429811062E+02  0.32429811062E+02  0.00000000000E+00 0. -1.
          5    1    1    2  502    0  0.31604911052E+02  0.37188599580E+02  0.26431868714E+03  0.26882767847E+03  0.47000000000E+01 0. -1.
         -5    1    1    2    0  502  0.44215396065E+02 -0.52012675787E+02  0.78371724050E+02  0.10404103432E+03  0.47000000000E+01 0. -1.
        -11    1    1    2    0    0 -0.33074561653E+02  0.52941761541E+02  0.95063921271E+02  0.11372733124E+03  0.00000000000E+00 0.  1.
         11    1    1    2    0    0 -0.42745745463E+02 -0.38117685334E+02  0.94381324634E+02  0.11039923519E+03  0.00000000000E+00 0. -1.
<mgrwt>
<rscale>  0 0.13962347E+03</rscale>
<asrwt>0</asrwt>
<pdfrwt beam="2">  1        2 0.49892021E-02 0.14695019E+03</pdfrwt>
<pdfrwt beam="1">  1       -2 0.86856219E-01 0.14695019E+03</pdfrwt>
<totfact> 0.18068467E+03</totfact>
</mgrwt>
</event>
<event>
 6    1  0.5818426E-006  0.1883174E+03  0.7546771E-02  0.1164840E+00
          1   -1    0    0  501    0  0.00000000000E+00  0.00000000000E+00  0.45483324476E+03  0.45483324476E+03  0.00000000000E+00 0. -1.
         -1   -1    0    0    0  501 -0.00000000000E+00 -0.00000000000E+00 -0.71433446582E+02  0.71433446582E+02  0.00000000000E+00 0.  1.
          5    1    1    2  502    0 -0.32322605452E+02  0.11988481393E+03  0.13831114329E+03  0.18592789406E+03  0.47000000000E+01 0. -1.
         -5    1    1    2    0  502  0.54870138641E+02  0.19149907701E+02  0.25387294325E+02  0.63592891053E+02  0.47000000000E+01 0. -1.
        -11    1    1    2    0    0  0.13670888885E+02 -0.34312804242E+02  0.12703883176E+03  0.13229938214E+03  0.00000000000E+00 0. -1.
         11    1    1    2    0    0 -0.36218422073E+02 -0.10472191738E+03  0.92662528805E+02  0.14444652409E+03  0.00000000000E+00 0.  1.
<mgrwt>
<rscale>  0 0.18309595E+03</rscale>
<asrwt>0</asrwt>
<pdfrwt beam="1">  1        1 0.69974344E-01 0.18831740E+03</pdfrwt>
<pdfrwt beam="2">  1       -1 0.10989761E-01 0.18831740E+03</pdfrwt>
<totfact> 0.26577993E+03</totfact>
</mgrwt>
</event>
<event>
 6    1  0.5818426E-006  0.1476585E+03  0.7546771E-02  0.1215804E+00
          1   -1    0    0  501    0  0.00000000000E+00  0.00000000000E+00  0.33678697145E+03  0.33678697145E+03  0.00000000000E+00 0. -1.
         -1   -1    0    0    0  501 -0.00000000000E+00 -0.00000000000E+00 -0.72302929276E+02  0.72302929276E+02  0.00000000000E+00 0.  1.
          5    1    1    2  502    0  0.19587301977E+02 -0.31781289737E+02  0.48993254464E+02  0.61774928240E+02  0.47000000000E+01 0. -1.
         -5    1    1    2    0  502 -0.86369592466E+02  0.16351239594E+02 -0.16133986956E+02  0.89495614832E+02  0.47000000000E+01 0.  1.
        -11    1    1    2    0    0  0.89422794055E+02  0.14237419784E+02  0.18401409602E+03  0.20508614715E+03  0.00000000000E+00 0. -1.
         11    1    1    2    0    0 -0.22640503567E+02  0.11926303585E+01  0.47610678645E+02  0.52733210503E+02  0.00000000000E+00 0.  1.
<mgrwt>
<rscale>  0 0.13817621E+03</rscale>
<asrwt>0</asrwt>
<pdfrwt beam="1">  1        1 0.51813379E-01 0.14765854E+03</pdfrwt>
<pdfrwt beam="2">  1       -1 0.11123528E-01 0.14765854E+03</pdfrwt>
<totfact> 0.37828050E+03</totfact>
</mgrwt>
</event>
<event>
 6    1  0.5818426E-006  0.3198751E+03  0.7546771E-02  0.1075707E+00
         -1   -1    0    0    0  501 -0.00000000000E+00  0.00000000000E+00  0.18841159582E+03  0.18841159582E+03  0.00000000000E+00 0.  1.
          1   -1    0    0  501    0  0.00000000000E+00 -0.00000000000E+00 -0.13576665962E+03  0.13576665962E+03  0.00000000000E+00 0. -1.
          5    1    1    2  502    0  0.11084788763E+02 -0.75448808056E+02  0.11676989712E+03  0.13954459521E+03  0.47000000000E+01 0. -1.
         -5    1    1    2    0  502 -0.21122191100E+02 -0.93074923832E+01 -0.27469010314E+02  0.36185810741E+02  0.47000000000E+01 0. -1.
        -11    1    1    2    0    0  0.61349490224E+02  0.30428600108E+02 -0.10543696448E+02  0.69288016209E+02  0.00000000000E+00 0. -1.
         11    1    1    2    0    0 -0.51312087887E+02  0.54327700331E+02 -0.26112254168E+02  0.79159833276E+02  0.00000000000E+00 0.  1.
<mgrwt>
<rscale>  0 0.31987506E+03</rscale>
<asrwt>0</asrwt>
<pdfrwt beam="2">  1        1 0.20887178E-01 0.31987506E+03</pdfrwt>
<pdfrwt beam="1">  1       -1 0.28986399E-01 0.31987506E+03</pdfrwt>
<totfact> 0.26182487E+03</totfact>
</mgrwt>
</event>
<event>
 6    1  0.5818426E-006  0.1488375E+03  0.7546771E-02  0.1211182E+00
          1   -1    0    0  501    0  0.00000000000E+00  0.00000000000E+00  0.58707275292E+03  0.58707275292E+03  0.00000000000E+00 0. -1.
         -1   -1    0    0    0  501 -0.00000000000E+00 -0.00000000000E+00 -0.43305221451E+02  0.43305221451E+02  0.00000000000E+00 0.  1.
          5    1    1    2  502    0 -0.20925092287E+02 -0.33753859055E+02  0.24102014832E+02  0.46692393463E+02  0.47000000000E+01 0.  1.
         -5    1    1    2    0  502  0.10169801739E+03  0.35445370053E+02  0.10137768968E+03  0.14798103583E+03  0.47000000000E+01 0.  1.
        -11    1    1    2    0    0 -0.82296931186E+02 -0.20350842173E+02  0.40214746274E+03  0.41098603802E+03  0.00000000000E+00 0. -1.
         11    1    1    2    0    0  0.15240060857E+01  0.18659331176E+02  0.16140364221E+02  0.24718507068E+02  0.00000000000E+00 0.  1.
<mgrwt>
<rscale>  0 0.14160765E+03</rscale>
<asrwt>0</asrwt>
<pdfrwt beam="1">  1        1 0.90318879E-01 0.14883745E+03</pdfrwt>
<pdfrwt beam="2">  1       -1 0.66623422E-02 0.14883745E+03</pdfrwt>
<totfact> 0.40257553E+03</totfact>
</mgrwt>
</event>
<event>
 6    1  0.5818426E-006  0.3077038E+03  0.7546771E-02  0.1081452E+00
         -2   -1    0    0    0  501 -0.00000000000E+00  0.00000000000E+00  0.32214744602E+02  0.32214744602E+02  0.00000000000E+00 0.  1.
          2   -1    0    0  501    0  0.00000000000E+00 -0.00000000000E+00 -0.73476951149E+03  0.73476951149E+03  0.00000000000E+00 0. -1.
          5    1    1    2  502    0  0.31186390495E+02  0.15581003301E+02 -0.94239970229E+02  0.10059135452E+03  0.47000000000E+01 0.  1.
         -5    1    1    2    0  502 -0.10521675965E+03  0.34794673351E+02 -0.12391687763E+03  0.16630910488E+03  0.47000000000E+01 0.  1.
        -11    1    1    2    0    0  0.13648928159E+02 -0.54961353541E+02 -0.15182464546E+03  0.16204248391E+03  0.00000000000E+00 0.  1.
         11    1    1    2    0    0  0.60381441000E+02  0.45856768894E+01 -0.33257327357E+03  0.33804131277E+03  0.00000000000E+00 0. -1.
<mgrwt>
<rscale>  0 0.30770383E+03</rscale>
<asrwt>0</asrwt>
<pdfrwt beam="2">  1        2 0.11304145E+00 0.30770383E+03</pdfrwt>
<pdfrwt beam="1">  1       -2 0.49561153E-02 0.30770383E+03</pdfrwt>
<totfact> 0.78469005E+03</totfact>
</mgrwt>
</event>
<event>
 6    1  0.5818426E-006  0.1291213E+03  0.7546771E-02  0.1244564E+00
         -1   -1    0    0    0  501 -0.00000000000E+00  0.00000000000E+00  0.40341766799E+03  0.40341766799E+03  0.00000000000E+00 0.  1.
          1   -1    0    0  501    0  0.00000000000E+00 -0.00000000000E+00 -0.30716574039E+02  0.30716574039E+02  0.00000000000E+00 0. -1.
          5    1    1    2  502    0 -0.99939380100E+01  0.36794710288E+02  0.11698019991E+02  0.40157977711E+02  0.47000000000E+01 0. -1.
         -5    1    1    2    0  502 -0.50573597813E+01 -0.54355198969E+02  0.20403648129E+03  0.21126533137E+03  0.47000000000E+01 0.  1.
        -11    1    1    2    0    0 -0.62423771474E+01 -0.23720770540E+02  0.66971315271E+01  0.25426242313E+02  0.00000000000E+00 0.  1.
         11    1    1    2    0    0  0.21293674939E+02  0.41281259221E+02  0.15026946114E+03  0.15728469063E+03  0.00000000000E+00 0. -1.
<mgrwt>
<rscale>  0 0.11911513E+03</rscale>
<asrwt>0</asrwt>
<pdfrwt beam="2">  1        1 0.47256270E-02 0.12912128E+03</pdfrwt>
<pdfrwt beam="1">  1       -1 0.62064253E-01 0.12912128E+03</pdfrwt>
<totfact> 0.46667655E+03</totfact>
</mgrwt>
</event>
<event>
 6    1  0.5818426E-006  0.1778199E+03  0.7546771E-02  0.1174389E+00
         -3   -1    0    0    0  501 -0.00000000000E+00  0.00000000000E+00  0.46120640539E+03  0.46120640539E+03  0.00000000000E+00 0.  1.
          3   -1    0    0  501    0  0.00000000000E+00 -0.00000000000E+00 -0.62299710897E+02  0.62299710897E+02  0.00000000000E+00 0. -1.
          5    1    1    2  502    0  0.33429825304E+02  0.12636402811E+03  0.22617069671E+03  0.26126747764E+03  0.47000000000E+01 0. -1.
         -5    1    1    2    0  502 -0.24653517776E+02 -0.19629775891E+00 -0.16357529750E+01  0.25151543875E+02  0.47000000000E+01 0. -1.
        -11    1    1    2    0    0 -0.53271278920E+01 -0.10291257542E+03  0.57769517794E+02  0.11813845122E+03  0.00000000000E+00 0. -1.
         11    1    1    2    0    0 -0.34491796362E+01 -0.23255154930E+02  0.11660223296E+03  0.11894864355E+03  0.00000000000E+00 0.  1.
<mgrwt>
<rscale>  0 0.17335956E+03</rscale>
<asrwt>0</asrwt>
<pdfrwt beam="2">  1        3 0.95845712E-02 0.17781989E+03</pdfrwt>
<pdfrwt beam="1">  1       -3 0.70954829E-01 0.17781989E+03</pdfrwt>
<totfact> 0.36852536E+02</totfact>
</mgrwt>
</event>
<event>
 6    1  0.5818426E-006  0.1929920E+03  0.7546771E-02  0.1160574E+00
         -2   -1    0    0    0  501 -0.00000000000E+00  0.00000000000E+00  0.10932348685E+04  0.10932348685E+04  0.00000000000E+00 0.  1.
          2   -1    0    0  501    0  0.00000000000E+00 -0.00000000000E+00 -0.31764073165E+02  0.31764073165E+02  0.00000000000E+00 0. -1.
          5    1    1    2  502    0 -0.28260347213E+02  0.62283991195E+02  0.37011856265E+03  0.37641437698E+03  0.47000000000E+01 0. -1.
         -5    1    1    2    0  502 -0.11431388732E+02  0.79296299489E+02  0.79922799387E+02  0.11326218973E+03  0.47000000000E+01 0. -1.
        -11    1    1    2    0    0  0.66446592697E+02 -0.89232529056E+02  0.44910647346E+03  0.46268155186E+03  0.00000000000E+00 0.  1.
         11    1    1    2    0    0 -0.26754856753E+02 -0.52347761628E+02  0.16232295982E+03  0.17264082307E+03  0.00000000000E+00 0. -1.
<mgrwt>
<rscale>  0 0.18767684E+03</rscale>
<asrwt>0</asrwt>
<pdfrwt beam="2">  1        2 0.48867813E-02 0.19299200E+03</pdfrwt>
<pdfrwt beam="1">  1       -2 0.16818995E+00 0.19299200E+03</pdfrwt>
<totfact> 0.37701829E+02</totfact>
</mgrwt>
</event>
<event>
 6    1  0.5818426E-006  0.1441063E+03  0.7546771E-02  0.1218218E+00
         -1   -1    0    0    0  501 -0.00000000000E+00  0.00000000000E+00  0.23971865842E+02  0.23971865842E+02  0.00000000000E+00 0.  1.
          1   -1    0    0  501    0  0.00000000000E+00 -0.00000000000E+00 -0.75910542958E+03  0.75910542958E+03  0.00000000000E+00 0. -1.
          5    1    1    2  502    0  0.79423043234E+01 -0.30201880636E+02 -0.17863106088E+03  0.18140115684E+03  0.47000000000E+01 0. -1.
         -5    1    1    2    0  502  0.45225731984E+02  0.78308363433E+02 -0.12148679158E+03  0.15152127621E+03  0.47000000000E+01 0. -1.
        -11    1    1    2    0    0 -0.21986871046E+02 -0.70203990491E+02 -0.22594294496E+03  0.23761783846E+03  0.00000000000E+00 0.  1.
         11    1    1    2    0    0 -0.31181165262E+02  0.22097507694E+02 -0.20907276632E+03  0.21253702391E+03  0.00000000000E+00 0. -1.
<mgrwt>
<rscale>  0 0.13642792E+03</rscale>
<asrwt>0</asrwt>
<pdfrwt beam="2">  1        1 0.11678545E+00 0.14410628E+03</pdfrwt>
<pdfrwt beam="1">  1       -1 0.36879794E-02 0.14410628E+03</pdfrwt>
<totfact> 0.67177820E+03</totfact>
</mgrwt>
</event>
<event>
 6    1  0.5818426E-006  0.1320943E+03  0.7546771E-02  0.1236387E+00
         -2   -1    0    0    0  501 -0.00000000000E+00  0.00000000000E+00  0.26438358215E+03  0.26438358215E+03  0.00000000000E+00 0.  1.
          2   -1    0    0  501    0  0.00000000000E+00 -0.00000000000E+00 -0.55851138529E+02  0.55851138529E+02  0.00000000000E+00 0. -1.
          5    1    1    2  502    0 -0.68126944355E+02  0.26075552027E+02  0.38746527463E+02  0.82732087796E+02  0.47000000000E+01 0.  1.
         -5    1    1    2    0  502  0.26149852312E+02 -0.18320343082E+02  0.11759053793E+03  0.12193881399E+03  0.47000000000E+01 0.  1.
        -11    1    1    2    0    0 -0.22985395614E+01  0.33989101207E+02  0.41645954817E+02  0.53804533615E+02  0.00000000000E+00 0.  1.
         11    1    1    2    0    0  0.44275631604E+02 -0.41744310152E+02  0.10549423416E+02  0.61759285281E+02  0.00000000000E+00 0. -1.
<mgrwt>
<rscale>  0 0.12416035E+03</rscale>
<asrwt>0</asrwt>
<pdfrwt beam="2">  1        2 0.85924830E-02 0.13209428E+03</pdfrwt>
<pdfrwt beam="1">  1       -2 0.40674397E-01 0.13209428E+03</pdfrwt>
<totfact> 0.42597560E+03</totfact>
</mgrwt>
</event>
<event>
 6    1  0.5818426E-006  0.1416057E+03  0.7546771E-02  0.1221905E+00
         -1   -1    0    0    0  501 -0.00000000000E+00  0.00000000000E+00  0.23203057791E+03  0.23203057791E+03  0.00000000000E+00 0.  1.
          1   -1    0    0  501    0  0.00000000000E+00 -0.00000000000E+00 -0.69811347499E+02  0.69811347499E+02  0.00000000000E+00 0. -1.
          5    1    1    2  502    0  0.87089096688E+02  0.13211238768E+02  0.35474363330E+02  0.95076643007E+02  0.47000000000E+01 0.  1.
         -5    1    1    2    0  502 -0.36394597641E+02  0.29875052987E+02  0.56853354663E+02  0.73969449538E+02  0.47000000000E+01 0.  1.
        -11    1    1    2    0    0 -0.19971727835E+02  0.25554526932E+02  0.40898898372E+02  0.52197927616E+02  0.00000000000E+00 0.  1.
         11    1    1    2    0    0 -0.30722771213E+02 -0.68640818686E+02  0.28992614042E+02  0.80597905245E+02  0.00000000000E+00 0. -1.
<mgrwt>
<rscale>  0 0.13381319E+03</rscale>
<asrwt>0</asrwt>
<pdfrwt beam="2">  1        1 0.10740207E-01 0.14160570E+03</pdfrwt>
<pdfrwt beam="1">  1       -1 0.35697012E-01 0.14160570E+03</pdfrwt>
<totfact> 0.42242661E+03</totfact>
</mgrwt>
</event>
<event>
 6    1  0.5818426E-006  0.1579963E+03  0.7546771E-02  0.1198809E+00
          2   -1    0    0  501    0  0.00000000000E+00  0.00000000000E+00  0.64838666073E+03  0.64838666073E+03  0.00000000000E+00 0.  1.
         -2   -1    0    0    0  501 -0.00000000000E+00 -0.00000000000E+00 -0.39792168602E+02  0.39792168602E+02  0.00000000000E+00 0. -1.
          5    1    1    2  502    0  0.17883084343E+02  0.23052337490E+02  0.12915595777E+02  0.32250853998E+02  0.47000000000E+01 0. -1.
         -5    1    1    2    0  502 -0.10820849031E+03 -0.57393741860E+02  0.16761561799E+03  0.20765404975E+03  0.47000000000E+01 0. -1.
        -11    1    1    2    0    0  0.10602445415E+03  0.14245971950E+02  0.36136239571E+03  0.37686458262E+03  0.00000000000E+00 0.  1.
         11    1    1    2    0    0 -0.15699048184E+02  0.20095432420E+02  0.66700882652E+02  0.71409342978E+02  0.00000000000E+00 0. -1.
<mgrwt>
<rscale>  0 0.15136195E+03</rscale>
<asrwt>0</asrwt>
<pdfrwt beam="1">  1        2 0.99751786E-01 0.15799634E+03</pdfrwt>
<pdfrwt beam="2">  1       -2 0.61218726E-02 0.15799634E+03</pdfrwt>
<totfact> 0.64151773E+03</totfact>
</mgrwt>
</event>
<event>
 6    1  0.5818426E-006  0.1256910E+03  0.7546771E-02  0.1242199E+00
         -2   -1    0    0    0  501 -0.00000000000E+00  0.00000000000E+00  0.43851865731E+03  0.43851865731E+03  0.00000000000E+00 0.  1.
          2   -1    0    0  501    0  0.00000000000E+00 -0.00000000000E+00 -0.48256345734E+02  0.48256345734E+02  0.00000000000E+00 0. -1.
          5    1    1    2  502    0  0.28595022426E+02  0.10456990630E+02  0.42682361988E+02  0.52639319766E+02  0.47000000000E+01 0. -1.
         -5    1    1    2    0  502 -0.78271072904E+02 -0.36023406263E+02  0.30930541597E+03  0.32111676537E+03  0.47000000000E+01 0.  1.
        -11    1    1    2    0    0 -0.17291209685E+02  0.20052967167E+02  0.37393870240E+02  0.45819307678E+02  0.00000000000E+00 0.  1.
         11    1    1    2    0    0  0.66967260163E+02  0.55134484657E+01  0.88066338203E+00  0.67199610235E+02  0.00000000000E+00 0. -1.
<mgrwt>
<rscale>  0 0.12054601E+03</rscale>
<asrwt>0</asrwt>
<pdfrwt beam="2">  1        2 0.74240535E-02 0.12569095E+03</pdfrwt>
<pdfrwt beam="1">  1       -2 0.67464406E-01 0.12569095E+03</pdfrwt>
<totfact> 0.18571202E+03</totfact>
</mgrwt>
</event>
<event>
 6    1  0.5818426E-006  0.1868731E+03  0.7546771E-02  0.1186005E+00
          2   -1    0    0  501    0  0.00000000000E+00  0.00000000000E+00  0.62419546270E+03  0.62419546270E+03  0.00000000000E+00 0. -1.
         -2   -1    0    0    0  501 -0.00000000000E+00 -0.00000000000E+00 -0.58616597369E+02  0.58616597369E+02  0.00000000000E+00 0.  1.
          5    1    1    2  502    0  0.72643604849E+01 -0.33894439629E+02  0.13913676199E+03  0.14346683418E+03  0.47000000000E+01 0. -1.
         -5    1    1    2    0  502 -0.91838095578E+01 -0.70533976050E+02 -0.24957755334E+02  0.75527238045E+02  0.47000000000E+01 0.  1.
        -11    1    1    2    0    0 -0.64427186089E+01  0.22169555520E+02  0.12459241513E+03  0.12671332891E+03  0.00000000000E+00 0. -1.
         11    1    1    2    0    0  0.83621676818E+01  0.82258860159E+02  0.32680744354E+03  0.33710465894E+03  0.00000000000E+00 0.  1.
<mgrwt>
<rscale>  0 0.16240810E+03</rscale>
<asrwt>0</asrwt>
<pdfrwt beam="1">  1        2 0.96030067E-01 0.18687311E+03</pdfrwt>
<pdfrwt beam="2">  1       -2 0.90179385E-02 0.18687311E+03</pdfrwt>
<totfact> 0.37109292E+03</totfact>
</mgrwt>
</event>
<event>
 6    1  0.5818426E-006  0.3116834E+03  0.7546771E-02  0.1079542E+00
         -1   -1    0    0    0  501 -0.00000000000E+00  0.00000000000E+00  0.13490567465E+02  0.13490567465E+02  0.00000000000E+00 0.  1.
          1   -1    0    0  501    0  0.00000000000E+00 -0.00000000000E+00 -0.18002680214E+04  0.18002680214E+04  0.00000000000E+00 0. -1.
          5    1    1    2  502    0  0.23747307197E+01  0.56719305441E+00  0.15894255758E+01  0.55296769899E+01  0.47000000000E+01 0.  1.
         -5    1    1    2    0  502  0.10475587701E+03  0.31272038760E+02 -0.11276206564E+04  0.11329175473E+04  0.47000000000E+01 0.  1.
        -11    1    1    2    0    0 -0.48147714847E+02  0.27399973647E+02 -0.23573372025E+03  0.24215562737E+03  0.00000000000E+00 0.  1.
         11    1    1    2    0    0 -0.58982892884E+02 -0.59239205462E+02 -0.42501250287E+03  0.43315573725E+03  0.00000000000E+00 0. -1.
<mgrwt>
<rscale>  0 0.31168341E+03</rscale>
<asrwt>0</asrwt>
<pdfrwt beam="2">  1        1 0.27696428E+00 0.31168341E+03</pdfrwt>
<pdfrwt beam="1">  1       -1 0.20754721E-02 0.31168341E+03</pdfrwt>
<totfact> 0.29523262E+03</totfact>
</mgrwt>
</event>
<event>
 6    1  0.5818426E-006  0.3450529E+03  0.7546771E-02  0.1064664E+00
          2   -1    0    0  501    0  0.00000000000E+00  0.00000000000E+00  0.16360546944E+03  0.16360546944E+03  0.00000000000E+00 0. -1.
         -2   -1    0    0    0  501 -0.00000000000E+00 -0.00000000000E+00 -0.18193382390E+03  0.18193382390E+03  0.00000000000E+00 0.  1.
          5    1    1    2  502    0  0.23605165076E+02 -0.10954881937E+02  0.22724904847E+01  0.26541806071E+02  0.47000000000E+01 0.  1.
         -5    1    1    2    0  502 -0.10605352782E+03  0.73551998645E+02 -0.95559097044E+02  0.16065764313E+03  0.47000000000E+01 0.  1.
        -11    1    1    2    0    0  0.49164701148E+02  0.17920140698E+02  0.26863140197E+02  0.58821149112E+02  0.00000000000E+00 0. -1.
         11    1    1    2    0    0  0.33283661602E+02 -0.80517257406E+02  0.48095111910E+02  0.99518695025E+02  0.00000000000E+00 0.  1.
<mgrwt>
<rscale>  0 0.34505286E+03</rscale>
<asrwt>0</asrwt>
<pdfrwt beam="1">  1        2 0.25170072E-01 0.34505286E+03</pdfrwt>
<pdfrwt beam="2">  1       -2 0.27989819E-01 0.34505286E+03</pdfrwt>
<totfact> 0.24869809E+03</totfact>
</mgrwt>
</event>
<event>
 6    1  0.5818426E-006  0.1472896E+03  0.7546771E-02  0.1213480E+00
          1   -1    0    0  501    0  0.00000000000E+00  0.00000000000E+00  0.64243841929E+03  0.64243841929E+03  0.00000000000E+00 0. -1.
         -1   -1    0    0    0  501 -0.00000000000E+00 -0.00000000000E+00 -0.27959452766E+02  0.27959452766E+02  0.00000000000E+00 0.  1.
          5    1    1    2  502    0  0.22388059523E+02 -0.53591519195E+02  0.43300826825E+02  0.72597022959E+02  0.47000000000E+01 0.  1.
         -5    1    1    2    0  502 -0.39095154547E+02 -0.22500481253E+02  0.26775371680E+03  0.27156738690E+03  0.47000000000E+01 0.  1.
        -11    1    1    2    0    0 -0.26320520778E+02 -0.32909472834E+01  0.10383666506E+03  0.10717113958E+03  0.00000000000E+00 0. -1.
         11    1    1    2    0    0  0.43027615802E+02  0.79382947731E+02  0.19958775784E+03  0.21906232262E+03  0.00000000000E+00 0.  1.
<mgrwt>
<rscale>  0 0.13988798E+03</rscale>
<asrwt>0</asrwt>
<pdfrwt beam="1">  1        1 0.98836668E-01 0.14728955E+03</pdfrwt>
<pdfrwt beam="2">  1       -1 0.43014548E-02 0.14728955E+03</pdfrwt>
<totfact> 0.68122546E+03</totfact>
</mgrwt>
</event>
<event>
 6    1  0.5818426E-006  0.1757884E+03  0.7546771E-02  0.1177921E+00
          1   -1    0    0  501    0  0.00000000000E+00  0.00000000000E+00  0.97740607627E+02  0.97740607627E+02  0.00000000000E+00 0. -1.
         -1   -1    0    0    0  501 -0.00000000000E+00 -0.00000000000E+00 -0.27766937337E+03  0.27766937337E+03  0.00000000000E+00 0.  1.
          5    1    1    2  502    0 -0.50703554460E+02  0.14472393638E+02 -0.93816474350E+02  0.10772149958E+03  0.47000000000E+01 0. -1.
         -5    1    1    2    0  502 -0.62487821437E+02 -0.63898827702E+02  0.41914327953E+01  0.89596016198E+02  0.47000000000E+01 0. -1.
        -11    1    1    2    0    0  0.36688285649E+02  0.31650947317E+02  0.11218251095E+02  0.49735921903E+02  0.00000000000E+00 0. -1.
         11    1    1    2    0    0  0.76503090249E+02  0.17775486746E+02 -0.10152197529E+03  0.12835654332E+03  0.00000000000E+00 0.  1.
<mgrwt>
<rscale>  0 0.16992979E+03</rscale>
<asrwt>0</asrwt>
<pdfrwt beam="1">  1        1 0.15037017E-01 0.17578838E+03</pdfrwt>
<pdfrwt beam="2">  1       -1 0.42718365E-01 0.17578838E+03</pdfrwt>
<totfact> 0.20028521E+03</totfact>
</mgrwt>
</event>
<event>
 6    1  0.5818426E-006  0.1451195E+03  0.7546771E-02  0.1218886E+00
         -2   -1    0    0    0  501 -0.00000000000E+00  0.00000000000E+00  0.38108030860E+02  0.38108030860E+02  0.00000000000E+00 0.  1.
          2   -1    0    0  501    0  0.00000000000E+00 -0.00000000000E+00 -0.66678259002E+03  0.66678259002E+03  0.00000000000E+00 0. -1.
          5    1    1    2  502    0  0.11158959287E+02 -0.96839148426E+02 -0.65594313460E+02  0.11758846456E+03  0.47000000000E+01 0. -1.
         -5    1    1    2    0  502  0.25236272298E+02  0.32746558298E+02 -0.67660042434E+02  0.79430333387E+02  0.47000000000E+01 0. -1.
        -11    1    1    2    0    0 -0.63251957776E+02  0.53700241837E+02 -0.36775067465E+03  0.37699480745E+03  0.00000000000E+00 0. -1.
         11    1    1    2    0    0  0.26856726191E+02  0.10392348291E+02 -0.12766952861E+03  0.13087701548E+03  0.00000000000E+00 0.  1.
<mgrwt>
<rscale>  0 0.13594902E+03</rscale>
<asrwt>0</asrwt>
<pdfrwt beam="2">  1        2 0.10258193E+00 0.14511955E+03</pdfrwt>
<pdfrwt beam="1">  1       -2 0.58627742E-02 0.14511955E+03</pdfrwt>
<totfact> 0.66012756E+03</totfact>
</mgrwt>
</event>
<event>
 6    1  0.5818426E-006  0.2840329E+03  0.7546771E-02  0.1093506E+00
         -1   -1    0    0    0  501 -0.00000000000E+00  0.00000000000E+00  0.14564909057E+03  0.14564909057E+03  0.00000000000E+00 0.  1.
          1   -1    0    0  501    0  0.00000000000E+00 -0.00000000000E+00 -0.13847445479E+03  0.13847445479E+03  0.00000000000E+00 0. -1.
          5    1    1    2  502    0 -0.10005308970E+03  0.33949876735E+02  0.26678215420E+02  0.10907351680E+03  0.47000000000E+01 0.  1.
         -5    1    1    2    0  502  0.33672579765E+02  0.26733611697E+02 -0.13943929579E+02  0.45442840960E+02  0.47000000000E+01 0.  1.
        -11    1    1    2    0    0  0.55217283120E+02 -0.90573189038E+01 -0.37983995879E+02  0.67629633474E+02  0.00000000000E+00 0. -1.
         11    1    1    2    0    0  0.11163226818E+02 -0.51626169529E+02  0.32424345818E+02  0.61977554122E+02  0.00000000000E+00 0.  1.
<mgrwt>
<rscale>  0 0.28403294E+03</rscale>
<asrwt>0</asrwt>
<pdfrwt beam="2">  1        1 0.21303762E-01 0.28403294E+03</pdfrwt>
<pdfrwt beam="1">  1       -1 0.22407552E-01 0.28403294E+03</pdfrwt>
<totfact> 0.39148069E+03</totfact>
</mgrwt>
</event>
<event>
 6    1  0.5818426E-006  0.1681643E+03  0.7546771E-02  0.1186826E+00
          1   -1    0    0  501    0  0.00000000000E+00  0.00000000000E+00  0.72664857612E+02  0.72664857612E+02  0.00000000000E+00 0. -1.
         -1   -1    0    0    0  501 -0.00000000000E+00 -0.00000000000E+00 -0.44603584203E+03  0.44603584203E+03  0.00000000000E+00 0.  1.
          5    1    1    2  502    0 -0.63571854981E+02  0.12314766556E+03 -0.28689708874E+03  0.31865146760E+03  0.47000000000E+01 0. -1.
         -5    1    1    2    0  502  0.42787414179E+01 -0.27538444086E+02 -0.40186470982E+02  0.49129583560E+02  0.47000000000E+01 0. -1.
        -11    1    1    2    0    0  0.56370629264E+02 -0.74558327846E+02 -0.71691776470E+02  0.11779772030E+03  0.00000000000E+00 0.  1.
         11    1    1    2    0    0  0.29224842990E+01 -0.21050893626E+02  0.25404351775E+02  0.33121928175E+02  0.00000000000E+00 0. -1.
<mgrwt>
<rscale>  0 0.16166795E+03</rscale>
<asrwt>0</asrwt>
<pdfrwt beam="1">  1        1 0.11179209E-01 0.16816434E+03</pdfrwt>
<pdfrwt beam="2">  1       -1 0.68620898E-01 0.16816434E+03</pdfrwt>
<totfact> 0.12169508E+03</totfact>
</mgrwt>
</event>
<event>
 6    1  0.5818426E-006  0.1325401E+03  0.7546771E-02  0.1237541E+00
         -2   -1    0    0    0  501 -0.00000000000E+00  0.00000000000E+00  0.33644655619E+02  0.33644655619E+02  0.00000000000E+00 0.  1.
          2   -1    0    0  501    0  0.00000000000E+00 -0.00000000000E+00 -0.40269483673E+03  0.40269483673E+03  0.00000000000E+00 0. -1.
          5    1    1    2  502    0 -0.23962337177E+02 -0.41709279506E+02 -0.10660183659E+03  0.11704656836E+03  0.47000000000E+01 0.  1.
         -5    1    1    2    0  502  0.75636434644E+00  0.79181506000E+02 -0.88866597410E+02  0.11912029682E+03  0.47000000000E+01 0.  1.
        -11    1    1    2    0    0 -0.22378349406E+02 -0.34859652551E+02 -0.13224590363E+03  0.13858197908E+03  0.00000000000E+00 0. -1.
         11    1    1    2    0    0  0.45584322237E+02 -0.26125739427E+01 -0.41335843483E+02  0.61590648096E+02  0.00000000000E+00 0.  1.
<mgrwt>
<rscale>  0 0.12343132E+03</rscale>
<asrwt>0</asrwt>
<pdfrwt beam="2">  1        2 0.61953049E-01 0.13254011E+03</pdfrwt>
<pdfrwt beam="1">  1       -2 0.51761011E-02 0.13254011E+03</pdfrwt>
<totfact> 0.13864734E+04</totfact>
</mgrwt>
</event>
<event>
 6    1  0.5818426E-006  0.1362896E+03  0.7546771E-02  0.1230753E+00
         -2   -1    0    0    0  501 -0.00000000000E+00  0.00000000000E+00  0.21618131663E+03  0.21618131663E+03  0.00000000000E+00 0.  1.
          2   -1    0    0  501    0  0.00000000000E+00 -0.00000000000E+00 -0.69724972128E+02  0.69724972128E+02  0.00000000000E+00 0. -1.
          5    1    1    2  502    0  0.74494136000E+02 -0.55609023301E+01  0.58579447136E+02  0.95047049191E+02  0.47000000000E+01 0.  1.
         -5    1    1    2    0  502 -0.33170468662E+02  0.40740656713E+02 -0.13670729233E+01  0.52764002776E+02  0.47000000000E+01 0.  1.
        -11    1    1    2    0    0  0.94850458197E+01  0.19212045483E+02  0.49003134916E+02  0.53482483276E+02  0.00000000000E+00 0.  1.
         11    1    1    2    0    0 -0.50808713158E+02 -0.54391799865E+02  0.40240835369E+02  0.84612753510E+02  0.00000000000E+00 0. -1.
<mgrwt>
<rscale>  0 0.12780292E+03</rscale>
<asrwt>0</asrwt>
<pdfrwt beam="2">  1        2 0.10726919E-01 0.13628959E+03</pdfrwt>
<pdfrwt beam="1">  1       -2 0.33258664E-01 0.13628959E+03</pdfrwt>
<totfact> 0.47257743E+03</totfact>
</mgrwt>
</event>
<event>
 6    1  0.5818426E-006  0.1724952E+03  0.7546771E-02  0.1181413E+00
          1   -1    0    0  501    0  0.00000000000E+00  0.00000000000E+00  0.23696775023E+03  0.23696775023E+03  0.00000000000E+00 0. -1.
         -1   -1    0    0    0  501 -0.00000000000E+00 -0.00000000000E+00 -0.10999407942E+03  0.10999407942E+03  0.00000000000E+00 0.  1.
          5    1    1    2  502    0  0.44514286175E+02 -0.19150816366E+02  0.18550259921E+02  0.52100648598E+02  0.47000000000E+01 0.  1.
         -5    1    1    2    0  502  0.13469136535E+02  0.12291461351E+03  0.55575729141E+02  0.13564723190E+03  0.47000000000E+01 0.  1.
        -11    1    1    2    0    0 -0.54763251759E+02 -0.17752529278E+02 -0.11976487381E+01  0.57581250433E+02  0.00000000000E+00 0.  1.
         11    1    1    2    0    0 -0.32201709519E+01 -0.86011267863E+02  0.54045330495E+02  0.10163269872E+03  0.00000000000E+00 0. -1.
<mgrwt>
<rscale>  0 0.16662535E+03</rscale>
<asrwt>0</asrwt>
<pdfrwt beam="1">  1        1 0.36456577E-01 0.17249523E+03</pdfrwt>
<pdfrwt beam="2">  1       -1 0.16922166E-01 0.17249523E+03</pdfrwt>
<totfact> 0.30605521E+03</totfact>
</mgrwt>
</event>
<event>
 6    1  0.5818426E-006  0.2498286E+03  0.7546771E-02  0.1147227E+00
          1   -1    0    0  501    0  0.00000000000E+00  0.00000000000E+00  0.51647566569E+03  0.51647566569E+03  0.00000000000E+00 0. -1.
         -1   -1    0    0    0  501 -0.00000000000E+00 -0.00000000000E+00 -0.65600514206E+02  0.65600514206E+02  0.00000000000E+00 0.  1.
          5    1    1    2  502    0  0.25884259872E+02  0.93813265013E+02  0.55359587219E+02  0.11206113286E+03  0.47000000000E+01 0. -1.
         -5    1    1    2    0  502 -0.25611520016E+01 -0.14277554919E+03  0.19383540648E+03  0.24080214233E+03  0.47000000000E+01 0.  1.
        -11    1    1    2    0    0 -0.18087026338E+01  0.68877964739E+02  0.18003948923E+03  0.19277360586E+03  0.00000000000E+00 0. -1.
         11    1    1    2    0    0 -0.21514405237E+02 -0.19915680559E+02  0.21640668559E+02  0.36439298848E+02  0.00000000000E+00 0.  1.
<mgrwt>
<rscale>  0 0.20300608E+03</rscale>
<asrwt>0</asrwt>
<pdfrwt beam="1">  1        1 0.79457792E-01 0.24982863E+03</pdfrwt>
<pdfrwt beam="2">  1       -1 0.10092387E-01 0.24982863E+03</pdfrwt>
<totfact> 0.25849646E+03</totfact>
</mgrwt>
</event>
<event>
 6    1  0.5818426E-006  0.1295707E+03  0.7546771E-02  0.1242226E+00
          1   -1    0    0  501    0  0.00000000000E+00  0.00000000000E+00  0.98780978071E+02  0.98780978071E+02  0.00000000000E+00 0. -1.
         -1   -1    0    0    0  501 -0.00000000000E+00 -0.00000000000E+00 -0.14057669744E+03  0.14057669744E+03  0.00000000000E+00 0.  1.
          5    1    1    2  502    0 -0.61545855852E+02  0.11624818288E+02 -0.61430122074E+02  0.87856580123E+02  0.47000000000E+01 0. -1.
         -5    1    1    2    0  502  0.48984672835E+02  0.20108070522E+02  0.51517550630E+01  0.53408456757E+02  0.47000000000E+01 0. -1.
        -11    1    1    2    0    0  0.51565111648E+01 -0.43290869924E+02 -0.29088670525E+02  0.52410302223E+02  0.00000000000E+00 0.  1.
         11    1    1    2    0    0  0.74046718524E+01  0.11557981115E+02  0.43571318168E+02  0.45682336407E+02  0.00000000000E+00 0. -1.
<mgrwt>
<rscale>  0 0.12052931E+03</rscale>
<asrwt>0</asrwt>
<pdfrwt beam="1">  1        1 0.15197074E-01 0.12957066E+03</pdfrwt>
<pdfrwt beam="2">  1       -1 0.21627184E-01 0.12957066E+03</pdfrwt>
<totfact> 0.61467823E+03</totfact>
</mgrwt>
</event>
<event>
 6    1  0.5818426E-006  0.1319537E+03  0.7546771E-02  0.1238264E+00
          1   -1    0    0  501    0  0.00000000000E+00  0.00000000000E+00  0.72569413362E+03  0.72569413362E+03  0.00000000000E+00 0.  1.
         -1   -1    0    0    0  501 -0.00000000000E+00 -0.00000000000E+00 -0.18633036470E+02  0.18633036470E+02  0.00000000000E+00 0. -1.
          5    1    1    2  502    0 -0.47607771965E+02 -0.39984541969E+02  0.27332919790E+03  0.28035014530E+03  0.47000000000E+01 0.  1.
         -5    1    1    2    0  502  0.56853943031E+02 -0.12631575713E+01  0.94037359547E+02  0.10999582445E+03  0.47000000000E+01 0.  1.
        -11    1    1    2    0    0 -0.15976727617E+02 -0.13107151138E+02  0.17251524396E+02  0.26919664379E+02  0.00000000000E+00 0. -1.
         11    1    1    2    0    0  0.67305565513E+01  0.54354850679E+02  0.32244301531E+03  0.32706153596E+03  0.00000000000E+00 0.  1.
<mgrwt>
<rscale>  0 0.12297793E+03</rscale>
<asrwt>0</asrwt>
<pdfrwt beam="1">  1        1 0.11164523E+00 0.13195374E+03</pdfrwt>
<pdfrwt beam="2">  1       -1 0.28666216E-02 0.13195374E+03</pdfrwt>
<totfact> 0.10311388E+04</totfact>
</mgrwt>
</event>
<event>
 6    1  0.5818426E-006  0.1277341E+03  0.7546771E-02  0.1245850E+00
          1   -1    0    0  501    0  0.00000000000E+00  0.00000000000E+00  0.31953720262E+03  0.31953720262E+03  0.00000000000E+00 0. -1.
         -1   -1    0    0    0  501 -0.00000000000E+00 -0.00000000000E+00 -0.39481350212E+02  0.39481350212E+02  0.00000000000E+00 0.  1.
          5    1    1    2  502    0 -0.33990199395E+01 -0.58389231799E+02  0.59380570884E+02  0.83480524226E+02  0.47000000000E+01 0. -1.
         -5    1    1    2    0  502 -0.21939570371E+02  0.65288466837E+02  0.73496533739E+02  0.10083530692E+03  0.47000000000E+01 0. -1.
        -11    1    1    2    0    0 -0.31069530417E+02  0.97983282635E+01  0.73676987456E+02  0.80558186658E+02  0.00000000000E+00 0. -1.
         11    1    1    2    0    0  0.56408120728E+02 -0.16697563301E+02  0.73501760331E+02  0.94144535030E+02  0.00000000000E+00 0.  1.
<mgrwt>
<rscale>  0 0.11834667E+03</rscale>
<asrwt>0</asrwt>
<pdfrwt beam="1">  1        1 0.49159568E-01 0.12773410E+03</pdfrwt>
<pdfrwt beam="2">  1       -1 0.60740541E-02 0.12773410E+03</pdfrwt>
<totfact> 0.99900252E+03</totfact>
</mgrwt>
</event>
<event>
 6    1  0.5818426E-006  0.1350028E+03  0.7546771E-02  0.1232252E+00
          1   -1    0    0  501    0  0.00000000000E+00  0.00000000000E+00  0.53381516971E+03  0.53381516971E+03  0.00000000000E+00 0. -1.
         -1   -1    0    0    0  501 -0.00000000000E+00 -0.00000000000E+00 -0.29757521711E+02  0.29757521711E+02  0.00000000000E+00 0.  1.
          5    1    1    2  502    0  0.36362081383E+02 -0.14775391448E+02  0.20037655534E+03  0.20423850539E+03  0.47000000000E+01 0. -1.
         -5    1    1    2    0  502 -0.12234737873E+02 -0.30156271220E+02 -0.49838988577E+01  0.33256860233E+02  0.47000000000E+01 0. -1.
        -11    1    1    2    0    0  0.92792141133E+01 -0.19895430365E+02  0.25386701234E+02  0.33562129901E+02  0.00000000000E+00 0.  1.
         11    1    1    2    0    0 -0.33406557624E+02  0.64827093033E+02  0.28327829028E+03  0.29251519589E+03  0.00000000000E+00 0. -1.
<mgrwt>
<rscale>  0 0.12682034E+03</rscale>
<asrwt>0</asrwt>
<pdfrwt beam="1">  1        1 0.82125404E-01 0.13500281E+03</pdfrwt>
<pdfrwt beam="2">  1       -1 0.45780806E-02 0.13500281E+03</pdfrwt>
<totfact> 0.79465803E+03</totfact>
</mgrwt>
</event>
<event>
 6    1  0.5818426E-006  0.1342424E+03  0.7546771E-02  0.1235827E+00
          1   -1    0    0  501    0  0.00000000000E+00  0.00000000000E+00  0.14862290925E+03  0.14862290925E+03  0.00000000000E+00 0. -1.
         -1   -1    0    0    0  501 -0.00000000000E+00 -0.00000000000E+00 -0.92428893399E+02  0.92428893399E+02  0.00000000000E+00 0.  1.
          5    1    1    2  502    0  0.60340912466E+02 -0.24429384164E+02 -0.31251563460E+02  0.72364153741E+02  0.47000000000E+01 0.  1.
         -5    1    1    2    0  502 -0.11978092428E+02  0.31890370569E+02  0.53663200818E+02  0.63736171482E+02  0.47000000000E+01 0.  1.
        -11    1    1    2    0    0 -0.55731237340E+02  0.18369018909E+02 -0.37473508779E+01  0.58799951613E+02  0.00000000000E+00 0.  1.
         11    1    1    2    0    0  0.73684173019E+01 -0.25830005314E+02  0.37529729374E+02  0.46151525814E+02  0.00000000000E+00 0. -1.
<mgrwt>
<rscale>  0 0.12451638E+03</rscale>
<asrwt>0</asrwt>
<pdfrwt beam="1">  1        1 0.22865063E-01 0.13424238E+03</pdfrwt>
<pdfrwt beam="2">  1       -1 0.14219830E-01 0.13424238E+03</pdfrwt>
<totfact> 0.71168776E+03</totfact>
</mgrwt>
</event>
<event>
 6    1  0.5818426E-006  0.1828455E+03  0.7546771E-02  0.1170865E+00
          1   -1    0    0  501    0  0.00000000000E+00  0.00000000000E+00  0.15804926823E+03  0.15804926823E+03  0.00000000000E+00 0. -1.
         -1   -1    0    0    0  501 -0.00000000000E+00 -0.00000000000E+00 -0.21289648992E+03  0.21289648992E+03  0.00000000000E+00 0.  1.
          5    1    1    2  502    0 -0.25483743377E+02  0.55051400526E+02 -0.94799212509E+02  0.11264572148E+03  0.47000000000E+01 0.  1.
         -5    1    1    2    0  502 -0.92958239037E+02  0.64330430233E+01  0.32280582528E-01  0.93299031556E+02  0.47000000000E+01 0.  1.
        -11    1    1    2    0    0  0.12931605944E+03 -0.57211897936E+02  0.49574303380E+02  0.14984477319E+03  0.00000000000E+00 0. -1.
         11    1    1    2    0    0 -0.10874077030E+02 -0.42725456135E+01 -0.96545931479E+01  0.15156231924E+02  0.00000000000E+00 0.  1.
<mgrwt>
<rscale>  0 0.17687256E+03</rscale>
<asrwt>0</asrwt>
<pdfrwt beam="1">  1        1 0.24315272E-01 0.18284548E+03</pdfrwt>
<pdfrwt beam="2">  1       -1 0.32753306E-01 0.18284548E+03</pdfrwt>
<totfact> 0.17196408E+03</totfact>
</mgrwt>
</event>
<event>
 6    1  0.1324142E-005  0.3959666E+03  0.7546771E-02  0.1045185E+00
         -1   -1    0    0    0  501 -0.00000000000E+00  0.00000000000E+00  0.15844418454E+03  0.15844418454E+03  0.00000000000E+00 0.  1.
          1   -1    0    0  501    0  0.00000000000E+00 -0.00000000000E+00 -0.24738920415E+03  0.24738920415E+03  0.00000000000E+00 0. -1.
          5    1    1    2  502    0  0.43611987942E+02  0.22196266246E+02 -0.41527943715E+02  0.64353242628E+02  0.47000000000E+01 0. -1.
         -5    1    1    2    0  502 -0.38412099565E+02  0.14289082942E+03 -0.59649459413E+01  0.14815852694E+03  0.47000000000E+01 0. -1.
        -11    1    1    2    0    0  0.59727955106E+01 -0.70380303269E+02  0.27335015370E+02  0.75738130685E+02  0.00000000000E+00 0.  1.
         11    1    1    2    0    0 -0.11172683888E+02 -0.94706792394E+02 -0.68787145324E+02  0.11758348844E+03  0.00000000000E+00 0. -1.
<mgrwt>
<rscale>  0 0.39596657E+03</rscale>
<asrwt>0</asrwt>
<pdfrwt beam="2">  1        1 0.38059878E-01 0.39596657E+03</pdfrwt>
<pdfrwt beam="1">  1       -1 0.24376028E-01 0.39596657E+03</pdfrwt>
<totfact> 0.16338596E+03</totfact>
</mgrwt>
</event>
<event>
 6    1  0.5818426E-006  0.1369730E+03  0.7546771E-02  0.1229214E+00
          1   -1    0    0  501    0  0.00000000000E+00  0.00000000000E+00  0.94474158541E+03  0.94474158541E+03  0.00000000000E+00 0. -1.
         -1   -1    0    0    0  501 -0.00000000000E+00 -0.00000000000E+00 -0.16119863278E+02  0.16119863278E+02  0.00000000000E+00 0.  1.
          5    1    1    2  502    0  0.48987169210E+02 -0.12311298258E+01  0.28824082751E+03  0.29241430039E+03  0.47000000000E+01 0.  1.
         -5    1    1    2    0  502 -0.49814652648E+02 -0.54772430527E+02  0.16153813192E+03  0.17775876020E+03  0.47000000000E+01 0.  1.
        -11    1    1    2    0    0 -0.44190234055E+02  0.37924693083E+02  0.23940012875E+03  0.24638076381E+03  0.00000000000E+00 0. -1.
         11    1    1    2    0    0  0.45017717493E+02  0.18078867269E+02  0.23944263395E+03  0.24430762429E+03  0.00000000000E+00 0.  1.
<mgrwt>
<rscale>  0 0.12882232E+03</rscale>
<asrwt>0</asrwt>
<pdfrwt beam="1">  1        1 0.14534482E+00 0.13697297E+03</pdfrwt>
<pdfrwt beam="2">  1       -1 0.24799797E-02 0.13697297E+03</pdfrwt>
<totfact> 0.85115283E+03</totfact>
</mgrwt>
</event>
<event>
 6    1  0.5818426E-006  0.1345368E+03  0.7546771E-02  0.1233782E+00
         -3   -1    0    0    0  501 -0.00000000000E+00  0.00000000000E+00  0.49882524294E+03  0.49882524294E+03  0.00000000000E+00 0.  1.
          3   -1    0    0  501    0  0.00000000000E+00 -0.00000000000E+00 -0.30390881862E+02  0.30390881862E+02  0.00000000000E+00 0. -1.
          5    1    1    2  502    0  0.75766517933E+02  0.44801446054E+02  0.27417637634E+03  0.28799741345E+03  0.47000000000E+01 0.  1.
         -5    1    1    2    0  502 -0.29523154760E+02 -0.26525001588E+02  0.58455804236E+02  0.70812170035E+02  0.47000000000E+01 0.  1.
        -11    1    1    2    0    0 -0.57020905588E+02 -0.45909900963E+02  0.93739327503E+02  0.11893764838E+03  0.00000000000E+00 0.  1.
         11    1    1    2    0    0  0.10777542415E+02  0.27633456497E+02  0.42062852995E+02  0.51468892941E+02  0.00000000000E+00 0. -1.
<mgrwt>
<rscale>  0 0.12582715E+03</rscale>
<asrwt>0</asrwt>
<pdfrwt beam="2">  1        3 0.46755207E-02 0.13453680E+03</pdfrwt>
<pdfrwt beam="1">  1       -3 0.76742339E-01 0.13453680E+03</pdfrwt>
<totfact> 0.95436778E+02</totfact>
</mgrwt>
</event>
<event>
 6    1  0.5818426E-006  0.3040420E+03  0.7546771E-02  0.1083237E+00
         -2   -1    0    0    0  501 -0.00000000000E+00  0.00000000000E+00  0.87974090635E+02  0.87974090635E+02  0.00000000000E+00 0.  1.
          2   -1    0    0  501    0  0.00000000000E+00 -0.00000000000E+00 -0.26269530758E+03  0.26269530758E+03  0.00000000000E+00 0. -1.
          5    1    1    2  502    0  0.18275253711E+02 -0.19016766091E+02  0.43106288760E+02  0.50752974508E+02  0.47000000000E+01 0. -1.
         -5    1    1    2    0  502  0.23566241808E+02 -0.66377974503E+02 -0.87571510578E+02  0.11248227735E+03  0.47000000000E+01 0. -1.
        -11    1    1    2    0    0  0.20412445454E+02  0.53840423523E+02 -0.90056703887E+02  0.10689092127E+03  0.00000000000E+00 0.  1.
         11    1    1    2    0    0 -0.62253940973E+02  0.31554317071E+02 -0.40199291244E+02  0.80543225097E+02  0.00000000000E+00 0. -1.
<mgrwt>
<rscale>  0 0.30404198E+03</rscale>
<asrwt>0</asrwt>
<pdfrwt beam="2">  1        2 0.40414662E-01 0.30404198E+03</pdfrwt>
<pdfrwt beam="1">  1       -2 0.13534476E-01 0.30404198E+03</pdfrwt>
<totfact> 0.51183375E+03</totfact>
</mgrwt>
</event>
<event>
 6    1  0.5818426E-006  0.3567944E+03  0.7546771E-02  0.1059860E+00
          1   -1    0    0  501    0  0.00000000000E+00  0.00000000000E+00  0.64546003081E+03  0.64546003081E+03  0.00000000000E+00 0. -1.
         -1   -1    0    0    0  501 -0.00000000000E+00 -0.00000000000E+00 -0.49306790807E+02  0.49306790807E+02  0.00000000000E+00 0.  1.
          5    1    1    2  502    0 -0.50238778733E+01  0.32740867172E+01  0.11584559486E+03  0.11609586918E+03  0.47000000000E+01 0. -1.
         -5    1    1    2    0  502  0.10894289704E+03 -0.76608238788E+02  0.11807339902E+03  0.17804716965E+03  0.47000000000E+01 0. -1.
        -11    1    1    2    0    0 -0.46399372664E+02 -0.35470605436E+01  0.31399567175E+02  0.56137476260E+02  0.00000000000E+00 0.  1.
         11    1    1    2    0    0 -0.57519646501E+02  0.76881212614E+02  0.33083467895E+03  0.34448630652E+03  0.00000000000E+00 0. -1.
<mgrwt>
<rscale>  0 0.35679441E+03</rscale>
<asrwt>0</asrwt>
<pdfrwt beam="1">  1        1 0.99301537E-01 0.35679441E+03</pdfrwt>
<pdfrwt beam="2">  1       -1 0.75856606E-02 0.35679441E+03</pdfrwt>
<totfact> 0.29723855E+03</totfact>
</mgrwt>
</event>
<event>
 6    1  0.5818426E-006  0.1441414E+03  0.7546771E-02  0.1218097E+00
         -4   -1    0    0    0  501 -0.00000000000E+00  0.00000000000E+00  0.11126998274E+03  0.11126998274E+03  0.00000000000E+00 0. -1.
          4   -1    0    0  501    0  0.00000000000E+00 -0.00000000000E+00 -0.19494117707E+03  0.19494117707E+03  0.00000000000E+00 0.  1.
          5    1    1    2  502    0 -0.79908633271E+01  0.62520523875E+01 -0.41201447025E+02  0.42691817632E+02  0.47000000000E+01 0.  1.
         -5    1    1    2    0  502  0.78535203873E+02  0.70059082177E+01  0.67349188475E+02  0.10380204326E+03  0.47000000000E+01 0.  1.
        -11    1    1    2    0    0  0.13201271305E+02 -0.68425459524E+01 -0.60535367110E+02  0.62334778979E+02  0.00000000000E+00 0.  1.
         11    1    1    2    0    0 -0.83745611852E+02 -0.64154146529E+01 -0.49283568664E+02  0.97382519940E+02  0.00000000000E+00 0. -1.
<mgrwt>
<rscale>  0 0.13651473E+03</rscale>
<asrwt>0</asrwt>
<pdfrwt beam="2">  1        4 0.29990950E-01 0.14414141E+03</pdfrwt>
<pdfrwt beam="1">  1       -4 0.17118459E-01 0.14414141E+03</pdfrwt>
<totfact> 0.53243152E+02</totfact>
</mgrwt>
</event>
<event>
 6    1  0.5818426E-006  0.1568915E+03  0.7546771E-02  0.1208344E+00
          1   -1    0    0  501    0  0.00000000000E+00  0.00000000000E+00  0.13869279847E+03  0.13869279847E+03  0.00000000000E+00 0. -1.
         -1   -1    0    0    0  501 -0.00000000000E+00 -0.00000000000E+00 -0.21229355501E+03  0.21229355501E+03  0.00000000000E+00 0.  1.
          5    1    1    2  502    0  0.14774828976E+02 -0.61314354355E+02  0.21717176471E+01  0.63281529523E+02  0.47000000000E+01 0. -1.
         -5    1    1    2    0  502  0.21805475031E+02  0.56468557480E+01 -0.15175808781E+03  0.15349258268E+03  0.47000000000E+01 0.  1.
        -11    1    1    2    0    0  0.69226843121E+01  0.30209876691E+02 -0.11654177690E+02  0.33111630365E+02  0.00000000000E+00 0.  1.
         11    1    1    2    0    0 -0.43502988320E+02  0.25457621916E+02  0.87639791314E+02  0.10110061092E+03  0.00000000000E+00 0. -1.
<mgrwt>
<rscale>  0 0.14376999E+03</rscale>
<asrwt>0</asrwt>
<pdfrwt beam="1">  1        1 0.21337354E-01 0.15689147E+03</pdfrwt>
<pdfrwt beam="2">  1       -1 0.32660547E-01 0.15689147E+03</pdfrwt>
<totfact> 0.20296080E+03</totfact>
</mgrwt>
</event>
<event>
 6    1  0.5818426E-006  0.1331785E+03  0.7546771E-02  0.1235861E+00
          2   -1    0    0  501    0  0.00000000000E+00  0.00000000000E+00  0.13193598202E+03  0.13193598202E+03  0.00000000000E+00 0. -1.
         -2   -1    0    0    0  501 -0.00000000000E+00 -0.00000000000E+00 -0.10492062797E+03  0.10492062797E+03  0.00000000000E+00 0.  1.
          5    1    1    2  502    0 -0.41495908487E+02 -0.35756496613E+02  0.29647992085E+02  0.62462235837E+02  0.47000000000E+01 0.  1.
         -5    1    1    2    0  502  0.67442139800E+02 -0.20839549650E+01 -0.21479463802E+02  0.70966488249E+02  0.47000000000E+01 0.  1.
        -11    1    1    2    0    0  0.49984875760E+01  0.50038454104E+02  0.39786651992E+02  0.64123392330E+02  0.00000000000E+00 0. -1.
         11    1    1    2    0    0 -0.30944718890E+02 -0.12198002526E+02 -0.20939826229E+02  0.39304493577E+02  0.00000000000E+00 0.  1.
<mgrwt>
<rscale>  0 0.12449494E+03</rscale>
<asrwt>0</asrwt>
<pdfrwt beam="1">  1        2 0.20297843E-01 0.13317845E+03</pdfrwt>
<pdfrwt beam="2">  1       -2 0.16141635E-01 0.13317845E+03</pdfrwt>
<totfact> 0.78030180E+03</totfact>
</mgrwt>
</event>
<event>
 6    1  0.5818426E-006  0.1747980E+03  0.7546771E-02  0.1179010E+00
         -2   -1    0    0    0  501 -0.00000000000E+00  0.00000000000E+00  0.84120170855E+02  0.84120170855E+02  0.00000000000E+00 0.  1.
          2   -1    0    0  501    0  0.00000000000E+00 -0.00000000000E+00 -0.32736904536E+03  0.32736904536E+03  0.00000000000E+00 0. -1.
          5    1    1    2  502    0 -0.62195888616E+02 -0.54137486251E+02 -0.12416690495E+03  0.14912647740E+03  0.47000000000E+01 0. -1.
         -5    1    1    2    0  502 -0.34946164617E+02 -0.19970415105E+02  0.29063829272E+02  0.49868307299E+02  0.47000000000E+01 0. -1.
        -11    1    1    2    0    0  0.54837444833E+02  0.73254495195E+02 -0.47034319966E+02  0.10288631433E+03  0.00000000000E+00 0.  1.
         11    1    1    2    0    0  0.42304608400E+02  0.85340616038E+00 -0.10111147886E+03  0.10960811718E+03  0.00000000000E+00 0. -1.
<mgrwt>
<rscale>  0 0.16889001E+03</rscale>
<asrwt>0</asrwt>
<pdfrwt beam="2">  1        2 0.50364468E-01 0.17479797E+03</pdfrwt>
<pdfrwt beam="1">  1       -2 0.12941565E-01 0.17479797E+03</pdfrwt>
<totfact> 0.42363933E+03</totfact>
</mgrwt>
</event>
<event>
 6    1  0.5818426E-006  0.1456928E+03  0.7546771E-02  0.1215498E+00
         -1   -1    0    0    0  501 -0.00000000000E+00  0.00000000000E+00  0.27401208915E+03  0.27401208915E+03  0.00000000000E+00 0.  1.
          1   -1    0    0  501    0  0.00000000000E+00 -0.00000000000E+00 -0.69680632692E+02  0.69680632692E+02  0.00000000000E+00 0. -1.
          5    1    1    2  502    0 -0.79416798107E+02  0.27079881051E+01  0.10385508137E+03  0.13085231732E+03  0.47000000000E+01 0.  1.
         -5    1    1    2    0  502  0.32609347224E+02  0.55696615480E+02  0.57775224556E+02  0.86749922621E+02  0.47000000000E+01 0.  1.
        -11    1    1    2    0    0  0.80857458555E+00 -0.20882289085E+02  0.60589317285E+02  0.64092036630E+02  0.00000000000E+00 0. -1.
         11    1    1    2    0    0  0.45998876297E+02 -0.37522314500E+02 -0.17888166755E+02  0.61998445270E+02  0.00000000000E+00 0.  1.
<mgrwt>
<rscale>  0 0.13840002E+03</rscale>
<asrwt>0</asrwt>
<pdfrwt beam="2">  1        1 0.10720097E-01 0.14569276E+03</pdfrwt>
<pdfrwt beam="1">  1       -1 0.42155706E-01 0.14569276E+03</pdfrwt>
<totfact> 0.31723039E+03</totfact>
</mgrwt>
</event>
<event>
 6    1  0.5818426E-006  0.1530520E+03  0.7546771E-02  0.1205829E+00
          1   -1    0    0  501    0  0.00000000000E+00  0.00000000000E+00  0.44822241027E+03  0.44822241027E+03  0.00000000000E+00 0. -1.
         -1   -1    0    0    0  501 -0.00000000000E+00 -0.00000000000E+00 -0.59958249935E+02  0.59958249935E+02  0.00000000000E+00 0.  1.
          5    1    1    2  502    0  0.90463083022E+01 -0.82836241000E+02  0.10488788494E+03  0.13404192227E+03  0.47000000000E+01 0.  1.
         -5    1    1    2    0  502 -0.18790879003E+02 -0.49430682254E+01 -0.30234940687E+02  0.36246002476E+02  0.47000000000E+01 0.  1.
        -11    1    1    2    0    0  0.38167897155E+02  0.86821492812E+02  0.20950625916E+03  0.22997311281E+03  0.00000000000E+00 0.  1.
         11    1    1    2    0    0 -0.28423326454E+02  0.95781641331E+00  0.10410495691E+03  0.10791962265E+03  0.00000000000E+00 0. -1.
<mgrwt>
<rscale>  0 0.14572309E+03</rscale>
<asrwt>0</asrwt>
<pdfrwt beam="1">  1        1 0.68957292E-01 0.15305200E+03</pdfrwt>
<pdfrwt beam="2">  1       -1 0.92243464E-02 0.15305200E+03</pdfrwt>
<totfact> 0.35173806E+03</totfact>
</mgrwt>
</event>
<event>
 6    1  0.5818426E-006  0.1380849E+03  0.7546771E-02  0.1227308E+00
          1   -1    0    0  501    0  0.00000000000E+00  0.00000000000E+00  0.76209499263E+03  0.76209499263E+03  0.00000000000E+00 0. -1.
         -1   -1    0    0    0  501 -0.00000000000E+00 -0.00000000000E+00 -0.20152973433E+02  0.20152973433E+02  0.00000000000E+00 0.  1.
          5    1    1    2  502    0 -0.16541502403E+02  0.86442471471E+02  0.27777693468E+03  0.29142415414E+03  0.47000000000E+01 0. -1.
         -5    1    1    2    0  502  0.36106505415E+02 -0.31163912997E+02  0.10261925737E+03  0.11325930951E+03  0.47000000000E+01 0. -1.
        -11    1    1    2    0    0 -0.52420008917E+02 -0.27504474523E+02  0.27000420976E+03  0.27641748632E+03  0.00000000000E+00 0. -1.
         11    1    1    2    0    0  0.32855005905E+02 -0.27774083951E+02  0.91541617381E+02  0.10114701610E+03  0.00000000000E+00 0.  1.
<mgrwt>
<rscale>  0 0.13009981E+03</rscale>
<asrwt>0</asrwt>
<pdfrwt beam="1">  1        1 0.11724536E+00 0.13808491E+03</pdfrwt>
<pdfrwt beam="2">  1       -1 0.31004580E-02 0.13808491E+03</pdfrwt>
<totfact> 0.85881634E+03</totfact>
</mgrwt>
</event>
<event>
 6    1  0.5818426E-006  0.1436912E+03  0.7546771E-02  0.1217625E+00
         -1   -1    0    0    0  501 -0.00000000000E+00  0.00000000000E+00  0.40365310501E+02  0.40365310501E+02  0.00000000000E+00 0.  1.
          1   -1    0    0  501    0  0.00000000000E+00 -0.00000000000E+00 -0.52335838773E+03  0.52335838773E+03  0.00000000000E+00 0. -1.
          5    1    1    2  502    0  0.35365937621E+02 -0.48121685087E+02 -0.57446027791E+00  0.59907145851E+02  0.47000000000E+01 0.  1.
         -5    1    1    2    0  502 -0.10392564893E+02 -0.18189321135E+02 -0.13819585936E+03  0.13985364619E+03  0.47000000000E+01 0.  1.
        -11    1    1    2    0    0 -0.62573166361E+01 -0.22375582213E+02 -0.37375837082E+02  0.44008793308E+02  0.00000000000E+00 0.  1.
         11    1    1    2    0    0 -0.18716056092E+02  0.88686588435E+02 -0.30684692051E+03  0.31995411288E+03  0.00000000000E+00 0. -1.
<mgrwt>
<rscale>  0 0.13685476E+03</rscale>
<asrwt>0</asrwt>
<pdfrwt beam="2">  1        1 0.80516669E-01 0.14369124E+03</pdfrwt>
<pdfrwt beam="1">  1       -1 0.62100482E-02 0.14369124E+03</pdfrwt>
<totfact> 0.52068237E+03</totfact>
</mgrwt>
</event>
<event>
 6    1  0.5818426E-006  0.3446580E+03  0.7546771E-02  0.1066076E+00
         -2   -1    0    0    0  501 -0.00000000000E+00  0.00000000000E+00  0.41369008898E+03  0.41369008898E+03  0.00000000000E+00 0.  1.
          2   -1    0    0  501    0  0.00000000000E+00 -0.00000000000E+00 -0.31203699063E+03  0.31203699063E+03  0.00000000000E+00 0. -1.
          5    1    1    2  502    0 -0.71229376760E+02 -0.23226358496E+03  0.17843436647E+03  0.30146460846E+03  0.47000000000E+01 0.  1.
         -5    1    1    2    0  502  0.96779155369E+01 -0.82964906928E+02 -0.60912667606E+01  0.83881054842E+02  0.47000000000E+01 0.  1.
        -11    1    1    2    0    0  0.76512466459E+02  0.16525682692E+03 -0.33865292626E+02  0.18523183962E+03  0.00000000000E+00 0.  1.
         11    1    1    2    0    0 -0.14961005237E+02  0.14997166498E+03 -0.36824708729E+02  0.15514957669E+03  0.00000000000E+00 0. -1.
<mgrwt>
<rscale>  0 0.34169555E+03</rscale>
<asrwt>0</asrwt>
<pdfrwt beam="2">  1        2 0.48005691E-01 0.34465800E+03</pdfrwt>
<pdfrwt beam="1">  1       -2 0.63644629E-01 0.34465800E+03</pdfrwt>
<totfact> 0.24559201E+02</totfact>
</mgrwt>
</event>
<event>
 6    1  0.5818426E-006  0.1318897E+03  0.7546771E-02  0.1238288E+00
         -1   -1    0    0    0  501 -0.00000000000E+00  0.00000000000E+00  0.26754331976E+02  0.26754331976E+02  0.00000000000E+00 0.  1.
          1   -1    0    0  501    0  0.00000000000E+00 -0.00000000000E+00 -0.50478417088E+03  0.50478417088E+03  0.00000000000E+00 0. -1.
          5    1    1    2  502    0 -0.12780975001E+02  0.17188770819E+02  0.83649853322E+01  0.23470622997E+02  0.47000000000E+01 0.  1.
         -5    1    1    2    0  502 -0.55970769291E+01  0.20644630267E+02 -0.25742743245E+03  0.25835731267E+03  0.47000000000E+01 0.  1.
        -11    1    1    2    0    0  0.42226295197E+02  0.41826018297E+01 -0.15982219057E+03  0.16535926573E+03  0.00000000000E+00 0. -1.
         11    1    1    2    0    0 -0.23848243266E+02 -0.42016002916E+02 -0.69145201216E+02  0.84351301467E+02  0.00000000000E+00 0.  1.
<mgrwt>
<rscale>  0 0.12296256E+03</rscale>
<asrwt>0</asrwt>
<pdfrwt beam="2">  1        1 0.77659103E-01 0.13188966E+03</pdfrwt>
<pdfrwt beam="1">  1       -1 0.41160511E-02 0.13188966E+03</pdfrwt>
<totfact> 0.99859809E+03</totfact>
</mgrwt>
</event>
<event>
 6    1  0.5818426E-006  0.1254593E+03  0.7546771E-02  0.1250831E+00
          2   -1    0    0  501    0  0.00000000000E+00  0.00000000000E+00  0.20547558218E+03  0.20547558218E+03  0.00000000000E+00 0. -1.
         -2   -1    0    0    0  501 -0.00000000000E+00 -0.00000000000E+00 -0.65584461566E+02  0.65584461566E+02  0.00000000000E+00 0.  1.
          5    1    1    2  502    0 -0.23882511844E+02  0.57849677980E+02  0.24824643342E+01  0.62810924556E+02  0.47000000000E+01 0. -1.
         -5    1    1    2    0  502  0.13291630588E+02 -0.58550788593E+02  0.27366024197E+02  0.66150219719E+02  0.47000000000E+01 0. -1.
        -11    1    1    2    0    0  0.27553591373E+02 -0.22187134584E+02  0.81557268725E+01  0.36304066156E+02  0.00000000000E+00 0.  1.
         11    1    1    2    0    0 -0.16962710117E+02  0.22888245197E+02  0.10188690521E+03  0.10579483331E+03  0.00000000000E+00 0. -1.
<mgrwt>
<rscale>  0 0.11543085E+03</rscale>
<asrwt>0</asrwt>
<pdfrwt beam="1">  1        2 0.31611628E-01 0.12545933E+03</pdfrwt>
<pdfrwt beam="2">  1       -2 0.10089917E-01 0.12545933E+03</pdfrwt>
<totfact> 0.10142831E+04</totfact>
</mgrwt>
</event>
<event>
 6    1  0.5818426E-006  0.1369806E+03  0.7546771E-02  0.1230002E+00
          2   -1    0    0  501    0  0.00000000000E+00  0.00000000000E+00  0.24530188674E+03  0.24530188674E+03  0.00000000000E+00 0. -1.
         -2   -1    0    0    0  501 -0.00000000000E+00 -0.00000000000E+00 -0.59885945395E+02  0.59885945395E+02  0.00000000000E+00 0.  1.
          5    1    1    2  502    0 -0.10588698041E+02  0.60129037608E+02  0.11797073395E+03  0.13291653681E+03  0.47000000000E+01 0.  1.
         -5    1    1    2    0  502 -0.29227106862E+02 -0.20763376998E+02 -0.14288217811E+02  0.38879104518E+02  0.47000000000E+01 0.  1.
        -11    1    1    2    0    0  0.52042655773E+02 -0.33311485990E+02  0.12775629642E+02  0.63097621441E+02  0.00000000000E+00 0.  1.
         11    1    1    2    0    0 -0.12226850870E+02 -0.60541746200E+01  0.68957795566E+02  0.70294569363E+02  0.00000000000E+00 0. -1.
<mgrwt>
<rscale>  0 0.12829914E+03</rscale>
<asrwt>0</asrwt>
<pdfrwt beam="1">  1        2 0.37738751E-01 0.13698058E+03</pdfrwt>
<pdfrwt beam="2">  1       -2 0.92132225E-02 0.13698058E+03</pdfrwt>
<totfact> 0.97390653E+03</totfact>
</mgrwt>
</event>
<event>
 6    1  0.5818426E-006  0.1477142E+03  0.7546771E-02  0.1212804E+00
         -2   -1    0    0    0  501 -0.00000000000E+00  0.00000000000E+00  0.46164004582E+03  0.46164004582E+03  0.00000000000E+00 0.  1.
          2   -1    0    0  501    0  0.00000000000E+00 -0.00000000000E+00 -0.52041647220E+02  0.52041647220E+02  0.00000000000E+00 0. -1.
          5    1    1    2  502    0  0.34652004498E+02  0.11341243850E+02  0.22741597227E+02  0.43227947814E+02  0.47000000000E+01 0.  1.
         -5    1    1    2    0  502 -0.42189103735E+02  0.67024713181E+02  0.32584309582E+03  0.33536255865E+03  0.47000000000E+01 0.  1.
        -11    1    1    2    0    0  0.59668555860E+01 -0.99038590498E+02  0.55289246929E+02  0.11358321443E+03  0.00000000000E+00 0.  1.
         11    1    1    2    0    0  0.15702436516E+01  0.20672633467E+02  0.57244586292E+01  0.21507972154E+02  0.00000000000E+00 0. -1.
<mgrwt>
<rscale>  0 0.14039075E+03</rscale>
<asrwt>0</asrwt>
<pdfrwt beam="2">  1        2 0.80064076E-02 0.14771419E+03</pdfrwt>
<pdfrwt beam="1">  1       -2 0.71021543E-01 0.14771419E+03</pdfrwt>
<totfact> 0.15272163E+03</totfact>
</mgrwt>
</event>
<event>
 6    1  0.5818426E-006  0.1372209E+03  0.7546771E-02  0.1229028E+00
          1   -1    0    0  501    0  0.00000000000E+00  0.00000000000E+00  0.12866026500E+03  0.12866026500E+03  0.00000000000E+00 0. -1.
         -1   -1    0    0    0  501 -0.00000000000E+00 -0.00000000000E+00 -0.11607239087E+03  0.11607239087E+03  0.00000000000E+00 0.  1.
          5    1    1    2  502    0 -0.71671621598E+02 -0.96427023306E+01  0.17994222229E+02  0.74670510139E+02  0.47000000000E+01 0. -1.
         -5    1    1    2    0  502  0.34423589761E+02  0.52269991783E+02 -0.61323708426E+01  0.63062124490E+02  0.47000000000E+01 0. -1.
        -11    1    1    2    0    0  0.22608369546E+02  0.20890723700E+02  0.22662010609E+02  0.38224696664E+02  0.00000000000E+00 0. -1.
         11    1    1    2    0    0  0.14639662291E+02 -0.63518013152E+02 -0.21935987873E+02  0.68775324578E+02  0.00000000000E+00 0.  1.
<mgrwt>
<rscale>  0 0.12894623E+03</rscale>
<asrwt>0</asrwt>
<pdfrwt beam="1">  1        1 0.19793887E-01 0.13722090E+03</pdfrwt>
<pdfrwt beam="2">  1       -1 0.17857291E-01 0.13722090E+03</pdfrwt>
<totfact> 0.59773478E+03</totfact>
</mgrwt>
</event>
<event>
 6    1  0.5818426E-006  0.1657902E+03  0.7546771E-02  0.1189305E+00
         -1   -1    0    0    0  501 -0.00000000000E+00  0.00000000000E+00  0.62633481817E+03  0.62633481817E+03  0.00000000000E+00 0.  1.
          1   -1    0    0  501    0  0.00000000000E+00 -0.00000000000E+00 -0.76663767177E+02  0.76663767177E+02  0.00000000000E+00 0. -1.
          5    1    1    2  502    0 -0.55255679997E+02 -0.46241730921E+02  0.14956565797E+03  0.16608270197E+03  0.47000000000E+01 0. -1.
         -5    1    1    2    0  502 -0.52429220203E+02  0.62556530474E+02  0.38572734994E+03  0.39429661566E+03  0.47000000000E+01 0. -1.
        -11    1    1    2    0    0  0.42086873474E+02  0.28549175129E+02  0.33474866427E+02  0.60884538281E+02  0.00000000000E+00 0.  1.
         11    1    1    2    0    0  0.65598026725E+02 -0.44863974682E+02 -0.19096823333E+02  0.81734729435E+02  0.00000000000E+00 0. -1.
<mgrwt>
<rscale>  0 0.15946267E+03</rscale>
<asrwt>0</asrwt>
<pdfrwt beam="2">  1        1 0.11794426E-01 0.16579015E+03</pdfrwt>
<pdfrwt beam="1">  1       -1 0.96359199E-01 0.16579015E+03</pdfrwt>
<totfact> 0.56131248E+02</totfact>
</mgrwt>
</event>
<event>
 6    1  0.5818426E-006  0.1338213E+03  0.7546771E-02  0.1235225E+00
          1   -1    0    0  501    0  0.00000000000E+00  0.00000000000E+00  0.15811892165E+03  0.15811892165E+03  0.00000000000E+00 0. -1.
         -1   -1    0    0    0  501 -0.00000000000E+00 -0.00000000000E+00 -0.90918779072E+02  0.90918779072E+02  0.00000000000E+00 0.  1.
          5    1    1    2  502    0  0.70398708506E+02 -0.31510102250E+01  0.53221702326E+02  0.88433854509E+02  0.47000000000E+01 0.  1.
         -5    1    1    2    0  502 -0.23634856526E+02 -0.67867310944E+01 -0.38785876457E+02  0.46163842718E+02  0.47000000000E+01 0.  1.
        -11    1    1    2    0    0 -0.21551914627E+01  0.18131202263E+02  0.64957341627E+02  0.67474747698E+02  0.00000000000E+00 0. -1.
         11    1    1    2    0    0 -0.44608660518E+02 -0.81934609435E+01 -0.12193024917E+02  0.46965255796E+02  0.00000000000E+00 0.  1.
<mgrwt>
<rscale>  0 0.12490050E+03</rscale>
<asrwt>0</asrwt>
<pdfrwt beam="1">  1        1 0.24325988E-01 0.13382133E+03</pdfrwt>
<pdfrwt beam="2">  1       -1 0.13987504E-01 0.13382133E+03</pdfrwt>
<totfact> 0.67530438E+03</totfact>
</mgrwt>
</event>
<event>
 6    1  0.5818426E-006  0.1500016E+03  0.7546771E-02  0.1209215E+00
         -1   -1    0    0    0  501 -0.00000000000E+00  0.00000000000E+00  0.39704651089E+02  0.39704651089E+02  0.00000000000E+00 0.  1.
          1   -1    0    0  501    0  0.00000000000E+00 -0.00000000000E+00 -0.51926085434E+03  0.51926085434E+03  0.00000000000E+00 0. -1.
          5    1    1    2  502    0 -0.65038867410E+01 -0.54039097396E+02 -0.18106312545E+02  0.57553915107E+02  0.47000000000E+01 0. -1.
         -5    1    1    2    0  502  0.71557895189E+02  0.26128604380E+01 -0.15964625528E+03  0.17503250049E+03  0.47000000000E+01 0. -1.
        -11    1    1    2    0    0  0.30641451806E+00  0.56893317680E+02 -0.11314003609E+03  0.12663969067E+03  0.00000000000E+00 0.  1.
         11    1    1    2    0    0 -0.65360422966E+02 -0.54670807220E+01 -0.18866359933E+03  0.19973939916E+03  0.00000000000E+00 0. -1.
<mgrwt>
<rscale>  0 0.14310185E+03</rscale>
<asrwt>0</asrwt>
<pdfrwt beam="2">  1        1 0.79886276E-01 0.15000155E+03</pdfrwt>
<pdfrwt beam="1">  1       -1 0.61084086E-02 0.15000155E+03</pdfrwt>
<totfact> 0.54043386E+03</totfact>
</mgrwt>
</event>
<event>
 6    1  0.5818426E-006  0.2601439E+03  0.7546771E-02  0.1109274E+00
          2   -1    0    0  501    0  0.00000000000E+00  0.00000000000E+00  0.93201962127E+03  0.93201962127E+03  0.00000000000E+00 0. -1.
         -2   -1    0    0    0  501 -0.00000000000E+00 -0.00000000000E+00 -0.68901307501E+02  0.68901307501E+02  0.00000000000E+00 0.  1.
          5    1    1    2  502    0  0.12036111800E+03  0.15175289417E+03  0.33225339450E+03  0.38461688441E+03  0.47000000000E+01 0.  1.
         -5    1    1    2    0  502 -0.29566567680E+02  0.57560217542E+02  0.82268804041E+02  0.10477407449E+03  0.47000000000E+01 0.  1.
        -11    1    1    2    0    0 -0.27320900479E+02 -0.73522438504E+02  0.25438072875E+03  0.26619830151E+03  0.00000000000E+00 0. -1.
         11    1    1    2    0    0 -0.63473649845E+02 -0.13579067321E+03  0.19421538648E+03  0.24533166836E+03  0.00000000000E+00 0.  1.
<mgrwt>
<rscale>  0 0.25648492E+03</rscale>
<asrwt>0</asrwt>
<pdfrwt beam="1">  1        2 0.14338762E+00 0.26014392E+03</pdfrwt>
<pdfrwt beam="2">  1       -2 0.10600202E-01 0.26014392E+03</pdfrwt>
<totfact> 0.17495320E+03</totfact>
</mgrwt>
</event>
<event>
 6    1  0.5818426E-006  0.1250963E+03  0.7546771E-02  0.1289709E+00
          2   -1    0    0  501    0  0.00000000000E+00  0.00000000000E+00  0.73599480774E+02  0.73599480774E+02  0.00000000000E+00 0. -1.
         -2   -1    0    0    0  501 -0.00000000000E+00 -0.00000000000E+00 -0.99324968840E+02  0.99324968840E+02  0.00000000000E+00 0.  1.
          5    1    1    2  502    0  0.46065344664E+02 -0.51383962689E+02  0.13535683879E+02  0.70481432581E+02  0.47000000000E+01 0. -1.
         -5    1    1    2    0  502 -0.16935073601E+02  0.31130571242E+02 -0.46930590123E+02  0.58995588589E+02  0.47000000000E+01 0.  1.
        -11    1    1    2    0    0 -0.23019345796E+02  0.71434407857E+01  0.13759641905E+02  0.27753320027E+02  0.00000000000E+00 0.  1.
         11    1    1    2    0    0 -0.61109252663E+01  0.13109950661E+02 -0.60902237271E+01  0.15694108416E+02  0.00000000000E+00 0. -1.
<mgrwt>
<rscale>  0 0.95654593E+02</rscale>
<asrwt>0</asrwt>
<pdfrwt beam="1">  1        2 0.11322997E-01 0.12509628E+03</pdfrwt>
<pdfrwt beam="2">  1       -2 0.15280764E-01 0.12509628E+03</pdfrwt>
<totfact> 0.16782752E+04</totfact>
</mgrwt>
</event>
<event>
 6    1  0.5818426E-006  0.1278693E+03  0.7546771E-02  0.1246446E+00
          1   -1    0    0  501    0  0.00000000000E+00  0.00000000000E+00  0.37622327275E+02  0.37622327275E+02  0.00000000000E+00 0. -1.
         -1   -1    0    0    0  501 -0.00000000000E+00 -0.00000000000E+00 -0.42689840783E+03  0.42689840783E+03  0.00000000000E+00 0.  1.
          5    1    1    2  502    0 -0.27899911234E+02 -0.27299758569E+02 -0.25354034708E+03  0.25657061301E+03  0.47000000000E+01 0. -1.
         -5    1    1    2    0  502  0.54673089592E+02  0.25656003966E+02 -0.77902138670E+02  0.98682371649E+02  0.47000000000E+01 0. -1.
        -11    1    1    2    0    0 -0.52223688971E+02  0.24329774771E+02 -0.28428679572E+02  0.64245166763E+02  0.00000000000E+00 0. -1.
         11    1    1    2    0    0  0.25450510614E+02 -0.22686020168E+02 -0.29404915240E+02  0.45022583686E+02  0.00000000000E+00 0.  1.
<mgrwt>
<rscale>  0 0.11799231E+03</rscale>
<asrwt>0</asrwt>
<pdfrwt beam="1">  1        1 0.57880503E-02 0.12786932E+03</pdfrwt>
<pdfrwt beam="2">  1       -1 0.65676679E-01 0.12786932E+03</pdfrwt>
<totfact> 0.31727751E+03</totfact>
</mgrwt>
</event>
<event>
 6    1  0.5818426E-006  0.1443568E+03  0.7546771E-02  0.1217906E+00
         -4   -1    0    0    0  501 -0.00000000000E+00  0.00000000000E+00  0.21965996907E+03  0.21965996907E+03  0.00000000000E+00 0.  1.
          4   -1    0    0  501    0  0.00000000000E+00 -0.00000000000E+00 -0.80638447717E+02  0.80638447717E+02  0.00000000000E+00 0. -1.
          5    1    1    2  502    0 -0.30465586722E+02  0.26223477242E+02  0.93181348577E+02  0.10159073017E+03  0.47000000000E+01 0. -1.
         -5    1    1    2    0  502 -0.24359967900E+02 -0.73214879879E+02  0.14859403458E+02  0.78719238709E+02  0.47000000000E+01 0. -1.
        -11    1    1    2    0    0  0.34545690090E+02  0.62125698337E+02  0.51195151729E+02  0.87601088225E+02  0.00000000000E+00 0.  1.
         11    1    1    2    0    0  0.20279864532E+02 -0.15134295700E+02 -0.20214382407E+02  0.32387359693E+02  0.00000000000E+00 0. -1.
<mgrwt>
<rscale>  0 0.13665244E+03</rscale>
<asrwt>0</asrwt>
<pdfrwt beam="2">  1        4 0.12405915E-01 0.14435678E+03</pdfrwt>
<pdfrwt beam="1">  1       -4 0.33793841E-01 0.14435678E+03</pdfrwt>
<totfact> 0.74360015E+02</totfact>
</mgrwt>
</event>
<event>
 6    1  0.5818426E-006  0.1574533E+03  0.7546771E-02  0.1202308E+00
          2   -1    0    0  501    0  0.00000000000E+00  0.00000000000E+00  0.30038089543E+03  0.30038089543E+03  0.00000000000E+00 0. -1.
         -2   -1    0    0    0  501 -0.00000000000E+00 -0.00000000000E+00 -0.11777613415E+03  0.11777613415E+03  0.00000000000E+00 0.  1.
          5    1    1    2  502    0 -0.56925721724E+02  0.38348121572E+02 -0.34988518127E+02  0.77184212262E+02  0.47000000000E+01 0. -1.
         -5    1    1    2    0  502 -0.29342552986E+02 -0.79870739386E+02 -0.55302911703E+01  0.85399031295E+02  0.47000000000E+01 0. -1.
        -11    1    1    2    0    0  0.84750305812E+02  0.59246067924E+01  0.12461769837E+03  0.15082203436E+03  0.00000000000E+00 0.  1.
         11    1    1    2    0    0  0.15179688974E+01  0.35598011021E+02  0.98505872206E+02  0.10475175167E+03  0.00000000000E+00 0. -1.
<mgrwt>
<rscale>  0 0.14851613E+03</rscale>
<asrwt>0</asrwt>
<pdfrwt beam="1">  1        2 0.46212445E-01 0.15745329E+03</pdfrwt>
<pdfrwt beam="2">  1       -2 0.18119405E-01 0.15745329E+03</pdfrwt>
<totfact> 0.26566695E+03</totfact>
</mgrwt>
</event>
<event>
 6    1  0.5818426E-006  0.1576973E+03  0.7546771E-02  0.1204184E+00
          1   -1    0    0  501    0  0.00000000000E+00  0.00000000000E+00  0.71523523823E+02  0.71523523823E+02  0.00000000000E+00 0. -1.
         -1   -1    0    0    0  501 -0.00000000000E+00 -0.00000000000E+00 -0.28400427777E+03  0.28400427777E+03  0.00000000000E+00 0.  1.
          5    1    1    2  502    0  0.18367950863E+02  0.23555151211E+02 -0.85219668664E+02  0.90425155209E+02  0.47000000000E+01 0. -1.
         -5    1    1    2    0  502  0.26533120343E+02 -0.10857634328E+03 -0.76969744661E+02  0.13579123826E+03  0.47000000000E+01 0. -1.
        -11    1    1    2    0    0 -0.12763309200E+02  0.30785085664E+02  0.16738108867E+02  0.37293268152E+02  0.00000000000E+00 0. -1.
         11    1    1    2    0    0 -0.32137762006E+02  0.54236106405E+02 -0.67029449485E+02  0.92018139967E+02  0.00000000000E+00 0.  1.
<mgrwt>
<rscale>  0 0.14701937E+03</rscale>
<asrwt>0</asrwt>
<pdfrwt beam="1">  1        1 0.11003619E-01 0.15769734E+03</pdfrwt>
<pdfrwt beam="2">  1       -1 0.43692966E-01 0.15769734E+03</pdfrwt>
<totfact> 0.28869615E+03</totfact>
</mgrwt>
</event>
<event>
 6    1  0.5818426E-006  0.1368950E+03  0.7546771E-02  0.1229080E+00
          2   -1    0    0  501    0  0.00000000000E+00  0.00000000000E+00  0.42203612340E+03  0.42203612340E+03  0.00000000000E+00 0. -1.
         -2   -1    0    0    0  501 -0.00000000000E+00 -0.00000000000E+00 -0.42317616845E+02  0.42317616845E+02  0.00000000000E+00 0.  1.
          5    1    1    2  502    0  0.60929705068E+02  0.15518319156E+02  0.65659499842E+02  0.91030253809E+02  0.47000000000E+01 0. -1.
         -5    1    1    2    0  502 -0.60266746359E+02  0.40285258350E+02  0.50061198469E+02  0.88222425432E+02  0.47000000000E+01 0. -1.
        -11    1    1    2    0    0 -0.27807583964E+02 -0.26305753190E+02  0.22810209057E+03  0.23129162998E+03  0.00000000000E+00 0. -1.
         11    1    1    2    0    0  0.27144625255E+02 -0.29497824316E+02  0.35895717669E+02  0.53809431019E+02  0.00000000000E+00 0.  1.
<mgrwt>
<rscale>  0 0.12891121E+03</rscale>
<asrwt>0</asrwt>
<pdfrwt beam="1">  1        2 0.64928632E-01 0.13689501E+03</pdfrwt>
<pdfrwt beam="2">  1       -2 0.65104029E-02 0.13689501E+03</pdfrwt>
<totfact> 0.93409765E+03</totfact>
</mgrwt>
</event>
<event>
 6    1  0.5818426E-006  0.3238208E+03  0.7546771E-02  0.1073904E+00
         -2   -1    0    0    0  501 -0.00000000000E+00  0.00000000000E+00  0.64533602421E+02  0.64533602421E+02  0.00000000000E+00 0.  1.
          2   -1    0    0  501    0  0.00000000000E+00 -0.00000000000E+00 -0.40622225782E+03  0.40622225782E+03  0.00000000000E+00 0. -1.
          5    1    1    2  502    0 -0.38781570003E+00  0.15169055780E+01 -0.10687137425E+03  0.10698613012E+03  0.47000000000E+01 0. -1.
         -5    1    1    2    0  502 -0.29993758116E+02  0.11515417312E+03 -0.60993106316E+02  0.13379969406E+03  0.47000000000E+01 0.  1.
        -11    1    1    2    0    0 -0.23722819654E+02 -0.61440417627E+02 -0.11611026118E+03  0.13348891280E+03  0.00000000000E+00 0. -1.
         11    1    1    2    0    0  0.54104393470E+02 -0.55230661072E+02 -0.57713913653E+02  0.96481123254E+02  0.00000000000E+00 0.  1.
<mgrwt>
<rscale>  0 0.32382085E+03</rscale>
<asrwt>0</asrwt>
<pdfrwt beam="2">  1        2 0.62495731E-01 0.32382085E+03</pdfrwt>
<pdfrwt beam="1">  1       -2 0.99282468E-02 0.32382085E+03</pdfrwt>
<totfact> 0.52739777E+03</totfact>
</mgrwt>
</event>
<event>
 6    1  0.5818426E-006  0.1332820E+03  0.7546771E-02  0.1236872E+00
          2   -1    0    0  501    0  0.00000000000E+00  0.00000000000E+00  0.30415770298E+02  0.30415770298E+02  0.00000000000E+00 0. -1.
         -2   -1    0    0    0  501 -0.00000000000E+00 -0.00000000000E+00 -0.48401429605E+03  0.48401429605E+03  0.00000000000E+00 0.  1.
          5    1    1    2  502    0 -0.75375826731E+02 -0.21012591071E+02 -0.14371501379E+03  0.16370442702E+03  0.47000000000E+01 0.  1.
         -5    1    1    2    0  502  0.31326147041E+02  0.35225144095E+02 -0.18581526956E+03  0.19175907453E+03  0.47000000000E+01 0.  1.
        -11    1    1    2    0    0  0.25956102040E+02  0.36204948910E+02 -0.69098587701E+02  0.82213942741E+02  0.00000000000E+00 0.  1.
         11    1    1    2    0    0  0.18093577650E+02 -0.50417501934E+02 -0.54969654708E+02  0.76752622054E+02  0.00000000000E+00 0. -1.
<mgrwt>
<rscale>  0 0.12385376E+03</rscale>
<asrwt>0</asrwt>
<pdfrwt beam="1">  1        2 0.46793497E-02 0.13328201E+03</pdfrwt>
<pdfrwt beam="2">  1       -2 0.74463732E-01 0.13328201E+03</pdfrwt>
<totfact> 0.27367377E+03</totfact>
</mgrwt>
</event>
<event>
 6    1  0.5818426E-006  0.2536030E+03  0.7546771E-02  0.1111049E+00
         -1   -1    0    0    0  501 -0.00000000000E+00  0.00000000000E+00  0.93949657662E+02  0.93949657662E+02  0.00000000000E+00 0.  1.
          1   -1    0    0  501    0  0.00000000000E+00 -0.00000000000E+00 -0.17114077754E+03  0.17114077754E+03  0.00000000000E+00 0. -1.
          5    1    1    2  502    0 -0.30598791797E+02  0.52834705757E+01  0.31293470540E+02  0.44334776634E+02  0.47000000000E+01 0.  1.
         -5    1    1    2    0  502  0.28741385920E+02 -0.70262047978E+02 -0.66164735043E+02  0.10081014242E+03  0.47000000000E+01 0.  1.
        -11    1    1    2    0    0 -0.39514513199E+02  0.38271195219E+02 -0.44348535608E+02  0.70660269936E+02  0.00000000000E+00 0. -1.
         11    1    1    2    0    0  0.41371919077E+02  0.26707382183E+02  0.20286802327E+01  0.49285246217E+02  0.00000000000E+00 0.  1.
<mgrwt>
<rscale>  0 0.25360298E+03</rscale>
<asrwt>0</asrwt>
<pdfrwt beam="2">  1        1 0.26329350E-01 0.25360298E+03</pdfrwt>
<pdfrwt beam="1">  1       -1 0.14453793E-01 0.25360298E+03</pdfrwt>
<totfact> 0.60308187E+03</totfact>
</mgrwt>
</event>
<event>
 6    1  0.5818426E-006  0.1580450E+03  0.7546771E-02  0.1198840E+00
          2   -1    0    0  501    0  0.00000000000E+00  0.00000000000E+00  0.19127269273E+03  0.19127269273E+03  0.00000000000E+00 0. -1.
         -2   -1    0    0    0  501 -0.00000000000E+00 -0.00000000000E+00 -0.11594607898E+03  0.11594607898E+03  0.00000000000E+00 0.  1.
          5    1    1    2  502    0  0.47447332044E+02  0.36664962691E+02  0.95729410122E+01  0.60904022912E+02  0.47000000000E+01 0. -1.
         -5    1    1    2    0  502 -0.80753007879E+02  0.54125923262E+02 -0.16111954849E+01  0.97341408462E+02  0.47000000000E+01 0. -1.
        -11    1    1    2    0    0  0.48368071328E+02 -0.96244797590E+02  0.74973798460E+02  0.13123872082E+03  0.00000000000E+00 0. -1.
         11    1    1    2    0    0 -0.15062395494E+02  0.54539116368E+01 -0.76089302308E+01  0.17734619517E+02  0.00000000000E+00 0.  1.
<mgrwt>
<rscale>  0 0.15133667E+03</rscale>
<asrwt>0</asrwt>
<pdfrwt beam="1">  1        2 0.29426568E-01 0.15804502E+03</pdfrwt>
<pdfrwt beam="2">  1       -2 0.17837858E-01 0.15804502E+03</pdfrwt>
<totfact> 0.44292566E+03</totfact>
</mgrwt>
</event>
<event>
 6    1  0.5818426E-006  0.1850649E+03  0.7546771E-02  0.1168990E+00
          2   -1    0    0  501    0  0.00000000000E+00  0.00000000000E+00  0.48323318597E+03  0.48323318597E+03  0.00000000000E+00 0. -1.
         -2   -1    0    0    0  501 -0.00000000000E+00 -0.00000000000E+00 -0.12118206496E+03  0.12118206496E+03  0.00000000000E+00 0.  1.
          5    1    1    2  502    0  0.30934521548E+02  0.55705155655E+02 -0.25307887881E+02  0.68721089768E+02  0.47000000000E+01 0.  1.
         -5    1    1    2    0  502  0.10549468088E+03 -0.52237875607E+02  0.18261214593E+01  0.11782762012E+03  0.47000000000E+01 0.  1.
        -11    1    1    2    0    0 -0.30336129625E+01  0.14512074686E+02  0.75600643196E+01  0.16642045902E+02  0.00000000000E+00 0.  1.
         11    1    1    2    0    0 -0.13339558947E+03 -0.17979354734E+02  0.37797282311E+03  0.40122449514E+03  0.00000000000E+00 0. -1.
<mgrwt>
<rscale>  0 0.17877895E+03</rscale>
<asrwt>0</asrwt>
<pdfrwt beam="1">  1        2 0.74343566E-01 0.18506493E+03</pdfrwt>
<pdfrwt beam="2">  1       -2 0.18643395E-01 0.18506493E+03</pdfrwt>
<totfact> 0.15241149E+03</totfact>
</mgrwt>
</event>
<event>
 6    1  0.5818426E-006  0.1277050E+03  0.7546771E-02  0.1238243E+00
          1   -1    0    0  501    0  0.00000000000E+00  0.00000000000E+00  0.12680111649E+03  0.12680111649E+03  0.00000000000E+00 0. -1.
         -1   -1    0    0    0  501 -0.00000000000E+00 -0.00000000000E+00 -0.12344413327E+03  0.12344413327E+03  0.00000000000E+00 0.  1.
          5    1    1    2  502    0  0.40334057651E+02 -0.22820617093E+02 -0.20458772462E+02  0.50875024734E+02  0.47000000000E+01 0. -1.
         -5    1    1    2    0  502 -0.74512252784E+02 -0.29908604950E+02 -0.16930041184E+02  0.82190734025E+02  0.47000000000E+01 0.  1.
        -11    1    1    2    0    0  0.42259398887E+01  0.49938969472E+02 -0.16288723140E+02  0.52698024075E+02  0.00000000000E+00 0.  1.
         11    1    1    2    0    0  0.29952255245E+02  0.27902525703E+01  0.57034520014E+02  0.64481466925E+02  0.00000000000E+00 0. -1.
<mgrwt>
<rscale>  0 0.12299092E+03</rscale>
<asrwt>0</asrwt>
<pdfrwt beam="1">  1        1 0.19507864E-01 0.12770502E+03</pdfrwt>
<pdfrwt beam="2">  1       -1 0.18991405E-01 0.12770502E+03</pdfrwt>
<totfact> 0.54938784E+03</totfact>
</mgrwt>
</event>
<event>
 6    1  0.5818426E-006  0.1309358E+03  0.7546771E-02  0.1239649E+00
         -2   -1    0    0    0  501 -0.00000000000E+00  0.00000000000E+00  0.24525375947E+03  0.24525375947E+03  0.00000000000E+00 0.  1.
          2   -1    0    0  501    0  0.00000000000E+00 -0.00000000000E+00 -0.90034570674E+02  0.90034570674E+02  0.00000000000E+00 0. -1.
          5    1    1    2  502    0  0.45903428166E+02 -0.47552581896E+02  0.40514120151E+02  0.77665028771E+02  0.47000000000E+01 0.  1.
         -5    1    1    2    0  502 -0.30801976785E+02  0.11632946558E+02  0.14909904957E+03  0.15276355522E+03  0.47000000000E+01 0.  1.
        -11    1    1    2    0    0 -0.10000368774E+02  0.58254695029E+02  0.49686995745E+01  0.59315300253E+02  0.00000000000E+00 0.  1.
         11    1    1    2    0    0 -0.51010826076E+01 -0.22335059692E+02 -0.39362680508E+02  0.45544445897E+02  0.00000000000E+00 0. -1.
<mgrwt>
<rscale>  0 0.12211440E+03</rscale>
<asrwt>0</asrwt>
<pdfrwt beam="2">  1        2 0.13851473E-01 0.13093578E+03</pdfrwt>
<pdfrwt beam="1">  1       -2 0.37731347E-01 0.13093578E+03</pdfrwt>
<totfact> 0.27472328E+03</totfact>
</mgrwt>
</event>
<event>
 6    1  0.5818426E-006  0.1293134E+03  0.7546771E-02  0.1241130E+00
         -3   -1    0    0    0  501 -0.00000000000E+00  0.00000000000E+00  0.59612676827E+02  0.59612676827E+02  0.00000000000E+00 0.  1.
          3   -1    0    0  501    0  0.00000000000E+00 -0.00000000000E+00 -0.25009702044E+03  0.25009702044E+03  0.00000000000E+00 0. -1.
          5    1    1    2  502    0 -0.18758077715E+02 -0.15278642818E+02 -0.81430538167E+02  0.85078345965E+02  0.47000000000E+01 0.  1.
         -5    1    1    2    0  502  0.61186178782E+01  0.45873711346E+02  0.28604427428E+02  0.54608956645E+02  0.47000000000E+01 0.  1.
        -11    1    1    2    0    0 -0.18078651384E+02 -0.28983661745E+02 -0.58309146769E+01  0.34653857649E+02  0.00000000000E+00 0.  1.
         11    1    1    2    0    0  0.30718111221E+02 -0.16114067831E+01 -0.13182731820E+03  0.13536853701E+03  0.00000000000E+00 0. -1.
<mgrwt>
<rscale>  0 0.12120014E+03</rscale>
<asrwt>0</asrwt>
<pdfrwt beam="2">  1        3 0.38476465E-01 0.12931336E+03</pdfrwt>
<pdfrwt beam="1">  1       -3 0.91711810E-02 0.12931336E+03</pdfrwt>
<totfact> 0.13021583E+03</totfact>
</mgrwt>
</event>
<event>
 6    1  0.5818426E-006  0.2736435E+03  0.7546771E-02  0.1099212E+00
         -1   -1    0    0    0  501 -0.00000000000E+00  0.00000000000E+00  0.99735964830E+02  0.99735964830E+02  0.00000000000E+00 0.  1.
          1   -1    0    0  501    0  0.00000000000E+00 -0.00000000000E+00 -0.18769756171E+03  0.18769756171E+03  0.00000000000E+00 0. -1.
          5    1    1    2  502    0  0.21501990022E+02  0.78736541668E+02  0.34272056126E+02  0.88647856149E+02  0.47000000000E+01 0. -1.
         -5    1    1    2    0  502 -0.81724103104E+01  0.18824759142E+01 -0.62627705536E+02  0.63361277659E+02  0.47000000000E+01 0. -1.
        -11    1    1    2    0    0  0.11556110835E+02 -0.48633175921E+02 -0.76609531010E+02  0.91475405106E+02  0.00000000000E+00 0. -1.
         11    1    1    2    0    0 -0.24885690546E+02 -0.31985841661E+02  0.17003583535E+02  0.43948987630E+02  0.00000000000E+00 0.  1.
<mgrwt>
<rscale>  0 0.27364354E+03</rscale>
<asrwt>0</asrwt>
<pdfrwt beam="2">  1        1 0.28876548E-01 0.27364354E+03</pdfrwt>
<pdfrwt beam="1">  1       -1 0.15343995E-01 0.27364354E+03</pdfrwt>
<totfact> 0.48941460E+03</totfact>
</mgrwt>
</event>
<event>
 6    1  0.5818426E-006  0.1263171E+03  0.7546771E-02  0.1248198E+00
          1   -1    0    0  501    0  0.00000000000E+00  0.00000000000E+00  0.11735854419E+04  0.11735854419E+04  0.00000000000E+00 0. -1.
         -1   -1    0    0    0  501 -0.00000000000E+00 -0.00000000000E+00 -0.10276734442E+02  0.10276734442E+02  0.00000000000E+00 0.  1.
          5    1    1    2  502    0  0.18323131635E+02 -0.27034472457E+02  0.54597379382E+02  0.63793131992E+02  0.47000000000E+01 0. -1.
         -5    1    1    2    0  502 -0.30562907187E+02  0.40366746253E+02  0.65409979361E+03  0.65607331564E+03  0.47000000000E+01 0. -1.
        -11    1    1    2    0    0  0.35446130816E+01  0.38634790182E+02  0.23290312341E+03  0.23611242277E+03  0.00000000000E+00 0. -1.
         11    1    1    2    0    0  0.86951624706E+01 -0.51967063978E+02  0.22170841102E+03  0.22788330590E+03  0.00000000000E+00 0.  1.
<mgrwt>
<rscale>  0 0.11696006E+03</rscale>
<asrwt>0</asrwt>
<pdfrwt beam="1">  1        1 0.18055150E+00 0.12631714E+03</pdfrwt>
<pdfrwt beam="2">  1       -1 0.15810370E-02 0.12631714E+03</pdfrwt>
<totfact> 0.11117938E+04</totfact>
</mgrwt>
</event>
<event>
 6    1  0.5818426E-006  0.1453440E+03  0.7546771E-02  0.1215747E+00
          1   -1    0    0  501    0  0.00000000000E+00  0.00000000000E+00  0.23261556203E+03  0.23261556203E+03  0.00000000000E+00 0. -1.
         -1   -1    0    0    0  501 -0.00000000000E+00 -0.00000000000E+00 -0.97387318526E+02  0.97387318526E+02  0.00000000000E+00 0.  1.
          5    1    1    2  502    0  0.34169937976E+02  0.84496227727E+01  0.14143157324E+02  0.38224333681E+02  0.47000000000E+01 0.  1.
         -5    1    1    2    0  502 -0.10387537260E+03  0.16898951708E+02 -0.20068656489E+02  0.10724042416E+03  0.47000000000E+01 0.  1.
        -11    1    1    2    0    0  0.27397610103E+02  0.32200694120E+02  0.80099024123E+02  0.90572442865E+02  0.00000000000E+00 0.  1.
         11    1    1    2    0    0  0.42307824522E+02 -0.57549268601E+02  0.61054718551E+02  0.93965679850E+02  0.00000000000E+00 0. -1.
<mgrwt>
<rscale>  0 0.13821826E+03</rscale>
<asrwt>0</asrwt>
<pdfrwt beam="1">  1        1 0.35787009E-01 0.14534402E+03</pdfrwt>
<pdfrwt beam="2">  1       -1 0.14982664E-01 0.14534402E+03</pdfrwt>
<totfact> 0.37664028E+03</totfact>
</mgrwt>
</event>
<event>
 6    1  0.5818426E-006  0.2621254E+03  0.7546771E-02  0.1105873E+00
          2   -1    0    0  501    0  0.00000000000E+00  0.00000000000E+00  0.42342821376E+03  0.42342821376E+03  0.00000000000E+00 0. -1.
         -2   -1    0    0    0  501 -0.00000000000E+00 -0.00000000000E+00 -0.40567518887E+02  0.40567518887E+02  0.00000000000E+00 0.  1.
          5    1    1    2  502    0 -0.96560774281E+02  0.15532255981E+02  0.80456065182E+02  0.12673003800E+03  0.47000000000E+01 0. -1.
         -5    1    1    2    0  502  0.33548204196E+02  0.85537995151E+01  0.81599460421E+02  0.88764922306E+02  0.47000000000E+01 0. -1.
        -11    1    1    2    0    0  0.34725535649E+02  0.93052394480E+01  0.16491216260E+02  0.39552629761E+02  0.00000000000E+00 0.  1.
         11    1    1    2    0    0  0.28287034436E+02 -0.33391294944E+02  0.20431395301E+03  0.20894814258E+03  0.00000000000E+00 0. -1.
<mgrwt>
<rscale>  0 0.26212541E+03</rscale>
<asrwt>0</asrwt>
<pdfrwt beam="1">  1        2 0.65142799E-01 0.26212541E+03</pdfrwt>
<pdfrwt beam="2">  1       -2 0.62411570E-02 0.26212541E+03</pdfrwt>
<totfact> 0.10342906E+04</totfact>
</mgrwt>
</event>
<event>
 6    1  0.5818426E-006  0.1418658E+03  0.7546771E-02  0.1221444E+00
          3   -1    0    0  501    0  0.00000000000E+00  0.00000000000E+00  0.76048982214E+02  0.76048982214E+02  0.00000000000E+00 0. -1.
         -3   -1    0    0    0  501 -0.00000000000E+00 -0.00000000000E+00 -0.22747177576E+03  0.22747177576E+03  0.00000000000E+00 0.  1.
          5    1    1    2  502    0  0.90805719065E+01 -0.34553033247E+02 -0.51265414231E+02  0.62662601198E+02  0.47000000000E+01 0.  1.
         -5    1    1    2    0  502 -0.95363883638E+01  0.10164170260E+03 -0.68867599481E+02  0.12323479488E+03  0.47000000000E+01 0.  1.
        -11    1    1    2    0    0 -0.12067622004E+02 -0.82900087178E+02 -0.43140648016E+02  0.94229334425E+02  0.00000000000E+00 0.  1.
         11    1    1    2    0    0  0.12523438461E+02  0.15811417822E+02  0.11850868183E+02  0.23394027467E+02  0.00000000000E+00 0. -1.
<mgrwt>
<rscale>  0 0.13413662E+03</rscale>
<asrwt>0</asrwt>
<pdfrwt beam="1">  1        3 0.11699844E-01 0.14186578E+03</pdfrwt>
<pdfrwt beam="2">  1       -3 0.34995657E-01 0.14186578E+03</pdfrwt>
<totfact> 0.10569768E+03</totfact>
</mgrwt>
</event>
<event>
 6    1  0.5818426E-006  0.1315023E+03  0.7546771E-02  0.1239189E+00
          2   -1    0    0  501    0  0.00000000000E+00  0.00000000000E+00  0.50387382530E+03  0.50387382530E+03  0.00000000000E+00 0.  1.
         -2   -1    0    0    0  501 -0.00000000000E+00 -0.00000000000E+00 -0.31154800103E+02  0.31154800103E+02  0.00000000000E+00 0. -1.
          5    1    1    2  502    0 -0.55753286552E+02 -0.24061705011E+02  0.19897647311E+02  0.64073403046E+02  0.47000000000E+01 0. -1.
         -5    1    1    2    0  502  0.14892371645E+02  0.24180090519E+02  0.14012040913E+03  0.14304642102E+03  0.47000000000E+01 0. -1.
        -11    1    1    2    0    0 -0.14741813429E+02 -0.99396133845E+01  0.10864133212E+02  0.20836179301E+02  0.00000000000E+00 0.  1.
         11    1    1    2    0    0  0.55602728335E+02  0.98212278757E+01  0.30183683555E+03  0.30707262204E+03  0.00000000000E+00 0. -1.
<mgrwt>
<rscale>  0 0.12240031E+03</rscale>
<asrwt>0</asrwt>
<pdfrwt beam="1">  1        2 0.77519044E-01 0.13150226E+03</pdfrwt>
<pdfrwt beam="2">  1       -2 0.47930465E-02 0.13150226E+03</pdfrwt>
<totfact> 0.12202315E+04</totfact>
</mgrwt>
</event>
<event>
 6    1  0.5818426E-006  0.1601718E+03  0.7546771E-02  0.1193994E+00
         -1   -1    0    0    0  501 -0.00000000000E+00  0.00000000000E+00  0.14656709177E+03  0.14656709177E+03  0.00000000000E+00 0.  1.
          1   -1    0    0  501    0  0.00000000000E+00 -0.00000000000E+00 -0.54864506787E+03  0.54864506787E+03  0.00000000000E+00 0. -1.
          5    1    1    2  502    0  0.83548231500E+01 -0.16992391186E+02 -0.28759063679E+02  0.34752239810E+02  0.47000000000E+01 0. -1.
         -5    1    1    2    0  502  0.51841833244E+02 -0.73622897176E+02  0.11831402554E+03  0.14875552192E+03  0.47000000000E+01 0.  1.
        -11    1    1    2    0    0 -0.58951951151E+02  0.10846999997E+03 -0.44308274579E+03  0.45996020812E+03  0.00000000000E+00 0. -1.
         11    1    1    2    0    0 -0.12447052431E+01 -0.17854711608E+02 -0.48550192167E+02  0.51744189792E+02  0.00000000000E+00 0.  1.
<mgrwt>
<rscale>  0 0.15539706E+03</rscale>
<asrwt>0</asrwt>
<pdfrwt beam="2">  1        1 0.84406934E-01 0.16017181E+03</pdfrwt>
<pdfrwt beam="1">  1       -1 0.22548783E-01 0.16017181E+03</pdfrwt>
<totfact> 0.66326054E+02</totfact>
</mgrwt>
</event>
<event>
 6    1  0.5818426E-006  0.1295978E+03  0.7546771E-02  0.1242078E+00
          1   -1    0    0  501    0  0.00000000000E+00  0.00000000000E+00  0.92567139358E+02  0.92567139358E+02  0.00000000000E+00 0. -1.
         -1   -1    0    0    0  501 -0.00000000000E+00 -0.00000000000E+00 -0.15189471486E+03  0.15189471486E+03  0.00000000000E+00 0.  1.
          5    1    1    2  502    0 -0.11366775908E+01  0.10338890108E+02 -0.96566014296E+02  0.97238211634E+02  0.47000000000E+01 0.  1.
         -5    1    1    2    0  502  0.31917635138E+02 -0.25339867915E+02  0.27720173224E+02  0.49511032531E+02  0.47000000000E+01 0.  1.
        -11    1    1    2    0    0 -0.23453895852E+02  0.26342183132E+02 -0.35901700586E+02  0.50328202310E+02  0.00000000000E+00 0.  1.
         11    1    1    2    0    0 -0.73270616956E+01 -0.11341205326E+02  0.45419966157E+02  0.47384407742E+02  0.00000000000E+00 0. -1.
<mgrwt>
<rscale>  0 0.12061972E+03</rscale>
<asrwt>0</asrwt>
<pdfrwt beam="1">  1        1 0.14241099E-01 0.12959780E+03</pdfrwt>
<pdfrwt beam="2">  1       -1 0.23368417E-01 0.12959780E+03</pdfrwt>
<totfact> 0.58967952E+03</totfact>
</mgrwt>
</event>
<event>
 6    1  0.5818426E-006  0.1826221E+03  0.7546771E-02  0.1170752E+00
          2   -1    0    0  501    0  0.00000000000E+00  0.00000000000E+00  0.31726862563E+03  0.31726862563E+03  0.00000000000E+00 0. -1.
         -2   -1    0    0    0  501 -0.00000000000E+00 -0.00000000000E+00 -0.10610759560E+03  0.10610759560E+03  0.00000000000E+00 0.  1.
          5    1    1    2  502    0  0.14822528105E+03 -0.18939836040E+02  0.50079456318E+02  0.15766893568E+03  0.47000000000E+01 0.  1.
         -5    1    1    2    0  502 -0.15089114214E+02  0.20369924213E+02 -0.12698774687E+02  0.28739590442E+02  0.47000000000E+01 0.  1.
        -11    1    1    2    0    0 -0.23573094361E+02  0.23783696267E+02  0.92108916263E+02  0.98007180558E+02  0.00000000000E+00 0. -1.
         11    1    1    2    0    0 -0.10956307248E+03 -0.25213784441E+02  0.81671432141E+02  0.13896051455E+03  0.00000000000E+00 0.  1.
<mgrwt>
<rscale>  0 0.17698671E+03</rscale>
<asrwt>0</asrwt>
<pdfrwt beam="1">  1        2 0.48810557E-01 0.18262208E+03</pdfrwt>
<pdfrwt beam="2">  1       -2 0.16324246E-01 0.18262208E+03</pdfrwt>
<totfact> 0.29998066E+03</totfact>
</mgrwt>
</event>
<event>
 6    1  0.5818426E-006  0.4314096E+03  0.7546771E-02  0.1033416E+00
          2   -1    0    0  501    0  0.00000000000E+00  0.00000000000E+00  0.24073329682E+03  0.24073329682E+03  0.00000000000E+00 0. -1.
         -2   -1    0    0    0  501 -0.00000000000E+00 -0.00000000000E+00 -0.19327848910E+03  0.19327848910E+03  0.00000000000E+00 0.  1.
          5    1    1    2  502    0  0.29975978681E+02  0.29677663961E+02 -0.10568926267E+03  0.11389307828E+03  0.47000000000E+01 0.  1.
         -5    1    1    2    0  502  0.88101197176E+02  0.41710278514E+02  0.51051360051E+01  0.97722672349E+02  0.47000000000E+01 0.  1.
        -11    1    1    2    0    0 -0.76272783800E+02  0.18210116491E+01  0.98579368474E+02  0.12465450462E+03  0.00000000000E+00 0. -1.
         11    1    1    2    0    0 -0.41804392056E+02 -0.73208954124E+02  0.49459565917E+02  0.97741530680E+02  0.00000000000E+00 0.  1.
<mgrwt>
<rscale>  0 0.43140963E+03</rscale>
<asrwt>0</asrwt>
<pdfrwt beam="1">  1        2 0.37035892E-01 0.43140963E+03</pdfrwt>
<pdfrwt beam="2">  1       -2 0.29735152E-01 0.43140963E+03</pdfrwt>
<totfact> 0.14553937E+03</totfact>
</mgrwt>
</event>
<event>
 6    1  0.5818426E-006  0.1254264E+03  0.7546771E-02  0.1250863E+00
          2   -1    0    0  501    0  0.00000000000E+00  0.00000000000E+00  0.82929892901E+02  0.82929892901E+02  0.00000000000E+00 0.  1.
         -2   -1    0    0    0  501 -0.00000000000E+00 -0.00000000000E+00 -0.16096303385E+03  0.16096303385E+03  0.00000000000E+00 0. -1.
          5    1    1    2  502    0 -0.50670728279E+02 -0.43436844381E+02 -0.34857971814E+02  0.75441701685E+02  0.47000000000E+01 0.  1.
         -5    1    1    2    0  502  0.41428144754E+02  0.38490948185E+02 -0.53444486895E+02  0.77950288322E+02  0.47000000000E+01 0.  1.
        -11    1    1    2    0    0  0.12031750209E+02 -0.37179662112E+02 -0.14349605972E+02  0.41629334362E+02  0.00000000000E+00 0. -1.
         11    1    1    2    0    0 -0.27891666844E+01  0.42125558308E+02  0.24618923734E+02  0.48871602382E+02  0.00000000000E+00 0.  1.
<mgrwt>
<rscale>  0 0.11541212E+03</rscale>
<asrwt>0</asrwt>
<pdfrwt beam="1">  1        2 0.12758445E-01 0.12542639E+03</pdfrwt>
<pdfrwt beam="2">  1       -2 0.24763543E-01 0.12542639E+03</pdfrwt>
<totfact> 0.64518092E+03</totfact>
</mgrwt>
</event>
<event>
 6    1  0.5818426E-006  0.1335364E+03  0.7546771E-02  0.1233823E+00
         -1   -1    0    0    0  501 -0.00000000000E+00  0.00000000000E+00  0.19164700447E+03  0.19164700447E+03  0.00000000000E+00 0.  1.
          1   -1    0    0  501    0  0.00000000000E+00 -0.00000000000E+00 -0.75335858345E+02  0.75335858345E+02  0.00000000000E+00 0. -1.
          5    1    1    2  502    0  0.72509517145E+01  0.74514611714E+02  0.68395825401E+02  0.10151395270E+03  0.47000000000E+01 0.  1.
         -5    1    1    2    0  502 -0.36694199748E+02 -0.37905762276E+02  0.11838761598E+02  0.54272989461E+02  0.47000000000E+01 0.  1.
        -11    1    1    2    0    0  0.23907794026E+02  0.31864338852E+01 -0.27129383278E+02  0.36300680615E+02  0.00000000000E+00 0. -1.
         11    1    1    2    0    0  0.55354540075E+01 -0.39795283323E+02  0.63205942409E+02  0.74895240046E+02  0.00000000000E+00 0.  1.
<mgrwt>
<rscale>  0 0.12580099E+03</rscale>
<asrwt>0</asrwt>
<pdfrwt beam="2">  1        1 0.11590132E-01 0.13353645E+03</pdfrwt>
<pdfrwt beam="1">  1       -1 0.29484154E-01 0.13353645E+03</pdfrwt>
<totfact> 0.52674973E+03</totfact>
</mgrwt>
</event>
<event>
 6    1  0.5818426E-006  0.1263398E+03  0.7546771E-02  0.1248436E+00
         -1   -1    0    0    0  501 -0.00000000000E+00  0.00000000000E+00  0.48810412359E+02  0.48810412359E+02  0.00000000000E+00 0.  1.
          1   -1    0    0  501    0  0.00000000000E+00 -0.00000000000E+00 -0.24704173026E+03  0.24704173026E+03  0.00000000000E+00 0. -1.
          5    1    1    2  502    0 -0.34206701704E+02 -0.13345190731E+02  0.75338143338E+01  0.37776195091E+02  0.47000000000E+01 0. -1.
         -5    1    1    2    0  502  0.29116142502E+02  0.30989037652E+02 -0.13531846780E+03  0.14191986449E+03  0.47000000000E+01 0. -1.
        -11    1    1    2    0    0 -0.12153231238E+02 -0.33923364090E+02 -0.82153925752E+02  0.89709326032E+02  0.00000000000E+00 0. -1.
         11    1    1    2    0    0  0.17243790439E+02  0.16279517170E+02  0.11707261326E+02  0.26446756998E+02  0.00000000000E+00 0.  1.
<mgrwt>
<rscale>  0 0.11682095E+03</rscale>
<asrwt>0</asrwt>
<pdfrwt beam="2">  1        1 0.38006419E-01 0.12633984E+03</pdfrwt>
<pdfrwt beam="1">  1       -1 0.75092944E-02 0.12633984E+03</pdfrwt>
<totfact> 0.99872740E+03</totfact>
</mgrwt>
</event>
<event>
 6    1  0.5818426E-006  0.1291919E+03  0.7546771E-02  0.1242553E+00
         -1   -1    0    0    0  501 -0.00000000000E+00  0.00000000000E+00  0.49670558667E+03  0.49670558667E+03  0.00000000000E+00 0.  1.
          1   -1    0    0  501    0  0.00000000000E+00 -0.00000000000E+00 -0.32854329760E+02  0.32854329760E+02  0.00000000000E+00 0. -1.
          5    1    1    2  502    0 -0.40525587430E+02 -0.69222625527E+02  0.25452331892E+03  0.26690504865E+03  0.47000000000E+01 0. -1.
         -5    1    1    2    0  502  0.20543828595E+02  0.43444182319E+02  0.12481807409E+03  0.13383231109E+03  0.47000000000E+01 0. -1.
        -11    1    1    2    0    0  0.24038091235E+02  0.57949890807E+02  0.67693081833E+02  0.92295032384E+02  0.00000000000E+00 0.  1.
         11    1    1    2    0    0 -0.40563324004E+01 -0.32171447598E+02  0.16816782067E+02  0.36527524310E+02  0.00000000000E+00 0. -1.
<mgrwt>
<rscale>  0 0.12033016E+03</rscale>
<asrwt>0</asrwt>
<pdfrwt beam="2">  1        1 0.50545126E-02 0.12919187E+03</pdfrwt>
<pdfrwt beam="1">  1       -1 0.76416239E-01 0.12919187E+03</pdfrwt>
<totfact> 0.28298449E+03</totfact>
</mgrwt>
</event>
<event>
 6    1  0.5818426E-006  0.1410444E+03  0.7546771E-02  0.1223131E+00
         -2   -1    0    0    0  501 -0.00000000000E+00  0.00000000000E+00  0.67274620146E+02  0.67274620146E+02  0.00000000000E+00 0.  1.
          2   -1    0    0  501    0  0.00000000000E+00 -0.00000000000E+00 -0.23679313017E+03  0.23679313017E+03  0.00000000000E+00 0. -1.
          5    1    1    2  502    0  0.29490761486E+02  0.62207585177E+02  0.20823080404E+01  0.69035604389E+02  0.47000000000E+01 0.  1.
         -5    1    1    2    0  502 -0.29600596110E+02  0.31232807238E+01 -0.95496742983E+02  0.10013824491E+03  0.47000000000E+01 0.  1.
        -11    1    1    2    0    0  0.25449183197E+02  0.53837451348E+00  0.64749397919E+01  0.26265483392E+02  0.00000000000E+00 0.  1.
         11    1    1    2    0    0 -0.25339348572E+02 -0.65869240415E+02 -0.82579014871E+02  0.10862841763E+03  0.00000000000E+00 0. -1.
<mgrwt>
<rscale>  0 0.13295802E+03</rscale>
<asrwt>0</asrwt>
<pdfrwt beam="2">  1        2 0.36429713E-01 0.14104444E+03</pdfrwt>
<pdfrwt beam="1">  1       -2 0.10349941E-01 0.14104444E+03</pdfrwt>
<totfact> 0.84437350E+03</totfact>
</mgrwt>
</event>
<event>
 6    1  0.5818426E-006  0.1474453E+03  0.7546771E-02  0.1212945E+00
         -2   -1    0    0    0  501 -0.00000000000E+00  0.00000000000E+00  0.31581841724E+02  0.31581841724E+02  0.00000000000E+00 0.  1.
          2   -1    0    0  501    0  0.00000000000E+00 -0.00000000000E+00 -0.68493040339E+03  0.68493040339E+03  0.00000000000E+00 0. -1.
          5    1    1    2  502    0 -0.14991568937E+01 -0.99687067495E+02 -0.19492861172E+03  0.21899546242E+03  0.47000000000E+01 0.  1.
         -5    1    1    2    0  502  0.22120706213E+02  0.24251510152E+02 -0.12369804497E+02  0.35391573168E+02  0.47000000000E+01 0.  1.
        -11    1    1    2    0    0 -0.52905243328E+02  0.47572919585E+02 -0.19708789227E+03  0.20953707245E+03  0.00000000000E+00 0.  1.
         11    1    1    2    0    0  0.32283694009E+02  0.27862637758E+02 -0.24896225319E+03  0.25258813708E+03  0.00000000000E+00 0. -1.
<mgrwt>
<rscale>  0 0.14028577E+03</rscale>
<asrwt>0</asrwt>
<pdfrwt beam="2">  1        2 0.10537390E+00 0.14744535E+03</pdfrwt>
<pdfrwt beam="1">  1       -2 0.48587454E-02 0.14744535E+03</pdfrwt>
<totfact> 0.84996269E+03</totfact>
</mgrwt>
</event>
<event>
 6    1  0.5818426E-006  0.1534946E+03  0.7546771E-02  0.1205213E+00
          2   -1    0    0  501    0  0.00000000000E+00  0.00000000000E+00  0.35855696789E+03  0.35855696789E+03  0.00000000000E+00 0. -1.
         -2   -1    0    0    0  501 -0.00000000000E+00 -0.00000000000E+00 -0.56665003304E+02  0.56665003304E+02  0.00000000000E+00 0.  1.
          5    1    1    2  502    0  0.24305502706E+02 -0.44681268080E+02 -0.12430316407E+02  0.52571626806E+02  0.47000000000E+01 0.  1.
         -5    1    1    2    0  502  0.45244007666E+02 -0.10993955768E+02  0.13807414624E+03  0.14578905018E+03  0.47000000000E+01 0.  1.
        -11    1    1    2    0    0 -0.42556293821E+02  0.79249993581E+02  0.13493233072E+03  0.16216760928E+03  0.00000000000E+00 0.  1.
         11    1    1    2    0    0 -0.26993216551E+02 -0.23574769733E+02  0.41315804032E+02  0.54693684924E+02  0.00000000000E+00 0. -1.
<mgrwt>
<rscale>  0 0.14620671E+03</rscale>
<asrwt>0</asrwt>
<pdfrwt beam="1">  1        2 0.55162609E-01 0.15349458E+03</pdfrwt>
<pdfrwt beam="2">  1       -2 0.87176930E-02 0.15349458E+03</pdfrwt>
<totfact> 0.71452679E+03</totfact>
</mgrwt>
</event>
<event>
 6    1  0.5818426E-006  0.1881235E+03  0.7546771E-02  0.1168307E+00
          1   -1    0    0  501    0  0.00000000000E+00  0.00000000000E+00  0.79736418147E+03  0.79736418147E+03  0.00000000000E+00 0. -1.
         -1   -1    0    0    0  501 -0.00000000000E+00 -0.00000000000E+00 -0.75713017683E+02  0.75713017683E+02  0.00000000000E+00 0.  1.
          5    1    1    2  502    0  0.20400199845E+02  0.13803572429E+02 -0.17059256043E+02  0.30328451696E+02  0.47000000000E+01 0. -1.
         -5    1    1    2    0  502 -0.67306945679E+02 -0.13078404853E+03  0.83386802105E+02  0.16914532525E+03  0.47000000000E+01 0.  1.
        -11    1    1    2    0    0  0.39539311594E+02  0.13267997996E+03  0.57568443117E+03  0.59209787918E+03  0.00000000000E+00 0. -1.
         11    1    1    2    0    0  0.73674342398E+01 -0.15699503860E+02  0.79639186560E+02  0.81505543030E+02  0.00000000000E+00 0.  1.
<mgrwt>
<rscale>  0 0.17948012E+03</rscale>
<asrwt>0</asrwt>
<pdfrwt beam="1">  1        1 0.12267141E+00 0.18812348E+03</pdfrwt>
<pdfrwt beam="2">  1       -1 0.11648157E-01 0.18812348E+03</pdfrwt>
<totfact> 0.11134461E+03</totfact>
</mgrwt>
</event>
<event>
 6    1  0.5818426E-006  0.1266050E+03  0.7546771E-02  0.1247435E+00
         -1   -1    0    0    0  501 -0.00000000000E+00  0.00000000000E+00  0.12237902232E+03  0.12237902232E+03  0.00000000000E+00 0.  1.
          1   -1    0    0  501    0  0.00000000000E+00 -0.00000000000E+00 -0.13105859092E+03  0.13105859092E+03  0.00000000000E+00 0. -1.
          5    1    1    2  502    0 -0.49518158809E+02  0.43885729013E+02  0.27127911917E+02  0.71666023106E+02  0.47000000000E+01 0. -1.
         -5    1    1    2    0  502  0.30883808125E+02 -0.51416784027E+02  0.30094252084E+02  0.67269973186E+02  0.47000000000E+01 0. -1.
        -11    1    1    2    0    0 -0.55229650813E+01  0.97322175132E+01  0.21261214839E+02  0.24026203559E+02  0.00000000000E+00 0.  1.
         11    1    1    2    0    0  0.24157315765E+02 -0.22011624990E+01 -0.87162947440E+02  0.90475413388E+02  0.00000000000E+00 0. -1.
<mgrwt>
<rscale>  0 0.11740814E+03</rscale>
<asrwt>0</asrwt>
<pdfrwt beam="2">  1        1 0.20162860E-01 0.12660504E+03</pdfrwt>
<pdfrwt beam="1">  1       -1 0.18827542E-01 0.12660504E+03</pdfrwt>
<totfact> 0.53385647E+03</totfact>
</mgrwt>
</event>
<event>
 6    1  0.5818426E-006  0.3612932E+03  0.7546771E-02  0.1058073E+00
          2   -1    0    0  501    0  0.00000000000E+00  0.00000000000E+00  0.42093136798E+03  0.42093136798E+03  0.00000000000E+00 0. -1.
         -2   -1    0    0    0  501 -0.00000000000E+00 -0.00000000000E+00 -0.77526161728E+02  0.77526161728E+02  0.00000000000E+00 0.  1.
          5    1    1    2  502    0  0.29086145321E+02  0.11668194692E+03  0.85822978458E+02  0.14781188794E+03  0.47000000000E+01 0.  1.
         -5    1    1    2    0  502 -0.33113984527E+02  0.20162049671E+01 -0.17324273106E+02  0.37720306101E+02  0.47000000000E+01 0.  1.
        -11    1    1    2    0    0 -0.32666516062E+02 -0.82414908593E+02  0.11695317174E+03  0.14675613380E+03  0.00000000000E+00 0.  1.
         11    1    1    2    0    0  0.36694355268E+02 -0.36283243291E+02  0.15795332917E+03  0.16616920186E+03  0.00000000000E+00 0. -1.
<mgrwt>
<rscale>  0 0.36129320E+03</rscale>
<asrwt>0</asrwt>
<pdfrwt beam="1">  1        2 0.64758671E-01 0.36129320E+03</pdfrwt>
<pdfrwt beam="2">  1       -2 0.11927102E-01 0.36129320E+03</pdfrwt>
<totfact> 0.37842395E+03</totfact>
</mgrwt>
</event>
<event>
 6    1  0.5818426E-006  0.1523427E+03  0.7546771E-02  0.1205418E+00
         -1   -1    0    0    0  501 -0.00000000000E+00  0.00000000000E+00  0.51350935397E+02  0.51350935397E+02  0.00000000000E+00 0.  1.
          1   -1    0    0  501    0  0.00000000000E+00 -0.00000000000E+00 -0.44647581156E+03  0.44647581156E+03  0.00000000000E+00 0. -1.
          5    1    1    2  502    0  0.52710231330E+02 -0.30763478290E+02 -0.14409411791E+03  0.15655658690E+03  0.47000000000E+01 0.  1.
         -5    1    1    2    0  502  0.26707116442E+02 -0.49791486242E+01  0.24685097050E+02  0.37006837288E+02  0.47000000000E+01 0.  1.
        -11    1    1    2    0    0  0.45164428369E+01 -0.22364722487E+02 -0.26616201543E+02  0.35057114148E+02  0.00000000000E+00 0. -1.
         11    1    1    2    0    0 -0.83933790609E+02  0.58107349401E+02 -0.24909965376E+03  0.26920620863E+03  0.00000000000E+00 0.  1.
<mgrwt>
<rscale>  0 0.14604566E+03</rscale>
<asrwt>0</asrwt>
<pdfrwt beam="2">  1        1 0.68688588E-01 0.15234266E+03</pdfrwt>
<pdfrwt beam="1">  1       -1 0.79001437E-02 0.15234266E+03</pdfrwt>
<totfact> 0.44716017E+03</totfact>
</mgrwt>
</event>
<event>
 6    1  0.5818426E-006  0.2420647E+03  0.7546771E-02  0.1118425E+00
          2   -1    0    0  501    0  0.00000000000E+00  0.00000000000E+00  0.44060927997E+03  0.44060927997E+03  0.00000000000E+00 0. -1.
         -2   -1    0    0    0  501 -0.00000000000E+00 -0.00000000000E+00 -0.33246755230E+02  0.33246755230E+02  0.00000000000E+00 0.  1.
          5    1    1    2  502    0  0.56558044486E+01  0.33251299611E+00  0.19346359333E+03  0.19360359148E+03  0.47000000000E+01 0.  1.
         -5    1    1    2    0  502 -0.55854827914E+02  0.19892237639E+02  0.26486048388E+02  0.65108092269E+02  0.47000000000E+01 0.  1.
        -11    1    1    2    0    0  0.42421353003E+02  0.31544610333E+02  0.10399880023E+03  0.11666355078E+03  0.00000000000E+00 0. -1.
         11    1    1    2    0    0  0.77776704629E+01 -0.51769360969E+02  0.83414082797E+02  0.98480800676E+02  0.00000000000E+00 0.  1.
<mgrwt>
<rscale>  0 0.24206469E+03</rscale>
<asrwt>0</asrwt>
<pdfrwt beam="1">  1        2 0.67786039E-01 0.24206469E+03</pdfrwt>
<pdfrwt beam="2">  1       -2 0.51148857E-02 0.24206469E+03</pdfrwt>
<totfact> 0.13369392E+04</totfact>
</mgrwt>
</event>
<event>
 6    1  0.5818426E-006  0.2343633E+03  0.7546771E-02  0.1126751E+00
         -2   -1    0    0    0  501 -0.00000000000E+00  0.00000000000E+00  0.14797498989E+03  0.14797498989E+03  0.00000000000E+00 0. -1.
          2   -1    0    0  501    0  0.00000000000E+00 -0.00000000000E+00 -0.34939226642E+03  0.34939226642E+03  0.00000000000E+00 0.  1.
          5    1    1    2  502    0 -0.12788254538E+03  0.12165350368E+03 -0.61015665296E+02  0.18681146052E+03  0.47000000000E+01 0.  1.
         -5    1    1    2    0  502 -0.36511028392E+02 -0.10858959852E+02 -0.74772520495E+02  0.84047558112E+02  0.47000000000E+01 0.  1.
        -11    1    1    2    0    0  0.12838224096E+03 -0.93617570564E+02 -0.87101932501E+02  0.18119877471E+03  0.00000000000E+00 0.  1.
         11    1    1    2    0    0  0.36011332806E+02 -0.17176973267E+02  0.21472841755E+02  0.45309462965E+02  0.00000000000E+00 0. -1.
<mgrwt>
<rscale>  0 0.22984132E+03</rscale>
<asrwt>0</asrwt>
<pdfrwt beam="2">  1        2 0.53752656E-01 0.23436334E+03</pdfrwt>
<pdfrwt beam="1">  1       -2 0.22765383E-01 0.23436334E+03</pdfrwt>
<totfact> 0.15475971E+03</totfact>
</mgrwt>
</event>
<event>
 6    1  0.5818426E-006  0.1358417E+03  0.7546771E-02  0.1240443E+00
          1   -1    0    0  501    0  0.00000000000E+00  0.00000000000E+00  0.11521769340E+03  0.11521769340E+03  0.00000000000E+00 0. -1.
         -1   -1    0    0    0  501 -0.00000000000E+00 -0.00000000000E+00 -0.19626959825E+03  0.19626959825E+03  0.00000000000E+00 0.  1.
          5    1    1    2  502    0 -0.58005145659E+02  0.28588518180E+02 -0.14234623757E+02  0.66382338074E+02  0.47000000000E+01 0. -1.
         -5    1    1    2    0  502  0.11947046754E+02 -0.20183010488E+01 -0.13420282187E+03  0.13483060804E+03  0.47000000000E+01 0. -1.
        -11    1    1    2    0    0 -0.24817080550E+01  0.10851124009E+02 -0.75620146935E+01  0.13456962263E+02  0.00000000000E+00 0.  1.
         11    1    1    2    0    0  0.48539806960E+02 -0.37421341140E+02  0.74947555472E+02  0.96817383272E+02  0.00000000000E+00 0. -1.
<mgrwt>
<rscale>  0 0.12162324E+03</rscale>
<asrwt>0</asrwt>
<pdfrwt beam="1">  1        1 0.17725799E-01 0.13584173E+03</pdfrwt>
<pdfrwt beam="2">  1       -1 0.30195322E-01 0.13584173E+03</pdfrwt>
<totfact> 0.29188234E+03</totfact>
</mgrwt>
</event>
<event>
 6    1  0.5818426E-006  0.1255376E+03  0.7546771E-02  0.1249391E+00
         -2   -1    0    0    0  501 -0.00000000000E+00  0.00000000000E+00  0.31870077089E+02  0.31870077089E+02  0.00000000000E+00 0.  1.
          2   -1    0    0  501    0  0.00000000000E+00 -0.00000000000E+00 -0.48619331204E+03  0.48619331204E+03  0.00000000000E+00 0. -1.
          5    1    1    2  502    0  0.42069666781E+02  0.12748368791E+02 -0.46624445240E+01  0.44454540363E+02  0.47000000000E+01 0.  1.
         -5    1    1    2    0  502 -0.49030029035E+02 -0.21476608390E+02 -0.12481467557E+03  0.13588959376E+03  0.47000000000E+01 0.  1.
        -11    1    1    2    0    0  0.41727714320E+02  0.22360857414E+02 -0.11157280633E+03  0.12120107755E+03  0.00000000000E+00 0.  1.
         11    1    1    2    0    0 -0.34767352066E+02 -0.13632617815E+02 -0.21327330853E+03  0.21651817745E+03  0.00000000000E+00 0. -1.
<mgrwt>
<rscale>  0 0.11626378E+03</rscale>
<asrwt>0</asrwt>
<pdfrwt beam="2">  1        2 0.74798968E-01 0.12553757E+03</pdfrwt>
<pdfrwt beam="1">  1       -2 0.49030890E-02 0.12553757E+03</pdfrwt>
<totfact> 0.12221138E+04</totfact>
</mgrwt>
</event>
<event>
 6    1  0.5818426E-006  0.3539635E+03  0.7546771E-02  0.1061000E+00
          2   -1    0    0  501    0  0.00000000000E+00  0.00000000000E+00  0.57318989185E+02  0.57318989185E+02  0.00000000000E+00 0. -1.
         -2   -1    0    0    0  501 -0.00000000000E+00 -0.00000000000E+00 -0.54646008402E+03  0.54646008402E+03  0.00000000000E+00 0.  1.
          5    1    1    2  502    0  0.56936535792E+02 -0.70568267910E+02 -0.44064238374E+03  0.44989937752E+03  0.47000000000E+01 0. -1.
         -5    1    1    2    0  502  0.76538556601E+01 -0.97484153555E+00  0.70943391704E+01  0.11487013134E+02  0.47000000000E+01 0. -1.
        -11    1    1    2    0    0 -0.26469577320E+01  0.61166003857E+02 -0.44279403811E+01  0.61383166007E+02  0.00000000000E+00 0. -1.
         11    1    1    2    0    0 -0.61943433720E+02  0.10377105588E+02 -0.51165109888E+02  0.81009516548E+02  0.00000000000E+00 0.  1.
<mgrwt>
<rscale>  0 0.35396350E+03</rscale>
<asrwt>0</asrwt>
<pdfrwt beam="1">  1        2 0.88183063E-02 0.35396350E+03</pdfrwt>
<pdfrwt beam="2">  1       -2 0.84070780E-01 0.35396350E+03</pdfrwt>
<totfact> 0.96297090E+02</totfact>
</mgrwt>
</event>
<event>
 6    1  0.5818426E-006  0.3332698E+03  0.7546771E-02  0.1069699E+00
          1   -1    0    0  501    0  0.00000000000E+00  0.00000000000E+00  0.30190265846E+03  0.30190265846E+03  0.00000000000E+00 0. -1.
         -1   -1    0    0    0  501 -0.00000000000E+00 -0.00000000000E+00 -0.91973956280E+02  0.91973956280E+02  0.00000000000E+00 0.  1.
          5    1    1    2  502    0 -0.62184539522E+02  0.70129445540E+02 -0.31060533614E+02  0.98852935392E+02  0.47000000000E+01 0.  1.
         -5    1    1    2    0  502 -0.23799286313E+02 -0.24645545192E+02  0.49819252799E+02  0.60645336805E+02  0.47000000000E+01 0.  1.
        -11    1    1    2    0    0  0.39834982643E+02 -0.38624516795E+02  0.23359068996E+02  0.60202369091E+02  0.00000000000E+00 0.  1.
         11    1    1    2    0    0  0.46148843192E+02 -0.68593835528E+01  0.16781091400E+03  0.17417597345E+03  0.00000000000E+00 0. -1.
<mgrwt>
<rscale>  0 0.33326975E+03</rscale>
<asrwt>0</asrwt>
<pdfrwt beam="1">  1        1 0.46446562E-01 0.33326975E+03</pdfrwt>
<pdfrwt beam="2">  1       -1 0.14149840E-01 0.33326975E+03</pdfrwt>
<totfact> 0.30716224E+03</totfact>
</mgrwt>
</event>
<event>
 6    1  0.5818426E-006  0.3168577E+03  0.7546771E-02  0.1077105E+00
         -2   -1    0    0    0  501 -0.00000000000E+00  0.00000000000E+00  0.47429642024E+02  0.47429642024E+02  0.00000000000E+00 0.  1.
          2   -1    0    0  501    0  0.00000000000E+00 -0.00000000000E+00 -0.52919849481E+03  0.52919849481E+03  0.00000000000E+00 0. -1.
          5    1    1    2  502    0  0.95314751825E+02  0.74497771986E+02 -0.11045648512E+03  0.16388271737E+03  0.47000000000E+01 0. -1.
         -5    1    1    2    0  502 -0.38409914785E+02  0.10803640935E+02 -0.46483784565E+02  0.61439990549E+02  0.47000000000E+01 0. -1.
        -11    1    1    2    0    0 -0.23712646374E+02 -0.50468239652E+02 -0.59090950211E+02  0.81246988919E+02  0.00000000000E+00 0.  1.
         11    1    1    2    0    0 -0.33192190666E+02 -0.34833173269E+02 -0.26573763288E+03  0.27005843999E+03  0.00000000000E+00 0. -1.
<mgrwt>
<rscale>  0 0.31685767E+03</rscale>
<asrwt>0</asrwt>
<pdfrwt beam="2">  1        2 0.81415152E-01 0.31685767E+03</pdfrwt>
<pdfrwt beam="1">  1       -2 0.72968681E-02 0.31685767E+03</pdfrwt>
<totfact> 0.63793027E+03</totfact>
</mgrwt>
</event>
<event>
 6    1  0.5818426E-006  0.1442152E+03  0.7546771E-02  0.1218352E+00
         -1   -1    0    0    0  501 -0.00000000000E+00  0.00000000000E+00  0.38435347257E+02  0.38435347257E+02  0.00000000000E+00 0.  1.
          1   -1    0    0  501    0  0.00000000000E+00 -0.00000000000E+00 -0.48029248416E+03  0.48029248416E+03  0.00000000000E+00 0. -1.
          5    1    1    2  502    0  0.74520632148E+02 -0.33901144481E+02 -0.54326678558E+02  0.98367119588E+02  0.47000000000E+01 0. -1.
         -5    1    1    2    0  502 -0.38581687228E+01  0.47293562710E+02 -0.11228763815E+03  0.12199250068E+03  0.47000000000E+01 0. -1.
        -11    1    1    2    0    0 -0.54100792199E+02 -0.18153703366E+02 -0.27528315101E+03  0.28113567168E+03  0.00000000000E+00 0. -1.
         11    1    1    2    0    0 -0.16561671226E+02  0.47612851372E+01  0.40330817319E-01  0.17232539468E+02  0.00000000000E+00 0.  1.
<mgrwt>
<rscale>  0 0.13633164E+03</rscale>
<asrwt>0</asrwt>
<pdfrwt beam="2">  1        1 0.73891150E-01 0.14421523E+03</pdfrwt>
<pdfrwt beam="1">  1       -1 0.59131305E-02 0.14421523E+03</pdfrwt>
<totfact> 0.62687177E+03</totfact>
</mgrwt>
</event>
<event>
 6    1  0.5818426E-006  0.3234444E+03  0.7546771E-02  0.1074075E+00
         -2   -1    0    0    0  501 -0.00000000000E+00  0.00000000000E+00  0.37913102673E+02  0.37913102673E+02  0.00000000000E+00 0.  1.
          2   -1    0    0  501    0  0.00000000000E+00 -0.00000000000E+00 -0.68984250537E+03  0.68984250537E+03  0.00000000000E+00 0. -1.
          5    1    1    2  502    0  0.24996816318E+02 -0.63585907990E+01 -0.19226663145E+03  0.19404592259E+03  0.47000000000E+01 0.  1.
         -5    1    1    2    0  502  0.25360332150E+01  0.12146770512E+03 -0.19564966674E+03  0.23035129030E+03  0.47000000000E+01 0.  1.
        -11    1    1    2    0    0 -0.31521787416E+02 -0.72588599790E+02 -0.24339003800E+03  0.25593248816E+03  0.00000000000E+00 0. -1.
         11    1    1    2    0    0  0.39889378825E+01 -0.42520514528E+02 -0.20623066510E+02  0.47425906986E+02  0.00000000000E+00 0.  1.
<mgrwt>
<rscale>  0 0.32344440E+03</rscale>
<asrwt>0</asrwt>
<pdfrwt beam="2">  1        2 0.10612961E+00 0.32344440E+03</pdfrwt>
<pdfrwt beam="1">  1       -2 0.58327852E-02 0.32344440E+03</pdfrwt>
<totfact> 0.66160991E+03</totfact>
</mgrwt>
</event>
<event>
 6    1  0.5818426E-006  0.1129844E+03  0.7546771E-02  0.1264175E+00
         -1   -1    0    0    0  501 -0.00000000000E+00  0.00000000000E+00  0.66883868536E+02  0.66883868536E+02  0.00000000000E+00 0.  1.
          1   -1    0    0  501    0  0.00000000000E+00 -0.00000000000E+00 -0.16126477351E+03  0.16126477351E+03  0.00000000000E+00 0. -1.
          5    1    1    2  502    0 -0.24598344013E+02 -0.49450592333E+02 -0.57812434216E+02  0.80092491285E+02  0.47000000000E+01 0. -1.
         -5    1    1    2    0  502  0.11569749070E+02  0.43962151548E+02  0.23681717397E+01  0.45762737021E+02  0.47000000000E+01 0.  1.
        -11    1    1    2    0    0  0.26248933040E+02  0.98337415732E+01  0.24573275988E+02  0.37276733385E+02  0.00000000000E+00 0.  1.
         11    1    1    2    0    0 -0.13220338097E+02 -0.43453007879E+01 -0.63509918484E+02  0.65016680354E+02  0.00000000000E+00 0. -1.
<mgrwt>
<rscale>  0 0.10807590E+03</rscale>
<asrwt>0</asrwt>
<pdfrwt beam="2">  1        1 0.24809965E-01 0.11298439E+03</pdfrwt>
<pdfrwt beam="1">  1       -1 0.10289826E-01 0.11298439E+03</pdfrwt>
<totfact> 0.10430317E+04</totfact>
</mgrwt>
</event>
<event>
 6    1  0.5818426E-006  0.1988647E+03  0.7546771E-02  0.1154743E+00
         -2   -1    0    0    0  501 -0.00000000000E+00  0.00000000000E+00  0.74344750859E+03  0.74344750859E+03  0.00000000000E+00 0.  1.
          2   -1    0    0  501    0  0.00000000000E+00 -0.00000000000E+00 -0.51616723151E+02  0.51616723151E+02  0.00000000000E+00 0. -1.
          5    1    1    2  502    0  0.55853735100E+02  0.83835425270E+02  0.37044302881E+03  0.38392466169E+03  0.47000000000E+01 0.  1.
         -5    1    1    2    0  502  0.75335908856E+02 -0.19216566315E+01  0.89029080225E+02  0.11673670825E+03  0.47000000000E+01 0.  1.
        -11    1    1    2    0    0 -0.24161593498E+02 -0.23210821008E+02  0.18355560943E+01  0.33554345150E+02  0.00000000000E+00 0. -1.
         11    1    1    2    0    0 -0.10702805046E+03 -0.58702947631E+02  0.23052312030E+03  0.26084851665E+03  0.00000000000E+00 0.  1.
<mgrwt>
<rscale>  0 0.19418145E+03</rscale>
<asrwt>0</asrwt>
<pdfrwt beam="2">  1        2 0.79410348E-02 0.19886475E+03</pdfrwt>
<pdfrwt beam="1">  1       -2 0.11437653E+00 0.19886475E+03</pdfrwt>
<totfact> 0.53173238E+02</totfact>
</mgrwt>
</event>
<event>
 6    1  0.5818426E-006  0.1281591E+03  0.7546771E-02  0.1243865E+00
         -2   -1    0    0    0  501 -0.00000000000E+00  0.00000000000E+00  0.66301812688E+02  0.66301812688E+02  0.00000000000E+00 0.  1.
          2   -1    0    0  501    0  0.00000000000E+00 -0.00000000000E+00 -0.20397519955E+03  0.20397519955E+03  0.00000000000E+00 0. -1.
          5    1    1    2  502    0 -0.70739913827E+02  0.16151619340E+02 -0.33321174461E+02  0.79983753869E+02  0.47000000000E+01 0.  1.
         -5    1    1    2    0  502  0.53895004165E+02  0.66406274692E+01 -0.10859019546E+02  0.55576773140E+02  0.47000000000E+01 0.  1.
        -11    1    1    2    0    0 -0.66504160244E+01  0.31301241995E+02 -0.56985438703E+02  0.65355458899E+02  0.00000000000E+00 0. -1.
         11    1    1    2    0    0  0.23495325686E+02 -0.54093488804E+02 -0.36507754150E+02  0.69361026327E+02  0.00000000000E+00 0.  1.
<mgrwt>
<rscale>  0 0.11953547E+03</rscale>
<asrwt>0</asrwt>
<pdfrwt beam="2">  1        2 0.31380800E-01 0.12815915E+03</pdfrwt>
<pdfrwt beam="1">  1       -2 0.10200279E-01 0.12815915E+03</pdfrwt>
<totfact> 0.10067284E+04</totfact>
</mgrwt>
</event>
<event>
 6    1  0.5818426E-006  0.2394234E+03  0.7546771E-02  0.1120178E+00
         -2   -1    0    0    0  501 -0.00000000000E+00  0.00000000000E+00  0.48757569438E+03  0.48757569438E+03  0.00000000000E+00 0.  1.
          2   -1    0    0  501    0  0.00000000000E+00 -0.00000000000E+00 -0.29392134254E+02  0.29392134254E+02  0.00000000000E+00 0. -1.
          5    1    1    2  502    0  0.21359867607E+02 -0.34286835644E+01  0.27353919872E+03  0.27443356765E+03  0.47000000000E+01 0.  1.
         -5    1    1    2    0  502 -0.57725139233E+02  0.89856819001E+01  0.61039544698E+02  0.84621806856E+02  0.47000000000E+01 0.  1.
        -11    1    1    2    0    0  0.13433815497E+02  0.42411807582E+02  0.65194387529E+02  0.78927415937E+02  0.00000000000E+00 0.  1.
         11    1    1    2    0    0  0.22931456129E+02 -0.47968805918E+02  0.58410429173E+02  0.78985038188E+02  0.00000000000E+00 0. -1.
<mgrwt>
<rscale>  0 0.23942339E+03</rscale>
<asrwt>0</asrwt>
<pdfrwt beam="2">  1        2 0.45218672E-02 0.23942339E+03</pdfrwt>
<pdfrwt beam="1">  1       -2 0.75011639E-01 0.23942339E+03</pdfrwt>
<totfact> 0.29228124E+03</totfact>
</mgrwt>
</event>
<event>
 6    1  0.5818426E-006  0.1409932E+03  0.7546771E-02  0.1223709E+00
          2   -1    0    0  501    0  0.00000000000E+00  0.00000000000E+00  0.10294680633E+04  0.10294680633E+04  0.00000000000E+00 0. -1.
         -2   -1    0    0    0  501 -0.00000000000E+00 -0.00000000000E+00 -0.15388938246E+02  0.15388938246E+02  0.00000000000E+00 0.  1.
          5    1    1    2  502    0 -0.51819635583E+02 -0.54176071762E+02  0.18807777548E+03  0.20252323573E+03  0.47000000000E+01 0. -1.
         -5    1    1    2    0  502 -0.13264148524E+02  0.49863674039E+02  0.34573213824E+03  0.34959279889E+03  0.47000000000E+01 0. -1.
        -11    1    1    2    0    0  0.35524202931E+02  0.44156156240E+02  0.19033915094E+03  0.19859689703E+03  0.00000000000E+00 0.  1.
         11    1    1    2    0    0  0.29559581176E+02 -0.39843758517E+02  0.28993006036E+03  0.29414406985E+03  0.00000000000E+00 0. -1.
<mgrwt>
<rscale>  0 0.13255751E+03</rscale>
<asrwt>0</asrwt>
<pdfrwt beam="1">  1        2 0.15837965E+00 0.14099323E+03</pdfrwt>
<pdfrwt beam="2">  1       -2 0.23675298E-02 0.14099323E+03</pdfrwt>
<totfact> 0.14588189E+04</totfact>
</mgrwt>
</event>
<event>
 6    1  0.5818426E-006  0.2811917E+03  0.7546771E-02  0.1095040E+00
          3   -1    0    0  501    0  0.00000000000E+00  0.00000000000E+00  0.90351849588E+02  0.90351849588E+02  0.00000000000E+00 0. -1.
         -3   -1    0    0    0  501 -0.00000000000E+00 -0.00000000000E+00 -0.21878009728E+03  0.21878009728E+03  0.00000000000E+00 0.  1.
          5    1    1    2  502    0 -0.58412495416E+01  0.30924066278E+02 -0.31232718656E+02  0.44586890294E+02  0.47000000000E+01 0.  1.
         -5    1    1    2    0  502 -0.15016970931E+02 -0.11653438581E+03 -0.40899402717E+02  0.12450150053E+03  0.47000000000E+01 0.  1.
        -11    1    1    2    0    0 -0.27126217983E+02  0.43937096752E+02 -0.56429309574E+02  0.76489000203E+02  0.00000000000E+00 0.  1.
         11    1    1    2    0    0  0.47984438455E+02  0.41673222778E+02  0.13318325463E+00  0.63554555842E+02  0.00000000000E+00 0. -1.
<mgrwt>
<rscale>  0 0.28119165E+03</rscale>
<asrwt>0</asrwt>
<pdfrwt beam="1">  1        3 0.13900285E-01 0.28119165E+03</pdfrwt>
<pdfrwt beam="2">  1       -3 0.33658477E-01 0.28119165E+03</pdfrwt>
<totfact> 0.93249692E+02</totfact>
</mgrwt>
</event>
<event>
 6    1  0.5818426E-006  0.3165475E+03  0.7546771E-02  0.1077249E+00
         -2   -1    0    0    0  501 -0.00000000000E+00  0.00000000000E+00  0.49131989274E+03  0.49131989274E+03  0.00000000000E+00 0.  1.
          2   -1    0    0  501    0  0.00000000000E+00 -0.00000000000E+00 -0.50986300504E+02  0.50986300504E+02  0.00000000000E+00 0. -1.
          5    1    1    2  502    0 -0.72672687023E+02  0.98085826579E+02  0.23029031708E+03  0.26068730110E+03  0.47000000000E+01 0. -1.
         -5    1    1    2    0  502  0.12651957561E+02 -0.11866828143E+00 -0.10457024089E+02  0.17074116817E+02  0.47000000000E+01 0. -1.
        -11    1    1    2    0    0  0.39098352518E+02 -0.59671353214E+02  0.46501357944E+02  0.85157077537E+02  0.00000000000E+00 0.  1.
         11    1    1    2    0    0  0.20922376943E+02 -0.38295805084E+02  0.17399894130E+03  0.17938769779E+03  0.00000000000E+00 0. -1.
<mgrwt>
<rscale>  0 0.31654752E+03</rscale>
<asrwt>0</asrwt>
<pdfrwt beam="2">  1        2 0.78440466E-02 0.31654752E+03</pdfrwt>
<pdfrwt beam="1">  1       -2 0.75587673E-01 0.31654752E+03</pdfrwt>
<totfact> 0.14122275E+03</totfact>
</mgrwt>
</event>
<event>
 6    1  0.5818426E-006  0.3514379E+03  0.7546771E-02  0.1062026E+00
          2   -1    0    0  501    0  0.00000000000E+00  0.00000000000E+00  0.33596722461E+03  0.33596722461E+03  0.00000000000E+00 0. -1.
         -2   -1    0    0    0  501 -0.00000000000E+00 -0.00000000000E+00 -0.91905234686E+02  0.91905234686E+02  0.00000000000E+00 0.  1.
          5    1    1    2  502    0  0.59311238708E+02 -0.87284787035E+02  0.14949975249E+03  0.18305388026E+03  0.47000000000E+01 0.  1.
         -5    1    1    2    0  502  0.19511883379E+02 -0.26379067985E+02 -0.24671382857E+02  0.41319921985E+02  0.47000000000E+01 0.  1.
        -11    1    1    2    0    0 -0.68718562488E+02  0.55973203346E+02  0.11442128131E+03  0.14473240805E+03  0.00000000000E+00 0. -1.
         11    1    1    2    0    0 -0.10104559599E+02  0.57690651674E+02  0.48123389835E+01  0.58766249001E+02  0.00000000000E+00 0.  1.
<mgrwt>
<rscale>  0 0.35143788E+03</rscale>
<asrwt>0</asrwt>
<pdfrwt beam="1">  1        2 0.51687265E-01 0.35143788E+03</pdfrwt>
<pdfrwt beam="2">  1       -2 0.14139267E-01 0.35143788E+03</pdfrwt>
<totfact> 0.36627000E+03</totfact>
</mgrwt>
</event>
<event>
 6    1  0.5818426E-006  0.1517797E+03  0.7546771E-02  0.1207539E+00
          2   -1    0    0  501    0  0.00000000000E+00  0.00000000000E+00  0.12821596849E+03  0.12821596849E+03  0.00000000000E+00 0. -1.
         -2   -1    0    0    0  501 -0.00000000000E+00 -0.00000000000E+00 -0.15033750670E+03  0.15033750670E+03  0.00000000000E+00 0.  1.
          5    1    1    2  502    0  0.89299479719E+02 -0.19067185198E+02  0.11132991480E+01  0.91440057221E+02  0.47000000000E+01 0.  1.
         -5    1    1    2    0  502 -0.35775585118E+02 -0.48366889029E+02  0.14951371881E+01  0.60362023493E+02  0.47000000000E+01 0.  1.
        -11    1    1    2    0    0 -0.40516496636E+02  0.32207865801E+02 -0.57176788171E+02  0.77124044400E+02  0.00000000000E+00 0.  1.
         11    1    1    2    0    0 -0.13007397965E+02  0.35226208426E+02  0.32446813624E+02  0.49627350083E+02  0.00000000000E+00 0. -1.
<mgrwt>
<rscale>  0 0.14439147E+03</rscale>
<asrwt>0</asrwt>
<pdfrwt beam="1">  1        2 0.19725534E-01 0.15177967E+03</pdfrwt>
<pdfrwt beam="2">  1       -2 0.23128847E-01 0.15177967E+03</pdfrwt>
<totfact> 0.44317896E+03</totfact>
</mgrwt>
</event>
<event>
 6    1  0.5818426E-006  0.1496626E+03  0.7546771E-02  0.1210407E+00
          2   -1    0    0  501    0  0.00000000000E+00  0.00000000000E+00  0.82806519821E+03  0.82806519821E+03  0.00000000000E+00 0. -1.
         -2   -1    0    0    0  501 -0.00000000000E+00 -0.00000000000E+00 -0.22951524100E+02  0.22951524100E+02  0.00000000000E+00 0.  1.
          5    1    1    2  502    0 -0.27938418218E+02 -0.34774750283E+02  0.21451449233E+03  0.21915381788E+03  0.47000000000E+01 0.  1.
         -5    1    1    2    0  502  0.87821315089E+02 -0.21669372201E+02  0.15509833287E+03  0.17960993272E+03  0.47000000000E+01 0.  1.
        -11    1    1    2    0    0 -0.76522763462E+02  0.19616402581E+02  0.24165562840E+03  0.25424000337E+03  0.00000000000E+00 0.  1.
         11    1    1    2    0    0  0.16639866591E+02  0.36827719903E+02  0.19384522051E+03  0.19801296833E+03  0.00000000000E+00 0. -1.
<mgrwt>
<rscale>  0 0.14219366E+03</rscale>
<asrwt>0</asrwt>
<pdfrwt beam="1">  1        2 0.12739462E+00 0.14966258E+03</pdfrwt>
<pdfrwt beam="2">  1       -2 0.35310044E-02 0.14966258E+03</pdfrwt>
<totfact> 0.10860966E+04</totfact>
</mgrwt>
</event>
<event>
 6    1  0.5818426E-006  0.3393572E+03  0.7546771E-02  0.1068230E+00
         -2   -1    0    0    0  501 -0.00000000000E+00  0.00000000000E+00  0.15588036296E+03  0.15588036296E+03  0.00000000000E+00 0. -1.
          2   -1    0    0  501    0  0.00000000000E+00 -0.00000000000E+00 -0.86995198702E+03  0.86995198702E+03  0.00000000000E+00 0.  1.
          5    1    1    2  502    0  0.18851965523E+03 -0.65565982941E+00 -0.12771110560E+03  0.22775492704E+03  0.47000000000E+01 0. -1.
         -5    1    1    2    0  502  0.11775642635E+03  0.76373255398E+02 -0.18075649012E+02  0.14159191069E+03  0.47000000000E+01 0. -1.
        -11    1    1    2    0    0 -0.17536846020E+03 -0.81647854452E+02 -0.28612709041E+03  0.34538265856E+03  0.00000000000E+00 0. -1.
         11    1    1    2    0    0 -0.13090762137E+03  0.59302588834E+01 -0.28215777904E+03  0.31110285370E+03  0.00000000000E+00 0.  1.
<mgrwt>
<rscale>  0 0.33665386E+03</rscale>
<asrwt>0</asrwt>
<pdfrwt beam="2">  1        2 0.13383877E+00 0.33935720E+03</pdfrwt>
<pdfrwt beam="1">  1       -2 0.23981594E-01 0.33935720E+03</pdfrwt>
<totfact> 0.48694406E+02</totfact>
</mgrwt>
</event>
<event>
 6    1  0.5818426E-006  0.1329988E+03  0.7546771E-02  0.1232035E+00
         -2   -1    0    0    0  501 -0.00000000000E+00  0.00000000000E+00  0.26847465077E+02  0.26847465077E+02  0.00000000000E+00 0.  1.
          2   -1    0    0  501    0  0.00000000000E+00 -0.00000000000E+00 -0.55616887534E+03  0.55616887534E+03  0.00000000000E+00 0. -1.
          5    1    1    2  502    0 -0.18891205086E+02 -0.32337801847E+02 -0.20590487936E+02  0.42996153913E+02  0.47000000000E+01 0.  1.
         -5    1    1    2    0  502 -0.24572069594E+02  0.45552381150E+02 -0.29392195097E+03  0.29848117075E+03  0.47000000000E+01 0.  1.
        -11    1    1    2    0    0  0.18387559161E+01 -0.48513642556E+02 -0.58759489873E+02  0.76220943234E+02  0.00000000000E+00 0. -1.
         11    1    1    2    0    0  0.41624518764E+02  0.35299063253E+02 -0.15604948149E+03  0.16531807252E+03  0.00000000000E+00 0.  1.
<mgrwt>
<rscale>  0 0.12696173E+03</rscale>
<asrwt>0</asrwt>
<pdfrwt beam="2">  1        2 0.85564440E-01 0.13299883E+03</pdfrwt>
<pdfrwt beam="1">  1       -2 0.41303793E-02 0.13299883E+03</pdfrwt>
<totfact> 0.13668999E+04</totfact>
</mgrwt>
</event>
<event>
 6    1  0.5818426E-006  0.1293550E+03  0.7546771E-02  0.1251056E+00
          1   -1    0    0  501    0  0.00000000000E+00  0.00000000000E+00  0.23002207368E+03  0.23002207368E+03  0.00000000000E+00 0. -1.
         -1   -1    0    0    0  501 -0.00000000000E+00 -0.00000000000E+00 -0.49611442186E+02  0.49611442186E+02  0.00000000000E+00 0.  1.
          5    1    1    2  502    0  0.13466041687E+02  0.52010829314E+02 -0.51983382978E+01  0.54180931753E+02  0.47000000000E+01 0. -1.
         -5    1    1    2    0  502 -0.32813840049E+02 -0.24935798021E+02  0.93932124479E+02  0.10268337806E+03  0.47000000000E+01 0. -1.
        -11    1    1    2    0    0  0.70789786781E+00 -0.51079929777E+02  0.61354703676E+02  0.79837710442E+02  0.00000000000E+00 0.  1.
         11    1    1    2    0    0  0.18639900494E+02  0.24004898484E+02  0.30322141640E+02  0.42931495610E+02  0.00000000000E+00 0. -1.
<mgrwt>
<rscale>  0 0.11530124E+03</rscale>
<asrwt>0</asrwt>
<pdfrwt beam="1">  1        1 0.35388011E-01 0.12935504E+03</pdfrwt>
<pdfrwt beam="2">  1       -1 0.76325297E-02 0.12935504E+03</pdfrwt>
<totfact> 0.10664578E+04</totfact>
</mgrwt>
</event>
<event>
 6    1  0.5818426E-006  0.1257521E+03  0.7546771E-02  0.1250544E+00
          3   -1    0    0  501    0  0.00000000000E+00  0.00000000000E+00  0.35169565111E+02  0.35169565111E+02  0.00000000000E+00 0. -1.
         -3   -1    0    0    0  501 -0.00000000000E+00 -0.00000000000E+00 -0.37486021103E+03  0.37486021103E+03  0.00000000000E+00 0.  1.
          5    1    1    2  502    0  0.20106399412E+02 -0.52570925577E+02 -0.17740219267E+03  0.18617625380E+03  0.47000000000E+01 0. -1.
         -5    1    1    2    0  502 -0.91654613453E+01  0.60785438987E+02 -0.87263704537E+02  0.10684530595E+03  0.47000000000E+01 0. -1.
        -11    1    1    2    0    0 -0.28119360911E+02 -0.22175691535E+02 -0.85367696266E+02  0.92574852519E+02  0.00000000000E+00 0.  1.
         11    1    1    2    0    0  0.17178422844E+02  0.13961178125E+02  0.10342947555E+02  0.24433363873E+02  0.00000000000E+00 0. -1.
<mgrwt>
<rscale>  0 0.11559612E+03</rscale>
<asrwt>0</asrwt>
<pdfrwt beam="1">  1        3 0.54107022E-02 0.12575213E+03</pdfrwt>
<pdfrwt beam="2">  1       -3 0.57670803E-01 0.12575213E+03</pdfrwt>
<totfact> 0.13635970E+03</totfact>
</mgrwt>
</event>
<event>
 6    1  0.5818426E-006  0.1429170E+03  0.7546771E-02  0.1219854E+00
         -2   -1    0    0    0  501 -0.00000000000E+00  0.00000000000E+00  0.50078123993E+02  0.50078123993E+02  0.00000000000E+00 0.  1.
          2   -1    0    0  501    0  0.00000000000E+00 -0.00000000000E+00 -0.37230998679E+03  0.37230998679E+03  0.00000000000E+00 0. -1.
          5    1    1    2  502    0  0.67267928059E+01  0.99333845002E+02 -0.84259248775E+02  0.13051503173E+03  0.47000000000E+01 0. -1.
         -5    1    1    2    0  502  0.21581213438E+02 -0.36075418886E+02 -0.22792640420E+02  0.48049756280E+02  0.47000000000E+01 0. -1.
        -11    1    1    2    0    0  0.32560725446E+02 -0.11101238575E+02 -0.69418838028E+02  0.77475243870E+02  0.00000000000E+00 0. -1.
         11    1    1    2    0    0 -0.60868731690E+02 -0.52157187542E+02 -0.14576113558E+03  0.16634807890E+03  0.00000000000E+00 0.  1.
<mgrwt>
<rscale>  0 0.13525955E+03</rscale>
<asrwt>0</asrwt>
<pdfrwt beam="2">  1        2 0.57278459E-01 0.14291703E+03</pdfrwt>
<pdfrwt beam="1">  1       -2 0.77043268E-02 0.14291703E+03</pdfrwt>
<totfact> 0.82750334E+03</totfact>
</mgrwt>
</event>
<event>
 6    1  0.6024763E-006  0.3853259E+03  0.7546771E-02  0.1050095E+00
          2   -1    0    0  501    0  0.00000000000E+00  0.00000000000E+00  0.10392061708E+04  0.10392061708E+04  0.00000000000E+00 0. -1.
         -2   -1    0    0    0  501 -0.00000000000E+00 -0.00000000000E+00 -0.13960986833E+03  0.13960986833E+03  0.00000000000E+00 0.  1.
          5    1    1    2  502    0 -0.29994734125E+03 -0.50129495727E+02  0.25823254271E+03  0.39898309485E+03  0.47000000000E+01 0.  1.
         -5    1    1    2    0  502 -0.62840110717E+02  0.14973745452E+02  0.14472139859E+03  0.15855429914E+03  0.47000000000E+01 0.  1.
        -11    1    1    2    0    0  0.19831923946E+03  0.60386042120E+01  0.20566562061E+03  0.28577146985E+03  0.00000000000E+00 0.  1.
         11    1    1    2    0    0  0.16446821251E+03  0.29117146063E+02  0.29097674056E+03  0.33550717528E+03  0.00000000000E+00 0. -1.
<mgrwt>
<rscale>  0 0.38227696E+03</rscale>
<asrwt>0</asrwt>
<pdfrwt beam="1">  1        2 0.15987787E+00 0.38532592E+03</pdfrwt>
<pdfrwt beam="2">  1       -2 0.21478442E-01 0.38532592E+03</pdfrwt>
<totfact> 0.45954253E+02</totfact>
</mgrwt>
</event>
<event>
 6    1  0.5818426E-006  0.1402938E+03  0.7546771E-02  0.1224615E+00
         -1   -1    0    0    0  501 -0.00000000000E+00  0.00000000000E+00  0.57950318668E+03  0.57950318668E+03  0.00000000000E+00 0.  1.
          1   -1    0    0  501    0  0.00000000000E+00 -0.00000000000E+00 -0.32093166355E+02  0.32093166355E+02  0.00000000000E+00 0. -1.
          5    1    1    2  502    0 -0.91747182616E+01 -0.32904558303E+02  0.41913182209E+02  0.54274213538E+02  0.47000000000E+01 0.  1.
         -5    1    1    2    0  502 -0.28217135014E+02  0.84444145676E+02  0.38136082925E+03  0.39164421678E+03  0.47000000000E+01 0.  1.
        -11    1    1    2    0    0  0.18590063347E+00 -0.59216414505E+02  0.11040444541E+03  0.12528271976E+03  0.00000000000E+00 0.  1.
         11    1    1    2    0    0  0.37205952642E+02  0.76768271311E+01  0.13731563454E+02  0.40395202954E+02  0.00000000000E+00 0. -1.
<mgrwt>
<rscale>  0 0.13193337E+03</rscale>
<asrwt>0</asrwt>
<pdfrwt beam="2">  1        1 0.49374106E-02 0.14029383E+03</pdfrwt>
<pdfrwt beam="1">  1       -1 0.89154329E-01 0.14029383E+03</pdfrwt>
<totfact> 0.21340072E+03</totfact>
</mgrwt>
</event>
<event>
 6    1  0.5818426E-006  0.1421121E+03  0.7546771E-02  0.1221390E+00
          2   -1    0    0  501    0  0.00000000000E+00  0.00000000000E+00  0.85010124677E+02  0.85010124677E+02  0.00000000000E+00 0. -1.
         -2   -1    0    0    0  501 -0.00000000000E+00 -0.00000000000E+00 -0.24904788973E+03  0.24904788973E+03  0.00000000000E+00 0.  1.
          5    1    1    2  502    0  0.48794197479E+02  0.47452718871E+01 -0.30407143297E+02  0.57879838255E+02  0.47000000000E+01 0. -1.
         -5    1    1    2    0  502 -0.45654581757E+02 -0.72278956017E+02 -0.13885963250E+03  0.16313392001E+03  0.47000000000E+01 0. -1.
        -11    1    1    2    0    0 -0.15486892016E+02 -0.12505018327E+02 -0.20002638950E+02  0.28219228775E+02  0.00000000000E+00 0.  1.
         11    1    1    2    0    0  0.12347276295E+02  0.80038702457E+02  0.25231649693E+02  0.84825027374E+02  0.00000000000E+00 0. -1.
<mgrwt>
<rscale>  0 0.13417422E+03</rscale>
<asrwt>0</asrwt>
<pdfrwt beam="1">  1        2 0.13078481E-01 0.14211207E+03</pdfrwt>
<pdfrwt beam="2">  1       -2 0.38315059E-01 0.14211207E+03</pdfrwt>
<totfact> 0.28701993E+03</totfact>
</mgrwt>
</event>
<event>
 6    1  0.5818426E-006  0.3840222E+03  0.7546771E-02  0.1049457E+00
          1   -1    0    0  501    0  0.00000000000E+00  0.00000000000E+00  0.41962980122E+02  0.41962980122E+02  0.00000000000E+00 0. -1.
         -1   -1    0    0    0  501 -0.00000000000E+00 -0.00000000000E+00 -0.87859010881E+03  0.87859010881E+03  0.00000000000E+00 0.  1.
          5    1    1    2  502    0  0.37232365789E+02  0.29574333424E+02 -0.68836266423E+02  0.83793865138E+02  0.47000000000E+01 0. -1.
         -5    1    1    2    0  502  0.10001479325E+03 -0.97795682594E+02 -0.45958365011E+03  0.48042291354E+03  0.47000000000E+01 0. -1.
        -11    1    1    2    0    0 -0.97696215528E+02  0.16233196170E+02 -0.24977679006E+03  0.26869408635E+03  0.00000000000E+00 0.  1.
         11    1    1    2    0    0 -0.39550943514E+02  0.51988153001E+02 -0.58430422097E+02  0.87642223909E+02  0.00000000000E+00 0. -1.
<mgrwt>
<rscale>  0 0.38402218E+03</rscale>
<asrwt>0</asrwt>
<pdfrwt beam="1">  1        1 0.64558432E-02 0.38402218E+03</pdfrwt>
<pdfrwt beam="2">  1       -1 0.13516771E+00 0.38402218E+03</pdfrwt>
<totfact> 0.57743740E+02</totfact>
</mgrwt>
</event>
<event>
 6    1  0.5818426E-006  0.2554764E+03  0.7546771E-02  0.1111979E+00
         -1   -1    0    0    0  501 -0.00000000000E+00  0.00000000000E+00  0.41416275764E+03  0.41416275764E+03  0.00000000000E+00 0.  1.
          1   -1    0    0  501    0  0.00000000000E+00 -0.00000000000E+00 -0.15000020068E+03  0.15000020068E+03  0.00000000000E+00 0. -1.
          5    1    1    2  502    0 -0.94725227772E+02 -0.46042397535E+02  0.22461966430E+02  0.10779332578E+03  0.47000000000E+01 0.  1.
         -5    1    1    2    0  502 -0.37574315067E+02 -0.13323775067E+03  0.12856682139E+03  0.18898583259E+03  0.47000000000E+01 0.  1.
        -11    1    1    2    0    0  0.21029396343E+02  0.72032666656E+02  0.79311533551E+02  0.10918452239E+03  0.00000000000E+00 0.  1.
         11    1    1    2    0    0  0.11127014650E+03  0.10724748155E+03  0.33822235578E+02  0.15819927756E+03  0.00000000000E+00 0. -1.
<mgrwt>
<rscale>  0 0.25210882E+03</rscale>
<asrwt>0</asrwt>
<pdfrwt beam="2">  1        1 0.23076954E-01 0.25547637E+03</pdfrwt>
<pdfrwt beam="1">  1       -1 0.63717347E-01 0.25547637E+03</pdfrwt>
<totfact> 0.54978176E+02</totfact>
</mgrwt>
</event>
<event>
 6    1  0.5818426E-006  0.2768561E+03  0.7546771E-02  0.1097419E+00
          1   -1    0    0  501    0  0.00000000000E+00  0.00000000000E+00  0.28447763262E+03  0.28447763262E+03  0.00000000000E+00 0. -1.
         -1   -1    0    0    0  501 -0.00000000000E+00 -0.00000000000E+00 -0.67359702030E+02  0.67359702030E+02  0.00000000000E+00 0.  1.
          5    1    1    2  502    0 -0.24170823880E+02 -0.32660875564E+02 -0.38890048591E+02  0.56440122246E+02  0.47000000000E+01 0. -1.
         -5    1    1    2    0  502  0.12320515003E+01  0.10795046307E+02  0.77190650992E+02  0.78093133990E+02  0.47000000000E+01 0. -1.
        -11    1    1    2    0    0 -0.29492659146E+02  0.53894625792E+02  0.10006539023E+03  0.11742031321E+03  0.00000000000E+00 0. -1.
         11    1    1    2    0    0  0.52431431526E+02 -0.32028796535E+02  0.78751937965E+02  0.99883765210E+02  0.00000000000E+00 0.  1.
<mgrwt>
<rscale>  0 0.27685613E+03</rscale>
<asrwt>0</asrwt>
<pdfrwt beam="1">  1        1 0.43765789E-01 0.27685613E+03</pdfrwt>
<pdfrwt beam="2">  1       -1 0.10363031E-01 0.27685613E+03</pdfrwt>
<totfact> 0.53705301E+03</totfact>
</mgrwt>
</event>
<event>
 6    1  0.5818426E-006  0.3229316E+03  0.7546771E-02  0.1074308E+00
         -1   -1    0    0    0  501 -0.00000000000E+00  0.00000000000E+00  0.16435258631E+03  0.16435258631E+03  0.00000000000E+00 0.  1.
          1   -1    0    0  501    0  0.00000000000E+00 -0.00000000000E+00 -0.15862974708E+03  0.15862974708E+03  0.00000000000E+00 0. -1.
          5    1    1    2  502    0 -0.30993283587E+02  0.18291240709E+02  0.98913995317E+02  0.10536233475E+03  0.47000000000E+01 0. -1.
         -5    1    1    2    0  502  0.18754399296E+02  0.42327295640E+02 -0.24630670674E+02  0.52650616207E+02  0.47000000000E+01 0. -1.
        -11    1    1    2    0    0 -0.52719398269E+02 -0.35655496363E+02 -0.70983009247E+02  0.95337489879E+02  0.00000000000E+00 0. -1.
         11    1    1    2    0    0  0.64958282560E+02 -0.24963039986E+02  0.24225238360E+01  0.69631892551E+02  0.00000000000E+00 0.  1.
<mgrwt>
<rscale>  0 0.32293163E+03</rscale>
<asrwt>0</asrwt>
<pdfrwt beam="2">  1        1 0.24404576E-01 0.32293163E+03</pdfrwt>
<pdfrwt beam="1">  1       -1 0.25285013E-01 0.32293163E+03</pdfrwt>
<totfact> 0.26990715E+03</totfact>
</mgrwt>
</event>
<event>
 6    1  0.5818426E-006  0.3826784E+03  0.7546771E-02  0.1049948E+00
         -2   -1    0    0    0  501 -0.00000000000E+00  0.00000000000E+00  0.39064545878E+02  0.39064545878E+02  0.00000000000E+00 0.  1.
          2   -1    0    0  501    0  0.00000000000E+00 -0.00000000000E+00 -0.93718474682E+03  0.93718474682E+03  0.00000000000E+00 0. -1.
          5    1    1    2  502    0  0.12872077338E+03  0.42670508290E+02 -0.12737199181E+03  0.18610621719E+03  0.47000000000E+01 0.  1.
         -5    1    1    2    0  502 -0.33132704077E+01 -0.32822678403E+01 -0.12242852446E+03  0.12260744123E+03  0.47000000000E+01 0.  1.
        -11    1    1    2    0    0 -0.76329035254E+02  0.19048591098E+02 -0.25417153309E+03  0.26606792117E+03  0.00000000000E+00 0.  1.
         11    1    1    2    0    0 -0.49078467717E+02 -0.58436831547E+02 -0.39414815157E+03  0.40146771310E+03  0.00000000000E+00 0. -1.
<mgrwt>
<rscale>  0 0.38267844E+03</rscale>
<asrwt>0</asrwt>
<pdfrwt beam="2">  1        2 0.14418226E+00 0.38267844E+03</pdfrwt>
<pdfrwt beam="1">  1       -2 0.60099304E-02 0.38267844E+03</pdfrwt>
<totfact> 0.42637666E+03</totfact>
</mgrwt>
</event>
<event>
 6    1  0.5818426E-006  0.2862940E+03  0.7546771E-02  0.1092300E+00
         -1   -1    0    0    0  501 -0.00000000000E+00  0.00000000000E+00  0.12536014328E+04  0.12536014328E+04  0.00000000000E+00 0.  1.
          1   -1    0    0  501    0  0.00000000000E+00 -0.00000000000E+00 -0.16345754213E+02  0.16345754213E+02  0.00000000000E+00 0. -1.
          5    1    1    2  502    0 -0.97811319318E+02 -0.18130899271E+02  0.82863707731E+03  0.83460007164E+03  0.47000000000E+01 0.  1.
         -5    1    1    2    0  502  0.15600720591E+02 -0.49730076339E+01  0.15589115632E+02  0.23091639484E+02  0.47000000000E+01 0.  1.
        -11    1    1    2    0    0  0.11032410942E+02  0.33040390739E+02  0.45126343442E+02  0.57006739810E+02  0.00000000000E+00 0. -1.
         11    1    1    2    0    0  0.71178187786E+02 -0.99364838347E+01  0.34790314218E+03  0.35524873605E+03  0.00000000000E+00 0.  1.
<mgrwt>
<rscale>  0 0.28629398E+03</rscale>
<asrwt>0</asrwt>
<pdfrwt beam="2">  1        1 0.25147324E-02 0.28629398E+03</pdfrwt>
<pdfrwt beam="1">  1       -1 0.19286168E+00 0.28629398E+03</pdfrwt>
<totfact> 0.81620946E+02</totfact>
</mgrwt>
</event>
<event>
 6    1  0.5818426E-006  0.2216046E+03  0.7546771E-02  0.1136065E+00
         -2   -1    0    0    0  501 -0.00000000000E+00  0.00000000000E+00  0.87305060179E+02  0.87305060179E+02  0.00000000000E+00 0.  1.
          2   -1    0    0  501    0  0.00000000000E+00 -0.00000000000E+00 -0.60352540718E+03  0.60352540718E+03  0.00000000000E+00 0. -1.
          5    1    1    2  502    0 -0.27303451209E+02 -0.57575710751E+02 -0.72450474325E+02  0.96600218148E+02  0.47000000000E+01 0. -1.
         -5    1    1    2    0  502  0.10519458844E+03 -0.10800282978E+03 -0.65599717531E+02  0.16448685545E+03  0.47000000000E+01 0. -1.
        -11    1    1    2    0    0 -0.43705541361E+02  0.67558332850E+02 -0.26138407440E+03  0.27348845868E+03  0.00000000000E+00 0. -1.
         11    1    1    2    0    0 -0.34185595866E+02  0.98020207683E+02 -0.11678608075E+03  0.15625493508E+03  0.00000000000E+00 0.  1.
<mgrwt>
<rscale>  0 0.21709897E+03</rscale>
<asrwt>0</asrwt>
<pdfrwt beam="2">  1        2 0.92850064E-01 0.22160461E+03</pdfrwt>
<pdfrwt beam="1">  1       -2 0.13431548E-01 0.22160461E+03</pdfrwt>
<totfact> 0.20493767E+03</totfact>
</mgrwt>
</event>
<event>
 6    1  0.5818426E-006  0.1444059E+03  0.7546771E-02  0.1217692E+00
         -2   -1    0    0    0  501 -0.00000000000E+00  0.00000000000E+00  0.18774389138E+03  0.18774389138E+03  0.00000000000E+00 0.  1.
          2   -1    0    0  501    0  0.00000000000E+00 -0.00000000000E+00 -0.92675136753E+02  0.92675136753E+02  0.00000000000E+00 0. -1.
          5    1    1    2  502    0 -0.35758833614E+02 -0.52879784177E+02  0.73392767541E+02  0.97383541132E+02  0.47000000000E+01 0.  1.
         -5    1    1    2    0  502  0.20609122932E+02 -0.17824442491E+02 -0.42105630959E+02  0.50372818629E+02  0.47000000000E+01 0.  1.
        -11    1    1    2    0    0 -0.20069709847E+02  0.45175578848E+00 -0.12084408049E+02  0.23431394635E+02  0.00000000000E+00 0. -1.
         11    1    1    2    0    0  0.35219420530E+02  0.70252470880E+02  0.75866026099E+02  0.10923127374E+03  0.00000000000E+00 0.  1.
<mgrwt>
<rscale>  0 0.13680628E+03</rscale>
<asrwt>0</asrwt>
<pdfrwt beam="2">  1        2 0.14257713E-01 0.14440588E+03</pdfrwt>
<pdfrwt beam="1">  1       -2 0.28883676E-01 0.14440588E+03</pdfrwt>
<totfact> 0.43528218E+03</totfact>
</mgrwt>
</event>
<event>
 6    1  0.5818426E-006  0.1445300E+03  0.7546771E-02  0.1217092E+00
          1   -1    0    0  501    0  0.00000000000E+00  0.00000000000E+00  0.31716990143E+03  0.31716990143E+03  0.00000000000E+00 0. -1.
         -1   -1    0    0    0  501 -0.00000000000E+00 -0.00000000000E+00 -0.88044886474E+02  0.88044886474E+02  0.00000000000E+00 0.  1.
          5    1    1    2  502    0 -0.67665787237E+02 -0.50600243629E+02 -0.24766359552E+02  0.88173159086E+02  0.47000000000E+01 0. -1.
         -5    1    1    2    0  502 -0.49163185164E+01  0.51803663549E+02  0.21238333467E+02  0.56399880791E+02  0.47000000000E+01 0. -1.
        -11    1    1    2    0    0 -0.12930650905E+02  0.12975710550E+02  0.82713625134E+01  0.20099408820E+02  0.00000000000E+00 0.  1.
         11    1    1    2    0    0  0.85512756658E+02 -0.14179130470E+02  0.22438167852E+03  0.24054233920E+03  0.00000000000E+00 0. -1.
<mgrwt>
<rscale>  0 0.13723966E+03</rscale>
<asrwt>0</asrwt>
<pdfrwt beam="1">  1        1 0.48795369E-01 0.14452999E+03</pdfrwt>
<pdfrwt beam="2">  1       -1 0.13545367E-01 0.14452999E+03</pdfrwt>
<totfact> 0.30019890E+03</totfact>
</mgrwt>
</event>
<event>
 6    1  0.5818426E-006  0.1274691E+03  0.7546771E-02  0.1245734E+00
         -3   -1    0    0    0  501 -0.00000000000E+00  0.00000000000E+00  0.29191601791E+03  0.29191601791E+03  0.00000000000E+00 0.  1.
          3   -1    0    0  501    0  0.00000000000E+00 -0.00000000000E+00 -0.53494561580E+02  0.53494561580E+02  0.00000000000E+00 0. -1.
          5    1    1    2  502    0 -0.43112540199E+02 -0.30937206357E+02  0.15097934157E+03  0.16010200948E+03  0.47000000000E+01 0. -1.
         -5    1    1    2    0  502  0.60613432951E+02  0.13133401588E+02  0.60161762369E+02  0.86533242992E+02  0.47000000000E+01 0. -1.
        -11    1    1    2    0    0  0.24199734715E+02  0.32235498771E+02  0.35708644009E+02  0.53850364885E+02  0.00000000000E+00 0.  1.
         11    1    1    2    0    0 -0.41700627468E+02 -0.14431694002E+02 -0.84282916159E+01  0.44924962132E+02  0.00000000000E+00 0. -1.
<mgrwt>
<rscale>  0 0.11841550E+03</rscale>
<asrwt>0</asrwt>
<pdfrwt beam="2">  1        3 0.82299327E-02 0.12746914E+03</pdfrwt>
<pdfrwt beam="1">  1       -3 0.44910156E-01 0.12746914E+03</pdfrwt>
<totfact> 0.11490472E+03</totfact>
</mgrwt>
</event>
<event>
 6    1  0.5818426E-006  0.1279531E+03  0.7546771E-02  0.1246373E+00
          1   -1    0    0  501    0  0.00000000000E+00  0.00000000000E+00  0.19808135239E+03  0.19808135239E+03  0.00000000000E+00 0. -1.
         -1   -1    0    0    0  501 -0.00000000000E+00 -0.00000000000E+00 -0.61454586668E+02  0.61454586668E+02  0.00000000000E+00 0.  1.
          5    1    1    2  502    0  0.76260680272E+02  0.54452731285E+01  0.58314366983E+02  0.96270440695E+02  0.47000000000E+01 0. -1.
         -5    1    1    2    0  502 -0.49367584504E+02 -0.51658842854E+00  0.18275621065E+02  0.52853699858E+02  0.47000000000E+01 0. -1.
        -11    1    1    2    0    0  0.83687079525E+01  0.28459738474E+02 -0.41194969355E+01  0.29949327902E+02  0.00000000000E+00 0.  1.
         11    1    1    2    0    0 -0.35261803720E+02 -0.33388423174E+02  0.64156274613E+02  0.80462470605E+02  0.00000000000E+00 0. -1.
<mgrwt>
<rscale>  0 0.11803588E+03</rscale>
<asrwt>0</asrwt>
<pdfrwt beam="1">  1        1 0.30474054E-01 0.12795305E+03</pdfrwt>
<pdfrwt beam="2">  1       -1 0.94545519E-02 0.12795305E+03</pdfrwt>
<totfact> 0.92785018E+03</totfact>
</mgrwt>
</event>
<event>
 6    1  0.5818426E-006  0.1819312E+03  0.7546771E-02  0.1171570E+00
         -2   -1    0    0    0  501 -0.00000000000E+00  0.00000000000E+00  0.90678864195E+02  0.90678864195E+02  0.00000000000E+00 0.  1.
          2   -1    0    0  501    0  0.00000000000E+00 -0.00000000000E+00 -0.33320538888E+03  0.33320538888E+03  0.00000000000E+00 0. -1.
          5    1    1    2  502    0 -0.44109652157E+02  0.39873554043E+02 -0.60685826141E+02  0.85090664705E+02  0.47000000000E+01 0.  1.
         -5    1    1    2    0  502 -0.82041957641E+02 -0.79383942918E+02 -0.29692737481E+02  0.11805270800E+03  0.47000000000E+01 0.  1.
        -11    1    1    2    0    0  0.66610887597E+02 -0.15617944470E+02 -0.31442235315E+02  0.75296379047E+02  0.00000000000E+00 0.  1.
         11    1    1    2    0    0  0.59540722200E+02  0.55128333345E+02 -0.12070572575E+03  0.14544450133E+03  0.00000000000E+00 0. -1.
<mgrwt>
<rscale>  0 0.17616217E+03</rscale>
<asrwt>0</asrwt>
<pdfrwt beam="2">  1        2 0.51262368E-01 0.18193115E+03</pdfrwt>
<pdfrwt beam="1">  1       -2 0.13950594E-01 0.18193115E+03</pdfrwt>
<totfact> 0.36862015E+03</totfact>
</mgrwt>
</event>
<event>
 6    1  0.5818426E-006  0.1252503E+03  0.7546771E-02  0.1250216E+00
         -1   -1    0    0    0  501 -0.00000000000E+00  0.00000000000E+00  0.32089281177E+03  0.32089281177E+03  0.00000000000E+00 0.  1.
          1   -1    0    0  501    0  0.00000000000E+00 -0.00000000000E+00 -0.36893631022E+02  0.36893631022E+02  0.00000000000E+00 0. -1.
          5    1    1    2  502    0 -0.39584891310E+02 -0.40361521228E+02  0.40102216139E+02  0.69471531976E+02  0.47000000000E+01 0. -1.
         -5    1    1    2    0  502  0.42070407224E+02  0.32923800213E+02  0.13983491143E+03  0.14976577793E+03  0.47000000000E+01 0. -1.
        -11    1    1    2    0    0 -0.77658451308E+01  0.28840748728E+02  0.11138488209E+03  0.11531994231E+03  0.00000000000E+00 0.  1.
         11    1    1    2    0    0  0.52803292161E+01 -0.21403027713E+02 -0.73228288991E+01  0.23229190580E+02  0.00000000000E+00 0. -1.
<mgrwt>
<rscale>  0 0.11578569E+03</rscale>
<asrwt>0</asrwt>
<pdfrwt beam="2">  1        1 0.56759435E-02 0.12525026E+03</pdfrwt>
<pdfrwt beam="1">  1       -1 0.49368123E-01 0.12525026E+03</pdfrwt>
<totfact> 0.55560184E+03</totfact>
</mgrwt>
</event>
<event>
 6    1  0.5818426E-006  0.1402659E+03  0.7546771E-02  0.1223943E+00
         -2   -1    0    0    0  501 -0.00000000000E+00  0.00000000000E+00  0.24696136492E+02  0.24696136492E+02  0.00000000000E+00 0.  1.
          2   -1    0    0  501    0  0.00000000000E+00 -0.00000000000E+00 -0.79879566979E+03  0.79879566979E+03  0.00000000000E+00 0. -1.
          5    1    1    2  502    0 -0.54213374138E+02 -0.12406637316E+02 -0.23031006754E+03  0.23697643721E+03  0.47000000000E+01 0. -1.
         -5    1    1    2    0  502 -0.32209111055E+01  0.39839067883E+02 -0.10313322639E+02  0.41544918125E+02  0.47000000000E+01 0. -1.
        -11    1    1    2    0    0 -0.22138648002E+02 -0.22560119031E+02 -0.15425998000E+03  0.15746498067E+03  0.00000000000E+00 0.  1.
         11    1    1    2    0    0  0.79572933245E+02 -0.48723115367E+01 -0.37921616312E+03  0.38750547028E+03  0.00000000000E+00 0. -1.
<mgrwt>
<rscale>  0 0.13239583E+03</rscale>
<asrwt>0</asrwt>
<pdfrwt beam="2">  1        2 0.12289163E+00 0.14026592E+03</pdfrwt>
<pdfrwt beam="1">  1       -2 0.37994059E-02 0.14026592E+03</pdfrwt>
<totfact> 0.10153530E+04</totfact>
</mgrwt>
</event>
<event>
 6    1  0.5818426E-006  0.1317858E+03  0.7546771E-02  0.1241569E+00
         -1   -1    0    0    0  501 -0.00000000000E+00  0.00000000000E+00  0.45061173627E+02  0.45061173627E+02  0.00000000000E+00 0.  1.
          1   -1    0    0  501    0  0.00000000000E+00 -0.00000000000E+00 -0.33026256374E+03  0.33026256374E+03  0.00000000000E+00 0. -1.
          5    1    1    2  502    0 -0.40554844996E+02  0.15186516647E+02 -0.14192009098E+02  0.45812977013E+02  0.47000000000E+01 0. -1.
         -5    1    1    2    0  502  0.82001100007E+02 -0.20073234805E+02 -0.77838954660E+02  0.11492653314E+03  0.47000000000E+01 0. -1.
        -11    1    1    2    0    0 -0.54861804023E+02 -0.19026661461E+02 -0.84641023579E+02  0.10264469913E+03  0.00000000000E+00 0.  1.
         11    1    1    2    0    0  0.13415549012E+02  0.23913379618E+02 -0.10852940278E+03  0.11193952809E+03  0.00000000000E+00 0. -1.
<mgrwt>
<rscale>  0 0.12093110E+03</rscale>
<asrwt>0</asrwt>
<pdfrwt beam="2">  1        1 0.50809625E-01 0.13178578E+03</pdfrwt>
<pdfrwt beam="1">  1       -1 0.69324883E-02 0.13178578E+03</pdfrwt>
<totfact> 0.78903234E+03</totfact>
</mgrwt>
</event>
<event>
 6    1  0.5818426E-006  0.3776037E+03  0.7546771E-02  0.1051823E+00
          2   -1    0    0  501    0  0.00000000000E+00  0.00000000000E+00  0.42554491324E+03  0.42554491324E+03  0.00000000000E+00 0. -1.
         -2   -1    0    0    0  501 -0.00000000000E+00 -0.00000000000E+00 -0.83765870207E+02  0.83765870207E+02  0.00000000000E+00 0.  1.
          5    1    1    2  502    0 -0.87171315098E+02 -0.67934245600E+02 -0.20826832890E+02  0.11255997010E+03  0.47000000000E+01 0.  1.
         -5    1    1    2    0  502  0.26396743150E+02 -0.10645725539E+02  0.38458560525E+02  0.48075673670E+02  0.47000000000E+01 0.  1.
        -11    1    1    2    0    0  0.36216206784E+01  0.68914663441E+02  0.14947591831E+03  0.16463716812E+03  0.00000000000E+00 0.  1.
         11    1    1    2    0    0  0.57152951270E+02  0.96653076987E+01  0.17467139708E+03  0.18403797155E+03  0.00000000000E+00 0. -1.
<mgrwt>
<rscale>  0 0.37760371E+03</rscale>
<asrwt>0</asrwt>
<pdfrwt beam="1">  1        2 0.65468447E-01 0.37760371E+03</pdfrwt>
<pdfrwt beam="2">  1       -2 0.12887057E-01 0.37760371E+03</pdfrwt>
<totfact> 0.32977456E+03</totfact>
</mgrwt>
</event>
<event>
 6    1  0.5818426E-006  0.1681498E+03  0.7546771E-02  0.1197037E+00
         -3   -1    0    0    0  501 -0.00000000000E+00  0.00000000000E+00  0.24130585934E+02  0.24130585934E+02  0.00000000000E+00 0.  1.
          3   -1    0    0  501    0  0.00000000000E+00 -0.00000000000E+00 -0.83337902456E+03  0.83337902456E+03  0.00000000000E+00 0. -1.
          5    1    1    2  502    0  0.20714980328E+02  0.16119764717E+02 -0.44723258435E+03  0.44802682032E+03  0.47000000000E+01 0. -1.
         -5    1    1    2    0  502  0.42709035397E+02 -0.46436451530E+02 -0.63346064963E+02  0.89527759279E+02  0.47000000000E+01 0.  1.
        -11    1    1    2    0    0  0.16039705965E+02  0.25708738934E+02 -0.46335172513E+02  0.55363883867E+02  0.00000000000E+00 0.  1.
         11    1    1    2    0    0 -0.79463721689E+02  0.46079478784E+01 -0.25233461680E+03  0.26459114703E+03  0.00000000000E+00 0. -1.
<mgrwt>
<rscale>  0 0.15283069E+03</rscale>
<asrwt>0</asrwt>
<pdfrwt beam="2">  1        3 0.12821217E+00 0.16814984E+03</pdfrwt>
<pdfrwt beam="1">  1       -3 0.37123976E-02 0.16814984E+03</pdfrwt>
<totfact> 0.44204122E+02</totfact>
</mgrwt>
</event>
<event>
 6    1  0.5818426E-006  0.2332404E+03  0.7546771E-02  0.1127350E+00
          1   -1    0    0  501    0  0.00000000000E+00  0.00000000000E+00  0.85819996688E+03  0.85819996688E+03  0.00000000000E+00 0. -1.
         -1   -1    0    0    0  501 -0.00000000000E+00 -0.00000000000E+00 -0.65871340597E+02  0.65871340597E+02  0.00000000000E+00 0.  1.
          5    1    1    2  502    0  0.33661718079E+02 -0.42749330366E+02  0.34288969606E+02  0.64485967058E+02  0.47000000000E+01 0. -1.
         -5    1    1    2    0  502 -0.97939792536E+02 -0.14337610488E+03  0.22552481449E+03  0.28466197913E+03  0.47000000000E+01 0. -1.
        -11    1    1    2    0    0  0.37160213175E+02  0.25261631285E+02  0.59450393581E+02  0.74521008818E+02  0.00000000000E+00 0. -1.
         11    1    1    2    0    0  0.27117861282E+02  0.16086380396E+03  0.47306444860E+03  0.50040235247E+03  0.00000000000E+00 0.  1.
<mgrwt>
<rscale>  0 0.22899416E+03</rscale>
<asrwt>0</asrwt>
<pdfrwt beam="1">  1        1 0.13203076E+00 0.23324040E+03</pdfrwt>
<pdfrwt beam="2">  1       -1 0.10134053E-01 0.23324040E+03</pdfrwt>
<totfact> 0.12326614E+03</totfact>
</mgrwt>
</event>
<event>
 6    1  0.1067621E-005  0.1996572E+03  0.7546771E-02  0.1154271E+00
          1   -1    0    0  501    0  0.00000000000E+00  0.00000000000E+00  0.12873134176E+04  0.12873134176E+04  0.00000000000E+00 0. -1.
         -1   -1    0    0    0  501 -0.00000000000E+00 -0.00000000000E+00 -0.30210935218E+02  0.30210935218E+02  0.00000000000E+00 0.  1.
          5    1    1    2  502    0  0.46658563921E+02 -0.27243089998E+02  0.30348712396E+03  0.30829487824E+03  0.47000000000E+01 0.  1.
         -5    1    1    2    0  502  0.10798701060E+03  0.45224210704E+02  0.17977673460E+03  0.21458841533E+03  0.47000000000E+01 0.  1.
        -11    1    1    2    0    0 -0.62567510485E+02 -0.46954796035E+02  0.24898450451E+03  0.26098415608E+03  0.00000000000E+00 0.  1.
         11    1    1    2    0    0 -0.92078064031E+02  0.28973675329E+02  0.52485411932E+03  0.53365690317E+03  0.00000000000E+00 0. -1.
<mgrwt>
<rscale>  0 0.19472101E+03</rscale>
<asrwt>0</asrwt>
<pdfrwt beam="1">  1        1 0.19804818E+00 0.19965716E+03</pdfrwt>
<pdfrwt beam="2">  1       -1 0.46478372E-02 0.19965716E+03</pdfrwt>
<totfact> 0.19544683E+03</totfact>
</mgrwt>
</event>
<event>
 6    1  0.5818426E-006  0.1335597E+03  0.7546771E-02  0.1231237E+00
         -1   -1    0    0    0  501 -0.00000000000E+00  0.00000000000E+00  0.41803023749E+03  0.41803023749E+03  0.00000000000E+00 0.  1.
          1   -1    0    0  501    0  0.00000000000E+00 -0.00000000000E+00 -0.42968323520E+02  0.42968323520E+02  0.00000000000E+00 0. -1.
          5    1    1    2  502    0  0.62603207611E+01  0.66140152538E+02  0.25707618750E+03  0.26556349067E+03  0.47000000000E+01 0. -1.
         -5    1    1    2    0  502 -0.34221205922E+02 -0.28311421610E+02  0.39199384971E+02  0.59424820660E+02  0.47000000000E+01 0. -1.
        -11    1    1    2    0    0 -0.18848922394E+02 -0.25535152462E+01  0.74889942059E+02  0.77267753540E+02  0.00000000000E+00 0.  1.
         11    1    1    2    0    0  0.46809807555E+02 -0.35275215682E+02  0.38963994375E+01  0.58742496145E+02  0.00000000000E+00 0. -1.
<mgrwt>
<rscale>  0 0.12748443E+03</rscale>
<asrwt>0</asrwt>
<pdfrwt beam="2">  1        1 0.66105116E-02 0.13355968E+03</pdfrwt>
<pdfrwt beam="1">  1       -1 0.64312342E-01 0.13355968E+03</pdfrwt>
<totfact> 0.27667999E+03</totfact>
</mgrwt>
</event>
<event>
 6    1  0.5818426E-006  0.1309019E+03  0.7546771E-02  0.1239921E+00
          3   -1    0    0  501    0  0.00000000000E+00  0.00000000000E+00  0.13270424092E+03  0.13270424092E+03  0.00000000000E+00 0. -1.
         -3   -1    0    0    0  501 -0.00000000000E+00 -0.00000000000E+00 -0.99325943905E+02  0.99325943905E+02  0.00000000000E+00 0.  1.
          5    1    1    2  502    0  0.16758251441E+02 -0.30653129067E+02  0.40719925481E+02  0.53857735230E+02  0.47000000000E+01 0. -1.
         -5    1    1    2    0  502 -0.41137850100E+02  0.60905825246E+02 -0.25475074940E+02  0.77928888758E+02  0.47000000000E+01 0. -1.
        -11    1    1    2    0    0  0.22383564600E+01 -0.56370973978E+02 -0.82528470927E+01  0.57015843693E+02  0.00000000000E+00 0.  1.
         11    1    1    2    0    0  0.22141242199E+02  0.26118277799E+02  0.26386293565E+02  0.43227717143E+02  0.00000000000E+00 0. -1.
<mgrwt>
<rscale>  0 0.12194598E+03</rscale>
<asrwt>0</asrwt>
<pdfrwt beam="1">  1        3 0.20416037E-01 0.13090191E+03</pdfrwt>
<pdfrwt beam="2">  1       -3 0.15280914E-01 0.13090191E+03</pdfrwt>
<totfact> 0.17737131E+03</totfact>
</mgrwt>
</event>
<event>
 6    1  0.5818426E-006  0.1268406E+03  0.7546771E-02  0.1247337E+00
          1   -1    0    0  501    0  0.00000000000E+00  0.00000000000E+00  0.16924725769E+03  0.16924725769E+03  0.00000000000E+00 0. -1.
         -1   -1    0    0    0  501 -0.00000000000E+00 -0.00000000000E+00 -0.79888805731E+02  0.79888805731E+02  0.00000000000E+00 0.  1.
          5    1    1    2  502    0  0.70141009437E+02  0.22645056253E+02  0.27609027830E+01  0.73907187483E+02  0.47000000000E+01 0.  1.
         -5    1    1    2    0  502 -0.48843128171E+02 -0.19408502812E+02  0.82742729791E+01  0.53412496143E+02  0.47000000000E+01 0.  1.
        -11    1    1    2    0    0 -0.40750597976E+02  0.19146435404E+02  0.80336683213E+02  0.92093321657E+02  0.00000000000E+00 0. -1.
         11    1    1    2    0    0  0.19452716710E+02 -0.22382988844E+02 -0.20134070203E+01  0.29723058134E+02  0.00000000000E+00 0.  1.
<mgrwt>
<rscale>  0 0.11746617E+03</rscale>
<asrwt>0</asrwt>
<pdfrwt beam="1">  1        1 0.26038040E-01 0.12684056E+03</pdfrwt>
<pdfrwt beam="2">  1       -1 0.12290586E-01 0.12684056E+03</pdfrwt>
<totfact> 0.75487910E+03</totfact>
</mgrwt>
</event>
<event>
 6    1  0.5818426E-006  0.1251212E+03  0.7546771E-02  0.1258905E+00
          3   -1    0    0  501    0  0.00000000000E+00  0.00000000000E+00  0.14197837764E+03  0.14197837764E+03  0.00000000000E+00 0. -1.
         -3   -1    0    0    0  501 -0.00000000000E+00 -0.00000000000E+00 -0.85523308514E+02  0.85523308514E+02  0.00000000000E+00 0.  1.
          5    1    1    2  502    0 -0.10523026416E+02  0.18664050053E+02  0.54338931351E+02  0.58599405370E+02  0.47000000000E+01 0. -1.
         -5    1    1    2    0  502  0.11256644990E+02 -0.13223514287E+02 -0.64467941770E+02  0.66931150465E+02  0.47000000000E+01 0. -1.
        -11    1    1    2    0    0 -0.16845739867E+02  0.12024848924E+02 -0.91258221965E+01  0.22619827012E+02  0.00000000000E+00 0.  1.
         11    1    1    2    0    0  0.16112121292E+02 -0.17465384689E+02  0.75709901738E+02  0.79351303304E+02  0.00000000000E+00 0. -1.
<mgrwt>
<rscale>  0 0.11090384E+03</rscale>
<asrwt>0</asrwt>
<pdfrwt beam="1">  1        3 0.21842827E-01 0.12512124E+03</pdfrwt>
<pdfrwt beam="2">  1       -3 0.13157432E-01 0.12512124E+03</pdfrwt>
<totfact> 0.20132465E+03</totfact>
</mgrwt>
</event>
<event>
 6    1  0.5818426E-006  0.1401101E+03  0.7546771E-02  0.1225370E+00
          1   -1    0    0  501    0  0.00000000000E+00  0.00000000000E+00  0.79928333239E+02  0.79928333239E+02  0.00000000000E+00 0. -1.
         -1   -1    0    0    0  501 -0.00000000000E+00 -0.00000000000E+00 -0.19326755076E+03  0.19326755076E+03  0.00000000000E+00 0.  1.
          5    1    1    2  502    0 -0.35107894454E+02 -0.14193497987E+02 -0.33983063516E+01  0.38310026418E+02  0.47000000000E+01 0. -1.
         -5    1    1    2    0  502  0.96689898790E+02  0.20037642871E+02 -0.58455746438E+02  0.11484601844E+03  0.47000000000E+01 0.  1.
        -11    1    1    2    0    0 -0.44280818569E+02  0.85373547831E+01 -0.74988641987E+02  0.87504135599E+02  0.00000000000E+00 0.  1.
         11    1    1    2    0    0 -0.17301185767E+02 -0.14381499668E+02  0.23503477258E+02  0.32535703540E+02  0.00000000000E+00 0. -1.
<mgrwt>
<rscale>  0 0.13141584E+03</rscale>
<asrwt>0</asrwt>
<pdfrwt beam="1">  1        1 0.12296667E-01 0.14011014E+03</pdfrwt>
<pdfrwt beam="2">  1       -1 0.29733469E-01 0.14011014E+03</pdfrwt>
<totfact> 0.48201456E+03</totfact>
</mgrwt>
</event>
<event>
 6    1  0.5818426E-006  0.2019769E+03  0.7546771E-02  0.1152113E+00
          4   -1    0    0  501    0  0.00000000000E+00  0.00000000000E+00  0.31319421448E+02  0.31319421448E+02  0.00000000000E+00 0.  1.
         -4   -1    0    0    0  501 -0.00000000000E+00 -0.00000000000E+00 -0.11988671152E+04  0.11988671152E+04  0.00000000000E+00 0. -1.
          5    1    1    2  502    0 -0.24172452548E+02  0.43019598309E+02 -0.92943437527E+02  0.10533549202E+03  0.47000000000E+01 0.  1.
         -5    1    1    2    0  502  0.11020206310E+03  0.90278378008E+02 -0.58055156473E+03  0.59779335021E+03  0.47000000000E+01 0.  1.
        -11    1    1    2    0    0 -0.46954359437E+02 -0.11887681904E+03 -0.26457279537E+03  0.29382847722E+03  0.00000000000E+00 0. -1.
         11    1    1    2    0    0 -0.39075251111E+02 -0.14421157279E+02 -0.22947989614E+03  0.23322921721E+03  0.00000000000E+00 0.  1.
<mgrwt>
<rscale>  0 0.19721174E+03</rscale>
<asrwt>0</asrwt>
<pdfrwt beam="1">  1        4 0.48183721E-02 0.20197686E+03</pdfrwt>
<pdfrwt beam="2">  1       -4 0.18444111E+00 0.20197686E+03</pdfrwt>
<totfact> 0.82512798E+01</totfact>
</mgrwt>
</event>
<event>
 6    1  0.5818426E-006  0.1300652E+03  0.7546771E-02  0.1241902E+00
         -1   -1    0    0    0  501 -0.00000000000E+00  0.00000000000E+00  0.84100654205E+02  0.84100654205E+02  0.00000000000E+00 0.  1.
          1   -1    0    0  501    0  0.00000000000E+00 -0.00000000000E+00 -0.16285366055E+03  0.16285366055E+03  0.00000000000E+00 0. -1.
          5    1    1    2  502    0 -0.30465853849E+01 -0.75315893036E+02 -0.20669706314E+02  0.78301291084E+02  0.47000000000E+01 0. -1.
         -5    1    1    2    0  502  0.23960565488E+02  0.46079541247E+02  0.64176122865E+01  0.52542445389E+02  0.47000000000E+01 0. -1.
        -11    1    1    2    0    0  0.20091832330E+02  0.19856332454E+02  0.10485477781E+02  0.30131394080E+02  0.00000000000E+00 0. -1.
         11    1    1    2    0    0 -0.41005812433E+02  0.93800193346E+01 -0.74986390103E+02  0.85979184206E+02  0.00000000000E+00 0.  1.
<mgrwt>
<rscale>  0 0.12072729E+03</rscale>
<asrwt>0</asrwt>
<pdfrwt beam="2">  1        1 0.25054409E-01 0.13006522E+03</pdfrwt>
<pdfrwt beam="1">  1       -1 0.12938562E-01 0.13006522E+03</pdfrwt>
<totfact> 0.73305092E+03</totfact>
</mgrwt>
</event>
<event>
 6    1  0.5818426E-006  0.1951035E+03  0.7546771E-02  0.1158170E+00
          1   -1    0    0  501    0  0.00000000000E+00  0.00000000000E+00  0.90492750496E+03  0.90492750496E+03  0.00000000000E+00 0. -1.
         -1   -1    0    0    0  501 -0.00000000000E+00 -0.00000000000E+00 -0.38531920393E+02  0.38531920393E+02  0.00000000000E+00 0.  1.
          5    1    1    2  502    0  0.37315219760E+02  0.11653146504E+03  0.21000154153E+03  0.24309410815E+03  0.47000000000E+01 0.  1.
         -5    1    1    2    0  502  0.45263255177E+02  0.84103324721E+01  0.28920281291E+03  0.29288197786E+03  0.47000000000E+01 0.  1.
        -11    1    1    2    0    0 -0.39967890656E+02 -0.18588993128E+02  0.20001795844E+03  0.20481739830E+03  0.00000000000E+00 0. -1.
         11    1    1    2    0    0 -0.42610584281E+02 -0.10635280438E+03  0.16717327169E+03  0.20266594104E+03  0.00000000000E+00 0.  1.
<mgrwt>
<rscale>  0 0.19032297E+03</rscale>
<asrwt>0</asrwt>
<pdfrwt beam="1">  1        1 0.13921960E+00 0.19510350E+03</pdfrwt>
<pdfrwt beam="2">  1       -1 0.59279884E-02 0.19510350E+03</pdfrwt>
<totfact> 0.25590266E+03</totfact>
</mgrwt>
</event>
<event>
 6    1  0.5818426E-006  0.1333710E+03  0.7546771E-02  0.1235619E+00
         -2   -1    0    0    0  501 -0.00000000000E+00  0.00000000000E+00  0.13536213887E+03  0.13536213887E+03  0.00000000000E+00 0.  1.
          2   -1    0    0  501    0  0.00000000000E+00 -0.00000000000E+00 -0.11180204878E+03  0.11180204878E+03  0.00000000000E+00 0. -1.
          5    1    1    2  502    0 -0.45854842336E+02  0.58234202659E+02 -0.37940624187E+01  0.74366483274E+02  0.47000000000E+01 0.  1.
         -5    1    1    2    0  502  0.40160120827E+02 -0.12051757394E+02  0.53111420171E+02  0.67830620767E+02  0.47000000000E+01 0.  1.
        -11    1    1    2    0    0  0.21391452789E+02  0.28380831462E+00  0.25995069683E+02  0.33666280570E+02  0.00000000000E+00 0.  1.
         11    1    1    2    0    0 -0.15696731280E+02 -0.46466253580E+02 -0.51752337344E+02  0.71300803047E+02  0.00000000000E+00 0. -1.
<mgrwt>
<rscale>  0 0.12464875E+03</rscale>
<asrwt>0</asrwt>
<pdfrwt beam="2">  1        2 0.17200315E-01 0.13337097E+03</pdfrwt>
<pdfrwt beam="1">  1       -2 0.20824944E-01 0.13337097E+03</pdfrwt>
<totfact> 0.61543728E+03</totfact>
</mgrwt>
</event>
<event>
 6    1  0.5818426E-006  0.1370905E+03  0.7546771E-02  0.1228978E+00
          2   -1    0    0  501    0  0.00000000000E+00  0.00000000000E+00  0.11103694250E+03  0.11103694250E+03  0.00000000000E+00 0.  1.
         -2   -1    0    0    0  501 -0.00000000000E+00 -0.00000000000E+00 -0.13754392075E+03  0.13754392075E+03  0.00000000000E+00 0. -1.
          5    1    1    2  502    0 -0.51043885120E+01  0.10759004975E+02 -0.55275341118E+02  0.56738561014E+02  0.47000000000E+01 0.  1.
         -5    1    1    2    0  502 -0.49702607328E+02 -0.23398858664E+02  0.58503011814E+02  0.80389975453E+02  0.47000000000E+01 0.  1.
        -11    1    1    2    0    0  0.42183486005E+02  0.19642684958E+02  0.26394038861E+02  0.53496979833E+02  0.00000000000E+00 0.  1.
         11    1    1    2    0    0  0.12623509835E+02 -0.70028312698E+01 -0.56128687801E+02  0.57955346954E+02  0.00000000000E+00 0. -1.
<mgrwt>
<rscale>  0 0.12897913E+03</rscale>
<asrwt>0</asrwt>
<pdfrwt beam="1">  1        2 0.17082606E-01 0.13709055E+03</pdfrwt>
<pdfrwt beam="2">  1       -2 0.21160603E-01 0.13709055E+03</pdfrwt>
<totfact> 0.60479839E+03</totfact>
</mgrwt>
</event>
<event>
 6    1  0.5818426E-006  0.3398392E+03  0.7546771E-02  0.1066864E+00
         -4   -1    0    0    0  501 -0.00000000000E+00  0.00000000000E+00  0.15558491100E+03  0.15558491100E+03  0.00000000000E+00 0. -1.
          4   -1    0    0  501    0  0.00000000000E+00 -0.00000000000E+00 -0.18557497882E+03  0.18557497882E+03  0.00000000000E+00 0.  1.
          5    1    1    2  502    0 -0.22592701733E+02  0.15158650949E+01  0.31864282249E+02  0.39371950699E+02  0.47000000000E+01 0. -1.
         -5    1    1    2    0  502  0.11006592993E+03  0.82918965067E+02 -0.24829366083E-01  0.13788456881E+03  0.47000000000E+01 0. -1.
        -11    1    1    2    0    0 -0.23928567340E+02 -0.40592977412E+02 -0.71985994520E+02  0.86036908111E+02  0.00000000000E+00 0.  1.
         11    1    1    2    0    0 -0.63544660854E+02 -0.43841852749E+02  0.10156473812E+02  0.77866462202E+02  0.00000000000E+00 0. -1.
<mgrwt>
<rscale>  0 0.33983918E+03</rscale>
<asrwt>0</asrwt>
<pdfrwt beam="2">  1        4 0.28549997E-01 0.33983918E+03</pdfrwt>
<pdfrwt beam="1">  1       -4 0.23936140E-01 0.33983918E+03</pdfrwt>
<totfact> 0.36412717E+02</totfact>
</mgrwt>
</event>
<event>
 6    1  0.5818426E-006  0.1299158E+03  0.7546771E-02  0.1242025E+00
         -2   -1    0    0    0  501 -0.00000000000E+00  0.00000000000E+00  0.77442484771E+03  0.77442484771E+03  0.00000000000E+00 0.  1.
          2   -1    0    0  501    0  0.00000000000E+00 -0.00000000000E+00 -0.19541554527E+02  0.19541554527E+02  0.00000000000E+00 0. -1.
          5    1    1    2  502    0 -0.27587007777E+02  0.17916563760E+02  0.49024413384E+02  0.59224398374E+02  0.47000000000E+01 0.  1.
         -5    1    1    2    0  502  0.46901518869E+02 -0.47580910567E+02  0.52881435230E+03  0.53303883979E+03  0.47000000000E+01 0.  1.
        -11    1    1    2    0    0 -0.54910995821E+02  0.24863656140E+02  0.10138820647E+03  0.11795332666E+03  0.00000000000E+00 0. -1.
         11    1    1    2    0    0  0.35596484729E+02  0.48006906668E+01  0.75656321030E+02  0.83749837419E+02  0.00000000000E+00 0.  1.
<mgrwt>
<rscale>  0 0.12065248E+03</rscale>
<asrwt>0</asrwt>
<pdfrwt beam="2">  1        2 0.30063936E-02 0.12991576E+03</pdfrwt>
<pdfrwt beam="1">  1       -2 0.11914226E+00 0.12991576E+03</pdfrwt>
<totfact> 0.16911861E+03</totfact>
</mgrwt>
</event>
<event>
 6    1  0.5818426E-006  0.2083947E+03  0.7546771E-02  0.1146665E+00
          2   -1    0    0  501    0  0.00000000000E+00  0.00000000000E+00  0.40795864504E+03  0.40795864504E+03  0.00000000000E+00 0. -1.
         -2   -1    0    0    0  501 -0.00000000000E+00 -0.00000000000E+00 -0.13215364609E+03  0.13215364609E+03  0.00000000000E+00 0.  1.
          5    1    1    2  502    0 -0.16081974354E+02 -0.90183237456E+02 -0.15095530726E+02  0.92960267131E+02  0.47000000000E+01 0.  1.
         -5    1    1    2    0  502 -0.11267783581E+03 -0.15760775634E+02  0.19171148715E+02  0.11547432474E+03  0.47000000000E+01 0.  1.
        -11    1    1    2    0    0  0.10003303133E+03  0.12040758419E+03  0.23969516920E+03  0.28628371910E+03  0.00000000000E+00 0.  1.
         11    1    1    2    0    0  0.28726778838E+02 -0.14463571102E+02  0.32034211765E+02  0.45393980161E+02  0.00000000000E+00 0. -1.
<mgrwt>
<rscale>  0 0.20368709E+03</rscale>
<asrwt>0</asrwt>
<pdfrwt beam="1">  1        2 0.62762868E-01 0.20839474E+03</pdfrwt>
<pdfrwt beam="2">  1       -2 0.20331330E-01 0.20839474E+03</pdfrwt>
<totfact> 0.15868240E+03</totfact>
</mgrwt>
</event>
<event>
 6    1  0.5818426E-006  0.3550960E+03  0.7546771E-02  0.1060543E+00
          2   -1    0    0  501    0  0.00000000000E+00  0.00000000000E+00  0.45196128592E+03  0.45196128592E+03  0.00000000000E+00 0. -1.
         -2   -1    0    0    0  501 -0.00000000000E+00 -0.00000000000E+00 -0.69747781963E+02  0.69747781963E+02  0.00000000000E+00 0.  1.
          5    1    1    2  502    0  0.36420354278E+02 -0.98473999683E+02  0.93498085213E+02  0.14066823649E+03  0.47000000000E+01 0. -1.
         -5    1    1    2    0  502  0.34671956066E+02  0.14282951937E+02 -0.18487844402E+02  0.42071815317E+02  0.47000000000E+01 0. -1.
        -11    1    1    2    0    0 -0.45028592679E+02  0.45521919175E+02  0.27485571426E+03  0.28221531309E+03  0.00000000000E+00 0. -1.
         11    1    1    2    0    0 -0.26063717664E+02  0.38669128571E+02  0.32347548886E+02  0.56753702979E+02  0.00000000000E+00 0.  1.
<mgrwt>
<rscale>  0 0.35509603E+03</rscale>
<asrwt>0</asrwt>
<pdfrwt beam="1">  1        2 0.69532504E-01 0.35509603E+03</pdfrwt>
<pdfrwt beam="2">  1       -2 0.10730428E-01 0.35509603E+03</pdfrwt>
<totfact> 0.41482380E+03</totfact>
</mgrwt>
</event>
<event>
 6    1  0.5818426E-006  0.1289488E+03  0.7546771E-02  0.1247452E+00
          4   -1    0    0  501    0  0.00000000000E+00  0.00000000000E+00  0.40654508353E+03  0.40654508353E+03  0.00000000000E+00 0. -1.
         -4   -1    0    0    0  501 -0.00000000000E+00 -0.00000000000E+00 -0.30329750845E+02  0.30329750845E+02  0.00000000000E+00 0.  1.
          5    1    1    2  502    0 -0.52065057985E+02 -0.42257106903E+02  0.22547555277E+03  0.23528227354E+03  0.47000000000E+01 0. -1.
         -5    1    1    2    0  502  0.20535369524E+02  0.38992996166E+02  0.39345324144E+02  0.59264657963E+02  0.47000000000E+01 0. -1.
        -11    1    1    2    0    0  0.46172702465E+02 -0.25914978262E+02  0.50165028550E+02  0.72938567580E+02  0.00000000000E+00 0. -1.
         11    1    1    2    0    0 -0.14643014004E+02  0.29179088999E+02  0.61229427223E+02  0.69389335290E+02  0.00000000000E+00 0.  1.
<mgrwt>
<rscale>  0 0.11739819E+03</rscale>
<asrwt>0</asrwt>
<pdfrwt beam="1">  1        4 0.62545394E-01 0.12894882E+03</pdfrwt>
<pdfrwt beam="2">  1       -4 0.46661158E-02 0.12894882E+03</pdfrwt>
<totfact> 0.10601268E+03</totfact>
</mgrwt>
</event>
<event>
 6    1  0.5818426E-006  0.1353311E+03  0.7546771E-02  0.1231768E+00
          3   -1    0    0  501    0  0.00000000000E+00  0.00000000000E+00  0.34535080344E+03  0.34535080344E+03  0.00000000000E+00 0. -1.
         -3   -1    0    0    0  501 -0.00000000000E+00 -0.00000000000E+00 -0.47262867977E+02  0.47262867977E+02  0.00000000000E+00 0.  1.
          5    1    1    2  502    0 -0.52394885208E+02  0.31752242841E+02  0.58868183703E+02  0.85093959679E+02  0.47000000000E+01 0.  1.
         -5    1    1    2    0  502  0.17388715176E+02 -0.70031164038E+02  0.41285326181E+02  0.83266436875E+02  0.47000000000E+01 0.  1.
        -11    1    1    2    0    0 -0.30223955955E+02  0.60648017652E+01  0.41185458636E+02  0.51444254656E+02  0.00000000000E+00 0.  1.
         11    1    1    2    0    0  0.65230125987E+02  0.32214119432E+02  0.15674896694E+03  0.17280902021E+03  0.00000000000E+00 0. -1.
<mgrwt>
<rscale>  0 0.12713634E+03</rscale>
<asrwt>0</asrwt>
<pdfrwt beam="1">  1        3 0.53130891E-01 0.13533107E+03</pdfrwt>
<pdfrwt beam="2">  1       -3 0.72712107E-02 0.13533107E+03</pdfrwt>
<totfact> 0.10162924E+03</totfact>
</mgrwt>
</event>
<event>
 6    1  0.5818426E-006  0.1555229E+03  0.7546771E-02  0.1200959E+00
          2   -1    0    0  501    0  0.00000000000E+00  0.00000000000E+00  0.22006469342E+03  0.22006469342E+03  0.00000000000E+00 0. -1.
         -2   -1    0    0    0  501 -0.00000000000E+00 -0.00000000000E+00 -0.97496629971E+02  0.97496629971E+02  0.00000000000E+00 0.  1.
          5    1    1    2  502    0  0.75637370493E+02 -0.20877260350E+02  0.44525919180E+02  0.90341127365E+02  0.47000000000E+01 0. -1.
         -5    1    1    2    0  502 -0.33048800869E+02 -0.61270068211E+02 -0.55421913853E+01  0.69993216691E+02  0.47000000000E+01 0. -1.
        -11    1    1    2    0    0 -0.30534110623E+02  0.11814310411E+02 -0.14602305844E+02  0.35848809994E+02  0.00000000000E+00 0.  1.
         11    1    1    2    0    0 -0.12054459001E+02  0.70333018149E+02  0.98186641503E+02  0.12137816934E+03  0.00000000000E+00 0. -1.
<mgrwt>
<rscale>  0 0.14960515E+03</rscale>
<asrwt>0</asrwt>
<pdfrwt beam="1">  1        2 0.33856107E-01 0.15552289E+03</pdfrwt>
<pdfrwt beam="2">  1       -2 0.14999482E-01 0.15552289E+03</pdfrwt>
<totfact> 0.50646625E+03</totfact>
</mgrwt>
</event>
<event>
 6    1  0.5818426E-006  0.3088012E+03  0.7546771E-02  0.1112744E+00
          1   -1    0    0  501    0  0.00000000000E+00  0.00000000000E+00  0.19988732592E+03  0.19988732592E+03  0.00000000000E+00 0. -1.
         -1   -1    0    0    0  501 -0.00000000000E+00 -0.00000000000E+00 -0.25837906475E+03  0.25837906475E+03  0.00000000000E+00 0.  1.
          5    1    1    2  502    0 -0.45172303160E+02 -0.11009714521E+03  0.10571137484E+02  0.11956486651E+03  0.47000000000E+01 0. -1.
         -5    1    1    2    0  502 -0.32085084643E+02  0.17306070530E+03 -0.97373441904E+02  0.20120421856E+03  0.47000000000E+01 0.  1.
        -11    1    1    2    0    0  0.37977862070E+02 -0.74009059868E+02  0.43606921569E+02  0.93921363696E+02  0.00000000000E+00 0. -1.
         11    1    1    2    0    0  0.39279525734E+02  0.11045499769E+02 -0.15296355973E+02  0.43575941907E+02  0.00000000000E+00 0.  1.
<mgrwt>
<rscale>  0 0.25088869E+03</rscale>
<asrwt>0</asrwt>
<pdfrwt beam="1">  1        1 0.30751896E-01 0.30880118E+03</pdfrwt>
<pdfrwt beam="2">  1       -1 0.39750625E-01 0.30880118E+03</pdfrwt>
<totfact> 0.91830500E+02</totfact>
</mgrwt>
</event>
<event>
 6    1  0.5818426E-006  0.1297667E+03  0.7546771E-02  0.1242591E+00
          3   -1    0    0  501    0  0.00000000000E+00  0.00000000000E+00  0.20233135313E+03  0.20233135313E+03  0.00000000000E+00 0. -1.
         -3   -1    0    0    0  501 -0.00000000000E+00 -0.00000000000E+00 -0.10059014680E+03  0.10059014680E+03  0.00000000000E+00 0.  1.
          5    1    1    2  502    0  0.11384360060E+02 -0.80452438382E+02 -0.26464603199E+02  0.85584249241E+02  0.47000000000E+01 0. -1.
         -5    1    1    2    0  502 -0.14093912928E+02  0.45828980998E+02 -0.99331347905E+01  0.49190355230E+02  0.47000000000E+01 0. -1.
        -11    1    1    2    0    0 -0.11054997675E+02  0.33443834744E+01 -0.10512659175E+02  0.15617742390E+02  0.00000000000E+00 0.  1.
         11    1    1    2    0    0  0.13764550543E+02  0.31279073910E+02  0.14865160349E+03  0.15252915307E+03  0.00000000000E+00 0. -1.
<mgrwt>
<rscale>  0 0.12030755E+03</rscale>
<asrwt>0</asrwt>
<pdfrwt beam="1">  1        3 0.31127900E-01 0.12976671E+03</pdfrwt>
<pdfrwt beam="2">  1       -3 0.15475407E-01 0.12976671E+03</pdfrwt>
<totfact> 0.80858129E+02</totfact>
</mgrwt>
</event>
<event>
 6    1  0.5818426E-006  0.2630830E+03  0.7546771E-02  0.1107509E+00
         -4   -1    0    0    0  501 -0.00000000000E+00  0.00000000000E+00  0.53268518273E+03  0.53268518273E+03  0.00000000000E+00 0.  1.
          4   -1    0    0  501    0  0.00000000000E+00 -0.00000000000E+00 -0.12307111486E+03  0.12307111486E+03  0.00000000000E+00 0. -1.
          5    1    1    2  502    0  0.44705596077E+02 -0.13086227121E+03  0.16414891717E+03  0.21468693801E+03  0.47000000000E+01 0. -1.
         -5    1    1    2    0  502  0.10761731569E+03 -0.43454368528E+02  0.58955333284E+02  0.13025970253E+03  0.47000000000E+01 0. -1.
        -11    1    1    2    0    0 -0.56693538493E+02  0.49542569790E+02  0.11651921110E+03  0.13872761110E+03  0.00000000000E+00 0.  1.
         11    1    1    2    0    0 -0.95629373271E+02  0.12477406995E+03  0.69990606324E+02  0.17208204594E+03  0.00000000000E+00 0. -1.
<mgrwt>
<rscale>  0 0.25939277E+03</rscale>
<asrwt>0</asrwt>
<pdfrwt beam="2">  1        4 0.18934018E-01 0.26308303E+03</pdfrwt>
<pdfrwt beam="1">  1       -4 0.81951566E-01 0.26308303E+03</pdfrwt>
<totfact> 0.61514373E+01</totfact>
</mgrwt>
</event>
<event>
 6    1  0.5818426E-006  0.2631878E+03  0.7546771E-02  0.1105243E+00
          2   -1    0    0  501    0  0.00000000000E+00  0.00000000000E+00  0.46731815614E+02  0.46731815614E+02  0.00000000000E+00 0. -1.
         -2   -1    0    0    0  501 -0.00000000000E+00 -0.00000000000E+00 -0.37056028510E+03  0.37056028510E+03  0.00000000000E+00 0.  1.
          5    1    1    2  502    0  0.59592895171E+02 -0.10065770788E+02 -0.39233065969E+02  0.72207730623E+02  0.47000000000E+01 0.  1.
         -5    1    1    2    0  502 -0.73591789389E+01 -0.21578183573E+01 -0.22321043623E+03  0.22339159012E+03  0.47000000000E+01 0.  1.
        -11    1    1    2    0    0  0.14776593331E+02 -0.21101601352E+02 -0.32502676288E+02  0.41473476536E+02  0.00000000000E+00 0.  1.
         11    1    1    2    0    0 -0.67010309563E+02  0.33325190498E+02 -0.28882290992E+02  0.80219303427E+02  0.00000000000E+00 0. -1.
<mgrwt>
<rscale>  0 0.26318780E+03</rscale>
<asrwt>0</asrwt>
<pdfrwt beam="1">  1        2 0.71895105E-02 0.26318780E+03</pdfrwt>
<pdfrwt beam="2">  1       -2 0.57009271E-01 0.26318780E+03</pdfrwt>
<totfact> 0.28537996E+03</totfact>
</mgrwt>
</event>
<event>
 6    1  0.5818426E-006  0.1432334E+03  0.7546771E-02  0.1223058E+00
         -2   -1    0    0    0  501 -0.00000000000E+00  0.00000000000E+00  0.14435202521E+03  0.14435202521E+03  0.00000000000E+00 0.  1.
          2   -1    0    0  501    0  0.00000000000E+00 -0.00000000000E+00 -0.11094132189E+03  0.11094132189E+03  0.00000000000E+00 0. -1.
          5    1    1    2  502    0 -0.25415783408E+02 -0.27796949371E+02 -0.43122467859E+02  0.57447973635E+02  0.47000000000E+01 0. -1.
         -5    1    1    2    0  502  0.25395874786E+02 -0.28305678409E+02  0.82711078743E+02  0.91155770158E+02  0.47000000000E+01 0.  1.
        -11    1    1    2    0    0  0.39268957595E+02  0.65555268421E+01 -0.15643646642E+02  0.42775572972E+02  0.00000000000E+00 0.  1.
         11    1    1    2    0    0 -0.39249048973E+02  0.49547100938E+02  0.94657390789E+01  0.63914030330E+02  0.00000000000E+00 0. -1.
<mgrwt>
<rscale>  0 0.13300914E+03</rscale>
<asrwt>0</asrwt>
<pdfrwt beam="2">  1        2 0.17067896E-01 0.14323343E+03</pdfrwt>
<pdfrwt beam="1">  1       -2 0.22208004E-01 0.14323343E+03</pdfrwt>
<totfact> 0.55898828E+03</totfact>
</mgrwt>
</event>
<event>
 6    1  0.5818426E-006  0.1258702E+03  0.7546771E-02  0.1249463E+00
          2   -1    0    0  501    0  0.00000000000E+00  0.00000000000E+00  0.62406606873E+03  0.62406606873E+03  0.00000000000E+00 0. -1.
         -2   -1    0    0    0  501 -0.00000000000E+00 -0.00000000000E+00 -0.19130853446E+02  0.19130853446E+02  0.00000000000E+00 0.  1.
          5    1    1    2  502    0  0.29676567933E+02 -0.40629923849E+02  0.24234944157E+03  0.24756177255E+03  0.47000000000E+01 0.  1.
         -5    1    1    2    0  502 -0.20534820849E+02  0.52233046836E+02  0.74650714657E+02  0.93513577880E+02  0.47000000000E+01 0.  1.
        -11    1    1    2    0    0 -0.13135118862E+02 -0.41687969994E+02  0.24873710448E+03  0.25254814459E+03  0.00000000000E+00 0. -1.
         11    1    1    2    0    0  0.39933717776E+01  0.30084847007E+02  0.39197954569E+02  0.49573427156E+02  0.00000000000E+00 0.  1.
<mgrwt>
<rscale>  0 0.11622197E+03</rscale>
<asrwt>0</asrwt>
<pdfrwt beam="1">  1        2 0.96010149E-01 0.12587015E+03</pdfrwt>
<pdfrwt beam="2">  1       -2 0.29432087E-02 0.12587015E+03</pdfrwt>
<totfact> 0.19699772E+04</totfact>
</mgrwt>
</event>
<event>
 6    1  0.5818426E-006  0.1403861E+03  0.7546771E-02  0.1223766E+00
         -1   -1    0    0    0  501 -0.00000000000E+00  0.00000000000E+00  0.37811943765E+02  0.37811943765E+02  0.00000000000E+00 0.  1.
          1   -1    0    0  501    0  0.00000000000E+00 -0.00000000000E+00 -0.51529034912E+03  0.51529034912E+03  0.00000000000E+00 0. -1.
          5    1    1    2  502    0 -0.17045937629E+02 -0.38333838648E+02 -0.30763530000E+02  0.52235351566E+02  0.47000000000E+01 0. -1.
         -5    1    1    2    0  502  0.78239600497E+02  0.56728996268E+02 -0.11160990336E+03  0.14771078035E+03  0.47000000000E+01 0. -1.
        -11    1    1    2    0    0 -0.14429530734E+01  0.30415256214E+02 -0.57949712214E+02  0.65462501249E+02  0.00000000000E+00 0.  1.
         11    1    1    2    0    0 -0.59750709794E+02 -0.48810413834E+02 -0.27715525978E+03  0.28769365972E+03  0.00000000000E+00 0. -1.
<mgrwt>
<rscale>  0 0.13251819E+03</rscale>
<asrwt>0</asrwt>
<pdfrwt beam="2">  1        1 0.79275443E-01 0.14038611E+03</pdfrwt>
<pdfrwt beam="1">  1       -1 0.58172218E-02 0.14038611E+03</pdfrwt>
<totfact> 0.58511995E+03</totfact>
</mgrwt>
</event>
<event>
 6    1  0.5818426E-006  0.1255593E+03  0.7546771E-02  0.1249445E+00
          2   -1    0    0  501    0  0.00000000000E+00  0.00000000000E+00  0.21011566205E+03  0.21011566205E+03  0.00000000000E+00 0. -1.
         -2   -1    0    0    0  501 -0.00000000000E+00 -0.00000000000E+00 -0.60322620544E+02  0.60322620544E+02  0.00000000000E+00 0.  1.
          5    1    1    2  502    0  0.15563787878E+02  0.26616568212E+02 -0.33133607441E+02  0.45503836525E+02  0.47000000000E+01 0.  1.
         -5    1    1    2    0  502 -0.24356781393E+02 -0.18605249233E+02  0.84761860725E+02  0.90255587818E+02  0.47000000000E+01 0.  1.
        -11    1    1    2    0    0 -0.20773480107E+02  0.31887666931E+02  0.63798153347E+02  0.74287045631E+02  0.00000000000E+00 0. -1.
         11    1    1    2    0    0  0.29566473621E+02 -0.39898985910E+02  0.34366634878E+02  0.60391812623E+02  0.00000000000E+00 0.  1.
<mgrwt>
<rscale>  0 0.11623243E+03</rscale>
<asrwt>0</asrwt>
<pdfrwt beam="1">  1        2 0.32325486E-01 0.12555933E+03</pdfrwt>
<pdfrwt beam="2">  1       -2 0.92804033E-02 0.12555933E+03</pdfrwt>
<totfact> 0.11286742E+04</totfact>
</mgrwt>
</event>
<event>
 6    1  0.5818426E-006  0.1208429E+03  0.7546771E-02  0.1251724E+00
          2   -1    0    0  501    0  0.00000000000E+00  0.00000000000E+00  0.56626260580E+03  0.56626260580E+03  0.00000000000E+00 0. -1.
         -2   -1    0    0    0  501 -0.00000000000E+00 -0.00000000000E+00 -0.21364780592E+02  0.21364780592E+02  0.00000000000E+00 0.  1.
          5    1    1    2  502    0 -0.63282736776E+01  0.63086893952E+02  0.24639792401E+03  0.25446813198E+03  0.47000000000E+01 0. -1.
         -5    1    1    2    0  502 -0.19823232200E+02 -0.33312492807E+02  0.37766991251E+02  0.54324196635E+02  0.47000000000E+01 0.  1.
        -11    1    1    2    0    0  0.55730533800E+02 -0.11412107418E+02  0.10670833390E+03  0.12092475808E+03  0.00000000000E+00 0.  1.
         11    1    1    2    0    0 -0.29579027922E+02 -0.18362293727E+02  0.15402457605E+03  0.15791029970E+03  0.00000000000E+00 0. -1.
<mgrwt>
<rscale>  0 0.11491794E+03</rscale>
<asrwt>0</asrwt>
<pdfrwt beam="1">  1        2 0.87117313E-01 0.12084289E+03</pdfrwt>
<pdfrwt beam="2">  1       -2 0.32868898E-02 0.12084289E+03</pdfrwt>
<totfact> 0.18632840E+04</totfact>
</mgrwt>
</event>
<event>
 6    1  0.5818426E-006  0.1318385E+03  0.7546771E-02  0.1238635E+00
         -1   -1    0    0    0  501 -0.00000000000E+00  0.00000000000E+00  0.33009618246E+02  0.33009618246E+02  0.00000000000E+00 0.  1.
          1   -1    0    0  501    0  0.00000000000E+00 -0.00000000000E+00 -0.40648146851E+03  0.40648146851E+03  0.00000000000E+00 0. -1.
          5    1    1    2  502    0  0.55452576524E+02 -0.50856563494E+02 -0.12106257694E+03  0.14261702503E+03  0.47000000000E+01 0.  1.
         -5    1    1    2    0  502 -0.55129126278E+02  0.89385914233E+01 -0.74273867201E+02  0.93047387550E+02  0.47000000000E+01 0.  1.
        -11    1    1    2    0    0  0.34090292976E+02  0.42031815558E+02 -0.60093661617E+02  0.80870697789E+02  0.00000000000E+00 0. -1.
         11    1    1    2    0    0 -0.34413743222E+02 -0.11384348749E+00 -0.11804174450E+03  0.12295597638E+03  0.00000000000E+00 0.  1.
<mgrwt>
<rscale>  0 0.12274602E+03</rscale>
<asrwt>0</asrwt>
<pdfrwt beam="2">  1        1 0.62535608E-01 0.13183850E+03</pdfrwt>
<pdfrwt beam="1">  1       -1 0.50784030E-02 0.13183850E+03</pdfrwt>
<totfact> 0.96704334E+03</totfact>
</mgrwt>
</event>
<event>
 6    1  0.5818426E-006  0.1294586E+03  0.7546771E-02  0.1234813E+00
         -3   -1    0    0    0  501 -0.00000000000E+00  0.00000000000E+00  0.48646399986E+02  0.48646399986E+02  0.00000000000E+00 0.  1.
          3   -1    0    0  501    0  0.00000000000E+00 -0.00000000000E+00 -0.30454514059E+03  0.30454514059E+03  0.00000000000E+00 0. -1.
          5    1    1    2  502    0 -0.85166412818E+02 -0.23508342622E+02 -0.11528253916E+03  0.14532072763E+03  0.47000000000E+01 0. -1.
         -5    1    1    2    0  502  0.35476372588E+02  0.17805914773E+02 -0.36012035695E+02  0.53801304146E+02  0.47000000000E+01 0.  1.
        -11    1    1    2    0    0  0.70580561976E+02  0.94727792194E+01 -0.31362579673E+02  0.77813627847E+02  0.00000000000E+00 0.  1.
         11    1    1    2    0    0 -0.20890521746E+02 -0.37703513696E+01 -0.73241586073E+02  0.76255880945E+02  0.00000000000E+00 0. -1.
<mgrwt>
<rscale>  0 0.12516413E+03</rscale>
<asrwt>0</asrwt>
<pdfrwt beam="2">  1        3 0.46853100E-01 0.12945862E+03</pdfrwt>
<pdfrwt beam="1">  1       -3 0.74840613E-02 0.12945862E+03</pdfrwt>
<totfact> 0.12372280E+03</totfact>
</mgrwt>
</event>
<event>
 6    1  0.5818426E-006  0.1536602E+03  0.7546771E-02  0.1204420E+00
          1   -1    0    0  501    0  0.00000000000E+00  0.00000000000E+00  0.64598540377E+03  0.64598540377E+03  0.00000000000E+00 0. -1.
         -1   -1    0    0    0  501 -0.00000000000E+00 -0.00000000000E+00 -0.30902639348E+02  0.30902639348E+02  0.00000000000E+00 0.  1.
          5    1    1    2  502    0 -0.18220186729E+02  0.37742187628E+02  0.20962250111E+02  0.47095157512E+02  0.47000000000E+01 0. -1.
         -5    1    1    2    0  502  0.65993204101E+02  0.37735539796E+02  0.28894785187E+03  0.29881771208E+03  0.47000000000E+01 0. -1.
        -11    1    1    2    0    0 -0.73289175636E+02 -0.49794358335E+02  0.17928010949E+03  0.19998034665E+03  0.00000000000E+00 0.  1.
         11    1    1    2    0    0  0.25516158263E+02 -0.25683369089E+02  0.12589255295E+03  0.13099482688E+03  0.00000000000E+00 0. -1.
<mgrwt>
<rscale>  0 0.14683292E+03</rscale>
<asrwt>0</asrwt>
<pdfrwt beam="1">  1        1 0.99382359E-01 0.15366015E+03</pdfrwt>
<pdfrwt beam="2">  1       -1 0.47542527E-02 0.15366015E+03</pdfrwt>
<totfact> 0.58434107E+03</totfact>
</mgrwt>
</event>
<event>
 6    1  0.5818426E-006  0.1342269E+03  0.7546771E-02  0.1233955E+00
         -3   -1    0    0    0  501 -0.00000000000E+00  0.00000000000E+00  0.10965221707E+03  0.10965221707E+03  0.00000000000E+00 0.  1.
          3   -1    0    0  501    0  0.00000000000E+00 -0.00000000000E+00 -0.18311959208E+03  0.18311959208E+03  0.00000000000E+00 0. -1.
          5    1    1    2  502    0  0.48367367291E+02 -0.48713451919E+02  0.23493798076E+02  0.72707985562E+02  0.47000000000E+01 0. -1.
         -5    1    1    2    0  502 -0.65041229107E+02  0.27009713697E+01  0.15796542573E+02  0.67151154028E+02  0.47000000000E+01 0. -1.
        -11    1    1    2    0    0  0.45479409370E+02 -0.15448371269E+01 -0.66533143795E+02  0.80606590435E+02  0.00000000000E+00 0.  1.
         11    1    1    2    0    0 -0.28805547554E+02  0.47557317676E+02 -0.46224571864E+02  0.72306079125E+02  0.00000000000E+00 0. -1.
<mgrwt>
<rscale>  0 0.12571579E+03</rscale>
<asrwt>0</asrwt>
<pdfrwt beam="2">  1        3 0.28172245E-01 0.13422685E+03</pdfrwt>
<pdfrwt beam="1">  1       -3 0.16869572E-01 0.13422685E+03</pdfrwt>
<totfact> 0.84229027E+02</totfact>
</mgrwt>
</event>
<event>
 6    1  0.5818426E-006  0.1271283E+03  0.7546771E-02  0.1243027E+00
         -1   -1    0    0    0  501 -0.00000000000E+00  0.00000000000E+00  0.10205968180E+04  0.10205968180E+04  0.00000000000E+00 0.  1.
          1   -1    0    0  501    0  0.00000000000E+00 -0.00000000000E+00 -0.12967342342E+02  0.12967342342E+02  0.00000000000E+00 0. -1.
          5    1    1    2  502    0  0.16487962386E+02 -0.81569323916E+02  0.29900300240E+03  0.31040343580E+03  0.47000000000E+01 0. -1.
         -5    1    1    2    0  502 -0.16735598666E+02  0.24508923348E+02  0.32700723164E+03  0.32838481563E+03  0.47000000000E+01 0.  1.
        -11    1    1    2    0    0  0.21211901207E+02 -0.86114829704E+01  0.38436302209E+02  0.44737587321E+02  0.00000000000E+00 0.  1.
         11    1    1    2    0    0 -0.20964264928E+02  0.65671883538E+02  0.34318293943E+03  0.35003832163E+03  0.00000000000E+00 0. -1.
<mgrwt>
<rscale>  0 0.12004260E+03</rscale>
<asrwt>0</asrwt>
<pdfrwt beam="2">  1        1 0.19949765E-02 0.12712835E+03</pdfrwt>
<pdfrwt beam="1">  1       -1 0.15701483E+00 0.12712835E+03</pdfrwt>
<totfact> 0.19644077E+03</totfact>
</mgrwt>
</event>
<event>
 6    1  0.5818426E-006  0.1265021E+03  0.7546771E-02  0.1249300E+00
          2   -1    0    0  501    0  0.00000000000E+00  0.00000000000E+00  0.87756612758E+02  0.87756612758E+02  0.00000000000E+00 0. -1.
         -2   -1    0    0    0  501 -0.00000000000E+00 -0.00000000000E+00 -0.15332744104E+03  0.15332744104E+03  0.00000000000E+00 0.  1.
          5    1    1    2  502    0 -0.41597892252E+02  0.49198977721E+01  0.82890458789E+01  0.42957983141E+02  0.47000000000E+01 0. -1.
         -5    1    1    2    0  502  0.59857046533E+02  0.17183744717E+01 -0.88061299596E+02  0.10659597233E+03  0.47000000000E+01 0. -1.
        -11    1    1    2    0    0 -0.46897003792E+02 -0.19661162309E+02  0.26989855932E+02  0.57570327351E+02  0.00000000000E+00 0. -1.
         11    1    1    2    0    0  0.28637849512E+02  0.13022890066E+02 -0.12788430500E+02  0.33959770979E+02  0.00000000000E+00 0.  1.
<mgrwt>
<rscale>  0 0.11631651E+03</rscale>
<asrwt>0</asrwt>
<pdfrwt beam="1">  1        2 0.13501018E-01 0.12650207E+03</pdfrwt>
<pdfrwt beam="2">  1       -2 0.23588837E-01 0.12650207E+03</pdfrwt>
<totfact> 0.65677691E+03</totfact>
</mgrwt>
</event>
<event>
 6    1  0.5818426E-006  0.2786619E+03  0.7546771E-02  0.1096422E+00
         -2   -1    0    0    0  501 -0.00000000000E+00  0.00000000000E+00  0.35567724387E+02  0.35567724387E+02  0.00000000000E+00 0.  1.
          2   -1    0    0  501    0  0.00000000000E+00 -0.00000000000E+00 -0.54580684016E+03  0.54580684016E+03  0.00000000000E+00 0. -1.
          5    1    1    2  502    0  0.24054305672E+02 -0.97714077672E+02 -0.18948644517E+03  0.21460161579E+03  0.47000000000E+01 0.  1.
         -5    1    1    2    0  502  0.59278194372E+00  0.24728537477E+02 -0.78208524683E-01  0.25178325456E+02  0.47000000000E+01 0.  1.
        -11    1    1    2    0    0 -0.42166633939E+02  0.39801966168E+02 -0.28125730052E+03  0.28717223164E+03  0.00000000000E+00 0. -1.
         11    1    1    2    0    0  0.17519546324E+02  0.33183574027E+02 -0.39417161548E+02  0.54422391652E+02  0.00000000000E+00 0.  1.
<mgrwt>
<rscale>  0 0.27866185E+03</rscale>
<asrwt>0</asrwt>
<pdfrwt beam="2">  1        2 0.83970281E-01 0.27866185E+03</pdfrwt>
<pdfrwt beam="1">  1       -2 0.54719577E-02 0.27866185E+03</pdfrwt>
<totfact> 0.95619781E+03</totfact>
</mgrwt>
</event>
<event>
 6    1  0.5818426E-006  0.2262209E+03  0.7546771E-02  0.1132409E+00
          2   -1    0    0  501    0  0.00000000000E+00  0.00000000000E+00  0.16651441998E+03  0.16651441998E+03  0.00000000000E+00 0. -1.
         -2   -1    0    0    0  501 -0.00000000000E+00 -0.00000000000E+00 -0.35690375334E+03  0.35690375334E+03  0.00000000000E+00 0.  1.
          5    1    1    2  502    0  0.17618533070E+03  0.75806849345E+01 -0.22203068459E+03  0.28358147408E+03  0.47000000000E+01 0. -1.
         -5    1    1    2    0  502  0.93930909241E+01  0.25718582721E+02  0.68731215742E+01  0.28618271340E+02  0.47000000000E+01 0. -1.
        -11    1    1    2    0    0 -0.93383828723E+01  0.10802120511E+02  0.25860803710E+02  0.29541028600E+02  0.00000000000E+00 0. -1.
         11    1    1    2    0    0 -0.17624003876E+03 -0.44101388167E+02 -0.10925740491E+01  0.18167739930E+03  0.00000000000E+00 0.  1.
<mgrwt>
<rscale>  0 0.22198870E+03</rscale>
<asrwt>0</asrwt>
<pdfrwt beam="1">  1        2 0.25617603E-01 0.22622092E+03</pdfrwt>
<pdfrwt beam="2">  1       -2 0.54908270E-01 0.22622092E+03</pdfrwt>
<totfact> 0.66467699E+02</totfact>
</mgrwt>
</event>
<event>
 6    1  0.5818426E-006  0.2011353E+03  0.7546771E-02  0.1152880E+00
         -1   -1    0    0    0  501 -0.00000000000E+00  0.00000000000E+00  0.23949596080E+03  0.23949596080E+03  0.00000000000E+00 0.  1.
          1   -1    0    0  501    0  0.00000000000E+00 -0.00000000000E+00 -0.18828651257E+03  0.18828651257E+03  0.00000000000E+00 0. -1.
          5    1    1    2  502    0  0.77392287865E+02 -0.10845614035E+03  0.63102970762E+02  0.14750042549E+03  0.47000000000E+01 0. -1.
         -5    1    1    2    0  502  0.58762719175E+02  0.29141735439E+02  0.55125735179E+02  0.85809291969E+02  0.47000000000E+01 0. -1.
        -11    1    1    2    0    0 -0.28285111152E+02  0.58504534162E+02  0.14943024063E+01  0.65000468999E+02  0.00000000000E+00 0.  1.
         11    1    1    2    0    0 -0.10786989589E+03  0.20809870751E+02 -0.68513560111E+02  0.12947228691E+03  0.00000000000E+00 0. -1.
<mgrwt>
<rscale>  0 0.19632131E+03</rscale>
<asrwt>0</asrwt>
<pdfrwt beam="2">  1        1 0.28967156E-01 0.20113527E+03</pdfrwt>
<pdfrwt beam="1">  1       -1 0.36845533E-01 0.20113527E+03</pdfrwt>
<totfact> 0.11269898E+03</totfact>
</mgrwt>
</event>
<event>
 6    1  0.5818426E-006  0.1341301E+03  0.7546771E-02  0.1233933E+00
         -1   -1    0    0    0  501 -0.00000000000E+00  0.00000000000E+00  0.19854339339E+02  0.19854339339E+02  0.00000000000E+00 0.  1.
          1   -1    0    0  501    0  0.00000000000E+00 -0.00000000000E+00 -0.76412344016E+03  0.76412344016E+03  0.00000000000E+00 0. -1.
          5    1    1    2  502    0  0.53449506047E+02  0.48905694073E+02 -0.30188759100E+03  0.31049448338E+03  0.47000000000E+01 0.  1.
         -5    1    1    2    0  502 -0.27253178589E+02 -0.79173115331E+01 -0.12605303628E+02  0.31407057243E+02  0.47000000000E+01 0.  1.
        -11    1    1    2    0    0 -0.87840458953E+01 -0.69077319261E+02 -0.26335368646E+03  0.27240411096E+03  0.00000000000E+00 0. -1.
         11    1    1    2    0    0 -0.17412281562E+02  0.28088936722E+02 -0.16642251974E+03  0.16967212791E+03  0.00000000000E+00 0.  1.
<mgrwt>
<rscale>  0 0.12572983E+03</rscale>
<asrwt>0</asrwt>
<pdfrwt beam="2">  1        1 0.11755744E+00 0.13413010E+03</pdfrwt>
<pdfrwt beam="1">  1       -1 0.30545142E-02 0.13413010E+03</pdfrwt>
<totfact> 0.87277650E+03</totfact>
</mgrwt>
</event>
<event>
 6    1  0.5818426E-006  0.3812601E+03  0.7546771E-02  0.1050469E+00
         -1   -1    0    0    0  501 -0.00000000000E+00  0.00000000000E+00  0.12469411221E+03  0.12469411221E+03  0.00000000000E+00 0.  1.
          1   -1    0    0  501    0  0.00000000000E+00 -0.00000000000E+00 -0.29143173566E+03  0.29143173566E+03  0.00000000000E+00 0. -1.
          5    1    1    2  502    0  0.96848589765E+01 -0.25976530710E+02  0.51447296949E+01  0.28585571269E+02  0.47000000000E+01 0.  1.
         -5    1    1    2    0  502 -0.11564859228E+03  0.94139101501E+02  0.86990752919E+01  0.14944741964E+03  0.47000000000E+01 0.  1.
        -11    1    1    2    0    0  0.22234480205E+02 -0.32436677136E+02 -0.12590182428E+03  0.13190064250E+03  0.00000000000E+00 0. -1.
         11    1    1    2    0    0  0.83729253096E+02 -0.35725893655E+02 -0.54679604154E+02  0.10619221446E+03  0.00000000000E+00 0.  1.
<mgrwt>
<rscale>  0 0.38126013E+03</rscale>
<asrwt>0</asrwt>
<pdfrwt beam="2">  1        1 0.44835651E-01 0.38126013E+03</pdfrwt>
<pdfrwt beam="1">  1       -1 0.19183710E-01 0.38126013E+03</pdfrwt>
<totfact> 0.19714323E+03</totfact>
</mgrwt>
</event>
<event>
 6    1  0.5818426E-006  0.4046455E+03  0.7546771E-02  0.1042183E+00
         -2   -1    0    0    0  501 -0.00000000000E+00  0.00000000000E+00  0.14300262273E+03  0.14300262273E+03  0.00000000000E+00 0. -1.
          2   -1    0    0  501    0  0.00000000000E+00 -0.00000000000E+00 -0.28624993484E+03  0.28624993484E+03  0.00000000000E+00 0.  1.
          5    1    1    2  502    0  0.12798289314E+02 -0.17819033218E+02 -0.24751914008E+02  0.33407505164E+02  0.47000000000E+01 0.  1.
         -5    1    1    2    0  502  0.45694861705E+02  0.59491034830E+02  0.11269985037E+03  0.13546420149E+03  0.47000000000E+01 0.  1.
        -11    1    1    2    0    0 -0.66192289645E+02  0.92034599589E+01 -0.10991482375E+03  0.12863666415E+03  0.00000000000E+00 0. -1.
         11    1    1    2    0    0  0.76991386264E+01 -0.50875461571E+02 -0.12128042473E+03  0.13174418677E+03  0.00000000000E+00 0.  1.
<mgrwt>
<rscale>  0 0.40464548E+03</rscale>
<asrwt>0</asrwt>
<pdfrwt beam="2">  1        2 0.44038451E-01 0.40464548E+03</pdfrwt>
<pdfrwt beam="1">  1       -2 0.22000404E-01 0.40464548E+03</pdfrwt>
<totfact> 0.20630865E+03</totfact>
</mgrwt>
</event>
<event>
 6    1  0.5818426E-006  0.5462275E+03  0.7546771E-02  0.1002371E+00
         -1   -1    0    0    0  501 -0.00000000000E+00  0.00000000000E+00  0.29091081334E+03  0.29091081334E+03  0.00000000000E+00 0.  1.
          1   -1    0    0  501    0  0.00000000000E+00 -0.00000000000E+00 -0.25640543918E+03  0.25640543918E+03  0.00000000000E+00 0. -1.
          5    1    1    2  502    0  0.29710049449E+02 -0.45844640321E+02  0.47220216169E+02  0.72361985182E+02  0.47000000000E+01 0. -1.
         -5    1    1    2    0  502 -0.97348023125E+02 -0.91884492862E+02  0.17139987423E+03  0.21753023818E+03  0.47000000000E+01 0.  1.
        -11    1    1    2    0    0  0.27235612752E+02  0.60298835048E+02 -0.16145834110E+02  0.68105918020E+02  0.00000000000E+00 0.  1.
         11    1    1    2    0    0  0.40402360923E+02  0.77430298134E+02 -0.16796888214E+03  0.18931811114E+03  0.00000000000E+00 0. -1.
<mgrwt>
<rscale>  0 0.54622748E+03</rscale>
<asrwt>0</asrwt>
<pdfrwt beam="2">  1        1 0.39446990E-01 0.54622748E+03</pdfrwt>
<pdfrwt beam="1">  1       -1 0.44755510E-01 0.54622748E+03</pdfrwt>
<totfact> 0.53794727E+02</totfact>
</mgrwt>
</event>
<event>
 6    1  0.5818426E-006  0.1512437E+03  0.7546771E-02  0.1208057E+00
         -2   -1    0    0    0  501 -0.00000000000E+00  0.00000000000E+00  0.20252084065E+03  0.20252084065E+03  0.00000000000E+00 0.  1.
          2   -1    0    0  501    0  0.00000000000E+00 -0.00000000000E+00 -0.94160704886E+02  0.94160704886E+02  0.00000000000E+00 0. -1.
          5    1    1    2  502    0  0.33524074977E+02 -0.60775649992E+02  0.98761281852E+02  0.12080324511E+03  0.47000000000E+01 0. -1.
         -5    1    1    2    0  502 -0.25722804139E+02 -0.24053284433E+02 -0.28897296925E+02  0.45797018618E+02  0.47000000000E+01 0. -1.
        -11    1    1    2    0    0  0.21088051227E+02  0.89692488840E+02  0.16874875383E+02  0.93670752522E+02  0.00000000000E+00 0.  1.
         11    1    1    2    0    0 -0.28889322065E+02 -0.48635544154E+01  0.21621275456E+02  0.36410529291E+02  0.00000000000E+00 0. -1.
<mgrwt>
<rscale>  0 0.14399126E+03</rscale>
<asrwt>0</asrwt>
<pdfrwt beam="2">  1        2 0.14486262E-01 0.15124375E+03</pdfrwt>
<pdfrwt beam="1">  1       -2 0.31157052E-01 0.15124375E+03</pdfrwt>
<totfact> 0.37373721E+03</totfact>
</mgrwt>
</event>
<event>
 6    1  0.5818426E-006  0.1266589E+03  0.7546771E-02  0.1241030E+00
         -2   -1    0    0    0  501 -0.00000000000E+00  0.00000000000E+00  0.33010874963E+02  0.33010874963E+02  0.00000000000E+00 0.  1.
          2   -1    0    0  501    0  0.00000000000E+00 -0.00000000000E+00 -0.41158173551E+03  0.41158173551E+03  0.00000000000E+00 0. -1.
          5    1    1    2  502    0  0.28082026332E+02 -0.18435411025E+02 -0.37480754809E+02  0.50550584206E+02  0.47000000000E+01 0. -1.
         -5    1    1    2    0  502 -0.79009374632E+02  0.44460991617E+02 -0.16347181558E+03  0.18698766148E+03  0.47000000000E+01 0.  1.
        -11    1    1    2    0    0  0.58165376591E+02 -0.46761156461E+02 -0.90971506963E+02  0.11766746308E+03  0.00000000000E+00 0. -1.
         11    1    1    2    0    0 -0.72380282905E+01  0.20735575868E+02 -0.86646783188E+02  0.89386901708E+02  0.00000000000E+00 0.  1.
<mgrwt>
<rscale>  0 0.12126159E+03</rscale>
<asrwt>0</asrwt>
<pdfrwt beam="2">  1        2 0.63320267E-01 0.12665892E+03</pdfrwt>
<pdfrwt beam="1">  1       -2 0.50785962E-02 0.12665892E+03</pdfrwt>
<totfact> 0.13885463E+04</totfact>
</mgrwt>
</event>
<event>
 6    1  0.5818426E-006  0.2880248E+03  0.7546771E-02  0.1091385E+00
         -2   -1    0    0    0  501 -0.00000000000E+00  0.00000000000E+00  0.19353070330E+02  0.19353070330E+02  0.00000000000E+00 0.  1.
          2   -1    0    0  501    0  0.00000000000E+00 -0.00000000000E+00 -0.10716426197E+04  0.10716426197E+04  0.00000000000E+00 0. -1.
          5    1    1    2  502    0  0.10058355858E+03 -0.65323233479E+00 -0.53961235373E+03  0.54892719122E+03  0.47000000000E+01 0. -1.
         -5    1    1    2    0  502 -0.91496810295E+01 -0.14167397750E+02 -0.61149456394E+01  0.18544928744E+02  0.47000000000E+01 0. -1.
        -11    1    1    2    0    0 -0.66161114948E+02 -0.34360709902E+02 -0.33797784079E+03  0.34610254605E+03  0.00000000000E+00 0. -1.
         11    1    1    2    0    0 -0.25272762606E+02  0.49181339987E+02 -0.16858440922E+03  0.17742102402E+03  0.00000000000E+00 0.  1.
<mgrwt>
<rscale>  0 0.28802483E+03</rscale>
<asrwt>0</asrwt>
<pdfrwt beam="2">  1        2 0.16486819E+00 0.28802483E+03</pdfrwt>
<pdfrwt beam="1">  1       -2 0.29773937E-02 0.28802483E+03</pdfrwt>
<totfact> 0.10171190E+04</totfact>
</mgrwt>
</event>
<event>
 6    1  0.5818426E-006  0.2962054E+03  0.7546771E-02  0.1087153E+00
          1   -1    0    0  501    0  0.00000000000E+00  0.00000000000E+00  0.17330220869E+03  0.17330220869E+03  0.00000000000E+00 0. -1.
         -1   -1    0    0    0  501 -0.00000000000E+00 -0.00000000000E+00 -0.12656736735E+03  0.12656736735E+03  0.00000000000E+00 0.  1.
          5    1    1    2  502    0 -0.45844598181E+01 -0.79042935140E+01  0.47495376628E+02  0.48594196452E+02  0.47000000000E+01 0. -1.
         -5    1    1    2    0  502 -0.31881610790E+02  0.96413240463E+02 -0.39491147014E+02  0.10905774037E+03  0.47000000000E+01 0. -1.
        -11    1    1    2    0    0 -0.21578949870E+02 -0.73128349353E+02  0.15333675673E+02  0.77772284049E+02  0.00000000000E+00 0. -1.
         11    1    1    2    0    0  0.58045020478E+02 -0.15380597596E+02  0.23396936057E+02  0.64445355159E+02  0.00000000000E+00 0.  1.
<mgrwt>
<rscale>  0 0.29620536E+03</rscale>
<asrwt>0</asrwt>
<pdfrwt beam="1">  1        1 0.26661878E-01 0.29620536E+03</pdfrwt>
<pdfrwt beam="2">  1       -1 0.19471903E-01 0.29620536E+03</pdfrwt>
<totfact> 0.37011731E+03</totfact>
</mgrwt>
</event>
<event>
 6    1  0.5818426E-006  0.3508775E+03  0.7546771E-02  0.1062255E+00
          2   -1    0    0  501    0  0.00000000000E+00  0.00000000000E+00  0.92779226640E+03  0.92779226640E+03  0.00000000000E+00 0.  1.
         -2   -1    0    0    0  501 -0.00000000000E+00 -0.00000000000E+00 -0.33174190976E+02  0.33174190976E+02  0.00000000000E+00 0. -1.
          5    1    1    2  502    0  0.22671556661E+02 -0.12433090701E+02  0.78826394834E+02  0.83091947554E+02  0.47000000000E+01 0.  1.
         -5    1    1    2    0  502 -0.74789294895E+02  0.13418885410E+03  0.28741981682E+03  0.32593301198E+03  0.47000000000E+01 0.  1.
        -11    1    1    2    0    0  0.15446195376E+02 -0.86258943999E+02  0.44974290242E+03  0.45820068599E+03  0.00000000000E+00 0.  1.
         11    1    1    2    0    0  0.36671542858E+02 -0.35496819399E+02  0.78628961354E+02  0.93740811852E+02  0.00000000000E+00 0. -1.
<mgrwt>
<rscale>  0 0.35087752E+03</rscale>
<asrwt>0</asrwt>
<pdfrwt beam="1">  1        2 0.14273725E+00 0.35087752E+03</pdfrwt>
<pdfrwt beam="2">  1       -2 0.51037224E-02 0.35087752E+03</pdfrwt>
<totfact> 0.55544292E+03</totfact>
</mgrwt>
</event>
<event>
 6    1  0.5818426E-006  0.1757699E+03  0.7546771E-02  0.1178020E+00
          1   -1    0    0  501    0  0.00000000000E+00  0.00000000000E+00  0.11380800342E+04  0.11380800342E+04  0.00000000000E+00 0. -1.
         -1   -1    0    0    0  501 -0.00000000000E+00 -0.00000000000E+00 -0.24092559960E+02  0.24092559960E+02  0.00000000000E+00 0.  1.
          5    1    1    2  502    0 -0.25614357137E+02  0.81578967689E+02  0.19447661920E+03  0.21249580861E+03  0.47000000000E+01 0.  1.
         -5    1    1    2    0  502  0.78484452285E+02  0.30179901843E+02  0.33353401641E+03  0.34400242125E+03  0.47000000000E+01 0.  1.
        -11    1    1    2    0    0 -0.31640279357E+02 -0.12386607010E+03  0.51405606608E+03  0.52971459265E+03  0.00000000000E+00 0.  1.
         11    1    1    2    0    0 -0.21229815791E+02  0.12107200564E+02  0.71920772580E+02  0.75959771673E+02  0.00000000000E+00 0. -1.
<mgrwt>
<rscale>  0 0.16983548E+03</rscale>
<asrwt>0</asrwt>
<pdfrwt beam="1">  1        1 0.17508919E+00 0.17576987E+03</pdfrwt>
<pdfrwt beam="2">  1       -1 0.37065486E-02 0.17576987E+03</pdfrwt>
<totfact> 0.34591887E+03</totfact>
</mgrwt>
</event>
<event>
 6    1  0.5818426E-006  0.1444202E+03  0.7546771E-02  0.1220553E+00
         -3   -1    0    0    0  501 -0.00000000000E+00  0.00000000000E+00  0.17314788450E+03  0.17314788450E+03  0.00000000000E+00 0.  1.
          3   -1    0    0  501    0  0.00000000000E+00 -0.00000000000E+00 -0.93398638069E+02  0.93398638069E+02  0.00000000000E+00 0. -1.
          5    1    1    2  502    0 -0.43496773973E+02 -0.11727753263E+02  0.66862856259E+01  0.45785433908E+02  0.47000000000E+01 0. -1.
         -5    1    1    2    0  502  0.98323776103E+02 -0.73875347832E+01  0.31101197276E+02  0.10349644965E+03  0.47000000000E+01 0.  1.
        -11    1    1    2    0    0 -0.70400271006E+02 -0.51249006938E+01  0.55100281235E+01  0.70801293595E+02  0.00000000000E+00 0. -1.
         11    1    1    2    0    0  0.15573268876E+02  0.24240188740E+02  0.36451735407E+02  0.46463345422E+02  0.00000000000E+00 0.  1.
<mgrwt>
<rscale>  0 0.13476410E+03</rscale>
<asrwt>0</asrwt>
<pdfrwt beam="2">  1        3 0.14369021E-01 0.14442017E+03</pdfrwt>
<pdfrwt beam="1">  1       -3 0.26638136E-01 0.14442017E+03</pdfrwt>
<totfact> 0.12429335E+03</totfact>
</mgrwt>
</event>
<event>
 6    1  0.5818426E-006  0.1295572E+03  0.7546771E-02  0.1241844E+00
         -1   -1    0    0    0  501 -0.00000000000E+00  0.00000000000E+00  0.15808085085E+03  0.15808085085E+03  0.00000000000E+00 0.  1.
          1   -1    0    0  501    0  0.00000000000E+00 -0.00000000000E+00 -0.99670694308E+02  0.99670694308E+02  0.00000000000E+00 0. -1.
          5    1    1    2  502    0  0.16904525112E+02 -0.66569289797E+02  0.92783882670E+02  0.11553429013E+03  0.47000000000E+01 0.  1.
         -5    1    1    2    0  502 -0.22121096414E+02  0.32917172287E+02 -0.60253930281E+01  0.40389088862E+02  0.47000000000E+01 0.  1.
        -11    1    1    2    0    0 -0.39989070024E+02  0.33160688313E+02 -0.93221729670E+01  0.52779350883E+02  0.00000000000E+00 0.  1.
         11    1    1    2    0    0  0.45205641327E+02  0.49142919643E+00 -0.19026160137E+02  0.49048815276E+02  0.00000000000E+00 0. -1.
<mgrwt>
<rscale>  0 0.12076295E+03</rscale>
<asrwt>0</asrwt>
<pdfrwt beam="2">  1        1 0.15333953E-01 0.12955719E+03</pdfrwt>
<pdfrwt beam="1">  1       -1 0.24320131E-01 0.12955719E+03</pdfrwt>
<totfact> 0.50207221E+03</totfact>
</mgrwt>
</event>
<event>
 6    1  0.5818426E-006  0.1841229E+03  0.7546771E-02  0.1172813E+00
         -1   -1    0    0    0  501 -0.00000000000E+00  0.00000000000E+00  0.30992952234E+02  0.30992952234E+02  0.00000000000E+00 0.  1.
          1   -1    0    0  501    0  0.00000000000E+00 -0.00000000000E+00 -0.98210472344E+03  0.98210472344E+03  0.00000000000E+00 0. -1.
          5    1    1    2  502    0 -0.21729475575E+01  0.26141846563E+02 -0.53695647967E+02  0.59945228779E+02  0.47000000000E+01 0. -1.
         -5    1    1    2    0  502  0.88614429069E+02 -0.13008768591E+03 -0.32100682052E+03  0.35755110388E+03  0.47000000000E+01 0. -1.
        -11    1    1    2    0    0 -0.70325436925E+02  0.40527565607E+02 -0.38024386372E+03  0.38881042495E+03  0.00000000000E+00 0. -1.
         11    1    1    2    0    0 -0.16116044586E+02  0.63418273741E+02 -0.19616543900E+03  0.20679091807E+03  0.00000000000E+00 0.  1.
<mgrwt>
<rscale>  0 0.17491919E+03</rscale>
<asrwt>0</asrwt>
<pdfrwt beam="2">  1        1 0.15109301E+00 0.18412292E+03</pdfrwt>
<pdfrwt beam="1">  1       -1 0.47681474E-02 0.18412292E+03</pdfrwt>
<totfact> 0.30916688E+03</totfact>
</mgrwt>
</event>
<event>
 6    1  0.5818426E-006  0.1385764E+03  0.7546771E-02  0.1226021E+00
          2   -1    0    0  501    0  0.00000000000E+00  0.00000000000E+00  0.25400351143E+03  0.25400351143E+03  0.00000000000E+00 0.  1.
         -2   -1    0    0    0  501 -0.00000000000E+00 -0.00000000000E+00 -0.61132060325E+02  0.61132060325E+02  0.00000000000E+00 0. -1.
          5    1    1    2  502    0  0.15334678130E+02  0.73273822500E+02  0.88183169874E+01  0.75525215204E+02  0.47000000000E+01 0.  1.
         -5    1    1    2    0  502  0.11125063425E+02 -0.19615433206E+02  0.94662069922E+02  0.97424482231E+02  0.47000000000E+01 0.  1.
        -11    1    1    2    0    0 -0.19731898006E+01 -0.67914906181E+02  0.25996137751E+02  0.72747007756E+02  0.00000000000E+00 0. -1.
         11    1    1    2    0    0 -0.24486551754E+02  0.14256516887E+02  0.63394926441E+02  0.69438866559E+02  0.00000000000E+00 0.  1.
<mgrwt>
<rscale>  0 0.13097176E+03</rscale>
<asrwt>0</asrwt>
<pdfrwt beam="1">  1        2 0.39077463E-01 0.13857636E+03</pdfrwt>
<pdfrwt beam="2">  1       -2 0.94049325E-02 0.13857636E+03</pdfrwt>
<totfact> 0.90941557E+03</totfact>
</mgrwt>
</event>
<event>
 6    1  0.5818426E-006  0.1828963E+03  0.7546771E-02  0.1175472E+00
         -1   -1    0    0    0  501 -0.00000000000E+00  0.00000000000E+00  0.14477449104E+03  0.14477449104E+03  0.00000000000E+00 0.  1.
          1   -1    0    0  501    0  0.00000000000E+00 -0.00000000000E+00 -0.18458442953E+03  0.18458442953E+03  0.00000000000E+00 0. -1.
          5    1    1    2  502    0  0.13546155471E+02 -0.67195064541E+02 -0.39600126302E+02  0.79302805940E+02  0.47000000000E+01 0. -1.
         -5    1    1    2    0  502 -0.96450398284E+02 -0.37452542649E+02  0.17088477760E+02  0.10497370315E+03  0.47000000000E+01 0. -1.
        -11    1    1    2    0    0  0.64740436549E+02  0.85181480157E+02  0.93671009104E+01  0.10740089043E+03  0.00000000000E+00 0.  1.
         11    1    1    2    0    0  0.18163806265E+02  0.19466127034E+02 -0.26665390853E+02  0.37681521056E+02  0.00000000000E+00 0. -1.
<mgrwt>
<rscale>  0 0.17229795E+03</rscale>
<asrwt>0</asrwt>
<pdfrwt beam="2">  1        1 0.28397605E-01 0.18289630E+03</pdfrwt>
<pdfrwt beam="1">  1       -1 0.22272999E-01 0.18289630E+03</pdfrwt>
<totfact> 0.26928164E+03</totfact>
</mgrwt>
</event>
<event>
 6    1  0.5818426E-006  0.2850750E+03  0.7546771E-02  0.1092949E+00
          2   -1    0    0  501    0  0.00000000000E+00  0.00000000000E+00  0.11466444512E+03  0.11466444512E+03  0.00000000000E+00 0. -1.
         -2   -1    0    0    0  501 -0.00000000000E+00 -0.00000000000E+00 -0.17718599993E+03  0.17718599993E+03  0.00000000000E+00 0.  1.
          5    1    1    2  502    0 -0.24894146800E+01  0.42858365559E+02 -0.60442456806E+01  0.43608022079E+02  0.47000000000E+01 0. -1.
         -5    1    1    2    0  502 -0.35564957902E+02 -0.74915314636E+02 -0.84982536408E+02  0.11883304293E+03  0.47000000000E+01 0. -1.
        -11    1    1    2    0    0  0.12758967180E+02  0.37462445982E+02 -0.39947864563E+02  0.56232179271E+02  0.00000000000E+00 0.  1.
         11    1    1    2    0    0  0.25295405402E+02 -0.54054969052E+01  0.68453091835E+02  0.73177200774E+02  0.00000000000E+00 0. -1.
<mgrwt>
<rscale>  0 0.28507497E+03</rscale>
<asrwt>0</asrwt>
<pdfrwt beam="1">  1        2 0.17640684E-01 0.28507497E+03</pdfrwt>
<pdfrwt beam="2">  1       -2 0.27259385E-01 0.28507497E+03</pdfrwt>
<totfact> 0.38979809E+03</totfact>
</mgrwt>
</event>
<event>
 6    1  0.5818426E-006  0.1405294E+03  0.7546771E-02  0.1223356E+00
          2   -1    0    0  501    0  0.00000000000E+00  0.00000000000E+00  0.76285648908E+02  0.76285648908E+02  0.00000000000E+00 0. -1.
         -2   -1    0    0    0  501 -0.00000000000E+00 -0.00000000000E+00 -0.21057454751E+03  0.21057454751E+03  0.00000000000E+00 0.  1.
          5    1    1    2  502    0 -0.44571095146E+02  0.86480366176E+01 -0.54097753340E+02  0.70781551101E+02  0.47000000000E+01 0. -1.
         -5    1    1    2    0  502  0.39223569982E+02 -0.72638089347E+02 -0.87034942399E+01  0.83142175086E+02  0.47000000000E+01 0. -1.
        -11    1    1    2    0    0 -0.43154968926E+02  0.27140335465E+02 -0.28771133938E+02  0.58538255015E+02  0.00000000000E+00 0. -1.
         11    1    1    2    0    0  0.48502494090E+02  0.36849717264E+02 -0.42716517082E+02  0.74398215213E+02  0.00000000000E+00 0.  1.
<mgrwt>
<rscale>  0 0.13280247E+03</rscale>
<asrwt>0</asrwt>
<pdfrwt beam="1">  1        2 0.11736254E-01 0.14052942E+03</pdfrwt>
<pdfrwt beam="2">  1       -2 0.32396084E-01 0.14052942E+03</pdfrwt>
<totfact> 0.44551054E+03</totfact>
</mgrwt>
</event>
<event>
 6    1  0.5818426E-006  0.1547460E+03  0.7546771E-02  0.1203157E+00
          2   -1    0    0  501    0  0.00000000000E+00  0.00000000000E+00  0.51815240259E+03  0.51815240259E+03  0.00000000000E+00 0. -1.
         -2   -1    0    0    0  501 -0.00000000000E+00 -0.00000000000E+00 -0.55032350281E+02  0.55032350281E+02  0.00000000000E+00 0.  1.
          5    1    1    2  502    0 -0.79019324137E+01  0.66115420041E+02  0.11350914713E+03  0.13168183544E+03  0.47000000000E+01 0.  1.
         -5    1    1    2    0  502  0.37144119059E+02  0.20293325636E+02 -0.22168474447E+02  0.48010789468E+02  0.47000000000E+01 0.  1.
        -11    1    1    2    0    0 -0.12658287963E+02  0.18622201873E+02  0.60729642471E+02  0.64769654403E+02  0.00000000000E+00 0. -1.
         11    1    1    2    0    0 -0.16583898682E+02 -0.10503094755E+03  0.31104973715E+03  0.32872247356E+03  0.00000000000E+00 0.  1.
<mgrwt>
<rscale>  0 0.14783622E+03</rscale>
<asrwt>0</asrwt>
<pdfrwt beam="1">  1        2 0.79715751E-01 0.15474599E+03</pdfrwt>
<pdfrwt beam="2">  1       -2 0.84665158E-02 0.15474599E+03</pdfrwt>
<totfact> 0.50198498E+03</totfact>
</mgrwt>
</event>
<event>
 6    1  0.5818426E-006  0.3862142E+03  0.7546771E-02  0.1048661E+00
          2   -1    0    0  501    0  0.00000000000E+00  0.00000000000E+00  0.76746824120E+03  0.76746824120E+03  0.00000000000E+00 0. -1.
         -2   -1    0    0    0  501 -0.00000000000E+00 -0.00000000000E+00 -0.48588782098E+02  0.48588782098E+02  0.00000000000E+00 0.  1.
          5    1    1    2  502    0 -0.17098035322E+02 -0.14044044540E+02  0.47764023197E+02  0.52849502466E+02  0.47000000000E+01 0.  1.
         -5    1    1    2    0  502  0.99434343219E+02  0.12628132162E+03  0.16295059927E+03  0.22893044490E+03  0.47000000000E+01 0.  1.
        -11    1    1    2    0    0  0.10370476013E+02 -0.45615399866E+02  0.99193500234E+02  0.10967069785E+03  0.00000000000E+00 0. -1.
         11    1    1    2    0    0 -0.92706783909E+02 -0.66621877218E+02  0.40897133641E+03  0.42460637808E+03  0.00000000000E+00 0.  1.
<mgrwt>
<rscale>  0 0.38621417E+03</rscale>
<asrwt>0</asrwt>
<pdfrwt beam="1">  1        2 0.11807203E+00 0.38621417E+03</pdfrwt>
<pdfrwt beam="2">  1       -2 0.74751978E-02 0.38621417E+03</pdfrwt>
<totfact> 0.39540949E+03</totfact>
</mgrwt>
</event>
<event>
 6    1  0.5818426E-006  0.1270053E+03  0.7546771E-02  0.1246651E+00
          1   -1    0    0  501    0  0.00000000000E+00  0.00000000000E+00  0.48754350580E+03  0.48754350580E+03  0.00000000000E+00 0. -1.
         -1   -1    0    0    0  501 -0.00000000000E+00 -0.00000000000E+00 -0.40279564148E+02  0.40279564148E+02  0.00000000000E+00 0.  1.
          5    1    1    2  502    0  0.43689141335E+02  0.13277464329E+02 -0.14319744057E+02  0.48085103716E+02  0.47000000000E+01 0.  1.
         -5    1    1    2    0  502 -0.34168606389E+02  0.70993298014E+01  0.97680472503E+02  0.10383380401E+03  0.47000000000E+01 0.  1.
        -11    1    1    2    0    0  0.36989512074E+02 -0.22619543767E+02  0.11992064862E+03  0.12751795845E+03  0.00000000000E+00 0.  1.
         11    1    1    2    0    0 -0.46510047020E+02  0.22427496364E+01  0.24398256459E+03  0.24838620377E+03  0.00000000000E+00 0. -1.
<mgrwt>
<rscale>  0 0.11787132E+03</rscale>
<asrwt>0</asrwt>
<pdfrwt beam="1">  1        1 0.75006689E-01 0.12700529E+03</pdfrwt>
<pdfrwt beam="2">  1       -1 0.61968564E-02 0.12700529E+03</pdfrwt>
<totfact> 0.56921358E+03</totfact>
</mgrwt>
</event>
<event>
 6    1  0.6205935E-006  0.1938874E+03  0.7546771E-02  0.1157088E+00
         -1   -1    0    0    0  501 -0.00000000000E+00  0.00000000000E+00  0.22474571690E+02  0.22474571690E+02  0.00000000000E+00 0.  1.
          1   -1    0    0  501    0  0.00000000000E+00 -0.00000000000E+00 -0.16073338701E+04  0.16073338701E+04  0.00000000000E+00 0. -1.
          5    1    1    2  502    0  0.41839808871E+02  0.78896157074E+02 -0.29776749111E+03  0.31090632346E+03  0.47000000000E+01 0.  1.
         -5    1    1    2    0  502 -0.80565954923E+02  0.64171012775E+02 -0.43904105813E+03  0.45098551273E+03  0.47000000000E+01 0.  1.
        -11    1    1    2    0    0 -0.38489700589E+02 -0.44070135865E+02 -0.30232112721E+03  0.30793132008E+03  0.00000000000E+00 0.  1.
         11    1    1    2    0    0  0.77215846642E+02 -0.98997033984E+02 -0.54572962200E+03  0.55998528556E+03  0.00000000000E+00 0. -1.
<mgrwt>
<rscale>  0 0.19153108E+03</rscale>
<asrwt>0</asrwt>
<pdfrwt beam="2">  1        1 0.24728220E+00 0.19388742E+03</pdfrwt>
<pdfrwt beam="1">  1       -1 0.34576255E-02 0.19388742E+03</pdfrwt>
<totfact> 0.18597455E+03</totfact>
</mgrwt>
</event>
<event>
 6    1  0.5818426E-006  0.2583374E+03  0.7546771E-02  0.1108146E+00
          1   -1    0    0  501    0  0.00000000000E+00  0.00000000000E+00  0.28328475941E+03  0.28328475941E+03  0.00000000000E+00 0. -1.
         -1   -1    0    0    0  501 -0.00000000000E+00 -0.00000000000E+00 -0.58896773044E+02  0.58896773044E+02  0.00000000000E+00 0.  1.
          5    1    1    2  502    0  0.31428799638E+02 -0.45157860985E+01 -0.16632464244E+01  0.32140599861E+02  0.47000000000E+01 0.  1.
         -5    1    1    2    0  502 -0.96686361818E+02  0.19145232378E+02  0.99720784640E+02  0.14028940578E+03  0.47000000000E+01 0.  1.
        -11    1    1    2    0    0  0.60698621347E+02  0.26062448692E+02  0.48991577124E+02  0.82242011736E+02  0.00000000000E+00 0.  1.
         11    1    1    2    0    0  0.45589408331E+01 -0.40691894971E+02  0.77338871026E+02  0.87509515079E+02  0.00000000000E+00 0. -1.
<mgrwt>
<rscale>  0 0.25833744E+03</rscale>
<asrwt>0</asrwt>
<pdfrwt beam="1">  1        1 0.43582270E-01 0.25833744E+03</pdfrwt>
<pdfrwt beam="2">  1       -1 0.90610422E-02 0.25833744E+03</pdfrwt>
<totfact> 0.66246738E+03</totfact>
</mgrwt>
</event>
<event>
 6    1  0.5818426E-006  0.1226449E+03  0.7546771E-02  0.1272852E+00
         -2   -1    0    0    0  501 -0.00000000000E+00  0.00000000000E+00  0.14707564821E+02  0.14707564821E+02  0.00000000000E+00 0.  1.
          2   -1    0    0  501    0  0.00000000000E+00 -0.00000000000E+00 -0.58685672508E+03  0.58685672508E+03  0.00000000000E+00 0. -1.
          5    1    1    2  502    0  0.12165267895E+02  0.50256854278E+02 -0.19061180374E+03  0.19755681428E+03  0.47000000000E+01 0. -1.
         -5    1    1    2    0  502 -0.34863672589E+02 -0.58562224304E+02 -0.16378251903E+03  0.17745932864E+03  0.47000000000E+01 0.  1.
        -11    1    1    2    0    0  0.12227443800E+02  0.33250179087E+02 -0.12660759036E+03  0.13147078280E+03  0.00000000000E+00 0. -1.
         11    1    1    2    0    0  0.10470960894E+02 -0.24944809061E+02 -0.91147247122E+02  0.95077364179E+02  0.00000000000E+00 0.  1.
<mgrwt>
<rscale>  0 0.10362536E+03</rscale>
<asrwt>0</asrwt>
<pdfrwt beam="2">  1        2 0.90285647E-01 0.12264490E+03</pdfrwt>
<pdfrwt beam="1">  1       -2 0.22627024E-02 0.12264490E+03</pdfrwt>
<totfact> 0.30930510E+04</totfact>
</mgrwt>
</event>
<event>
 6    1  0.5818426E-006  0.1274531E+03  0.7546771E-02  0.1249833E+00
          1   -1    0    0  501    0  0.00000000000E+00  0.00000000000E+00  0.24838040576E+03  0.24838040576E+03  0.00000000000E+00 0. -1.
         -1   -1    0    0    0  501 -0.00000000000E+00 -0.00000000000E+00 -0.72700014059E+02  0.72700014059E+02  0.00000000000E+00 0.  1.
          5    1    1    2  502    0 -0.18205623972E+01 -0.72080043160E+02  0.83561262449E+01  0.72737623794E+02  0.47000000000E+01 0. -1.
         -5    1    1    2    0  502  0.16098034350E+02  0.51840533661E+02 -0.53773000656E+01  0.54750278503E+02  0.47000000000E+01 0. -1.
        -11    1    1    2    0    0 -0.16221860726E+02  0.46282095321E+02  0.15359394479E+03  0.16123362239E+03  0.00000000000E+00 0. -1.
         11    1    1    2    0    0  0.19443887733E+01 -0.26042585822E+02  0.19107620726E+02  0.32358895126E+02  0.00000000000E+00 0.  1.
<mgrwt>
<rscale>  0 0.11600756E+03</rscale>
<asrwt>0</asrwt>
<pdfrwt beam="1">  1        1 0.38212370E-01 0.12745310E+03</pdfrwt>
<pdfrwt beam="2">  1       -1 0.11184618E-01 0.12745310E+03</pdfrwt>
<totfact> 0.54250896E+03</totfact>
</mgrwt>
</event>
<event>
 6    1  0.5818426E-006  0.2284464E+03  0.7546771E-02  0.1130895E+00
          2   -1    0    0  501    0  0.00000000000E+00  0.00000000000E+00  0.12102704587E+03  0.12102704587E+03  0.00000000000E+00 0. -1.
         -2   -1    0    0    0  501 -0.00000000000E+00 -0.00000000000E+00 -0.40218061197E+03  0.40218061197E+03  0.00000000000E+00 0.  1.
          5    1    1    2  502    0  0.22959955987E+02  0.87299161145E+01 -0.81764960811E+01  0.26311900396E+02  0.47000000000E+01 0.  1.
         -5    1    1    2    0  502 -0.25733999816E+02 -0.19992350205E+03 -0.15875728412E+03  0.25662737711E+03  0.47000000000E+01 0.  1.
        -11    1    1    2    0    0 -0.14244055998E+02  0.19034981666E+02 -0.50665220984E+02  0.55965956399E+02  0.00000000000E+00 0.  1.
         11    1    1    2    0    0  0.17018099827E+02  0.17215860427E+03 -0.63554564909E+02  0.18430242393E+03  0.00000000000E+00 0. -1.
<mgrwt>
<rscale>  0 0.22405553E+03</rscale>
<asrwt>0</asrwt>
<pdfrwt beam="1">  1        2 0.18619546E-01 0.22844638E+03</pdfrwt>
<pdfrwt beam="2">  1       -2 0.61873940E-01 0.22844638E+03</pdfrwt>
<totfact> 0.74681336E+02</totfact>
</mgrwt>
</event>
<event>
 6    1  0.5818426E-006  0.1418634E+03  0.7546771E-02  0.1221405E+00
         -1   -1    0    0    0  501 -0.00000000000E+00  0.00000000000E+00  0.47358547130E+02  0.47358547130E+02  0.00000000000E+00 0.  1.
          1   -1    0    0  501    0  0.00000000000E+00 -0.00000000000E+00 -0.35350859711E+03  0.35350859711E+03  0.00000000000E+00 0. -1.
          5    1    1    2  502    0 -0.28441664656E+02 -0.74023773670E+02 -0.11740307401E+03  0.14175337437E+03  0.47000000000E+01 0. -1.
         -5    1    1    2    0  502  0.50656127734E+02  0.10726857081E+02 -0.19891234064E+02  0.55667404578E+02  0.47000000000E+01 0. -1.
        -11    1    1    2    0    0 -0.41152279657E+02  0.66907698518E+02 -0.16640407272E+03  0.18401213455E+03  0.00000000000E+00 0. -1.
         11    1    1    2    0    0  0.18937816578E+02 -0.36107819287E+01 -0.24516691786E+01  0.19434230745E+02  0.00000000000E+00 0.  1.
<mgrwt>
<rscale>  0 0.13416357E+03</rscale>
<asrwt>0</asrwt>
<pdfrwt beam="2">  1        1 0.54385939E-01 0.14186344E+03</pdfrwt>
<pdfrwt beam="1">  1       -1 0.72859302E-02 0.14186344E+03</pdfrwt>
<totfact> 0.67603275E+03</totfact>
</mgrwt>
</event>
<event>
 6    1  0.5818426E-006  0.1689975E+03  0.7546771E-02  0.1184980E+00
          1   -1    0    0  501    0  0.00000000000E+00  0.00000000000E+00  0.36627859488E+03  0.36627859488E+03  0.00000000000E+00 0. -1.
         -1   -1    0    0    0  501 -0.00000000000E+00 -0.00000000000E+00 -0.71428148385E+02  0.71428148385E+02  0.00000000000E+00 0.  1.
          5    1    1    2  502    0 -0.78514693867E+02  0.32765408763E+02  0.63480352455E+02  0.10625429079E+03  0.47000000000E+01 0.  1.
         -5    1    1    2    0  502  0.38628472620E+02  0.73748736859E+02  0.48258394053E+02  0.96343124725E+02  0.47000000000E+01 0.  1.
        -11    1    1    2    0    0  0.31702062708E+01 -0.58640588525E+02  0.21390058956E+02  0.62500427619E+02  0.00000000000E+00 0.  1.
         11    1    1    2    0    0  0.36716014977E+02 -0.47873557098E+02  0.16172164103E+03  0.17260890013E+03  0.00000000000E+00 0. -1.
<mgrwt>
<rscale>  0 0.16333676E+03</rscale>
<asrwt>0</asrwt>
<pdfrwt beam="1">  1        1 0.56350552E-01 0.16899753E+03</pdfrwt>
<pdfrwt beam="2">  1       -1 0.10988946E-01 0.16899753E+03</pdfrwt>
<totfact> 0.34903535E+03</totfact>
</mgrwt>
</event>
<event>
 6    1  0.5818426E-006  0.1467940E+03  0.7546771E-02  0.1211368E+00
         -1   -1    0    0    0  501 -0.00000000000E+00  0.00000000000E+00  0.14174724914E+03  0.14174724914E+03  0.00000000000E+00 0.  1.
          1   -1    0    0  501    0  0.00000000000E+00 -0.00000000000E+00 -0.13920554048E+03  0.13920554048E+03  0.00000000000E+00 0. -1.
          5    1    1    2  502    0 -0.44131148259E+02  0.69228756301E+01  0.76647176419E+02  0.88838978532E+02  0.47000000000E+01 0.  1.
         -5    1    1    2    0  502 -0.27902573172E+02 -0.34012268773E+02 -0.43070781216E+02  0.61746013728E+02  0.47000000000E+01 0.  1.
        -11    1    1    2    0    0  0.56886980708E+02  0.63820516835E+02 -0.12068144634E+02  0.86341340377E+02  0.00000000000E+00 0.  1.
         11    1    1    2    0    0  0.15146740724E+02 -0.36731123692E+02 -0.18966541918E+02  0.44026456984E+02  0.00000000000E+00 0. -1.
<mgrwt>
<rscale>  0 0.14146749E+03</rscale>
<asrwt>0</asrwt>
<pdfrwt beam="2">  1        1 0.21416237E-01 0.14679396E+03</pdfrwt>
<pdfrwt beam="1">  1       -1 0.21807269E-01 0.14679396E+03</pdfrwt>
<totfact> 0.39396892E+03</totfact>
</mgrwt>
</event>
<event>
 6    1  0.5818426E-006  0.3340505E+03  0.7546771E-02  0.1115460E+00
          2   -1    0    0  501    0  0.00000000000E+00  0.00000000000E+00  0.15028650558E+04  0.15028650558E+04  0.00000000000E+00 0. -1.
         -2   -1    0    0    0  501 -0.00000000000E+00 -0.00000000000E+00 -0.31274612514E+02  0.31274612514E+02  0.00000000000E+00 0.  1.
          5    1    1    2  502    0  0.32713271001E+02  0.49005664762E+02  0.10666467534E+04  0.10682832489E+04  0.47000000000E+01 0. -1.
         -5    1    1    2    0  502 -0.71881526593E+02 -0.34014114140E+02  0.42940847390E+02  0.90498177886E+02  0.47000000000E+01 0.  1.
        -11    1    1    2    0    0  0.51309440008E+02  0.24307609214E+02  0.23937127476E+03  0.24601245025E+03  0.00000000000E+00 0.  1.
         11    1    1    2    0    0 -0.12141184415E+02 -0.39299159836E+02  0.12263156774E+03  0.12934579131E+03  0.00000000000E+00 0. -1.
<mgrwt>
<rscale>  0 0.24661884E+03</rscale>
<asrwt>0</asrwt>
<pdfrwt beam="1">  1        2 0.23120995E+00 0.33405052E+03</pdfrwt>
<pdfrwt beam="2">  1       -2 0.48114800E-02 0.33405052E+03</pdfrwt>
<totfact> 0.28221326E+03</totfact>
</mgrwt>
</event>
<event>
 6    1  0.5818426E-006  0.1322722E+03  0.7546771E-02  0.1237384E+00
          2   -1    0    0  501    0  0.00000000000E+00  0.00000000000E+00  0.31493964421E+02  0.31493964421E+02  0.00000000000E+00 0. -1.
         -2   -1    0    0    0  501 -0.00000000000E+00 -0.00000000000E+00 -0.47681532226E+03  0.47681532226E+03  0.00000000000E+00 0.  1.
          5    1    1    2  502    0 -0.26191636206E+02  0.46021359566E+02 -0.16912420346E+03  0.17728241182E+03  0.47000000000E+01 0. -1.
         -5    1    1    2    0  502 -0.46324164073E+01 -0.76359728787E+02 -0.15936182994E+03  0.17683481078E+03  0.47000000000E+01 0. -1.
        -11    1    1    2    0    0  0.16248317213E+01 -0.12288097262E+02  0.10834856848E+02  0.16463035423E+02  0.00000000000E+00 0. -1.
         11    1    1    2    0    0  0.29199220892E+02  0.42626466483E+02 -0.12767018128E+03  0.13772902866E+03  0.00000000000E+00 0.  1.
<mgrwt>
<rscale>  0 0.12353050E+03</rscale>
<asrwt>0</asrwt>
<pdfrwt beam="1">  1        2 0.48452254E-02 0.13227219E+03</pdfrwt>
<pdfrwt beam="2">  1       -2 0.73356201E-01 0.13227219E+03</pdfrwt>
<totfact> 0.26989279E+03</totfact>
</mgrwt>
</event>
<event>
 6    1  0.5818426E-006  0.2932554E+03  0.7546771E-02  0.1088662E+00
          3   -1    0    0  501    0  0.00000000000E+00  0.00000000000E+00  0.44006618231E+02  0.44006618231E+02  0.00000000000E+00 0. -1.
         -3   -1    0    0    0  501 -0.00000000000E+00 -0.00000000000E+00 -0.48855576662E+03  0.48855576662E+03  0.00000000000E+00 0.  1.
          5    1    1    2  502    0  0.26987347847E+01 -0.70319060822E+02 -0.29968807464E+03  0.30787511358E+03  0.47000000000E+01 0.  1.
         -5    1    1    2    0  502  0.91957039652E+01 -0.19831347694E+02  0.67365568767E+01  0.23351970395E+02  0.47000000000E+01 0.  1.
        -11    1    1    2    0    0  0.38356060709E+02  0.37601590631E+02 -0.35617768892E+02  0.64449146402E+02  0.00000000000E+00 0. -1.
         11    1    1    2    0    0 -0.50250499459E+02  0.52548817886E+02 -0.11597986174E+03  0.13688615447E+03  0.00000000000E+00 0.  1.
<mgrwt>
<rscale>  0 0.29325543E+03</rscale>
<asrwt>0</asrwt>
<pdfrwt beam="1">  1        3 0.67702490E-02 0.29325543E+03</pdfrwt>
<pdfrwt beam="2">  1       -3 0.75162425E-01 0.29325543E+03</pdfrwt>
<totfact> 0.61088078E+02</totfact>
</mgrwt>
</event>
<event>
 6    1  0.5818426E-006  0.1307109E+03  0.7546771E-02  0.1240331E+00
          2   -1    0    0  501    0  0.00000000000E+00  0.00000000000E+00  0.47334521998E+03  0.47334521998E+03  0.00000000000E+00 0. -1.
         -2   -1    0    0    0  501 -0.00000000000E+00 -0.00000000000E+00 -0.29838295133E+02  0.29838295133E+02  0.00000000000E+00 0.  1.
          5    1    1    2  502    0 -0.22923623630E+02 -0.33207508642E+02  0.19878767854E+02  0.45227055640E+02  0.47000000000E+01 0. -1.
         -5    1    1    2    0  502  0.58738512034E+02  0.46556602623E+02  0.16399084991E+03  0.18036856405E+03  0.47000000000E+01 0. -1.
        -11    1    1    2    0    0 -0.53108242919E+02  0.10835226355E+02  0.87691951785E+02  0.10309105686E+03  0.00000000000E+00 0.  1.
         11    1    1    2    0    0  0.17293354515E+02 -0.24184320336E+02  0.17194535530E+03  0.17449683857E+03  0.00000000000E+00 0. -1.
<mgrwt>
<rscale>  0 0.12169236E+03</rscale>
<asrwt>0</asrwt>
<pdfrwt beam="1">  1        2 0.72822336E-01 0.13071093E+03</pdfrwt>
<pdfrwt beam="2">  1       -2 0.45905073E-02 0.13071093E+03</pdfrwt>
<totfact> 0.13929619E+04</totfact>
</mgrwt>
</event>
<event>
 6    1  0.5818426E-006  0.1668994E+03  0.7546771E-02  0.1189687E+00
          1   -1    0    0  501    0  0.00000000000E+00  0.00000000000E+00  0.50018731762E+03  0.50018731762E+03  0.00000000000E+00 0. -1.
         -1   -1    0    0    0  501 -0.00000000000E+00 -0.00000000000E+00 -0.57964110581E+02  0.57964110581E+02  0.00000000000E+00 0.  1.
          5    1    1    2  502    0  0.66889963824E+01  0.28451558389E+02  0.83226856117E+02  0.88334780389E+02  0.47000000000E+01 0. -1.
         -5    1    1    2    0  502 -0.10938402757E+03 -0.31466378238E+01  0.30733927020E+02  0.11376041089E+03  0.47000000000E+01 0.  1.
        -11    1    1    2    0    0  0.84291872990E+02  0.14426720161E+02  0.26970467652E+03  0.28293791305E+03  0.00000000000E+00 0. -1.
         11    1    1    2    0    0  0.18403158195E+02 -0.39731640726E+02  0.58557747382E+02  0.73118323864E+02  0.00000000000E+00 0.  1.
<mgrwt>
<rscale>  0 0.15912627E+03</rscale>
<asrwt>0</asrwt>
<pdfrwt beam="1">  1        1 0.76951892E-01 0.16689939E+03</pdfrwt>
<pdfrwt beam="2">  1       -1 0.89175558E-02 0.16689939E+03</pdfrwt>
<totfact> 0.32227351E+03</totfact>
</mgrwt>
</event>
<event>
 6    1  0.5818426E-006  0.1391047E+03  0.7546771E-02  0.1232372E+00
          3   -1    0    0  501    0  0.00000000000E+00  0.00000000000E+00  0.17057630696E+03  0.17057630696E+03  0.00000000000E+00 0. -1.
         -3   -1    0    0    0  501 -0.00000000000E+00 -0.00000000000E+00 -0.81279077183E+02  0.81279077183E+02  0.00000000000E+00 0.  1.
          5    1    1    2  502    0 -0.43283271613E+02 -0.22504345602E+02  0.69501986461E+02  0.85044125573E+02  0.47000000000E+01 0. -1.
         -5    1    1    2    0  502  0.26989659241E+02  0.48494262085E+02 -0.24936500156E+02  0.61025029300E+02  0.47000000000E+01 0.  1.
        -11    1    1    2    0    0  0.50835889088E+02 -0.85600575223E+01  0.75058365677E+01  0.52095103289E+02  0.00000000000E+00 0.  1.
         11    1    1    2    0    0 -0.34542276715E+02 -0.17429858961E+02  0.37225906899E+02  0.53691125976E+02  0.00000000000E+00 0. -1.
<mgrwt>
<rscale>  0 0.12674171E+03</rscale>
<asrwt>0</asrwt>
<pdfrwt beam="1">  1        3 0.26242509E-01 0.13910469E+03</pdfrwt>
<pdfrwt beam="2">  1       -3 0.12504473E-01 0.13910469E+03</pdfrwt>
<totfact> 0.16068369E+03</totfact>
</mgrwt>
</event>
<event>
 6    1  0.5818426E-006  0.1395962E+03  0.7546771E-02  0.1220082E+00
         -1   -1    0    0    0  501 -0.00000000000E+00  0.00000000000E+00  0.35840009013E+02  0.35840009013E+02  0.00000000000E+00 0.  1.
          1   -1    0    0  501    0  0.00000000000E+00 -0.00000000000E+00 -0.48132509573E+03  0.48132509573E+03  0.00000000000E+00 0. -1.
          5    1    1    2  502    0 -0.20454620299E+01  0.42796619269E+02 -0.23494579763E+03  0.23886680883E+03  0.47000000000E+01 0. -1.
         -5    1    1    2    0  502 -0.39213428239E+02  0.27113566978E+02 -0.20239611526E+02  0.52005483781E+02  0.47000000000E+01 0.  1.
        -11    1    1    2    0    0 -0.28964164100E+02 -0.19756338205E+02 -0.69422694322E+02  0.77773685706E+02  0.00000000000E+00 0. -1.
         11    1    1    2    0    0  0.70223054368E+02 -0.50153848042E+02 -0.12087698323E+03  0.14851912643E+03  0.00000000000E+00 0.  1.
<mgrwt>
<rscale>  0 0.13509727E+03</rscale>
<asrwt>0</asrwt>
<pdfrwt beam="2">  1        1 0.74050014E-01 0.13959619E+03</pdfrwt>
<pdfrwt beam="1">  1       -1 0.55138476E-02 0.13959619E+03</pdfrwt>
<totfact> 0.69236405E+03</totfact>
</mgrwt>
</event>
<event>
 6    1  0.5818426E-006  0.1280638E+03  0.7546771E-02  0.1245098E+00
         -1   -1    0    0    0  501 -0.00000000000E+00  0.00000000000E+00  0.16449108298E+03  0.16449108298E+03  0.00000000000E+00 0.  1.
          1   -1    0    0  501    0  0.00000000000E+00 -0.00000000000E+00 -0.91645905363E+02  0.91645905363E+02  0.00000000000E+00 0. -1.
          5    1    1    2  502    0 -0.10472322175E+02  0.36728875822E+02 -0.15584041887E+02  0.41516649821E+02  0.47000000000E+01 0.  1.
         -5    1    1    2    0  502 -0.17429439756E+02 -0.37718639855E+02  0.10973483492E+03  0.11743213001E+03  0.47000000000E+01 0.  1.
        -11    1    1    2    0    0  0.31536716136E+02 -0.24653371260E+02 -0.46293238743E+02  0.61199813174E+02  0.00000000000E+00 0. -1.
         11    1    1    2    0    0 -0.36349542061E+01  0.25643135294E+02  0.24987623329E+02  0.35988395344E+02  0.00000000000E+00 0.  1.
<mgrwt>
<rscale>  0 0.11879539E+03</rscale>
<asrwt>0</asrwt>
<pdfrwt beam="2">  1        1 0.14099370E-01 0.12806382E+03</pdfrwt>
<pdfrwt beam="1">  1       -1 0.25306320E-01 0.12806382E+03</pdfrwt>
<totfact> 0.52396440E+03</totfact>
</mgrwt>
</event>
<event>
 6    1  0.5818426E-006  0.2665791E+03  0.7546771E-02  0.1103254E+00
          1   -1    0    0  501    0  0.00000000000E+00  0.00000000000E+00  0.14922842272E+03  0.14922842272E+03  0.00000000000E+00 0. -1.
         -1   -1    0    0    0  501 -0.00000000000E+00 -0.00000000000E+00 -0.11905309212E+03  0.11905309212E+03  0.00000000000E+00 0.  1.
          5    1    1    2  502    0 -0.22227542055E+02 -0.58926853161E+02  0.36090640339E+02  0.72739686344E+02  0.47000000000E+01 0.  1.
         -5    1    1    2    0  502  0.36376428575E+01 -0.96919759533E-01 -0.70729026599E+02  0.70978356156E+02  0.47000000000E+01 0.  1.
        -11    1    1    2    0    0  0.26782245980E+02  0.23035890765E+02 -0.13634826765E+02  0.37866204774E+02  0.00000000000E+00 0.  1.
         11    1    1    2    0    0 -0.81923467822E+01  0.35987882155E+02  0.78448543619E+02  0.86697267568E+02  0.00000000000E+00 0. -1.
<mgrwt>
<rscale>  0 0.26657911E+03</rscale>
<asrwt>0</asrwt>
<pdfrwt beam="1">  1        1 0.22958219E-01 0.26657911E+03</pdfrwt>
<pdfrwt beam="2">  1       -1 0.18315860E-01 0.26657911E+03</pdfrwt>
<totfact> 0.49296399E+03</totfact>
</mgrwt>
</event>
<event>
 6    1  0.5818426E-006  0.1446273E+03  0.7546771E-02  0.1217183E+00
         -1   -1    0    0    0  501 -0.00000000000E+00  0.00000000000E+00  0.97590271000E+02  0.97590271000E+02  0.00000000000E+00 0.  1.
          1   -1    0    0  501    0  0.00000000000E+00 -0.00000000000E+00 -0.18115304290E+03  0.18115304290E+03  0.00000000000E+00 0. -1.
          5    1    1    2  502    0  0.20288625391E+02 -0.59244123391E+02 -0.49717943038E+02  0.80096556334E+02  0.47000000000E+01 0.  1.
         -5    1    1    2    0  502  0.48244905891E+02  0.34847760481E+02  0.28370475585E+02  0.66097740051E+02  0.47000000000E+01 0.  1.
        -11    1    1    2    0    0 -0.33863286427E+02  0.11566011589E+02  0.21000580256E+02  0.41491193798E+02  0.00000000000E+00 0.  1.
         11    1    1    2    0    0 -0.34670244855E+02  0.12830351321E+02 -0.83215884700E+02  0.91057823715E+02  0.00000000000E+00 0. -1.
<mgrwt>
<rscale>  0 0.13717401E+03</rscale>
<asrwt>0</asrwt>
<pdfrwt beam="2">  1        1 0.27869699E-01 0.14462731E+03</pdfrwt>
<pdfrwt beam="1">  1       -1 0.15013888E-01 0.14462731E+03</pdfrwt>
<totfact> 0.51230073E+03</totfact>
</mgrwt>
</event>
<event>
 6    1  0.5818426E-006  0.2598447E+03  0.7546771E-02  0.1107237E+00
          2   -1    0    0  501    0  0.00000000000E+00  0.00000000000E+00  0.37585251420E+02  0.37585251420E+02  0.00000000000E+00 0. -1.
         -2   -1    0    0    0  501 -0.00000000000E+00 -0.00000000000E+00 -0.44910760085E+03  0.44910760085E+03  0.00000000000E+00 0.  1.
          5    1    1    2  502    0  0.21277488782E+02 -0.41060457322E+01 -0.26066494052E+03  0.26160636911E+03  0.47000000000E+01 0.  1.
         -5    1    1    2    0  502 -0.28024727836E+02  0.51965108071E+02 -0.52958759795E+02  0.79451104877E+02  0.47000000000E+01 0.  1.
        -11    1    1    2    0    0  0.44083408111E+02 -0.18594907268E+02 -0.15031179024E+02  0.50150311962E+02  0.00000000000E+00 0.  1.
         11    1    1    2    0    0 -0.37336169057E+02 -0.29264155071E+02 -0.82867470088E+02  0.95485066322E+02  0.00000000000E+00 0. -1.
<mgrwt>
<rscale>  0 0.25984474E+03</rscale>
<asrwt>0</asrwt>
<pdfrwt beam="1">  1        2 0.57823464E-02 0.25984474E+03</pdfrwt>
<pdfrwt beam="2">  1       -2 0.69093477E-01 0.25984474E+03</pdfrwt>
<totfact> 0.25307108E+03</totfact>
</mgrwt>
</event>
<event>
 6    1  0.5818426E-006  0.1328594E+03  0.7546771E-02  0.1233877E+00
         -2   -1    0    0    0  501 -0.00000000000E+00  0.00000000000E+00  0.33153395920E+02  0.33153395920E+02  0.00000000000E+00 0.  1.
          2   -1    0    0  501    0  0.00000000000E+00 -0.00000000000E+00 -0.58814690804E+03  0.58814690804E+03  0.00000000000E+00 0. -1.
          5    1    1    2  502    0  0.17536469967E+02 -0.56018521782E+02 -0.68263730623E+02  0.90153366438E+02  0.47000000000E+01 0. -1.
         -5    1    1    2    0  502  0.25530395001E+02  0.69016386317E+02 -0.72530454196E+02  0.10343026363E+03  0.47000000000E+01 0. -1.
        -11    1    1    2    0    0 -0.40482018171E+02 -0.44544582780E+02 -0.35962631307E+03  0.36462871349E+03  0.00000000000E+00 0. -1.
         11    1    1    2    0    0 -0.25848467974E+01  0.31546718245E+02 -0.54573014234E+02  0.63087960401E+02  0.00000000000E+00 0.  1.
<mgrwt>
<rscale>  0 0.12576629E+03</rscale>
<asrwt>0</asrwt>
<pdfrwt beam="2">  1        2 0.90484144E-01 0.13285940E+03</pdfrwt>
<pdfrwt beam="1">  1       -2 0.51005222E-02 0.13285940E+03</pdfrwt>
<totfact> 0.93639692E+03</totfact>
</mgrwt>
</event>
<event>
 6    1  0.5818426E-006  0.2950427E+03  0.7546771E-02  0.1087745E+00
          2   -1    0    0  501    0  0.00000000000E+00  0.00000000000E+00  0.50272132658E+02  0.50272132658E+02  0.00000000000E+00 0. -1.
         -2   -1    0    0    0  501 -0.00000000000E+00 -0.00000000000E+00 -0.43289501809E+03  0.43289501809E+03  0.00000000000E+00 0.  1.
          5    1    1    2  502    0 -0.83832967805E+02 -0.52158124403E+02 -0.11104490357E+03  0.14866572248E+03  0.47000000000E+01 0. -1.
         -5    1    1    2    0  502 -0.30817233588E+01  0.27476704539E+02 -0.16658145989E+03  0.16892583902E+03  0.47000000000E+01 0. -1.
        -11    1    1    2    0    0  0.38062393287E+02 -0.12585357708E+02 -0.95277160902E+02  0.10336766613E+03  0.00000000000E+00 0.  1.
         11    1    1    2    0    0  0.48852297878E+02  0.37266777573E+02 -0.97193610725E+01  0.62207923115E+02  0.00000000000E+00 0. -1.
<mgrwt>
<rscale>  0 0.29504275E+03</rscale>
<asrwt>0</asrwt>
<pdfrwt beam="1">  1        2 0.77341741E-02 0.29504275E+03</pdfrwt>
<pdfrwt beam="2">  1       -2 0.66599235E-01 0.29504275E+03</pdfrwt>
<totfact> 0.18856994E+03</totfact>
</mgrwt>
</event>
<event>
 6    1  0.5818426E-006  0.1312102E+03  0.7546771E-02  0.1239036E+00
         -3   -1    0    0    0  501 -0.00000000000E+00  0.00000000000E+00  0.89170404212E+02  0.89170404212E+02  0.00000000000E+00 0.  1.
          3   -1    0    0  501    0  0.00000000000E+00 -0.00000000000E+00 -0.15022663714E+03  0.15022663714E+03  0.00000000000E+00 0. -1.
          5    1    1    2  502    0  0.52246149615E+02  0.16651787683E+02  0.13925578879E+02  0.56771065956E+02  0.47000000000E+01 0.  1.
         -5    1    1    2    0  502 -0.29687291605E+02 -0.49543109169E+02 -0.57116749109E+02  0.81365029206E+02  0.47000000000E+01 0.  1.
        -11    1    1    2    0    0 -0.13820962763E+01  0.57268006668E+02  0.10550193245E+02  0.58248101732E+02  0.00000000000E+00 0.  1.
         11    1    1    2    0    0 -0.21176761734E+02 -0.24376685183E+02 -0.28415255946E+02  0.43012844460E+02  0.00000000000E+00 0. -1.
<mgrwt>
<rscale>  0 0.12249531E+03</rscale>
<asrwt>0</asrwt>
<pdfrwt beam="2">  1        3 0.23111790E-01 0.13121015E+03</pdfrwt>
<pdfrwt beam="1">  1       -3 0.13718524E-01 0.13121015E+03</pdfrwt>
<totfact> 0.17108599E+03</totfact>
</mgrwt>
</event>
<event>
 6    1  0.5818426E-006  0.3702706E+03  0.7546771E-02  0.1054590E+00
          2   -1    0    0  501    0  0.00000000000E+00  0.00000000000E+00  0.80827719822E+03  0.80827719822E+03  0.00000000000E+00 0. -1.
         -2   -1    0    0    0  501 -0.00000000000E+00 -0.00000000000E+00 -0.42405100143E+02  0.42405100143E+02  0.00000000000E+00 0.  1.
          5    1    1    2  502    0 -0.46487695145E+02 -0.98711754981E+02  0.50512085382E+02  0.12032737486E+03  0.47000000000E+01 0.  1.
         -5    1    1    2    0  502  0.11336918870E+02  0.10956429065E+02  0.85850250036E+02  0.87412381838E+02  0.47000000000E+01 0.  1.
        -11    1    1    2    0    0 -0.18799342731E+02  0.69231094912E+02  0.40469252213E+03  0.41100169982E+03  0.00000000000E+00 0.  1.
         11    1    1    2    0    0  0.53950119005E+02  0.18524231004E+02  0.22481724053E+03  0.23194084184E+03  0.00000000000E+00 0. -1.
<mgrwt>
<rscale>  0 0.37027058E+03</rscale>
<asrwt>0</asrwt>
<pdfrwt beam="1">  1        2 0.12435033E+00 0.37027058E+03</pdfrwt>
<pdfrwt beam="2">  1       -2 0.65238622E-02 0.37027058E+03</pdfrwt>
<totfact> 0.45738611E+03</totfact>
</mgrwt>
</event>
<event>
 6    1  0.5818426E-006  0.1786233E+03  0.7546771E-02  0.1176897E+00
         -1   -1    0    0    0  501 -0.00000000000E+00  0.00000000000E+00  0.59061841505E+02  0.59061841505E+02  0.00000000000E+00 0.  1.
          1   -1    0    0  501    0  0.00000000000E+00 -0.00000000000E+00 -0.53068124224E+03  0.53068124224E+03  0.00000000000E+00 0. -1.
          5    1    1    2  502    0 -0.55507417728E+02 -0.11434336095E+02 -0.12476276712E+03  0.13711183583E+03  0.47000000000E+01 0. -1.
         -5    1    1    2    0  502  0.38229878969E+01 -0.89958849761E+02 -0.18915571824E+02  0.92125451121E+02  0.47000000000E+01 0.  1.
        -11    1    1    2    0    0  0.58442093998E+02  0.11322835478E+03 -0.32067088453E+03  0.34505934977E+03  0.00000000000E+00 0. -1.
         11    1    1    2    0    0 -0.67576641667E+01 -0.11835168923E+02 -0.72701772628E+01  0.15446447030E+02  0.00000000000E+00 0.  1.
<mgrwt>
<rscale>  0 0.17091523E+03</rscale>
<asrwt>0</asrwt>
<pdfrwt beam="2">  1        1 0.81643266E-01 0.17862326E+03</pdfrwt>
<pdfrwt beam="1">  1       -1 0.90864374E-02 0.17862326E+03</pdfrwt>
<totfact> 0.29025906E+03</totfact>
</mgrwt>
</event>
<event>
 6    1  0.5818426E-006  0.1257491E+03  0.7546771E-02  0.1246956E+00
         -1   -1    0    0    0  501 -0.00000000000E+00  0.00000000000E+00  0.14477131357E+03  0.14477131357E+03  0.00000000000E+00 0.  1.
          1   -1    0    0  501    0  0.00000000000E+00 -0.00000000000E+00 -0.85349885491E+02  0.85349885491E+02  0.00000000000E+00 0. -1.
          5    1    1    2  502    0 -0.27701099490E+02  0.58234859597E+02  0.28503603947E+02  0.70662544698E+02  0.47000000000E+01 0.  1.
         -5    1    1    2    0  502  0.14085779579E+02 -0.56783651087E+02  0.19692579488E+01  0.58726145745E+02  0.47000000000E+01 0.  1.
        -11    1    1    2    0    0 -0.34017674370E+02 -0.76171470828E+01 -0.12758231237E+02  0.37121362630E+02  0.00000000000E+00 0. -1.
         11    1    1    2    0    0  0.47632994281E+02  0.61659385737E+01  0.41706797417E+02  0.63611145984E+02  0.00000000000E+00 0.  1.
<mgrwt>
<rscale>  0 0.11769057E+03</rscale>
<asrwt>0</asrwt>
<pdfrwt beam="2">  1        1 0.13130752E-01 0.12574911E+03</pdfrwt>
<pdfrwt beam="1">  1       -1 0.22272510E-01 0.12574911E+03</pdfrwt>
<totfact> 0.70686376E+03</totfact>
</mgrwt>
</event>
<event>
 6    1  0.5818426E-006  0.1384827E+03  0.7546771E-02  0.1225335E+00
          2   -1    0    0  501    0  0.00000000000E+00  0.00000000000E+00  0.59014272102E+03  0.59014272102E+03  0.00000000000E+00 0. -1.
         -2   -1    0    0    0  501 -0.00000000000E+00 -0.00000000000E+00 -0.27425695656E+02  0.27425695656E+02  0.00000000000E+00 0.  1.
          5    1    1    2  502    0 -0.14730504611E+01  0.31667086766E+02  0.22141563245E+03  0.22372292363E+03  0.47000000000E+01 0.  1.
         -5    1    1    2    0  502 -0.56219809944E+02 -0.16682073855E+02  0.37111248775E+02  0.69557842145E+02  0.47000000000E+01 0.  1.
        -11    1    1    2    0    0  0.19816648890E+02  0.32509354368E+02  0.20075074116E+03  0.20432918971E+03  0.00000000000E+00 0.  1.
         11    1    1    2    0    0  0.37876211515E+02 -0.47494367279E+02  0.10343940298E+03  0.11995846119E+03  0.00000000000E+00 0. -1.
<mgrwt>
<rscale>  0 0.13143943E+03</rscale>
<asrwt>0</asrwt>
<pdfrwt beam="1">  1        2 0.90791178E-01 0.13848270E+03</pdfrwt>
<pdfrwt beam="2">  1       -2 0.42193382E-02 0.13848270E+03</pdfrwt>
<totfact> 0.12423324E+04</totfact>
</mgrwt>
</event>
<event>
 6    1  0.5818426E-006  0.1263850E+03  0.7546771E-02  0.1248017E+00
          1   -1    0    0  501    0  0.00000000000E+00  0.00000000000E+00  0.69130223768E+02  0.69130223768E+02  0.00000000000E+00 0. -1.
         -1   -1    0    0    0  501 -0.00000000000E+00 -0.00000000000E+00 -0.17410682989E+03  0.17410682989E+03  0.00000000000E+00 0.  1.
          5    1    1    2  502    0  0.27363476774E+02  0.36546106855E+01 -0.83724094289E+02  0.88283237395E+02  0.47000000000E+01 0.  1.
         -5    1    1    2    0  502 -0.45935853804E+02 -0.53247898536E+01  0.23082291280E+02  0.51897381653E+02  0.47000000000E+01 0.  1.
        -11    1    1    2    0    0  0.19793023386E+02 -0.18114612414E+02 -0.67458969434E+02  0.72599004916E+02  0.00000000000E+00 0.  1.
         11    1    1    2    0    0 -0.12206463560E+01  0.19784791583E+02  0.23124166322E+02  0.30457429694E+02  0.00000000000E+00 0. -1.
<mgrwt>
<rscale>  0 0.11706592E+03</rscale>
<asrwt>0</asrwt>
<pdfrwt beam="1">  1        1 0.10635419E-01 0.12638504E+03</pdfrwt>
<pdfrwt beam="2">  1       -1 0.26785666E-01 0.12638504E+03</pdfrwt>
<totfact> 0.68927404E+03</totfact>
</mgrwt>
</event>
<event>
 6    1  0.5818426E-006  0.1388673E+03  0.7546771E-02  0.1221148E+00
         -1   -1    0    0    0  501 -0.00000000000E+00  0.00000000000E+00  0.27633590817E+02  0.27633590817E+02  0.00000000000E+00 0.  1.
          1   -1    0    0  501    0  0.00000000000E+00 -0.00000000000E+00 -0.61555960066E+03  0.61555960066E+03  0.00000000000E+00 0. -1.
          5    1    1    2  502    0  0.16145707811E+02  0.87942437254E+02 -0.29159999944E+03  0.30503640082E+03  0.47000000000E+01 0.  1.
         -5    1    1    2    0  502 -0.22997504795E+02 -0.27849154896E+02 -0.38064957035E+02  0.52682934706E+02  0.47000000000E+01 0.  1.
        -11    1    1    2    0    0 -0.29023353347E+02 -0.71038593505E+02 -0.12185612532E+03  0.14400608350E+03  0.00000000000E+00 0.  1.
         11    1    1    2    0    0  0.35875150331E+02  0.10945311148E+02 -0.13640492804E+03  0.14146777244E+03  0.00000000000E+00 0. -1.
<mgrwt>
<rscale>  0 0.13434458E+03</rscale>
<asrwt>0</asrwt>
<pdfrwt beam="2">  1        1 0.94701463E-01 0.13886734E+03</pdfrwt>
<pdfrwt beam="1">  1       -1 0.42513223E-02 0.13886734E+03</pdfrwt>
<totfact> 0.73285501E+03</totfact>
</mgrwt>
</event>
<event>
 6    1  0.5818426E-006  0.1318775E+03  0.7546771E-02  0.1237256E+00
         -1   -1    0    0    0  501 -0.00000000000E+00  0.00000000000E+00  0.18370538781E+02  0.18370538781E+02  0.00000000000E+00 0.  1.
          1   -1    0    0  501    0  0.00000000000E+00 -0.00000000000E+00 -0.74334591507E+03  0.74334591507E+03  0.00000000000E+00 0. -1.
          5    1    1    2  502    0 -0.47580787471E+02  0.18822959062E+02 -0.21398332655E+03  0.22006632901E+03  0.47000000000E+01 0. -1.
         -5    1    1    2    0  502  0.75339213264E+02  0.12758445311E+02 -0.18771718658E+03  0.20272791401E+03  0.47000000000E+01 0. -1.
        -11    1    1    2    0    0  0.11713334085E+02 -0.47925048320E+02 -0.24330167482E+03  0.24825333315E+03  0.00000000000E+00 0. -1.
         11    1    1    2    0    0 -0.39471759878E+02  0.16343643947E+02 -0.79973188346E+02  0.90668877679E+02  0.00000000000E+00 0.  1.
<mgrwt>
<rscale>  0 0.12361082E+03</rscale>
<asrwt>0</asrwt>
<pdfrwt beam="2">  1        1 0.11436088E+00 0.13187748E+03</pdfrwt>
<pdfrwt beam="1">  1       -1 0.28262375E-02 0.13187748E+03</pdfrwt>
<totfact> 0.10164573E+04</totfact>
</mgrwt>
</event>
<event>
 6    1  0.5818426E-006  0.2712327E+03  0.7546771E-02  0.1102120E+00
         -1   -1    0    0    0  501 -0.00000000000E+00  0.00000000000E+00  0.12848656765E+03  0.12848656765E+03  0.00000000000E+00 0.  1.
          1   -1    0    0  501    0  0.00000000000E+00 -0.00000000000E+00 -0.11960762413E+04  0.11960762413E+04  0.00000000000E+00 0. -1.
          5    1    1    2  502    0 -0.16054756153E+02 -0.39058020739E+02  0.33560348764E+01  0.42622026574E+02  0.47000000000E+01 0. -1.
         -5    1    1    2    0  502 -0.22628559805E+03  0.15848104293E+02 -0.55489488445E+02  0.23357548592E+03  0.47000000000E+01 0.  1.
        -11    1    1    2    0    0  0.12484456527E+03  0.45963889327E+01 -0.33391890215E+03  0.35652366749E+03  0.00000000000E+00 0.  1.
         11    1    1    2    0    0  0.11749578893E+03  0.18613527513E+02 -0.68153731793E+03  0.69184162896E+03  0.00000000000E+00 0. -1.
<mgrwt>
<rscale>  0 0.26853753E+03</rscale>
<asrwt>0</asrwt>
<pdfrwt beam="2">  1        1 0.18401172E+00 0.27123268E+03</pdfrwt>
<pdfrwt beam="1">  1       -1 0.19767165E-01 0.27123268E+03</pdfrwt>
<totfact> 0.23865823E+02</totfact>
</mgrwt>
</event>
<event>
 6    1  0.5818426E-006  0.3226694E+03  0.7546771E-02  0.1074427E+00
         -2   -1    0    0    0  501 -0.00000000000E+00  0.00000000000E+00  0.33337014954E+02  0.33337014954E+02  0.00000000000E+00 0.  1.
          2   -1    0    0  501    0  0.00000000000E+00 -0.00000000000E+00 -0.78078016316E+03  0.78078016316E+03  0.00000000000E+00 0. -1.
          5    1    1    2  502    0  0.18048284482E+02 -0.87374029715E+01  0.53558161780E+01  0.21280449957E+02  0.47000000000E+01 0.  1.
         -5    1    1    2    0  502 -0.96619631228E+02  0.38738703972E+02 -0.19319402025E+03  0.21950412248E+03  0.47000000000E+01 0.  1.
        -11    1    1    2    0    0  0.37110146603E+02 -0.61989485559E+02 -0.31335135616E+03  0.32157259166E+03  0.00000000000E+00 0.  1.
         11    1    1    2    0    0  0.41461200143E+02  0.31988184559E+02 -0.24625358798E+03  0.25176001402E+03  0.00000000000E+00 0. -1.
<mgrwt>
<rscale>  0 0.32266937E+03</rscale>
<asrwt>0</asrwt>
<pdfrwt beam="2">  1        2 0.12012000E+00 0.32266937E+03</pdfrwt>
<pdfrwt beam="1">  1       -2 0.51287724E-02 0.32266937E+03</pdfrwt>
<totfact> 0.69096025E+03</totfact>
</mgrwt>
</event>
<event>
 6    1  0.5818426E-006  0.1291594E+03  0.7546771E-02  0.1244557E+00
         -1   -1    0    0    0  501 -0.00000000000E+00  0.00000000000E+00  0.18091465125E+03  0.18091465125E+03  0.00000000000E+00 0.  1.
          1   -1    0    0  501    0  0.00000000000E+00 -0.00000000000E+00 -0.76513351609E+02  0.76513351609E+02  0.00000000000E+00 0. -1.
          5    1    1    2  502    0 -0.44210421650E+02  0.43250677538E+02  0.75926172234E+02  0.98041094038E+02  0.47000000000E+01 0. -1.
         -5    1    1    2    0  502  0.59098803395E+02 -0.14136603712E+02  0.25005778148E+02  0.65877849601E+02  0.47000000000E+01 0. -1.
        -11    1    1    2    0    0 -0.12954947523E+01 -0.45800197674E+02 -0.29240511606E+02  0.54353876887E+02  0.00000000000E+00 0.  1.
         11    1    1    2    0    0 -0.13592886993E+02  0.16686123848E+02  0.32709860869E+02  0.39155182338E+02  0.00000000000E+00 0. -1.
<mgrwt>
<rscale>  0 0.11911961E+03</rscale>
<asrwt>0</asrwt>
<pdfrwt beam="2">  1        1 0.11771285E-01 0.12915944E+03</pdfrwt>
<pdfrwt beam="1">  1       -1 0.27833023E-01 0.12915944E+03</pdfrwt>
<totfact> 0.56692093E+03</totfact>
</mgrwt>
</event>
<event>
 6    1  0.5818426E-006  0.1355135E+03  0.7546771E-02  0.1231810E+00
         -1   -1    0    0    0  501 -0.00000000000E+00  0.00000000000E+00  0.31194807555E+02  0.31194807555E+02  0.00000000000E+00 0.  1.
          1   -1    0    0  501    0  0.00000000000E+00 -0.00000000000E+00 -0.51940865801E+03  0.51940865801E+03  0.00000000000E+00 0. -1.
          5    1    1    2  502    0  0.76153504601E+01  0.37154167094E+02 -0.13634525760E+02  0.40576051900E+02  0.47000000000E+01 0. -1.
         -5    1    1    2    0  502  0.29421950182E+02 -0.74086112151E+02 -0.16827856671E+03  0.18626370870E+03  0.47000000000E+01 0. -1.
        -11    1    1    2    0    0 -0.12674762131E+02 -0.27495870099E+02 -0.50771502945E+02  0.59113602317E+02  0.00000000000E+00 0.  1.
         11    1    1    2    0    0 -0.24362538511E+02  0.64427815156E+02 -0.25552925505E+03  0.26465010265E+03  0.00000000000E+00 0. -1.
<mgrwt>
<rscale>  0 0.12710853E+03</rscale>
<asrwt>0</asrwt>
<pdfrwt beam="2">  1        1 0.79909025E-01 0.13551348E+03</pdfrwt>
<pdfrwt beam="1">  1       -1 0.47992011E-02 0.13551348E+03</pdfrwt>
<totfact> 0.76861101E+03</totfact>
</mgrwt>
</event>
<event>
 6    1  0.5818426E-006  0.1274857E+03  0.7546771E-02  0.1245647E+00
         -4   -1    0    0    0  501 -0.00000000000E+00  0.00000000000E+00  0.12925964417E+03  0.12925964417E+03  0.00000000000E+00 0.  1.
          4   -1    0    0  501    0  0.00000000000E+00 -0.00000000000E+00 -0.10708722279E+03  0.10708722279E+03  0.00000000000E+00 0. -1.
          5    1    1    2  502    0 -0.31002874993E+02 -0.41697980578E+02  0.21490065620E+02  0.56425284779E+02  0.47000000000E+01 0. -1.
         -5    1    1    2    0  502  0.53480004704E+02  0.52806132270E+02  0.29055795889E+02  0.80715102572E+02  0.47000000000E+01 0. -1.
        -11    1    1    2    0    0 -0.46184309496E+02  0.93217665295E+01 -0.43787115438E+02  0.64321048291E+02  0.00000000000E+00 0. -1.
         11    1    1    2    0    0  0.23707179784E+02 -0.20429918222E+02  0.15413675301E+02  0.34885431317E+02  0.00000000000E+00 0.  1.
<mgrwt>
<rscale>  0 0.11846726E+03</rscale>
<asrwt>0</asrwt>
<pdfrwt beam="2">  1        4 0.16474957E-01 0.12748569E+03</pdfrwt>
<pdfrwt beam="1">  1       -4 0.19886099E-01 0.12748569E+03</pdfrwt>
<totfact> 0.11842045E+03</totfact>
</mgrwt>
</event>
<event>
 6    1  0.5818426E-006  0.1407176E+03  0.7546771E-02  0.1224639E+00
         -2   -1    0    0    0  501 -0.00000000000E+00  0.00000000000E+00  0.14387201267E+03  0.14387201267E+03  0.00000000000E+00 0.  1.
          2   -1    0    0  501    0  0.00000000000E+00 -0.00000000000E+00 -0.12831935367E+03  0.12831935367E+03  0.00000000000E+00 0. -1.
          5    1    1    2  502    0 -0.66080362270E+02 -0.41623704848E+02 -0.68068458195E+01  0.78533879524E+02  0.47000000000E+01 0. -1.
         -5    1    1    2    0  502  0.25775475201E+01  0.29584954650E+02  0.69094909990E+02  0.75353234034E+02  0.47000000000E+01 0. -1.
        -11    1    1    2    0    0  0.41942919692E+01  0.32648079289E+02  0.92395934439E+01  0.34188583671E+02  0.00000000000E+00 0.  1.
         11    1    1    2    0    0  0.59308522781E+02 -0.20609329092E+02 -0.55974998611E+02  0.84115669109E+02  0.00000000000E+00 0. -1.
<mgrwt>
<rscale>  0 0.13191687E+03</rscale>
<asrwt>0</asrwt>
<pdfrwt beam="2">  1        2 0.19741439E-01 0.14071759E+03</pdfrwt>
<pdfrwt beam="1">  1       -2 0.22134156E-01 0.14071759E+03</pdfrwt>
<totfact> 0.47543937E+03</totfact>
</mgrwt>
</event>
<event>
 6    1  0.5818426E-006  0.1401141E+03  0.7546771E-02  0.1222262E+00
          3   -1    0    0  501    0  0.00000000000E+00  0.00000000000E+00  0.10869746785E+03  0.10869746785E+03  0.00000000000E+00 0. -1.
         -3   -1    0    0    0  501 -0.00000000000E+00 -0.00000000000E+00 -0.16133956649E+03  0.16133956649E+03  0.00000000000E+00 0.  1.
          5    1    1    2  502    0 -0.34971333935E+02 -0.49402416112E+02 -0.50884057627E+01  0.60922695181E+02  0.47000000000E+01 0. -1.
         -5    1    1    2    0  502 -0.25716606168E+02  0.67353015955E+02 -0.58419583804E+02  0.92912380030E+02  0.47000000000E+01 0. -1.
        -11    1    1    2    0    0  0.59895333469E-01  0.31617246664E+02  0.19918914575E+02  0.37368663769E+02  0.00000000000E+00 0. -1.
         11    1    1    2    0    0  0.60628044770E+02 -0.49567846507E+02 -0.90530236430E+01  0.78833295358E+02  0.00000000000E+00 0.  1.
<mgrwt>
<rscale>  0 0.13356357E+03</rscale>
<asrwt>0</asrwt>
<pdfrwt beam="1">  1        3 0.16722687E-01 0.14011412E+03</pdfrwt>
<pdfrwt beam="2">  1       -3 0.24821472E-01 0.14011412E+03</pdfrwt>
<totfact> 0.10837085E+03</totfact>
</mgrwt>
</event>
<event>
 6    1  0.5818426E-006  0.1278581E+03  0.7546771E-02  0.1244912E+00
         -3   -1    0    0    0  501 -0.00000000000E+00  0.00000000000E+00  0.93150615903E+02  0.93150615903E+02  0.00000000000E+00 0.  1.
          3   -1    0    0  501    0  0.00000000000E+00 -0.00000000000E+00 -0.13437917095E+03  0.13437917095E+03  0.00000000000E+00 0. -1.
          5    1    1    2  502    0 -0.21150210817E+02 -0.43628834418E+02  0.35828023263E+02  0.60469362996E+02  0.47000000000E+01 0. -1.
         -5    1    1    2    0  502 -0.42207996854E+00  0.27523980175E+02 -0.64898902181E+02  0.70652000259E+02  0.47000000000E+01 0. -1.
        -11    1    1    2    0    0 -0.35907938589E+02  0.92892943948E+01  0.77597082144E+00  0.37098155948E+02  0.00000000000E+00 0.  1.
         11    1    1    2    0    0  0.57480229375E+02  0.68155598473E+01 -0.12933646948E+02  0.59310267647E+02  0.00000000000E+00 0. -1.
<mgrwt>
<rscale>  0 0.11890626E+03</rscale>
<asrwt>0</asrwt>
<pdfrwt beam="2">  1        3 0.20673719E-01 0.12785811E+03</pdfrwt>
<pdfrwt beam="1">  1       -3 0.14330864E-01 0.12785811E+03</pdfrwt>
<totfact> 0.19276226E+03</totfact>
</mgrwt>
</event>
<event>
 6    1  0.5818426E-006  0.1464797E+03  0.7546771E-02  0.1217026E+00
          1   -1    0    0  501    0  0.00000000000E+00  0.00000000000E+00  0.39567249949E+02  0.39567249949E+02  0.00000000000E+00 0. -1.
         -1   -1    0    0    0  501 -0.00000000000E+00 -0.00000000000E+00 -0.43749264589E+03  0.43749264589E+03  0.00000000000E+00 0.  1.
          5    1    1    2  502    0  0.68817820318E+01  0.38358762487E+02 -0.13646692041E+03  0.14200022517E+03  0.47000000000E+01 0.  1.
         -5    1    1    2    0  502 -0.82385204969E+02 -0.49752854647E+02 -0.12659803839E+03  0.15909689458E+03  0.47000000000E+01 0.  1.
        -11    1    1    2    0    0  0.17488915552E+00 -0.27513580555E+02 -0.24869434011E+02  0.37087955581E+02  0.00000000000E+00 0. -1.
         11    1    1    2    0    0  0.75328533782E+02  0.38907672716E+02 -0.10999100314E+03  0.13887482050E+03  0.00000000000E+00 0.  1.
<mgrwt>
<rscale>  0 0.13728737E+03</rscale>
<asrwt>0</asrwt>
<pdfrwt beam="1">  1        1 0.60872691E-02 0.14647970E+03</pdfrwt>
<pdfrwt beam="2">  1       -1 0.67306562E-01 0.14647970E+03</pdfrwt>
<totfact> 0.28459017E+03</totfact>
</mgrwt>
</event>
<event>
 6    1  0.5818426E-006  0.1396827E+03  0.7546771E-02  0.1232641E+00
          2   -1    0    0  501    0  0.00000000000E+00  0.00000000000E+00  0.21897939394E+03  0.21897939394E+03  0.00000000000E+00 0. -1.
         -2   -1    0    0    0  501 -0.00000000000E+00 -0.00000000000E+00 -0.82294880910E+02  0.82294880910E+02  0.00000000000E+00 0.  1.
          5    1    1    2  502    0 -0.22465875565E+02  0.59368150278E+02  0.49446125474E+02  0.80599641170E+02  0.47000000000E+01 0. -1.
         -5    1    1    2    0  502  0.89320771031E+01 -0.38336629939E+02 -0.43954549276E+02  0.59190975651E+02  0.47000000000E+01 0.  1.
        -11    1    1    2    0    0 -0.27161767062E+01  0.35200112509E+02  0.43034694665E+02  0.55663367500E+02  0.00000000000E+00 0. -1.
         11    1    1    2    0    0  0.16249975168E+02 -0.56231632848E+02  0.88158242171E+02  0.10582029053E+03  0.00000000000E+00 0.  1.
<mgrwt>
<rscale>  0 0.12656662E+03</rscale>
<asrwt>0</asrwt>
<pdfrwt beam="1">  1        2 0.33689137E-01 0.13968271E+03</pdfrwt>
<pdfrwt beam="2">  1       -2 0.12660751E-01 0.13968271E+03</pdfrwt>
<totfact> 0.66589100E+03</totfact>
</mgrwt>
</event>
<event>
 6    1  0.5818426E-006  0.1818085E+03  0.7546771E-02  0.1171596E+00
         -2   -1    0    0    0  501 -0.00000000000E+00  0.00000000000E+00  0.49074090165E+03  0.49074090165E+03  0.00000000000E+00 0.  1.
          2   -1    0    0  501    0  0.00000000000E+00 -0.00000000000E+00 -0.60716407861E+02  0.60716407861E+02  0.00000000000E+00 0. -1.
          5    1    1    2  502    0 -0.49673373890E+02 -0.79111383520E+02  0.49084561201E+02  0.10562878028E+03  0.47000000000E+01 0. -1.
         -5    1    1    2    0  502 -0.67274308654E+02  0.17844537354E+02  0.14152767847E+03  0.15778603833E+03  0.47000000000E+01 0. -1.
        -11    1    1    2    0    0  0.49406519642E+02  0.71782710728E+02  0.16759002848E+03  0.18889197810E+03  0.00000000000E+00 0.  1.
         11    1    1    2    0    0  0.67541162901E+02 -0.10515864562E+02  0.71822225635E+02  0.99150512801E+02  0.00000000000E+00 0. -1.
<mgrwt>
<rscale>  0 0.17613560E+03</rscale>
<asrwt>0</asrwt>
<pdfrwt beam="2">  1        2 0.93409862E-02 0.18180853E+03</pdfrwt>
<pdfrwt beam="1">  1       -2 0.75498598E-01 0.18180853E+03</pdfrwt>
<totfact> 0.11135820E+03</totfact>
</mgrwt>
</event>
<event>
 6    1  0.5818426E-006  0.2896243E+03  0.7546771E-02  0.1090545E+00
          2   -1    0    0  501    0  0.00000000000E+00  0.00000000000E+00  0.21048352251E+03  0.21048352251E+03  0.00000000000E+00 0. -1.
         -2   -1    0    0    0  501 -0.00000000000E+00 -0.00000000000E+00 -0.99630437558E+02  0.99630437558E+02  0.00000000000E+00 0.  1.
          5    1    1    2  502    0  0.76515914139E+01 -0.28049365802E+02  0.51327331342E+02  0.59176842732E+02  0.47000000000E+01 0.  1.
         -5    1    1    2    0  502 -0.96333237024E+02  0.37177392705E+01 -0.21398170431E+02  0.98862964949E+02  0.47000000000E+01 0.  1.
        -11    1    1    2    0    0  0.45481325353E+02  0.57460820185E+02  0.55839294995E+02  0.92132099063E+02  0.00000000000E+00 0. -1.
         11    1    1    2    0    0  0.43200320257E+02 -0.33129193654E+02  0.25084629050E+02  0.59942053327E+02  0.00000000000E+00 0.  1.
<mgrwt>
<rscale>  0 0.28962435E+03</rscale>
<asrwt>0</asrwt>
<pdfrwt beam="1">  1        2 0.32382080E-01 0.28962435E+03</pdfrwt>
<pdfrwt beam="2">  1       -2 0.15327760E-01 0.28962435E+03</pdfrwt>
<totfact> 0.52970163E+03</totfact>
</mgrwt>
</event>
<event>
 6    1  0.5818426E-006  0.1805245E+03  0.7546771E-02  0.1173161E+00
         -2   -1    0    0    0  501 -0.00000000000E+00  0.00000000000E+00  0.59418264662E+02  0.59418264662E+02  0.00000000000E+00 0.  1.
          2   -1    0    0  501    0  0.00000000000E+00 -0.00000000000E+00 -0.49101323389E+03  0.49101323389E+03  0.00000000000E+00 0. -1.
          5    1    1    2  502    0 -0.73956988917E+02  0.13203093794E+03 -0.25417901974E+03  0.29585616245E+03  0.47000000000E+01 0. -1.
         -5    1    1    2    0  502  0.32576253489E+01 -0.22642283714E+02 -0.13399125798E+02  0.26924184423E+02  0.47000000000E+01 0. -1.
        -11    1    1    2    0    0 -0.11811932581E+01 -0.21223603833E+02 -0.88728593831E+02  0.91239245615E+02  0.00000000000E+00 0. -1.
         11    1    1    2    0    0  0.71880556827E+02 -0.88165050395E+02 -0.75288229859E+02  0.13641190606E+03  0.00000000000E+00 0.  1.
<mgrwt>
<rscale>  0 0.17457348E+03</rscale>
<asrwt>0</asrwt>
<pdfrwt beam="2">  1        2 0.75540499E-01 0.18052448E+03</pdfrwt>
<pdfrwt beam="1">  1       -2 0.91412713E-02 0.18052448E+03</pdfrwt>
<totfact> 0.47603153E+03</totfact>
</mgrwt>
</event>
<event>
 6    1  0.5818426E-006  0.1262063E+03  0.7546771E-02  0.1248048E+00
         -2   -1    0    0    0  501 -0.00000000000E+00  0.00000000000E+00  0.21241570045E+02  0.21241570045E+02  0.00000000000E+00 0.  1.
          2   -1    0    0  501    0  0.00000000000E+00 -0.00000000000E+00 -0.56770584672E+03  0.56770584672E+03  0.00000000000E+00 0. -1.
          5    1    1    2  502    0 -0.50676536415E+02  0.48936035966E+02 -0.18674773997E+03  0.19964883005E+03  0.47000000000E+01 0. -1.
         -5    1    1    2    0  502  0.34296969650E+02 -0.42930752546E+02 -0.12120773580E+03  0.13316432277E+03  0.47000000000E+01 0. -1.
        -11    1    1    2    0    0 -0.14933145382E+02  0.37146704234E+02 -0.10492820928E+03  0.11230674765E+03  0.00000000000E+00 0.  1.
         11    1    1    2    0    0  0.31312712147E+02 -0.43151987654E+02 -0.13358059163E+03  0.14382751629E+03  0.00000000000E+00 0. -1.
<mgrwt>
<rscale>  0 0.11704820E+03</rscale>
<asrwt>0</asrwt>
<pdfrwt beam="2">  1        2 0.87339365E-01 0.12620626E+03</pdfrwt>
<pdfrwt beam="1">  1       -2 0.32679337E-02 0.12620626E+03</pdfrwt>
<totfact> 0.18808710E+04</totfact>
</mgrwt>
</event>
<event>
 6    1  0.5818426E-006  0.1283748E+03  0.7546771E-02  0.1249397E+00
         -2   -1    0    0    0  501 -0.00000000000E+00  0.00000000000E+00  0.60450588284E+02  0.60450588284E+02  0.00000000000E+00 0.  1.
          2   -1    0    0  501    0  0.00000000000E+00 -0.00000000000E+00 -0.22207433657E+03  0.22207433657E+03  0.00000000000E+00 0. -1.
          5    1    1    2  502    0  0.46184161953E+02 -0.41889084053E+02 -0.60042131238E+02  0.86688059741E+02  0.47000000000E+01 0. -1.
         -5    1    1    2    0  502 -0.23356604196E+02  0.38192682240E+02  0.17876469210E+02  0.48434183049E+02  0.47000000000E+01 0.  1.
        -11    1    1    2    0    0  0.30419057473E+02 -0.87912473748E+01 -0.44035706649E+02  0.54237888492E+02  0.00000000000E+00 0.  1.
         11    1    1    2    0    0 -0.53246615230E+02  0.12487649188E+02 -0.75422379611E+02  0.93164793575E+02  0.00000000000E+00 0. -1.
<mgrwt>
<rscale>  0 0.11626059E+03</rscale>
<asrwt>0</asrwt>
<pdfrwt beam="2">  1        2 0.34165282E-01 0.12837475E+03</pdfrwt>
<pdfrwt beam="1">  1       -2 0.93000906E-02 0.12837475E+03</pdfrwt>
<totfact> 0.10620495E+04</totfact>
</mgrwt>
</event>
<event>
 6    1  0.5818426E-006  0.3601497E+03  0.7546771E-02  0.1058525E+00
         -1   -1    0    0    0  501 -0.00000000000E+00  0.00000000000E+00  0.30080890922E+02  0.30080890922E+02  0.00000000000E+00 0.  1.
          1   -1    0    0  501    0  0.00000000000E+00 -0.00000000000E+00 -0.10779918860E+04  0.10779918860E+04  0.00000000000E+00 0. -1.
          5    1    1    2  502    0  0.11676137864E+03  0.95087189382E+02 -0.40515460471E+03  0.43225818308E+03  0.47000000000E+01 0. -1.
         -5    1    1    2    0  502 -0.81462947309E+01 -0.13579147694E+02 -0.46008230882E+01  0.17146805621E+02  0.47000000000E+01 0. -1.
        -11    1    1    2    0    0 -0.10053921221E+03 -0.22129950670E+02 -0.41986501425E+03  0.43230139729E+03  0.00000000000E+00 0. -1.
         11    1    1    2    0    0 -0.80758717037E+01 -0.59378091018E+02 -0.21829055300E+03  0.22636639089E+03  0.00000000000E+00 0.  1.
<mgrwt>
<rscale>  0 0.36014973E+03</rscale>
<asrwt>0</asrwt>
<pdfrwt beam="2">  1        1 0.16584489E+00 0.36014973E+03</pdfrwt>
<pdfrwt beam="1">  1       -1 0.46278299E-02 0.36014973E+03</pdfrwt>
<totfact> 0.27736328E+03</totfact>
</mgrwt>
</event>
<event>
 6    1  0.5818426E-006  0.1253418E+03  0.7546771E-02  0.1250133E+00
          4   -1    0    0  501    0  0.00000000000E+00  0.00000000000E+00  0.12986856413E+03  0.12986856413E+03  0.00000000000E+00 0.  1.
         -4   -1    0    0    0  501 -0.00000000000E+00 -0.00000000000E+00 -0.11537619893E+03  0.11537619893E+03  0.00000000000E+00 0. -1.
          5    1    1    2  502    0  0.41161902584E+02  0.41774886279E+02 -0.33298531379E+02  0.67604182858E+02  0.47000000000E+01 0.  1.
         -5    1    1    2    0  502 -0.50397148713E+02 -0.40804144700E+02 -0.15012396036E+02  0.66725653671E+02  0.47000000000E+01 0.  1.
        -11    1    1    2    0    0 -0.35307169430E+01  0.29344924699E+02  0.71093251062E+02  0.76992473102E+02  0.00000000000E+00 0.  1.
         11    1    1    2    0    0  0.12765963072E+02 -0.30315666277E+02 -0.82899584479E+01  0.33922453421E+02  0.00000000000E+00 0. -1.
<mgrwt>
<rscale>  0 0.11583340E+03</rscale>
<asrwt>0</asrwt>
<pdfrwt beam="1">  1        4 0.19979779E-01 0.12534177E+03</pdfrwt>
<pdfrwt beam="2">  1       -4 0.17750184E-01 0.12534177E+03</pdfrwt>
<totfact> 0.10255435E+03</totfact>
</mgrwt>
</event>
<event>
 6    1  0.8099163E-006  0.3570456E+03  0.7546771E-02  0.1059760E+00
          1   -1    0    0  501    0  0.00000000000E+00  0.00000000000E+00  0.58660234562E+03  0.58660234562E+03  0.00000000000E+00 0. -1.
         -1   -1    0    0    0  501 -0.00000000000E+00 -0.00000000000E+00 -0.54330474741E+02  0.54330474741E+02  0.00000000000E+00 0.  1.
          5    1    1    2  502    0  0.30724047076E+02  0.28722914805E+01  0.12693808726E+03  0.13071949022E+03  0.47000000000E+01 0. -1.
         -5    1    1    2    0  502  0.41902135383E+02  0.10497991568E+03  0.56189473009E+02  0.12631673889E+03  0.47000000000E+01 0. -1.
        -11    1    1    2    0    0 -0.87171336547E+02 -0.53393413024E+02  0.24512877895E+03  0.26558956444E+03  0.00000000000E+00 0. -1.
         11    1    1    2    0    0  0.14545154088E+02 -0.54458794137E+02  0.10401553166E+03  0.11830702681E+03  0.00000000000E+00 0.  1.
<mgrwt>
<rscale>  0 0.35704557E+03</rscale>
<asrwt>0</asrwt>
<pdfrwt beam="1">  1        1 0.90246511E-01 0.35704557E+03</pdfrwt>
<pdfrwt beam="2">  1       -1 0.83585350E-02 0.35704557E+03</pdfrwt>
<totfact> 0.29307123E+03</totfact>
</mgrwt>
</event>
<event>
 6    1  0.5818426E-006  0.1364647E+03  0.7546771E-02  0.1229917E+00
         -2   -1    0    0    0  501 -0.00000000000E+00  0.00000000000E+00  0.80787780835E+02  0.80787780835E+02  0.00000000000E+00 0. -1.
          2   -1    0    0  501    0  0.00000000000E+00 -0.00000000000E+00 -0.18583994070E+03  0.18583994070E+03  0.00000000000E+00 0.  1.
          5    1    1    2  502    0 -0.29846378848E+02 -0.20045023311E+02  0.10607972910E+02  0.37778676249E+02  0.47000000000E+01 0.  1.
         -5    1    1    2    0  502  0.71084085280E+02  0.56079702508E+02 -0.53479936801E+02  0.10526192975E+03  0.47000000000E+01 0.  1.
        -11    1    1    2    0    0 -0.27866558362E+02 -0.36797031768E+02  0.12415523127E+02  0.47798659358E+02  0.00000000000E+00 0. -1.
         11    1    1    2    0    0 -0.13371148070E+02  0.76235257087E+00 -0.74595719097E+02  0.75788456177E+02  0.00000000000E+00 0.  1.
<mgrwt>
<rscale>  0 0.12835522E+03</rscale>
<asrwt>0</asrwt>
<pdfrwt beam="2">  1        2 0.28590760E-01 0.13646468E+03</pdfrwt>
<pdfrwt beam="1">  1       -2 0.12428890E-01 0.13646468E+03</pdfrwt>
<totfact> 0.81772457E+03</totfact>
</mgrwt>
</event>
<event>
 6    1  0.5818426E-006  0.1644192E+03  0.7546771E-02  0.1191177E+00
          2   -1    0    0  501    0  0.00000000000E+00  0.00000000000E+00  0.52258988765E+02  0.52258988765E+02  0.00000000000E+00 0. -1.
         -2   -1    0    0    0  501 -0.00000000000E+00 -0.00000000000E+00 -0.45318743158E+03  0.45318743158E+03  0.00000000000E+00 0.  1.
          5    1    1    2  502    0 -0.40390693756E+02  0.54231821829E+02 -0.20973750653E+03  0.22041871583E+03  0.47000000000E+01 0.  1.
         -5    1    1    2    0  502 -0.63397463045E+02 -0.28970980229E+02 -0.46112944213E+02  0.83708121709E+02  0.47000000000E+01 0.  1.
        -11    1    1    2    0    0  0.77897659410E+02 -0.71962992578E+00 -0.14616636959E+03  0.16562961936E+03  0.00000000000E+00 0.  1.
         11    1    1    2    0    0  0.25890497390E+02 -0.24541211674E+02  0.10883775219E+01  0.35689963451E+02  0.00000000000E+00 0. -1.
<mgrwt>
<rscale>  0 0.15782235E+03</rscale>
<asrwt>0</asrwt>
<pdfrwt beam="1">  1        2 0.80398441E-02 0.16441922E+03</pdfrwt>
<pdfrwt beam="2">  1       -2 0.69721146E-01 0.16441922E+03</pdfrwt>
<totfact> 0.15883471E+03</totfact>
</mgrwt>
</event>
<event>
 6    1  0.5818426E-006  0.2092770E+03  0.7546771E-02  0.1147036E+00
          2   -1    0    0  501    0  0.00000000000E+00  0.00000000000E+00  0.66234412404E+03  0.66234412404E+03  0.00000000000E+00 0. -1.
         -2   -1    0    0    0  501 -0.00000000000E+00 -0.00000000000E+00 -0.67301783569E+02  0.67301783569E+02  0.00000000000E+00 0.  1.
          5    1    1    2  502    0 -0.15724847934E+03 -0.16048041457E+02  0.91895673373E+02  0.18289759068E+03  0.47000000000E+01 0.  1.
         -5    1    1    2    0  502 -0.57578624809E+01 -0.23992906343E+02  0.93082431008E+02  0.96411832767E+02  0.47000000000E+01 0.  1.
        -11    1    1    2    0    0  0.91882317551E+02  0.12781304496E+02  0.31580700074E+03  0.32915009303E+03  0.00000000000E+00 0. -1.
         11    1    1    2    0    0  0.71124024273E+02  0.27259643305E+02  0.94257235349E+02  0.12118639114E+03  0.00000000000E+00 0.  1.
<mgrwt>
<rscale>  0 0.20323777E+03</rscale>
<asrwt>0</asrwt>
<pdfrwt beam="1">  1        2 0.10189909E+00 0.20927698E+03</pdfrwt>
<pdfrwt beam="2">  1       -2 0.10354121E-01 0.20927698E+03</pdfrwt>
<totfact> 0.27911354E+03</totfact>
</mgrwt>
</event>
<event>
 6    1  0.5818426E-006  0.1373179E+03  0.7546771E-02  0.1227495E+00
          1   -1    0    0  501    0  0.00000000000E+00  0.00000000000E+00  0.25711749474E+02  0.25711749474E+02  0.00000000000E+00 0.  1.
         -1   -1    0    0    0  501 -0.00000000000E+00 -0.00000000000E+00 -0.60472256098E+03  0.60472256098E+03  0.00000000000E+00 0. -1.
          5    1    1    2  502    0  0.50582436217E+02  0.68473596674E+02 -0.28587040660E+03  0.29831392134E+03  0.47000000000E+01 0.  1.
         -5    1    1    2    0  502  0.12236889981E+01 -0.45072801047E+02 -0.73000386402E+02  0.85931375084E+02  0.47000000000E+01 0.  1.
        -11    1    1    2    0    0 -0.31367448614E+02 -0.59601799525E+02 -0.15377855397E+03  0.16788131224E+03  0.00000000000E+00 0.  1.
         11    1    1    2    0    0 -0.20438676602E+02  0.36201003898E+02 -0.66361464541E+02  0.78307701796E+02  0.00000000000E+00 0. -1.
<mgrwt>
<rscale>  0 0.12997378E+03</rscale>
<asrwt>0</asrwt>
<pdfrwt beam="1">  1        1 0.39556542E-02 0.13731789E+03</pdfrwt>
<pdfrwt beam="2">  1       -1 0.93034231E-01 0.13731789E+03</pdfrwt>
<totfact> 0.26393475E+03</totfact>
</mgrwt>
</event>
<event>
 6    1  0.5818426E-006  0.1257877E+03  0.7546771E-02  0.1248639E+00
          1   -1    0    0  501    0  0.00000000000E+00  0.00000000000E+00  0.22859994953E+03  0.22859994953E+03  0.00000000000E+00 0. -1.
         -1   -1    0    0    0  501 -0.00000000000E+00 -0.00000000000E+00 -0.66833321236E+02  0.66833321236E+02  0.00000000000E+00 0.  1.
          5    1    1    2  502    0 -0.54324569360E+02  0.26396747132E+01  0.33737591898E+02  0.64175087268E+02  0.47000000000E+01 0.  1.
         -5    1    1    2    0  502  0.60493328283E+02 -0.15266974706E+02 -0.11353730980E+02  0.63588682095E+02  0.47000000000E+01 0.  1.
        -11    1    1    2    0    0  0.36755091587E+02  0.28378066185E+02  0.57740650870E+02  0.74096114344E+02  0.00000000000E+00 0.  1.
         11    1    1    2    0    0 -0.42923850510E+02 -0.15750766192E+02  0.81642116508E+02  0.93573387061E+02  0.00000000000E+00 0. -1.
<mgrwt>
<rscale>  0 0.11670192E+03</rscale>
<asrwt>0</asrwt>
<pdfrwt beam="1">  1        1 0.35169223E-01 0.12578769E+03</pdfrwt>
<pdfrwt beam="2">  1       -1 0.10282050E-01 0.12578769E+03</pdfrwt>
<totfact> 0.68299953E+03</totfact>
</mgrwt>
</event>
<event>
 6    1  0.5818426E-006  0.1458395E+03  0.7546771E-02  0.1215605E+00
          1   -1    0    0  501    0  0.00000000000E+00  0.00000000000E+00  0.12542391301E+03  0.12542391301E+03  0.00000000000E+00 0. -1.
         -1   -1    0    0    0  501 -0.00000000000E+00 -0.00000000000E+00 -0.13938057189E+03  0.13938057189E+03  0.00000000000E+00 0.  1.
          5    1    1    2  502    0 -0.16930183825E+02  0.16554583393E+02  0.53412885301E+02  0.58614944100E+02  0.47000000000E+01 0.  1.
         -5    1    1    2    0  502 -0.15194481924E+02  0.51358395387E+02 -0.69853293888E+02  0.88148339318E+02  0.47000000000E+01 0.  1.
        -11    1    1    2    0    0  0.61552401485E+02 -0.28259550552E+02  0.86417539567E+01  0.68278695340E+02  0.00000000000E+00 0. -1.
         11    1    1    2    0    0 -0.29427735736E+02 -0.39653428227E+02 -0.61580042553E+01  0.49762506138E+02  0.00000000000E+00 0.  1.
<mgrwt>
<rscale>  0 0.13832187E+03</rscale>
<asrwt>0</asrwt>
<pdfrwt beam="1">  1        1 0.19295987E-01 0.14583955E+03</pdfrwt>
<pdfrwt beam="2">  1       -1 0.21443165E-01 0.14583955E+03</pdfrwt>
<totfact> 0.46213589E+03</totfact>
</mgrwt>
</event>
<event>
 6    1  0.5818426E-006  0.1436897E+03  0.7546771E-02  0.1218520E+00
         -1   -1    0    0    0  501 -0.00000000000E+00  0.00000000000E+00  0.39884950642E+02  0.39884950642E+02  0.00000000000E+00 0.  1.
          1   -1    0    0  501    0  0.00000000000E+00 -0.00000000000E+00 -0.42830552347E+03  0.42830552347E+03  0.00000000000E+00 0. -1.
          5    1    1    2  502    0  0.95360224724E+02  0.23530418224E+01 -0.76780060018E+02  0.12254132724E+03  0.47000000000E+01 0. -1.
         -5    1    1    2    0  502 -0.24559857275E+02 -0.30165069169E+01 -0.11147523958E+03  0.11428519126E+03  0.47000000000E+01 0. -1.
        -11    1    1    2    0    0 -0.57229369621E+01  0.29292027319E+02 -0.12244787371E+03  0.12603276022E+03  0.00000000000E+00 0. -1.
         11    1    1    2    0    0 -0.65077430487E+02 -0.28628562225E+02 -0.77717399521E+02  0.10533119539E+03  0.00000000000E+00 0.  1.
<mgrwt>
<rscale>  0 0.13621114E+03</rscale>
<asrwt>0</asrwt>
<pdfrwt beam="2">  1        1 0.65893154E-01 0.14368974E+03</pdfrwt>
<pdfrwt beam="1">  1       -1 0.61361466E-02 0.14368974E+03</pdfrwt>
<totfact> 0.68710223E+03</totfact>
</mgrwt>
</event>
<event>
 6    1  0.5818426E-006  0.1346392E+03  0.7546771E-02  0.1233405E+00
          1   -1    0    0  501    0  0.00000000000E+00  0.00000000000E+00  0.60966967470E+03  0.60966967470E+03  0.00000000000E+00 0. -1.
         -1   -1    0    0    0  501 -0.00000000000E+00 -0.00000000000E+00 -0.26324676438E+02  0.26324676438E+02  0.00000000000E+00 0.  1.
          5    1    1    2  502    0 -0.63969371266E+01 -0.54553444699E+02  0.54122121064E+02  0.77254728798E+02  0.47000000000E+01 0. -1.
         -5    1    1    2    0  502  0.56428999147E+02  0.44472858898E+02  0.16347091538E+03  0.17862501868E+03  0.47000000000E+01 0. -1.
        -11    1    1    2    0    0  0.15112890455E+02 -0.12383166850E+02  0.21574964408E+02  0.29107067326E+02  0.00000000000E+00 0.  1.
         11    1    1    2    0    0 -0.65144952475E+02  0.22463752652E+02  0.34417699741E+03  0.35100753633E+03  0.00000000000E+00 0. -1.
<mgrwt>
<rscale>  0 0.12607111E+03</rscale>
<asrwt>0</asrwt>
<pdfrwt beam="1">  1        1 0.93795324E-01 0.13463921E+03</pdfrwt>
<pdfrwt beam="2">  1       -1 0.40499507E-02 0.13463921E+03</pdfrwt>
<totfact> 0.79602337E+03</totfact>
</mgrwt>
</event>
<event>
 6    1  0.5818426E-006  0.2384032E+03  0.7546771E-02  0.1120861E+00
         -1   -1    0    0    0  501 -0.00000000000E+00  0.00000000000E+00  0.22836786482E+03  0.22836786482E+03  0.00000000000E+00 0.  1.
          1   -1    0    0  501    0  0.00000000000E+00 -0.00000000000E+00 -0.62219890656E+02  0.62219890656E+02  0.00000000000E+00 0. -1.
          5    1    1    2  502    0 -0.26347253928E+02  0.23717032039E+02 -0.10282149413E+01  0.35774608653E+02  0.47000000000E+01 0. -1.
         -5    1    1    2    0  502  0.70006166948E+02 -0.28875255956E+02  0.12187026602E+03  0.14355868332E+03  0.47000000000E+01 0. -1.
        -11    1    1    2    0    0 -0.20619235608E+02 -0.32527933824E+02 -0.10656982984E+02  0.39959862891E+02  0.00000000000E+00 0. -1.
         11    1    1    2    0    0 -0.23039677412E+02  0.37686157740E+02  0.55962906069E+02  0.71294600610E+02  0.00000000000E+00 0.  1.
<mgrwt>
<rscale>  0 0.23840322E+03</rscale>
<asrwt>0</asrwt>
<pdfrwt beam="2">  1        1 0.95722910E-02 0.23840322E+03</pdfrwt>
<pdfrwt beam="1">  1       -1 0.35133517E-01 0.23840322E+03</pdfrwt>
<totfact> 0.52170072E+03</totfact>
</mgrwt>
</event>
<event>
 6    1  0.5818426E-006  0.1372285E+03  0.7546771E-02  0.1229136E+00
          3   -1    0    0  501    0  0.00000000000E+00  0.00000000000E+00  0.12586905060E+03  0.12586905060E+03  0.00000000000E+00 0. -1.
         -3   -1    0    0    0  501 -0.00000000000E+00 -0.00000000000E+00 -0.12235072514E+03  0.12235072514E+03  0.00000000000E+00 0.  1.
          5    1    1    2  502    0 -0.21652913255E+02  0.16332760661E+02 -0.73117527087E+02  0.78127271106E+02  0.47000000000E+01 0. -1.
         -5    1    1    2    0  502 -0.18073644190E+02  0.24033808538E+02  0.52457390873E+02  0.60647740472E+02  0.47000000000E+01 0. -1.
        -11    1    1    2    0    0  0.51961406333E+02 -0.16421798990E+02  0.48676558470E+02  0.73068943982E+02  0.00000000000E+00 0. -1.
         11    1    1    2    0    0 -0.12234848888E+02 -0.23944770210E+02 -0.24498096793E+02  0.36375820186E+02  0.00000000000E+00 0.  1.
<mgrwt>
<rscale>  0 0.12887411E+03</rscale>
<asrwt>0</asrwt>
<pdfrwt beam="1">  1        3 0.19364469E-01 0.13722851E+03</pdfrwt>
<pdfrwt beam="2">  1       -3 0.18823189E-01 0.13722851E+03</pdfrwt>
<totfact> 0.13678801E+03</totfact>
</mgrwt>
</event>
<event>
 6    1  0.5818426E-006  0.1914441E+03  0.7546771E-02  0.1161452E+00
          2   -1    0    0  501    0  0.00000000000E+00  0.00000000000E+00  0.67654793634E+03  0.67654793634E+03  0.00000000000E+00 0.  1.
         -2   -1    0    0    0  501 -0.00000000000E+00 -0.00000000000E+00 -0.50363024940E+02  0.50363024940E+02  0.00000000000E+00 0. -1.
          5    1    1    2  502    0  0.42223829282E+02  0.10302748058E+03  0.19771161343E+03  0.22695701267E+03  0.47000000000E+01 0. -1.
         -5    1    1    2    0  502  0.73358233974E+02 -0.15468157658E+02  0.74175846406E+02  0.10556912704E+03  0.47000000000E+01 0. -1.
        -11    1    1    2    0    0 -0.23624375015E+02  0.14998059206E+02  0.11421296678E+03  0.11759104836E+03  0.00000000000E+00 0.  1.
         11    1    1    2    0    0 -0.91957688240E+02 -0.10255738213E+03  0.24008448478E+03  0.27679377321E+03  0.00000000000E+00 0. -1.
<mgrwt>
<rscale>  0 0.18672163E+03</rscale>
<asrwt>0</asrwt>
<pdfrwt beam="1">  1        2 0.10408429E+00 0.19144410E+03</pdfrwt>
<pdfrwt beam="2">  1       -2 0.77481582E-02 0.19144410E+03</pdfrwt>
<totfact> 0.42816409E+03</totfact>
</mgrwt>
</event>
<event>
 6    1  0.5818426E-006  0.2251233E+03  0.7546771E-02  0.1133541E+00
         -1   -1    0    0    0  501 -0.00000000000E+00  0.00000000000E+00  0.86334400315E+02  0.86334400315E+02  0.00000000000E+00 0.  1.
          1   -1    0    0  501    0  0.00000000000E+00 -0.00000000000E+00 -0.56170494855E+03  0.56170494855E+03  0.00000000000E+00 0. -1.
          5    1    1    2  502    0  0.35200706413E+02  0.12348000560E+03 -0.17258684125E+03  0.21516205355E+03  0.47000000000E+01 0. -1.
         -5    1    1    2    0  502  0.67194528507E+02  0.33273042838E+02 -0.12251653345E+02  0.76120910732E+02  0.47000000000E+01 0. -1.
        -11    1    1    2    0    0 -0.72615644669E+02 -0.69253275025E+02 -0.21546302590E+03  0.23768332605E+03  0.00000000000E+00 0. -1.
         11    1    1    2    0    0 -0.29779590252E+02 -0.87499773410E+02 -0.75069027730E+02  0.11907305853E+03  0.00000000000E+00 0.  1.
<mgrwt>
<rscale>  0 0.22045997E+03</rscale>
<asrwt>0</asrwt>
<pdfrwt beam="2">  1        1 0.86416146E-01 0.22512329E+03</pdfrwt>
<pdfrwt beam="1">  1       -1 0.13282215E-01 0.22512329E+03</pdfrwt>
<totfact> 0.15004937E+03</totfact>
</mgrwt>
</event>
<event>
 6    1  0.5818426E-006  0.1396982E+03  0.7546771E-02  0.1225802E+00
          1   -1    0    0  501    0  0.00000000000E+00  0.00000000000E+00  0.35555855891E+03  0.35555855891E+03  0.00000000000E+00 0. -1.
         -1   -1    0    0    0  501 -0.00000000000E+00 -0.00000000000E+00 -0.44950415969E+02  0.44950415969E+02  0.00000000000E+00 0.  1.
          5    1    1    2  502    0 -0.27661219664E+01  0.29720711838E+02 -0.38281429379E+01  0.30458444170E+02  0.47000000000E+01 0. -1.
         -5    1    1    2    0  502 -0.35559336892E+02 -0.78918408644E+02  0.13974900818E+03  0.16445198981E+03  0.47000000000E+01 0. -1.
        -11    1    1    2    0    0 -0.94065203650E+01 -0.10837140261E+02 -0.49867497209E+00  0.14358792120E+02  0.00000000000E+00 0.  1.
         11    1    1    2    0    0  0.47731979224E+02  0.60034837067E+02  0.17518595267E+03  0.19123974878E+03  0.00000000000E+00 0. -1.
<mgrwt>
<rscale>  0 0.13112078E+03</rscale>
<asrwt>0</asrwt>
<pdfrwt beam="1">  1        1 0.54701315E-01 0.13969823E+03</pdfrwt>
<pdfrwt beam="2">  1       -1 0.69154489E-02 0.13969823E+03</pdfrwt>
<totfact> 0.72517227E+03</totfact>
</mgrwt>
</event>
<event>
 6    1  0.5818426E-006  0.1303768E+03  0.7546771E-02  0.1239707E+00
         -3   -1    0    0    0  501 -0.00000000000E+00  0.00000000000E+00  0.14523517366E+03  0.14523517366E+03  0.00000000000E+00 0.  1.
          3   -1    0    0  501    0  0.00000000000E+00 -0.00000000000E+00 -0.92770869813E+02  0.92770869813E+02  0.00000000000E+00 0. -1.
          5    1    1    2  502    0 -0.35675552750E+02 -0.46450046473E+02  0.58205859263E+02  0.82706492695E+02  0.47000000000E+01 0.  1.
         -5    1    1    2    0  502  0.50872286259E+02  0.12388716044E+02 -0.14957818914E+02  0.54656162883E+02  0.47000000000E+01 0.  1.
        -11    1    1    2    0    0 -0.46101592031E+02  0.47324746042E+02  0.12400222659E+01  0.66079694544E+02  0.00000000000E+00 0. -1.
         11    1    1    2    0    0  0.30904858522E+02 -0.13263415613E+02  0.79762412322E+01  0.34563693353E+02  0.00000000000E+00 0.  1.
<mgrwt>
<rscale>  0 0.12207855E+03</rscale>
<asrwt>0</asrwt>
<pdfrwt beam="2">  1        3 0.14272442E-01 0.13037679E+03</pdfrwt>
<pdfrwt beam="1">  1       -3 0.22343873E-01 0.13037679E+03</pdfrwt>
<totfact> 0.16970905E+03</totfact>
</mgrwt>
</event>
<event>
 6    1  0.5818426E-006  0.1450303E+03  0.7546771E-02  0.1218248E+00
          3   -1    0    0  501    0  0.00000000000E+00  0.00000000000E+00  0.51660397557E+02  0.51660397557E+02  0.00000000000E+00 0. -1.
         -3   -1    0    0    0  501 -0.00000000000E+00 -0.00000000000E+00 -0.63117239021E+03  0.63117239021E+03  0.00000000000E+00 0.  1.
          5    1    1    2  502    0 -0.25250273309E+01  0.37965311482E+02 -0.41379359465E+03  0.41556584269E+03  0.47000000000E+01 0.  1.
         -5    1    1    2    0  502  0.68948129078E+02 -0.63739998610E+01 -0.13156622024E+03  0.14874889138E+03  0.47000000000E+01 0.  1.
        -11    1    1    2    0    0 -0.12374065538E+02 -0.27642976924E+02 -0.53081796014E+02  0.61114063351E+02  0.00000000000E+00 0.  1.
         11    1    1    2    0    0 -0.54049036210E+02 -0.39483346969E+01  0.18929618242E+02  0.57403990356E+02  0.00000000000E+00 0. -1.
<mgrwt>
<rscale>  0 0.13640624E+03</rscale>
<asrwt>0</asrwt>
<pdfrwt beam="1">  1        3 0.79477537E-02 0.14503031E+03</pdfrwt>
<pdfrwt beam="2">  1       -3 0.97103442E-01 0.14503031E+03</pdfrwt>
<totfact> 0.24554893E+02</totfact>
</mgrwt>
</event>
<event>
 6    1  0.5818426E-006  0.2241719E+03  0.7546771E-02  0.1166009E+00
         -2   -1    0    0    0  501 -0.00000000000E+00  0.00000000000E+00  0.52011983634E+03  0.52011983634E+03  0.00000000000E+00 0.  1.
          2   -1    0    0  501    0  0.00000000000E+00 -0.00000000000E+00 -0.10129214979E+03  0.10129214979E+03  0.00000000000E+00 0. -1.
          5    1    1    2  502    0  0.91094876138E+02  0.81512075623E+02  0.32188612236E+03  0.34434758704E+03  0.47000000000E+01 0. -1.
         -5    1    1    2    0  502 -0.72693873266E+02 -0.60899577384E+02  0.14135249369E+03  0.17028145879E+03  0.47000000000E+01 0.  1.
        -11    1    1    2    0    0 -0.44329600934E+02  0.13474982877E+02 -0.44083663362E+02  0.63953561730E+02  0.00000000000E+00 0.  1.
         11    1    1    2    0    0  0.25928598062E+02 -0.34087481117E+02 -0.32726613528E+00  0.42829378579E+02  0.00000000000E+00 0. -1.
<mgrwt>
<rscale>  0 0.18186594E+03</rscale>
<asrwt>0</asrwt>
<pdfrwt beam="2">  1        2 0.15583408E-01 0.22417190E+03</pdfrwt>
<pdfrwt beam="1">  1       -2 0.80018435E-01 0.22417190E+03</pdfrwt>
<totfact> 0.52945467E+02</totfact>
</mgrwt>
</event>
<event>
 6    1  0.5818426E-006  0.1567304E+03  0.7546771E-02  0.1200417E+00
         -2   -1    0    0    0  501 -0.00000000000E+00  0.00000000000E+00  0.70784922374E+03  0.70784922374E+03  0.00000000000E+00 0.  1.
          2   -1    0    0  501    0  0.00000000000E+00 -0.00000000000E+00 -0.31276618716E+02  0.31276618716E+02  0.00000000000E+00 0. -1.
          5    1    1    2  502    0  0.12674763398E+02 -0.99284489300E+02  0.29186677506E+03  0.30858769228E+03  0.47000000000E+01 0.  1.
         -5    1    1    2    0  502 -0.54448686408E+02  0.14452219119E+02  0.16490846006E+03  0.17432847240E+03  0.47000000000E+01 0.  1.
        -11    1    1    2    0    0  0.49285572364E+01  0.38674117002E+02  0.18191073008E+03  0.18604163975E+03  0.00000000000E+00 0.  1.
         11    1    1    2    0    0  0.36845365773E+02  0.46158153179E+02  0.37886639826E+02  0.70168038031E+02  0.00000000000E+00 0. -1.
<mgrwt>
<rscale>  0 0.15004535E+03</rscale>
<asrwt>0</asrwt>
<pdfrwt beam="2">  1        2 0.48117881E-02 0.15673036E+03</pdfrwt>
<pdfrwt beam="1">  1       -2 0.10889987E+00 0.15673036E+03</pdfrwt>
<totfact> 0.11320931E+03</totfact>
</mgrwt>
</event>
<event>
 6    1  0.5818426E-006  0.1374300E+03  0.7546771E-02  0.1228068E+00
          1   -1    0    0  501    0  0.00000000000E+00  0.00000000000E+00  0.89525262462E+03  0.89525262462E+03  0.00000000000E+00 0. -1.
         -1   -1    0    0    0  501 -0.00000000000E+00 -0.00000000000E+00 -0.16955981645E+02  0.16955981645E+02  0.00000000000E+00 0.  1.
          5    1    1    2  502    0  0.39284776000E+02 -0.69046627022E+02  0.46627311551E+03  0.47301526252E+03  0.47000000000E+01 0. -1.
         -5    1    1    2    0  502 -0.32136719536E+02  0.12380124064E+02  0.47739580243E+02  0.59052465961E+02  0.47000000000E+01 0. -1.
        -11    1    1    2    0    0 -0.44495531111E+02  0.46239909279E+02  0.16340844562E+03  0.17555711777E+03  0.00000000000E+00 0.  1.
         11    1    1    2    0    0  0.37347474647E+02  0.10426593678E+02  0.20087550160E+03  0.20458376001E+03  0.00000000000E+00 0. -1.
<mgrwt>
<rscale>  0 0.12958844E+03</rscale>
<asrwt>0</asrwt>
<pdfrwt beam="1">  1        1 0.13773114E+00 0.13743004E+03</pdfrwt>
<pdfrwt beam="2">  1       -1 0.26086133E-02 0.13743004E+03</pdfrwt>
<totfact> 0.86273466E+03</totfact>
</mgrwt>
</event>
<event>
 6    1  0.5818426E-006  0.1321662E+03  0.7546771E-02  0.1237393E+00
         -2   -1    0    0    0  501 -0.00000000000E+00  0.00000000000E+00  0.72260073154E+02  0.72260073154E+02  0.00000000000E+00 0.  1.
          2   -1    0    0  501    0  0.00000000000E+00 -0.00000000000E+00 -0.21716885316E+03  0.21716885316E+03  0.00000000000E+00 0. -1.
          5    1    1    2  502    0 -0.20898889192E+02  0.54641036311E+02 -0.32296308461E+02  0.66989162996E+02  0.47000000000E+01 0.  1.
         -5    1    1    2    0  502 -0.20948740344E+02 -0.64528586065E+02  0.41793535461E+01  0.68134757192E+02  0.47000000000E+01 0.  1.
        -11    1    1    2    0    0  0.57122236193E+02  0.16422271228E+02 -0.31222558788E+02  0.67137836108E+02  0.00000000000E+00 0.  1.
         11    1    1    2    0    0 -0.15274606657E+02 -0.65347214741E+01 -0.85569266300E+02  0.87167170015E+02  0.00000000000E+00 0. -1.
<mgrwt>
<rscale>  0 0.12352473E+03</rscale>
<asrwt>0</asrwt>
<pdfrwt beam="2">  1        2 0.33410593E-01 0.13216622E+03</pdfrwt>
<pdfrwt beam="1">  1       -2 0.11116934E-01 0.13216622E+03</pdfrwt>
<totfact> 0.82358620E+03</totfact>
</mgrwt>
</event>
<event>
 6    1  0.5818426E-006  0.1308926E+03  0.7546771E-02  0.1242622E+00
          2   -1    0    0  501    0  0.00000000000E+00  0.00000000000E+00  0.50750593854E+02  0.50750593854E+02  0.00000000000E+00 0.  1.
         -2   -1    0    0    0  501 -0.00000000000E+00 -0.00000000000E+00 -0.25211191882E+03  0.25211191882E+03  0.00000000000E+00 0. -1.
          5    1    1    2  502    0 -0.41325730544E+02  0.18247979475E+02 -0.63528731465E+02  0.78094778836E+02  0.47000000000E+01 0.  1.
         -5    1    1    2    0  502  0.79249970461E+02 -0.26547901925E+02 -0.73419065165E+02  0.11134539975E+03  0.47000000000E+01 0.  1.
        -11    1    1    2    0    0 -0.23415408890E+02  0.95830212304E+01 -0.84728510409E+02  0.88425313940E+02  0.00000000000E+00 0. -1.
         11    1    1    2    0    0 -0.14508831027E+02 -0.12830987799E+01  0.20314982068E+02  0.24997020156E+02  0.00000000000E+00 0.  1.
<mgrwt>
<rscale>  0 0.12028822E+03</rscale>
<asrwt>0</asrwt>
<pdfrwt beam="1">  1        2 0.78077838E-02 0.13089264E+03</pdfrwt>
<pdfrwt beam="2">  1       -2 0.38786448E-01 0.13089264E+03</pdfrwt>
<totfact> 0.52494420E+03</totfact>
</mgrwt>
</event>
<event>
 6    1  0.5818426E-006  0.2900858E+03  0.7546771E-02  0.1090304E+00
          2   -1    0    0  501    0  0.00000000000E+00  0.00000000000E+00  0.89229257423E+03  0.89229257423E+03  0.00000000000E+00 0. -1.
         -2   -1    0    0    0  501 -0.00000000000E+00 -0.00000000000E+00 -0.23576847773E+02  0.23576847773E+02  0.00000000000E+00 0.  1.
          5    1    1    2  502    0 -0.10487977012E+03 -0.63455080911E+02  0.28313604140E+03  0.30856834156E+03  0.47000000000E+01 0.  1.
         -5    1    1    2    0  502  0.23418091497E+02  0.15800249878E+02  0.13339966303E+03  0.13643905233E+03  0.47000000000E+01 0.  1.
        -11    1    1    2    0    0  0.59739176662E+01  0.47801699397E+02  0.25928468364E+03  0.26372189391E+03  0.00000000000E+00 0.  1.
         11    1    1    2    0    0  0.75487760953E+02 -0.14686836392E+00  0.19289533838E+03  0.20714013419E+03  0.00000000000E+00 0. -1.
<mgrwt>
<rscale>  0 0.29008582E+03</rscale>
<asrwt>0</asrwt>
<pdfrwt beam="1">  1        2 0.13727575E+00 0.29008582E+03</pdfrwt>
<pdfrwt beam="2">  1       -2 0.36272080E-02 0.29008582E+03</pdfrwt>
<totfact> 0.97844215E+03</totfact>
</mgrwt>
</event>
<event>
 6    1  0.5818426E-006  0.1336827E+03  0.7546771E-02  0.1236663E+00
          1   -1    0    0  501    0  0.00000000000E+00  0.00000000000E+00  0.56816211207E+02  0.56816211207E+02  0.00000000000E+00 0. -1.
         -1   -1    0    0    0  501 -0.00000000000E+00 -0.00000000000E+00 -0.30594244220E+03  0.30594244220E+03  0.00000000000E+00 0.  1.
          5    1    1    2  502    0  0.37854406677E+02  0.32281311751E+02 -0.16079367925E+03  0.16837973893E+03  0.47000000000E+01 0.  1.
         -5    1    1    2    0  502 -0.67096094072E+02  0.50016310941E+01 -0.62951763981E+02  0.92260049543E+02  0.47000000000E+01 0.  1.
        -11    1    1    2    0    0  0.25943405915E+02 -0.15637156337E+02 -0.56476820672E+02  0.64087535778E+02  0.00000000000E+00 0.  1.
         11    1    1    2    0    0  0.32982814797E+01 -0.21645786508E+02  0.31096032917E+02  0.38031329157E+02  0.00000000000E+00 0. -1.
<mgrwt>
<rscale>  0 0.12398567E+03</rscale>
<asrwt>0</asrwt>
<pdfrwt beam="1">  1        1 0.87409555E-02 0.13368274E+03</pdfrwt>
<pdfrwt beam="2">  1       -1 0.47068068E-01 0.13368274E+03</pdfrwt>
<totfact> 0.34010141E+03</totfact>
</mgrwt>
</event>
<event>
 6    1  0.5818426E-006  0.2433461E+03  0.7546771E-02  0.1117584E+00
          2   -1    0    0  501    0  0.00000000000E+00  0.00000000000E+00  0.22197934285E+02  0.22197934285E+02  0.00000000000E+00 0. -1.
         -2   -1    0    0    0  501 -0.00000000000E+00 -0.00000000000E+00 -0.66692404776E+03  0.66692404776E+03  0.00000000000E+00 0.  1.
          5    1    1    2  502    0  0.19468800218E+02 -0.53355725413E+02 -0.83456079752E+02  0.10105876936E+03  0.47000000000E+01 0.  1.
         -5    1    1    2    0  502 -0.65533740224E+01  0.15392287341E+02 -0.38645507375E+03  0.38684555478E+03  0.47000000000E+01 0.  1.
        -11    1    1    2    0    0 -0.41983814101E+02 -0.71744359788E+01 -0.10374916076E+03  0.11215168985E+03  0.00000000000E+00 0.  1.
         11    1    1    2    0    0  0.29068387906E+02  0.45137874051E+02 -0.71065799210E+02  0.89065968061E+02  0.00000000000E+00 0. -1.
<mgrwt>
<rscale>  0 0.24334614E+03</rscale>
<asrwt>0</asrwt>
<pdfrwt beam="1">  1        2 0.34150666E-02 0.24334614E+03</pdfrwt>
<pdfrwt beam="2">  1       -2 0.10260370E+00 0.24334614E+03</pdfrwt>
<totfact> 0.21057156E+03</totfact>
</mgrwt>
</event>
<event>
 6    1  0.5818426E-006  0.1260583E+03  0.7546771E-02  0.1250133E+00
         -3   -1    0    0    0  501 -0.00000000000E+00  0.00000000000E+00  0.24338791937E+03  0.24338791937E+03  0.00000000000E+00 0.  1.
          3   -1    0    0  501    0  0.00000000000E+00 -0.00000000000E+00 -0.54487798621E+02  0.54487798621E+02  0.00000000000E+00 0. -1.
          5    1    1    2  502    0 -0.70779260980E+01  0.43917325012E+02  0.55497033761E+01  0.45074579106E+02  0.47000000000E+01 0.  1.
         -5    1    1    2    0  502  0.17722093958E+02 -0.31563799034E+02  0.15398712198E+03  0.15825444626E+03  0.47000000000E+01 0.  1.
        -11    1    1    2    0    0  0.31232026752E+02  0.77952086367E+01 -0.99331422280E+01  0.33687862610E+02  0.00000000000E+00 0. -1.
         11    1    1    2    0    0 -0.41876194612E+02 -0.20148734615E+02  0.39296437622E+02  0.60858830021E+02  0.00000000000E+00 0.  1.
<mgrwt>
<rscale>  0 0.11583345E+03</rscale>
<asrwt>0</asrwt>
<pdfrwt beam="2">  1        3 0.83827384E-02 0.12605830E+03</pdfrwt>
<pdfrwt beam="1">  1       -3 0.37444295E-01 0.12605830E+03</pdfrwt>
<totfact> 0.15811606E+03</totfact>
</mgrwt>
</event>
<event>
 6    1  0.5818426E-006  0.2833669E+03  0.7546771E-02  0.1093864E+00
         -3   -1    0    0    0  501 -0.00000000000E+00  0.00000000000E+00  0.43581849684E+03  0.43581849684E+03  0.00000000000E+00 0.  1.
          3   -1    0    0  501    0  0.00000000000E+00 -0.00000000000E+00 -0.46060933202E+02  0.46060933202E+02  0.00000000000E+00 0. -1.
          5    1    1    2  502    0 -0.67890893497E+02 -0.52697987241E+02  0.12229656176E+03  0.14954862185E+03  0.47000000000E+01 0. -1.
         -5    1    1    2    0  502  0.24715426298E+02  0.63412697476E+01  0.20296248117E+03  0.20461408251E+03  0.47000000000E+01 0. -1.
        -11    1    1    2    0    0  0.14074871282E+02  0.42188624865E+02  0.82157601983E+02  0.93422982361E+02  0.00000000000E+00 0.  1.
         11    1    1    2    0    0  0.29100595916E+02  0.41680926283E+01 -0.17659081281E+02  0.34293743315E+02  0.00000000000E+00 0. -1.
<mgrwt>
<rscale>  0 0.28336695E+03</rscale>
<asrwt>0</asrwt>
<pdfrwt beam="2">  1        3 0.70862977E-02 0.28336695E+03</pdfrwt>
<pdfrwt beam="1">  1       -3 0.67048997E-01 0.28336695E+03</pdfrwt>
<totfact> 0.72251381E+02</totfact>
</mgrwt>
</event>
<event>
 6    1  0.5818426E-006  0.1470586E+03  0.7546771E-02  0.1219693E+00
         -2   -1    0    0    0  501 -0.00000000000E+00  0.00000000000E+00  0.21002325388E+03  0.21002325388E+03  0.00000000000E+00 0.  1.
          2   -1    0    0  501    0  0.00000000000E+00 -0.00000000000E+00 -0.85048761682E+02  0.85048761682E+02  0.00000000000E+00 0. -1.
          5    1    1    2  502    0  0.42625336876E+02 -0.48648717843E+02  0.73011999247E+00  0.64855533046E+02  0.47000000000E+01 0. -1.
         -5    1    1    2    0  502  0.70220656307E+01  0.37125650575E+02  0.11849306122E+03  0.12446010965E+03  0.47000000000E+01 0.  1.
        -11    1    1    2    0    0  0.61443585225E+01  0.20739351757E+02  0.35719494564E+02  0.41758306298E+02  0.00000000000E+00 0.  1.
         11    1    1    2    0    0 -0.55791761029E+02 -0.92162844893E+01 -0.29968183575E+02  0.63998066574E+02  0.00000000000E+00 0. -1.
<mgrwt>
<rscale>  0 0.13537354E+03</rscale>
<asrwt>0</asrwt>
<pdfrwt beam="2">  1        2 0.13084425E-01 0.14705865E+03</pdfrwt>
<pdfrwt beam="1">  1       -2 0.32311270E-01 0.14705865E+03</pdfrwt>
<totfact> 0.39402164E+03</totfact>
</mgrwt>
</event>
<event>
 6    1  0.5818426E-006  0.2773917E+03  0.7546771E-02  0.1097122E+00
          1   -1    0    0  501    0  0.00000000000E+00  0.00000000000E+00  0.43608369139E+03  0.43608369139E+03  0.00000000000E+00 0.  1.
         -1   -1    0    0    0  501 -0.00000000000E+00 -0.00000000000E+00 -0.44112049733E+02  0.44112049733E+02  0.00000000000E+00 0. -1.
          5    1    1    2  502    0  0.61453244385E+01 -0.92414503291E+01 -0.17397893912E+02  0.21164737873E+02  0.47000000000E+01 0.  1.
         -5    1    1    2    0  502 -0.50684788931E+02  0.73369851110E+02  0.16358590939E+03  0.18637200066E+03  0.47000000000E+01 0.  1.
        -11    1    1    2    0    0 -0.73231418640E+01 -0.41840670159E+02  0.18455399413E+03  0.18937910876E+03  0.00000000000E+00 0.  1.
         11    1    1    2    0    0  0.51862606356E+02 -0.22287730622E+02  0.61229632046E+02  0.83279893821E+02  0.00000000000E+00 0. -1.
<mgrwt>
<rscale>  0 0.27739175E+03</rscale>
<asrwt>0</asrwt>
<pdfrwt beam="1">  1        1 0.67089796E-01 0.27739175E+03</pdfrwt>
<pdfrwt beam="2">  1       -1 0.67864695E-02 0.27739175E+03</pdfrwt>
<totfact> 0.59672846E+03</totfact>
</mgrwt>
</event>
<event>
 6    1  0.5818426E-006  0.2933055E+03  0.7546771E-02  0.1088636E+00
          2   -1    0    0  501    0  0.00000000000E+00  0.00000000000E+00  0.30047367651E+03  0.30047367651E+03  0.00000000000E+00 0. -1.
         -2   -1    0    0    0  501 -0.00000000000E+00 -0.00000000000E+00 -0.71577064293E+02  0.71577064293E+02  0.00000000000E+00 0.  1.
          5    1    1    2  502    0  0.12021631180E+02 -0.12971280107E+02  0.70351503993E+02  0.72692488181E+02  0.47000000000E+01 0.  1.
         -5    1    1    2    0  502 -0.99180288277E+02 -0.94057522950E+01  0.78316638874E+01  0.10004310430E+03  0.47000000000E+01 0.  1.
        -11    1    1    2    0    0  0.28330829718E+02  0.35816031527E+02  0.10774672124E+02  0.46920332333E+02  0.00000000000E+00 0.  1.
         11    1    1    2    0    0  0.58827827379E+02 -0.13438999125E+02  0.13993877221E+03  0.15239481599E+03  0.00000000000E+00 0. -1.
<mgrwt>
<rscale>  0 0.29330546E+03</rscale>
<asrwt>0</asrwt>
<pdfrwt beam="1">  1        2 0.46226719E-01 0.29330546E+03</pdfrwt>
<pdfrwt beam="2">  1       -2 0.11011856E-01 0.29330546E+03</pdfrwt>
<totfact> 0.61789415E+03</totfact>
</mgrwt>
</event>
<event>
 6    1  0.5818426E-006  0.1421924E+03  0.7546771E-02  0.1221369E+00
         -2   -1    0    0    0  501 -0.00000000000E+00  0.00000000000E+00  0.76640891952E+03  0.76640891952E+03  0.00000000000E+00 0.  1.
          2   -1    0    0  501    0  0.00000000000E+00 -0.00000000000E+00 -0.21983114398E+02  0.21983114398E+02  0.00000000000E+00 0. -1.
          5    1    1    2  502    0 -0.60206436648E+02  0.67564467227E+02  0.42432885357E+03  0.43389726689E+03  0.47000000000E+01 0.  1.
         -5    1    1    2    0  502  0.37872296343E+02 -0.35602620652E+01  0.62914873579E+02  0.73670602100E+02  0.47000000000E+01 0.  1.
        -11    1    1    2    0    0  0.18681458290E+02  0.41028178007E+01  0.52660865321E+01  0.19838388672E+02  0.00000000000E+00 0. -1.
         11    1    1    2    0    0  0.36526820149E+01 -0.68107022962E+02  0.25191599145E+03  0.26098577626E+03  0.00000000000E+00 0.  1.
<mgrwt>
<rscale>  0 0.13418888E+03</rscale>
<asrwt>0</asrwt>
<pdfrwt beam="2">  1        2 0.33820182E-02 0.14219245E+03</pdfrwt>
<pdfrwt beam="1">  1       -2 0.11790904E+00 0.14219245E+03</pdfrwt>
<totfact> 0.14892609E+03</totfact>
</mgrwt>
</event>
<event>
 6    1  0.1468460E-005  0.3295726E+03  0.7546771E-02  0.1071326E+00
          1   -1    0    0  501    0  0.00000000000E+00  0.00000000000E+00  0.29001004161E+02  0.29001004161E+02  0.00000000000E+00 0. -1.
         -1   -1    0    0    0  501 -0.00000000000E+00 -0.00000000000E+00 -0.93633032234E+03  0.93633032234E+03  0.00000000000E+00 0.  1.
          5    1    1    2  502    0 -0.95107243653E+01  0.38934610278E+02 -0.35097937496E+03  0.35329162090E+03  0.47000000000E+01 0.  1.
         -5    1    1    2    0  502  0.82051582752E+02  0.59607490039E+02 -0.19232676862E+03  0.21747917378E+03  0.47000000000E+01 0.  1.
        -11    1    1    2    0    0 -0.72033084685E+02 -0.23426243704E+02 -0.15666814694E+03  0.17401856926E+03  0.00000000000E+00 0. -1.
         11    1    1    2    0    0 -0.50777370233E+00 -0.75115856613E+02 -0.20735502767E+03  0.22054196256E+03  0.00000000000E+00 0.  1.
<mgrwt>
<rscale>  0 0.32957257E+03</rscale>
<asrwt>0</asrwt>
<pdfrwt beam="1">  1        1 0.44616935E-02 0.32957257E+03</pdfrwt>
<pdfrwt beam="2">  1       -1 0.14405080E+00 0.32957257E+03</pdfrwt>
<totfact> 0.82150093E+02</totfact>
</mgrwt>
</event>
<event>
 6    1  0.5818426E-006  0.2884577E+03  0.7546771E-02  0.1091157E+00
          2   -1    0    0  501    0  0.00000000000E+00  0.00000000000E+00  0.10556291512E+04  0.10556291512E+04  0.00000000000E+00 0. -1.
         -2   -1    0    0    0  501 -0.00000000000E+00 -0.00000000000E+00 -0.19705751117E+02  0.19705751117E+02  0.00000000000E+00 0.  1.
          5    1    1    2  502    0  0.59669614466E+02 -0.87308922369E+02  0.47352780128E+03  0.48521539485E+03  0.47000000000E+01 0. -1.
         -5    1    1    2    0  502 -0.10981261718E+02  0.36576453281E+01 -0.86352330969E-01  0.12492555183E+02  0.47000000000E+01 0.  1.
        -11    1    1    2    0    0  0.14192487032E+02  0.63561238374E+02  0.26101307050E+03  0.26901539116E+03  0.00000000000E+00 0.  1.
         11    1    1    2    0    0 -0.62880839779E+02  0.20090038668E+02  0.30146888062E+03  0.30861156111E+03  0.00000000000E+00 0. -1.
<mgrwt>
<rscale>  0 0.28845773E+03</rscale>
<asrwt>0</asrwt>
<pdfrwt beam="1">  1        2 0.16240444E+00 0.28845773E+03</pdfrwt>
<pdfrwt beam="2">  1       -2 0.30316548E-02 0.28845773E+03</pdfrwt>
<totfact> 0.10121805E+04</totfact>
</mgrwt>
</event>
<event>
 6    1  0.5818426E-006  0.1741244E+03  0.7546771E-02  0.1179926E+00
         -3   -1    0    0    0  501 -0.00000000000E+00  0.00000000000E+00  0.59796484556E+02  0.59796484556E+02  0.00000000000E+00 0.  1.
          3   -1    0    0  501    0  0.00000000000E+00 -0.00000000000E+00 -0.76142589706E+03  0.76142589706E+03  0.00000000000E+00 0. -1.
          5    1    1    2  502    0  0.30736822836E+02 -0.67485221447E+02 -0.35709544106E+01  0.74389845458E+02  0.47000000000E+01 0. -1.
         -5    1    1    2    0  502 -0.65727626580E+02 -0.48561739831E+02 -0.96125198380E+02  0.12625572159E+03  0.47000000000E+01 0. -1.
        -11    1    1    2    0    0 -0.15767319520E+02  0.48069141259E+02 -0.10616490499E+03  0.11760203126E+03  0.00000000000E+00 0.  1.
         11    1    1    2    0    0  0.50758123263E+02  0.67977820019E+02 -0.49576835473E+03  0.50297478331E+03  0.00000000000E+00 0. -1.
<mgrwt>
<rscale>  0 0.16802250E+03</rscale>
<asrwt>0</asrwt>
<pdfrwt beam="2">  1        3 0.11714244E+00 0.17412444E+03</pdfrwt>
<pdfrwt beam="1">  1       -3 0.91994595E-02 0.17412444E+03</pdfrwt>
<totfact> 0.12821030E+02</totfact>
</mgrwt>
</event>
<event>
 6    1  0.5818426E-006  0.2917500E+03  0.7546771E-02  0.1089439E+00
          2   -1    0    0  501    0  0.00000000000E+00  0.00000000000E+00  0.12962963068E+04  0.12962963068E+04  0.00000000000E+00 0. -1.
         -2   -1    0    0    0  501 -0.00000000000E+00 -0.00000000000E+00 -0.16415626606E+02  0.16415626606E+02  0.00000000000E+00 0.  1.
          5    1    1    2  502    0 -0.15684617580E+02 -0.20147130690E+02  0.24804634964E+03  0.24940127440E+03  0.47000000000E+01 0. -1.
         -5    1    1    2    0  502  0.10728056519E+03  0.34635289410E+02  0.30798901381E+03  0.32800616697E+03  0.47000000000E+01 0. -1.
        -11    1    1    2    0    0 -0.43316812738E+02  0.38195356135E+02  0.33778816950E+03  0.34268947890E+03  0.00000000000E+00 0.  1.
         11    1    1    2    0    0 -0.48279134872E+02 -0.52683514855E+02  0.38605714728E+03  0.39261501317E+03  0.00000000000E+00 0. -1.
<mgrwt>
<rscale>  0 0.29175000E+03</rscale>
<asrwt>0</asrwt>
<pdfrwt beam="1">  1        2 0.19943012E+00 0.29175000E+03</pdfrwt>
<pdfrwt beam="2">  1       -2 0.25254820E-02 0.29175000E+03</pdfrwt>
<totfact> 0.96596978E+03</totfact>
</mgrwt>
</event>
<event>
 6    1  0.5818426E-006  0.1299904E+03  0.7546771E-02  0.1240629E+00
          3   -1    0    0  501    0  0.00000000000E+00  0.00000000000E+00  0.56955405677E+03  0.56955405677E+03  0.00000000000E+00 0. -1.
         -3   -1    0    0    0  501 -0.00000000000E+00 -0.00000000000E+00 -0.30262938258E+02  0.30262938258E+02  0.00000000000E+00 0.  1.
          5    1    1    2  502    0 -0.29633783849E+02  0.41059013040E+02  0.11635761704E+03  0.12698499415E+03  0.47000000000E+01 0. -1.
         -5    1    1    2    0  502  0.59670437845E+02 -0.21840465137E+02  0.35599538596E+02  0.72986191970E+02  0.47000000000E+01 0. -1.
        -11    1    1    2    0    0 -0.60943042855E+02  0.32109655707E+01  0.23365603178E+03  0.24149431869E+03  0.00000000000E+00 0.  1.
         11    1    1    2    0    0  0.30906388859E+02 -0.22429513474E+02  0.15367793109E+03  0.15835149021E+03  0.00000000000E+00 0. -1.
<mgrwt>
<rscale>  0 0.12150882E+03</rscale>
<asrwt>0</asrwt>
<pdfrwt beam="1">  1        3 0.87623693E-01 0.12999038E+03</pdfrwt>
<pdfrwt beam="2">  1       -3 0.46558371E-02 0.12999038E+03</pdfrwt>
<totfact> 0.71689509E+02</totfact>
</mgrwt>
</event>
<event>
 6    1  0.5818426E-006  0.1315956E+03  0.7546771E-02  0.1237833E+00
         -1   -1    0    0    0  501 -0.00000000000E+00  0.00000000000E+00  0.56409342721E+02  0.56409342721E+02  0.00000000000E+00 0.  1.
          1   -1    0    0  501    0  0.00000000000E+00 -0.00000000000E+00 -0.24760840614E+03  0.24760840614E+03  0.00000000000E+00 0. -1.
          5    1    1    2  502    0  0.41339637439E+02  0.15773652538E+02 -0.46972395551E+02  0.64701388561E+02  0.47000000000E+01 0.  1.
         -5    1    1    2    0  502 -0.69192028508E+02 -0.46052668192E+02 -0.34793320221E+02  0.90227768390E+02  0.47000000000E+01 0.  1.
        -11    1    1    2    0    0  0.51052897528E+02 -0.10773170822E+02 -0.71807083881E+02  0.88762136360E+02  0.00000000000E+00 0. -1.
         11    1    1    2    0    0 -0.23200506460E+02  0.41052186476E+02 -0.37626263770E+02  0.60326455555E+02  0.00000000000E+00 0.  1.
<mgrwt>
<rscale>  0 0.12324828E+03</rscale>
<asrwt>0</asrwt>
<pdfrwt beam="2">  1        1 0.38093602E-01 0.13159564E+03</pdfrwt>
<pdfrwt beam="1">  1       -1 0.86783602E-02 0.13159564E+03</pdfrwt>
<totfact> 0.80327761E+03</totfact>
</mgrwt>
</event>
<event>
 6    1  0.5818426E-006  0.2678131E+03  0.7546771E-02  0.1102538E+00
          2   -1    0    0  501    0  0.00000000000E+00  0.00000000000E+00  0.17895352756E+03  0.17895352756E+03  0.00000000000E+00 0.  1.
         -2   -1    0    0    0  501 -0.00000000000E+00 -0.00000000000E+00 -0.10019899846E+03  0.10019899846E+03  0.00000000000E+00 0. -1.
          5    1    1    2  502    0  0.36548220358E+02  0.40892042963E+02  0.76989487152E+02  0.94643556151E+02  0.47000000000E+01 0. -1.
         -5    1    1    2    0  502  0.62651532108E+01  0.11249515503E+02 -0.48348505490E+02  0.50254071745E+02  0.47000000000E+01 0. -1.
        -11    1    1    2    0    0 -0.23328740344E+02  0.23409568840E+02 -0.11335737273E+02  0.34939046622E+02  0.00000000000E+00 0. -1.
         11    1    1    2    0    0 -0.19484633225E+02 -0.75551127305E+02  0.61449284709E+02  0.99315851506E+02  0.00000000000E+00 0.  1.
<mgrwt>
<rscale>  0 0.26781310E+03</rscale>
<asrwt>0</asrwt>
<pdfrwt beam="1">  1        2 0.27531312E-01 0.26781310E+03</pdfrwt>
<pdfrwt beam="2">  1       -2 0.15415231E-01 0.26781310E+03</pdfrwt>
<totfact> 0.62544390E+03</totfact>
</mgrwt>
</event>
<event>
 6    1  0.7581735E-006  0.3367413E+03  0.7546771E-02  0.1069462E+00
         -1   -1    0    0    0  501 -0.00000000000E+00  0.00000000000E+00  0.27174635848E+03  0.27174635848E+03  0.00000000000E+00 0.  1.
          1   -1    0    0  501    0  0.00000000000E+00 -0.00000000000E+00 -0.41764714803E+03  0.41764714803E+03  0.00000000000E+00 0. -1.
          5    1    1    2  502    0  0.11225990176E+03  0.42917792433E+02 -0.28483250919E+02  0.12360262147E+03  0.47000000000E+01 0.  1.
         -5    1    1    2    0  502  0.19879130497E+03 -0.74834268318E+02  0.18674914951E+02  0.21328148793E+03  0.47000000000E+01 0.  1.
        -11    1    1    2    0    0 -0.11829372058E+03  0.33092329178E+01 -0.65695576653E+01  0.11852221074E+03  0.00000000000E+00 0.  1.
         11    1    1    2    0    0 -0.19275748615E+03  0.28607242967E+02 -0.12952289592E+03  0.23398718637E+03  0.00000000000E+00 0. -1.
<mgrwt>
<rscale>  0 0.33381287E+03</rscale>
<asrwt>0</asrwt>
<pdfrwt beam="2">  1        1 0.64253407E-01 0.33674129E+03</pdfrwt>
<pdfrwt beam="1">  1       -1 0.41807132E-01 0.33674129E+03</pdfrwt>
<totfact> 0.32753183E+02</totfact>
</mgrwt>
</event>
<event>
 6    1  0.5818426E-006  0.1338503E+03  0.7546771E-02  0.1228485E+00
         -2   -1    0    0    0  501 -0.00000000000E+00  0.00000000000E+00  0.17362325212E+02  0.17362325212E+02  0.00000000000E+00 0.  1.
          2   -1    0    0  501    0  0.00000000000E+00 -0.00000000000E+00 -0.98794097001E+03  0.98794097001E+03  0.00000000000E+00 0. -1.
          5    1    1    2  502    0  0.75710215504E+01 -0.38989087275E+02 -0.32554412582E+03  0.32799167238E+03  0.47000000000E+01 0. -1.
         -5    1    1    2    0  502  0.46570279786E+02 -0.90208994655E+01 -0.43338254503E+02  0.64424078494E+02  0.47000000000E+01 0.  1.
        -11    1    1    2    0    0  0.25571218327E+02  0.55979663050E+01 -0.12405811399E+03  0.12678974754E+03  0.00000000000E+00 0.  1.
         11    1    1    2    0    0 -0.79712519664E+02  0.42412020435E+02 -0.47763815049E+03  0.48609779681E+03  0.00000000000E+00 0. -1.
<mgrwt>
<rscale>  0 0.12930877E+03</rscale>
<asrwt>0</asrwt>
<pdfrwt beam="2">  1        2 0.15199098E+00 0.13385033E+03</pdfrwt>
<pdfrwt beam="1">  1       -2 0.26711259E-02 0.13385033E+03</pdfrwt>
<totfact> 0.12903974E+04</totfact>
</mgrwt>
</event>
<event>
 6    1  0.5818426E-006  0.2038070E+03  0.7546771E-02  0.1150690E+00
         -1   -1    0    0    0  501 -0.00000000000E+00  0.00000000000E+00  0.12197202573E+03  0.12197202573E+03  0.00000000000E+00 0.  1.
          1   -1    0    0  501    0  0.00000000000E+00 -0.00000000000E+00 -0.37902814175E+03  0.37902814175E+03  0.00000000000E+00 0. -1.
          5    1    1    2  502    0 -0.13779369814E+03  0.70623833793E+02 -0.10352062848E+01  0.15491284905E+03  0.47000000000E+01 0.  1.
         -5    1    1    2    0  502  0.19702037382E+02  0.38767650240E+02 -0.25457035762E+02  0.50608810023E+02  0.47000000000E+01 0.  1.
        -11    1    1    2    0    0  0.90022926091E+02 -0.10375824283E+03 -0.22870716082E+03  0.26678992782E+03  0.00000000000E+00 0. -1.
         11    1    1    2    0    0  0.28068734669E+02 -0.56332412053E+01 -0.18567131527E+01  0.28688580588E+02  0.00000000000E+00 0.  1.
<mgrwt>
<rscale>  0 0.19887712E+03</rscale>
<asrwt>0</asrwt>
<pdfrwt beam="2">  1        1 0.58312021E-01 0.20380705E+03</pdfrwt>
<pdfrwt beam="1">  1       -1 0.18764927E-01 0.20380705E+03</pdfrwt>
<totfact> 0.14467739E+03</totfact>
</mgrwt>
</event>
<event>
 6    1  0.5818426E-006  0.1437472E+03  0.7546771E-02  0.1222837E+00
          4   -1    0    0  501    0  0.00000000000E+00  0.00000000000E+00  0.23087306164E+03  0.23087306164E+03  0.00000000000E+00 0. -1.
         -4   -1    0    0    0  501 -0.00000000000E+00 -0.00000000000E+00 -0.72713835281E+02  0.72713835281E+02  0.00000000000E+00 0.  1.
          5    1    1    2  502    0  0.44669263412E+02  0.19811544432E+01  0.35094010468E+02  0.57034617887E+02  0.47000000000E+01 0.  1.
         -5    1    1    2    0  502 -0.67459216913E+02  0.65240653566E+02  0.14780872252E+02  0.95119151640E+02  0.47000000000E+01 0.  1.
        -11    1    1    2    0    0  0.16561840769E+02  0.49543297177E+01 -0.40592201607E+01  0.17757173787E+02  0.00000000000E+00 0.  1.
         11    1    1    2    0    0  0.62281127320E+01 -0.72176137727E+02  0.11234356380E+03  0.13367595360E+03  0.00000000000E+00 0. -1.
<mgrwt>
<rscale>  0 0.13316292E+03</rscale>
<asrwt>0</asrwt>
<pdfrwt beam="1">  1        4 0.35518932E-01 0.14374723E+03</pdfrwt>
<pdfrwt beam="2">  1       -4 0.11186744E-01 0.14374723E+03</pdfrwt>
<totfact> 0.80550383E+02</totfact>
</mgrwt>
</event>
<event>
 6    1  0.5818426E-006  0.3266545E+03  0.7546771E-02  0.1072627E+00
         -2   -1    0    0    0  501 -0.00000000000E+00  0.00000000000E+00  0.70369141454E+02  0.70369141454E+02  0.00000000000E+00 0.  1.
          2   -1    0    0  501    0  0.00000000000E+00 -0.00000000000E+00 -0.37908363244E+03  0.37908363244E+03  0.00000000000E+00 0. -1.
          5    1    1    2  502    0 -0.12400358553E+02 -0.38002775304E+02 -0.11359718245E+02  0.41822398564E+02  0.47000000000E+01 0.  1.
         -5    1    1    2    0  502  0.12531303848E+03  0.17871095853E+02 -0.95510088243E+02  0.15864110639E+03  0.47000000000E+01 0.  1.
        -11    1    1    2    0    0 -0.69314944319E+02 -0.12852734123E+02 -0.17378537216E+03  0.18753962210E+03  0.00000000000E+00 0. -1.
         11    1    1    2    0    0 -0.43597735606E+02  0.32984413573E+02 -0.28059312345E+02  0.61449646850E+02  0.00000000000E+00 0.  1.
<mgrwt>
<rscale>  0 0.32665449E+03</rscale>
<asrwt>0</asrwt>
<pdfrwt beam="2">  1        2 0.58320558E-01 0.32665449E+03</pdfrwt>
<pdfrwt beam="1">  1       -2 0.10826022E-01 0.32665449E+03</pdfrwt>
<totfact> 0.49526782E+03</totfact>
</mgrwt>
</event>
<event>
 6    1  0.5818426E-006  0.1655397E+03  0.7546771E-02  0.1188791E+00
          1   -1    0    0  501    0  0.00000000000E+00  0.00000000000E+00  0.24310047489E+03  0.24310047489E+03  0.00000000000E+00 0. -1.
         -1   -1    0    0    0  501 -0.00000000000E+00 -0.00000000000E+00 -0.11206045490E+03  0.11206045490E+03  0.00000000000E+00 0.  1.
          5    1    1    2  502    0 -0.36032518302E+02 -0.10187408705E+02  0.87150022499E+01  0.38731988530E+02  0.47000000000E+01 0. -1.
         -5    1    1    2    0  502  0.10120293255E+03 -0.76596258786E+02 -0.53930068725E+00  0.12700945343E+03  0.47000000000E+01 0. -1.
        -11    1    1    2    0    0  0.32172882077E+01  0.20354568494E+02 -0.12311045855E+02  0.24004608975E+02  0.00000000000E+00 0.  1.
         11    1    1    2    0    0 -0.68387702451E+02  0.66429098997E+02  0.13517536428E+03  0.16541487886E+03  0.00000000000E+00 0. -1.
<mgrwt>
<rscale>  0 0.15991639E+03</rscale>
<asrwt>0</asrwt>
<pdfrwt beam="1">  1        1 0.37400073E-01 0.16553967E+03</pdfrwt>
<pdfrwt beam="2">  1       -1 0.17240070E-01 0.16553967E+03</pdfrwt>
<totfact> 0.28733181E+03</totfact>
</mgrwt>
</event>
<event>
 6    1  0.5818426E-006  0.1446633E+03  0.7546771E-02  0.1217436E+00
          3   -1    0    0  501    0  0.00000000000E+00  0.00000000000E+00  0.11839477647E+03  0.11839477647E+03  0.00000000000E+00 0. -1.
         -3   -1    0    0    0  501 -0.00000000000E+00 -0.00000000000E+00 -0.14847921683E+03  0.14847921683E+03  0.00000000000E+00 0.  1.
          5    1    1    2  502    0 -0.10888258230E+02 -0.77089123942E+02 -0.39595578801E+02  0.87471064119E+02  0.47000000000E+01 0.  1.
         -5    1    1    2    0  502 -0.50097136625E+02  0.37312671699E+02 -0.49321406739E+00  0.62644168344E+02  0.47000000000E+01 0.  1.
        -11    1    1    2    0    0  0.33790148567E+02  0.32891344111E+02 -0.38400019616E+02  0.60812631617E+02  0.00000000000E+00 0.  1.
         11    1    1    2    0    0  0.27195246287E+02  0.68851081319E+01  0.48404372117E+02  0.55946129220E+02  0.00000000000E+00 0. -1.
<mgrwt>
<rscale>  0 0.13699071E+03</rscale>
<asrwt>0</asrwt>
<pdfrwt beam="1">  1        3 0.18214581E-01 0.14466330E+03</pdfrwt>
<pdfrwt beam="2">  1       -3 0.22842956E-01 0.14466330E+03</pdfrwt>
<totfact> 0.10900851E+03</totfact>
</mgrwt>
</event>
<event>
 6    1  0.5818426E-006  0.1328489E+03  0.7546771E-02  0.1237179E+00
          2   -1    0    0  501    0  0.00000000000E+00  0.00000000000E+00  0.29621838379E+03  0.29621838379E+03  0.00000000000E+00 0. -1.
         -2   -1    0    0    0  501 -0.00000000000E+00 -0.00000000000E+00 -0.54113717617E+02  0.54113717617E+02  0.00000000000E+00 0.  1.
          5    1    1    2  502    0 -0.60960306048E+02  0.33814520914E+02 -0.55472956160E+01  0.70088823836E+02  0.47000000000E+01 0. -1.
         -5    1    1    2    0  502  0.16792670900E+02 -0.25130726160E+02  0.72477067342E+02  0.78667416913E+02  0.47000000000E+01 0. -1.
        -11    1    1    2    0    0  0.23046772997E+02 -0.21529486367E+02  0.17399178775E+03  0.17682707579E+03  0.00000000000E+00 0. -1.
         11    1    1    2    0    0  0.21120862151E+02  0.12845691613E+02  0.11831066994E+01  0.24748784869E+02  0.00000000000E+00 0.  1.
<mgrwt>
<rscale>  0 0.12365955E+03</rscale>
<asrwt>0</asrwt>
<pdfrwt beam="1">  1        2 0.45572058E-01 0.13284888E+03</pdfrwt>
<pdfrwt beam="2">  1       -2 0.83251875E-02 0.13284888E+03</pdfrwt>
<totfact> 0.93113049E+03</totfact>
</mgrwt>
</event>
<event>
 6    1  0.5818426E-006  0.2701888E+03  0.7546771E-02  0.1101172E+00
         -1   -1    0    0    0  501 -0.00000000000E+00  0.00000000000E+00  0.80561408186E+03  0.80561408186E+03  0.00000000000E+00 0.  1.
          1   -1    0    0  501    0  0.00000000000E+00 -0.00000000000E+00 -0.22654139985E+02  0.22654139985E+02  0.00000000000E+00 0. -1.
          5    1    1    2  502    0  0.61839522112E+02  0.25150554107E+02  0.56671141863E+03  0.57064927835E+03  0.47000000000E+01 0. -1.
         -5    1    1    2    0  502 -0.19017024151E+02  0.20645876564E+02  0.26712443996E+02  0.39032602922E+02  0.47000000000E+01 0. -1.
        -11    1    1    2    0    0 -0.51543537643E+02  0.78556939130E+01  0.11565134166E+03  0.12686087272E+03  0.00000000000E+00 0. -1.
         11    1    1    2    0    0  0.87210396812E+01 -0.53652124583E+02  0.73884737588E+02  0.91725467859E+02  0.00000000000E+00 0.  1.
<mgrwt>
<rscale>  0 0.27018878E+03</rscale>
<asrwt>0</asrwt>
<pdfrwt beam="2">  1        1 0.34852529E-02 0.27018878E+03</pdfrwt>
<pdfrwt beam="1">  1       -1 0.12394061E+00 0.27018878E+03</pdfrwt>
<totfact> 0.16862865E+03</totfact>
</mgrwt>
</event>
<event>
 6    1  0.5818426E-006  0.2905298E+03  0.7546771E-02  0.1092313E+00
         -2   -1    0    0    0  501 -0.00000000000E+00  0.00000000000E+00  0.11234182605E+03  0.11234182605E+03  0.00000000000E+00 0. -1.
          2   -1    0    0  501    0  0.00000000000E+00 -0.00000000000E+00 -0.72071076451E+03  0.72071076451E+03  0.00000000000E+00 0.  1.
          5    1    1    2  502    0 -0.49949981251E+02  0.85530932576E+02 -0.16359264693E+03  0.19129868056E+03  0.47000000000E+01 0.  1.
         -5    1    1    2    0  502  0.76750268235E+01  0.17330112832E+03 -0.96040287968E+02  0.19833813055E+03  0.47000000000E+01 0.  1.
        -11    1    1    2    0    0 -0.18960658443E+02 -0.12440962584E+03 -0.15006313594E+03  0.19584740575E+03  0.00000000000E+00 0.  1.
         11    1    1    2    0    0  0.61235612871E+02 -0.13442243506E+03 -0.19867286762E+03  0.24756837371E+03  0.00000000000E+00 0. -1.
<mgrwt>
<rscale>  0 0.28627027E+03</rscale>
<asrwt>0</asrwt>
<pdfrwt beam="2">  1        2 0.11087858E+00 0.29052983E+03</pdfrwt>
<pdfrwt beam="1">  1       -2 0.17283358E-01 0.29052983E+03</pdfrwt>
<totfact> 0.10932920E+03</totfact>
</mgrwt>
</event>
<event>
 6    1  0.5818426E-006  0.2361268E+03  0.7546771E-02  0.1125282E+00
          3   -1    0    0  501    0  0.00000000000E+00  0.00000000000E+00  0.15014828162E+03  0.15014828162E+03  0.00000000000E+00 0. -1.
         -3   -1    0    0    0  501 -0.00000000000E+00 -0.00000000000E+00 -0.34622955066E+03  0.34622955066E+03  0.00000000000E+00 0.  1.
          5    1    1    2  502    0 -0.47610858969E+02  0.11005906943E+03 -0.12695259486E+03  0.17469643384E+03  0.47000000000E+01 0. -1.
         -5    1    1    2    0  502 -0.44319248204E+02  0.67932851200E+02  0.21294257343E+02  0.83991686668E+02  0.47000000000E+01 0. -1.
        -11    1    1    2    0    0  0.26904873604E+01 -0.57891843197E+02 -0.62946215988E+02  0.85562435322E+02  0.00000000000E+00 0.  1.
         11    1    1    2    0    0  0.89239619812E+02 -0.12010007744E+03 -0.27476715537E+02  0.15212727645E+03  0.00000000000E+00 0. -1.
<mgrwt>
<rscale>  0 0.23193960E+03</rscale>
<asrwt>0</asrwt>
<pdfrwt beam="1">  1        3 0.23099736E-01 0.23612679E+03</pdfrwt>
<pdfrwt beam="2">  1       -3 0.53266084E-01 0.23612679E+03</pdfrwt>
<totfact> 0.15119771E+02</totfact>
</mgrwt>
</event>
<event>
 6    1  0.5818426E-006  0.1346151E+03  0.7546771E-02  0.1234143E+00
          3   -1    0    0  501    0  0.00000000000E+00  0.00000000000E+00  0.23970215403E+03  0.23970215403E+03  0.00000000000E+00 0. -1.
         -3   -1    0    0    0  501 -0.00000000000E+00 -0.00000000000E+00 -0.60154258495E+02  0.60154258495E+02  0.00000000000E+00 0.  1.
          5    1    1    2  502    0 -0.45152540756E+01  0.45242181793E+02 -0.14354821576E+02  0.47910264403E+02  0.47000000000E+01 0.  1.
         -5    1    1    2    0  502 -0.44293244276E+02 -0.34708016975E+02  0.90715269823E+02  0.10685451843E+03  0.47000000000E+01 0.  1.
        -11    1    1    2    0    0  0.58648649018E+02 -0.33479232515E+01  0.11435646555E+03  0.12856233443E+03  0.00000000000E+00 0. -1.
         11    1    1    2    0    0 -0.98401506668E+01 -0.71862415657E+01 -0.11169018256E+02  0.16529295260E+02  0.00000000000E+00 0.  1.
<mgrwt>
<rscale>  0 0.12559431E+03</rscale>
<asrwt>0</asrwt>
<pdfrwt beam="1">  1        3 0.36877254E-01 0.13461508E+03</pdfrwt>
<pdfrwt beam="2">  1       -3 0.92545014E-02 0.13461508E+03</pdfrwt>
<totfact> 0.14005453E+03</totfact>
</mgrwt>
</event>
<event>
 6    1  0.5818426E-006  0.1353804E+03  0.7546771E-02  0.1231850E+00
         -1   -1    0    0    0  501 -0.00000000000E+00  0.00000000000E+00  0.31385378384E+02  0.31385378384E+02  0.00000000000E+00 0.  1.
          1   -1    0    0  501    0  0.00000000000E+00 -0.00000000000E+00 -0.58235117391E+03  0.58235117391E+03  0.00000000000E+00 0. -1.
          5    1    1    2  502    0 -0.87538671072E+02 -0.12721408580E+02 -0.95113532697E+02  0.12997510251E+03  0.47000000000E+01 0.  1.
         -5    1    1    2    0  502  0.43194416876E+02 -0.14423418249E+02 -0.68432361382E+02  0.82333897804E+02  0.47000000000E+01 0.  1.
        -11    1    1    2    0    0  0.19037338267E+02 -0.33085049293E+02 -0.11055465319E+03  0.11695884779E+03  0.00000000000E+00 0.  1.
         11    1    1    2    0    0  0.25306915929E+02  0.60229876123E+02 -0.27686524825E+03  0.28446870419E+03  0.00000000000E+00 0. -1.
<mgrwt>
<rscale>  0 0.12708276E+03</rscale>
<asrwt>0</asrwt>
<pdfrwt beam="2">  1        1 0.89592493E-01 0.13538040E+03</pdfrwt>
<pdfrwt beam="1">  1       -1 0.48285195E-02 0.13538040E+03</pdfrwt>
<totfact> 0.65408377E+03</totfact>
</mgrwt>
</event>
<event>
 6    1  0.5818426E-006  0.1535600E+03  0.7546771E-02  0.1205203E+00
          2   -1    0    0  501    0  0.00000000000E+00  0.00000000000E+00  0.55482129417E+02  0.55482129417E+02  0.00000000000E+00 0. -1.
         -2   -1    0    0    0  501 -0.00000000000E+00 -0.00000000000E+00 -0.37032003755E+03  0.37032003755E+03  0.00000000000E+00 0.  1.
          5    1    1    2  502    0  0.14967316742E+02  0.79283657814E+01 -0.18728959802E+03  0.18811263402E+03  0.47000000000E+01 0. -1.
         -5    1    1    2    0  502  0.63085917110E+02  0.35253388300E+02 -0.30994520748E+02  0.78774263822E+02  0.47000000000E+01 0. -1.
        -11    1    1    2    0    0 -0.81719633007E+02 -0.62502232501E+02 -0.93486793234E+02  0.13901225844E+03  0.00000000000E+00 0.  1.
         11    1    1    2    0    0  0.36663991558E+01  0.19320478420E+02 -0.30669961375E+01  0.19903010688E+02  0.00000000000E+00 0. -1.
<mgrwt>
<rscale>  0 0.14621446E+03</rscale>
<asrwt>0</asrwt>
<pdfrwt beam="1">  1        2 0.85357124E-02 0.15355995E+03</pdfrwt>
<pdfrwt beam="2">  1       -2 0.56972312E-01 0.15355995E+03</pdfrwt>
<totfact> 0.22354953E+03</totfact>
</mgrwt>
</event>
<event>
 6    1  0.5818426E-006  0.1993924E+03  0.7546771E-02  0.1154635E+00
          1   -1    0    0  501    0  0.00000000000E+00  0.00000000000E+00  0.17458225272E+03  0.17458225272E+03  0.00000000000E+00 0. -1.
         -1   -1    0    0    0  501 -0.00000000000E+00 -0.00000000000E+00 -0.30120469317E+03  0.30120469317E+03  0.00000000000E+00 0.  1.
          5    1    1    2  502    0 -0.24916507219E+02  0.36651536448E+02 -0.29726090921E+02  0.53571428369E+02  0.47000000000E+01 0. -1.
         -5    1    1    2    0  502  0.13355884846E+03  0.74349911870E+02 -0.16950750336E+03  0.22829971330E+03  0.47000000000E+01 0. -1.
        -11    1    1    2    0    0 -0.10340232865E+03 -0.10228933477E+03  0.27946357089E+02  0.14810856982E+03  0.00000000000E+00 0.  1.
         11    1    1    2    0    0 -0.52400125878E+01 -0.87121135451E+01  0.44664796748E+02  0.45807234395E+02  0.00000000000E+00 0. -1.
<mgrwt>
<rscale>  0 0.19430488E+03</rscale>
<asrwt>0</asrwt>
<pdfrwt beam="1">  1        1 0.26858808E-01 0.19939237E+03</pdfrwt>
<pdfrwt beam="2">  1       -1 0.46339183E-01 0.19939237E+03</pdfrwt>
<totfact> 0.82428878E+02</totfact>
</mgrwt>
</event>
<event>
 6    1  0.5818426E-006  0.1392198E+03  0.7546771E-02  0.1225602E+00
          4   -1    0    0  501    0  0.00000000000E+00  0.00000000000E+00  0.78248468277E+02  0.78248468277E+02  0.00000000000E+00 0. -1.
         -4   -1    0    0    0  501 -0.00000000000E+00 -0.00000000000E+00 -0.20747559445E+03  0.20747559445E+03  0.00000000000E+00 0.  1.
          5    1    1    2  502    0  0.29414094128E+02 -0.40497139763E+02  0.71595159346E+01  0.50779483365E+02  0.47000000000E+01 0.  1.
         -5    1    1    2    0  502 -0.51563175002E+02 -0.16706789684E+02 -0.10863708275E+03  0.12149890365E+03  0.47000000000E+01 0.  1.
        -11    1    1    2    0    0  0.27916257082E+02  0.43236221069E+02  0.25966131601E+02  0.57644845495E+02  0.00000000000E+00 0. -1.
         11    1    1    2    0    0 -0.57671762082E+01  0.13967708378E+02 -0.53715690949E+02  0.55800830217E+02  0.00000000000E+00 0.  1.
<mgrwt>
<rscale>  0 0.13125726E+03</rscale>
<asrwt>0</asrwt>
<pdfrwt beam="1">  1        4 0.12038226E-01 0.13921978E+03</pdfrwt>
<pdfrwt beam="2">  1       -4 0.31919322E-01 0.13921978E+03</pdfrwt>
<totfact> 0.86707507E+02</totfact>
</mgrwt>
</event>
<event>
 6    1  0.5818426E-006  0.1387962E+03  0.7546771E-02  0.1224113E+00
         -2   -1    0    0    0  501 -0.00000000000E+00  0.00000000000E+00  0.65813836014E+02  0.65813836014E+02  0.00000000000E+00 0.  1.
          2   -1    0    0  501    0  0.00000000000E+00 -0.00000000000E+00 -0.24550353719E+03  0.24550353719E+03  0.00000000000E+00 0. -1.
          5    1    1    2  502    0  0.29902527644E+02  0.31317302496E+02 -0.36973011330E+02  0.57131673894E+02  0.47000000000E+01 0. -1.
         -5    1    1    2    0  502 -0.43273628435E+01 -0.93872488621E+02 -0.48240501913E+02  0.10573554849E+03  0.47000000000E+01 0.  1.
        -11    1    1    2    0    0  0.16727177446E+02  0.34152856489E+01  0.11022485420E+02  0.20321363788E+02  0.00000000000E+00 0.  1.
         11    1    1    2    0    0 -0.42302342246E+02  0.59139900476E+02 -0.10549867335E+03  0.12812878703E+03  0.00000000000E+00 0. -1.
<mgrwt>
<rscale>  0 0.13227890E+03</rscale>
<asrwt>0</asrwt>
<pdfrwt beam="2">  1        2 0.37769774E-01 0.13879621E+03</pdfrwt>
<pdfrwt beam="1">  1       -2 0.10125206E-01 0.13879621E+03</pdfrwt>
<totfact> 0.84003287E+03</totfact>
</mgrwt>
</event>
<event>
 6    1  0.5818426E-006  0.3575942E+03  0.7546771E-02  0.1084224E+00
          1   -1    0    0  501    0  0.00000000000E+00  0.00000000000E+00  0.11618014765E+04  0.11618014765E+04  0.00000000000E+00 0. -1.
         -1   -1    0    0    0  501 -0.00000000000E+00 -0.00000000000E+00 -0.77303393692E+02  0.77303393692E+02  0.00000000000E+00 0.  1.
          5    1    1    2  502    0 -0.98594490911E+02  0.15065704050E+02  0.12908875742E+03  0.16319879402E+03  0.47000000000E+01 0. -1.
         -5    1    1    2    0  502  0.25516293998E+03 -0.34182522422E+02  0.29831560315E+03  0.39406961297E+03  0.47000000000E+01 0.  1.
        -11    1    1    2    0    0 -0.36204662923E+02 -0.34448707974E+02  0.16389627449E+03  0.17134608221E+03  0.00000000000E+00 0. -1.
         11    1    1    2    0    0 -0.12036378615E+03  0.53565526346E+02  0.49319744779E+03  0.51049038104E+03  0.00000000000E+00 0.  1.
<mgrwt>
<rscale>  0 0.30204284E+03</rscale>
<asrwt>0</asrwt>
<pdfrwt beam="1">  1        1 0.17873868E+00 0.35759417E+03</pdfrwt>
<pdfrwt beam="2">  1       -1 0.11892831E-01 0.35759417E+03</pdfrwt>
<totfact> 0.56386979E+02</totfact>
</mgrwt>
</event>
<event>
 6    1  0.5818426E-006  0.3828000E+03  0.7546771E-02  0.1049904E+00
          1   -1    0    0  501    0  0.00000000000E+00  0.00000000000E+00  0.62323453886E+02  0.62323453886E+02  0.00000000000E+00 0. -1.
         -1   -1    0    0    0  501 -0.00000000000E+00 -0.00000000000E+00 -0.58780382778E+03  0.58780382778E+03  0.00000000000E+00 0.  1.
          5    1    1    2  502    0 -0.89890350624E+01  0.77665286098E+02 -0.44947858330E+03  0.45625188905E+03  0.47000000000E+01 0.  1.
         -5    1    1    2    0  502 -0.31980175214E+02  0.19087518852E+02 -0.23904176179E+02  0.44503534932E+02  0.47000000000E+01 0.  1.
        -11    1    1    2    0    0  0.40031789555E+02 -0.41189724757E+02  0.17746820934E+02  0.60117279161E+02  0.00000000000E+00 0. -1.
         11    1    1    2    0    0  0.93742072182E+00 -0.55563080193E+02 -0.69844435346E+02  0.89254578521E+02  0.00000000000E+00 0.  1.
<mgrwt>
<rscale>  0 0.38280002E+03</rscale>
<asrwt>0</asrwt>
<pdfrwt beam="1">  1        1 0.95882240E-02 0.38280002E+03</pdfrwt>
<pdfrwt beam="2">  1       -1 0.90431355E-01 0.38280002E+03</pdfrwt>
<totfact> 0.85653681E+02</totfact>
</mgrwt>
</event>
<event>
 6    1  0.5818426E-006  0.2635231E+03  0.7546771E-02  0.1107358E+00
         -2   -1    0    0    0  501 -0.00000000000E+00  0.00000000000E+00  0.12426164535E+04  0.12426164535E+04  0.00000000000E+00 0.  1.
          2   -1    0    0  501    0  0.00000000000E+00 -0.00000000000E+00 -0.89232142499E+02  0.89232142499E+02  0.00000000000E+00 0. -1.
          5    1    1    2  502    0 -0.90016365217E+02  0.95983814194E+02  0.35612326774E+03  0.37968633162E+03  0.47000000000E+01 0. -1.
         -5    1    1    2    0  502 -0.11542302619E+03  0.10155067426E+02  0.65657763970E+03  0.66673974482E+03  0.47000000000E+01 0.  1.
        -11    1    1    2    0    0  0.12301722768E+03 -0.72013378734E+02  0.13452892872E+03  0.19600305530E+03  0.00000000000E+00 0.  1.
         11    1    1    2    0    0  0.82422163733E+02 -0.34125502885E+02  0.61544747993E+01  0.89419464222E+02  0.00000000000E+00 0. -1.
<mgrwt>
<rscale>  0 0.25964317E+03</rscale>
<asrwt>0</asrwt>
<pdfrwt beam="2">  1        2 0.13728023E-01 0.26352306E+03</pdfrwt>
<pdfrwt beam="1">  1       -2 0.19117175E+00 0.26352306E+03</pdfrwt>
<totfact> 0.71402784E+01</totfact>
</mgrwt>
</event>
<event>
 6    1  0.5818426E-006  0.1441918E+03  0.7546771E-02  0.1218317E+00
         -4   -1    0    0    0  501 -0.00000000000E+00  0.00000000000E+00  0.11129139270E+04  0.11129139270E+04  0.00000000000E+00 0.  1.
          4   -1    0    0  501    0  0.00000000000E+00 -0.00000000000E+00 -0.15840977294E+02  0.15840977294E+02  0.00000000000E+00 0. -1.
          5    1    1    2  502    0 -0.32326202640E+02 -0.75578167149E+01  0.42889858017E+03  0.43020714318E+03  0.47000000000E+01 0. -1.
         -5    1    1    2    0  502  0.39152568367E+02  0.79104823022E+02  0.29697969054E+03  0.30985403536E+03  0.47000000000E+01 0. -1.
        -11    1    1    2    0    0 -0.30738525818E+02 -0.79437266535E+02  0.32614819737E+03  0.33708720375E+03  0.00000000000E+00 0.  1.
         11    1    1    2    0    0  0.23912160091E+02  0.78902602273E+01  0.45046481623E+02  0.51606522003E+02  0.00000000000E+00 0. -1.
<mgrwt>
<rscale>  0 0.13635655E+03</rscale>
<asrwt>0</asrwt>
<pdfrwt beam="2">  1        4 0.24370743E-02 0.14419183E+03</pdfrwt>
<pdfrwt beam="1">  1       -4 0.17121747E+00 0.14419183E+03</pdfrwt>
<totfact> 0.28391562E+02</totfact>
</mgrwt>
</event>
<event>
 6    1  0.5818426E-006  0.2288439E+03  0.7546771E-02  0.1130344E+00
         -2   -1    0    0    0  501 -0.00000000000E+00  0.00000000000E+00  0.26972720664E+03  0.26972720664E+03  0.00000000000E+00 0.  1.
          2   -1    0    0  501    0  0.00000000000E+00 -0.00000000000E+00 -0.24929205779E+03  0.24929205779E+03  0.00000000000E+00 0. -1.
          5    1    1    2  502    0 -0.12398469367E+03  0.11796635748E+03  0.14210255731E+03  0.22249380341E+03  0.47000000000E+01 0.  1.
         -5    1    1    2    0  502  0.21155068780E+02  0.43818022362E+02  0.40773323036E+01  0.49053752736E+02  0.47000000000E+01 0.  1.
        -11    1    1    2    0    0  0.12838117041E+02 -0.77523623096E+02 -0.11542585185E+02  0.79422670944E+02  0.00000000000E+00 0.  1.
         11    1    1    2    0    0  0.89991507854E+02 -0.84260756746E+02 -0.11420215557E+03  0.16804903734E+03  0.00000000000E+00 0. -1.
<mgrwt>
<rscale>  0 0.22481377E+03</rscale>
<asrwt>0</asrwt>
<pdfrwt beam="2">  1        2 0.38352624E-01 0.22884387E+03</pdfrwt>
<pdfrwt beam="1">  1       -2 0.41496493E-01 0.22884387E+03</pdfrwt>
<totfact> 0.74312962E+02</totfact>
</mgrwt>
</event>
<event>
 6    1  0.5818426E-006  0.1696539E+03  0.7546771E-02  0.1184873E+00
          1   -1    0    0  501    0  0.00000000000E+00  0.00000000000E+00  0.41776806434E+03  0.41776806434E+03  0.00000000000E+00 0. -1.
         -1   -1    0    0    0  501 -0.00000000000E+00 -0.00000000000E+00 -0.60044996437E+02  0.60044996437E+02  0.00000000000E+00 0.  1.
          5    1    1    2  502    0  0.26403954188E+02  0.13539253500E+03  0.11736353691E+03  0.18117559749E+03  0.47000000000E+01 0. -1.
         -5    1    1    2    0  502 -0.89218324805E+01 -0.23131738640E+02  0.55825873045E+02  0.61264137377E+02  0.47000000000E+01 0. -1.
        -11    1    1    2    0    0 -0.32088486782E+02 -0.11248490711E+03  0.11397439360E+03  0.16331775074E+03  0.00000000000E+00 0.  1.
         11    1    1    2    0    0  0.14606365075E+02  0.22411074472E+00  0.70559264352E+02  0.72055575165E+02  0.00000000000E+00 0. -1.
<mgrwt>
<rscale>  0 0.16343400E+03</rscale>
<asrwt>0</asrwt>
<pdfrwt beam="1">  1        1 0.64272008E-01 0.16965392E+03</pdfrwt>
<pdfrwt beam="2">  1       -1 0.92376920E-02 0.16965392E+03</pdfrwt>
<totfact> 0.38573898E+03</totfact>
</mgrwt>
</event>
<event>
 6    1  0.5818426E-006  0.1461340E+03  0.7546771E-02  0.1215124E+00
         -1   -1    0    0    0  501 -0.00000000000E+00  0.00000000000E+00  0.31553595090E+02  0.31553595090E+02  0.00000000000E+00 0.  1.
          1   -1    0    0  501    0  0.00000000000E+00 -0.00000000000E+00 -0.66253657800E+03  0.66253657800E+03  0.00000000000E+00 0. -1.
          5    1    1    2  502    0 -0.86537892519E+02 -0.15650317179E+02 -0.15747673760E+03  0.18042935503E+03  0.47000000000E+01 0. -1.
         -5    1    1    2    0  502  0.34813104468E+02 -0.39615863956E+02 -0.46340698056E+02  0.70362768678E+02  0.47000000000E+01 0. -1.
        -11    1    1    2    0    0  0.75710759821E+02  0.31785446190E+02 -0.25511770335E+03  0.26800648557E+03  0.00000000000E+00 0. -1.
         11    1    1    2    0    0 -0.23985971770E+02  0.23480734945E+02 -0.17204784391E+03  0.17529156382E+03  0.00000000000E+00 0.  1.
<mgrwt>
<rscale>  0 0.13867398E+03</rscale>
<asrwt>0</asrwt>
<pdfrwt beam="2">  1        1 0.10192870E+00 0.14613399E+03</pdfrwt>
<pdfrwt beam="1">  1       -1 0.48543994E-02 0.14613399E+03</pdfrwt>
<totfact> 0.54547551E+03</totfact>
</mgrwt>
</event>
<event>
 6    1  0.5818426E-006  0.1559535E+03  0.7546771E-02  0.1201629E+00
          2   -1    0    0  501    0  0.00000000000E+00  0.00000000000E+00  0.47660002994E+03  0.47660002994E+03  0.00000000000E+00 0.  1.
         -2   -1    0    0    0  501 -0.00000000000E+00 -0.00000000000E+00 -0.45537803400E+02  0.45537803400E+02  0.00000000000E+00 0. -1.
          5    1    1    2  502    0  0.27420879325E+02 -0.63477566048E+02  0.12057733006E+03  0.13907655639E+03  0.47000000000E+01 0. -1.
         -5    1    1    2    0  502 -0.75644247459E+02 -0.16445577190E+02  0.51180025682E+02  0.92919288695E+02  0.47000000000E+01 0. -1.
        -11    1    1    2    0    0  0.62894787179E+01 -0.20432288630E+02  0.44692224561E+02  0.49542213287E+02  0.00000000000E+00 0.  1.
         11    1    1    2    0    0  0.41933889416E+02  0.10035543187E+03  0.21461264624E+03  0.24059977497E+03  0.00000000000E+00 0. -1.
<mgrwt>
<rscale>  0 0.14906346E+03</rscale>
<asrwt>0</asrwt>
<pdfrwt beam="1">  1        2 0.73323078E-01 0.15595346E+03</pdfrwt>
<pdfrwt beam="2">  1       -2 0.70058162E-02 0.15595346E+03</pdfrwt>
<totfact> 0.73792621E+03</totfact>
</mgrwt>
</event>
<event>
 6    1  0.5818426E-006  0.1320785E+03  0.7546771E-02  0.1237660E+00
          1   -1    0    0  501    0  0.00000000000E+00  0.00000000000E+00  0.32535145962E+03  0.32535145962E+03  0.00000000000E+00 0. -1.
         -1   -1    0    0    0  501 -0.00000000000E+00 -0.00000000000E+00 -0.43916772124E+02  0.43916772124E+02  0.00000000000E+00 0.  1.
          5    1    1    2  502    0 -0.29948730892E+02  0.79304542653E+02  0.98550664534E+02  0.13007867022E+03  0.47000000000E+01 0. -1.
         -5    1    1    2    0  502  0.15662392314E+02 -0.39095092994E+02  0.17890748088E+02  0.45998974949E+02  0.47000000000E+01 0. -1.
        -11    1    1    2    0    0 -0.18101523888E+02 -0.66977434244E+01 -0.23826004571E+01  0.19447409056E+02  0.00000000000E+00 0.  1.
         11    1    1    2    0    0  0.32387862466E+02 -0.33511706235E+02  0.16737587533E+03  0.17374317752E+03  0.00000000000E+00 0. -1.
<mgrwt>
<rscale>  0 0.12335687E+03</rscale>
<asrwt>0</asrwt>
<pdfrwt beam="1">  1        1 0.50054069E-01 0.13207852E+03</pdfrwt>
<pdfrwt beam="2">  1       -1 0.67564267E-02 0.13207852E+03</pdfrwt>
<totfact> 0.83552993E+03</totfact>
</mgrwt>
</event>
<event>
 6    1  0.5818426E-006  0.1785146E+03  0.7546771E-02  0.1175233E+00
          2   -1    0    0  501    0  0.00000000000E+00  0.00000000000E+00  0.80710801439E+02  0.80710801439E+02  0.00000000000E+00 0. -1.
         -2   -1    0    0    0  501 -0.00000000000E+00 -0.00000000000E+00 -0.59135009961E+03  0.59135009961E+03  0.00000000000E+00 0.  1.
          5    1    1    2  502    0  0.64140258402E+02 -0.12667388441E+03 -0.36822423381E+03  0.39467888480E+03  0.47000000000E+01 0.  1.
         -5    1    1    2    0  502 -0.35565884884E+02  0.24589237196E+01 -0.11336928647E+03  0.11893554384E+03  0.47000000000E+01 0.  1.
        -11    1    1    2    0    0  0.25157270209E+02  0.22105852281E+02 -0.27043749221E+02  0.43045572610E+02  0.00000000000E+00 0. -1.
         11    1    1    2    0    0 -0.53731643727E+02  0.10210910841E+03 -0.20020286751E+01  0.11540089981E+03  0.00000000000E+00 0.  1.
<mgrwt>
<rscale>  0 0.17253225E+03</rscale>
<asrwt>0</asrwt>
<pdfrwt beam="1">  1        2 0.12417046E-01 0.17851460E+03</pdfrwt>
<pdfrwt beam="2">  1       -2 0.90976938E-01 0.17851460E+03</pdfrwt>
<totfact> 0.51932242E+02</totfact>
</mgrwt>
</event>
<event>
 6    1  0.5818426E-006  0.1135137E+03  0.7546771E-02  0.1262586E+00
          1   -1    0    0  501    0  0.00000000000E+00  0.00000000000E+00  0.10323495428E+03  0.10323495428E+03  0.00000000000E+00 0. -1.
         -1   -1    0    0    0  501 -0.00000000000E+00 -0.00000000000E+00 -0.13547255847E+03  0.13547255847E+03  0.00000000000E+00 0.  1.
          5    1    1    2  502    0 -0.45002024157E+02  0.14470705517E+02 -0.32484917837E+02  0.57549486386E+02  0.47000000000E+01 0. -1.
         -5    1    1    2    0  502  0.51913332788E+02 -0.40392200007E+02 -0.39704792265E+02  0.76974570290E+02  0.47000000000E+01 0.  1.
        -11    1    1    2    0    0 -0.68690385995E+00 -0.27157997608E+02 -0.11955734864E+02  0.29681109601E+02  0.00000000000E+00 0.  1.
         11    1    1    2    0    0 -0.62244047708E+01  0.53079492098E+02  0.51907840771E+02  0.74502346471E+02  0.00000000000E+00 0. -1.
<mgrwt>
<rscale>  0 0.10891836E+03</rscale>
<asrwt>0</asrwt>
<pdfrwt beam="1">  1        1 0.15882301E-01 0.11351373E+03</pdfrwt>
<pdfrwt beam="2">  1       -1 0.20841932E-01 0.11351373E+03</pdfrwt>
<totfact> 0.61054638E+03</totfact>
</mgrwt>
</event>
<event>
 6    1  0.5818426E-006  0.1706754E+03  0.7546771E-02  0.1183718E+00
          2   -1    0    0  501    0  0.00000000000E+00  0.00000000000E+00  0.12301753385E+03  0.12301753385E+03  0.00000000000E+00 0.  1.
         -2   -1    0    0    0  501 -0.00000000000E+00 -0.00000000000E+00 -0.20803075665E+03  0.20803075665E+03  0.00000000000E+00 0. -1.
          5    1    1    2  502    0  0.16929433387E+02 -0.47632274567E+02 -0.38290491024E+02  0.63590022787E+02  0.47000000000E+01 0. -1.
         -5    1    1    2    0  502  0.98523031686E+02  0.60840726493E+02 -0.25837226282E+02  0.11873514238E+03  0.47000000000E+01 0. -1.
        -11    1    1    2    0    0 -0.11843077426E+03 -0.27345836538E+02  0.21105170196E+01  0.12156519794E+03  0.00000000000E+00 0.  1.
         11    1    1    2    0    0  0.29783091842E+01  0.14137384611E+02 -0.22996022515E+02  0.27157927402E+02  0.00000000000E+00 0. -1.
<mgrwt>
<rscale>  0 0.16449079E+03</rscale>
<asrwt>0</asrwt>
<pdfrwt beam="1">  1        2 0.18925775E-01 0.17067543E+03</pdfrwt>
<pdfrwt beam="2">  1       -2 0.32004732E-01 0.17067543E+03</pdfrwt>
<totfact> 0.26248601E+03</totfact>
</mgrwt>
</event>
<event>
 6    1  0.5818426E-006  0.2520088E+03  0.7546771E-02  0.1112042E+00
          1   -1    0    0  501    0  0.00000000000E+00  0.00000000000E+00  0.13101428589E+03  0.13101428589E+03  0.00000000000E+00 0. -1.
         -1   -1    0    0    0  501 -0.00000000000E+00 -0.00000000000E+00 -0.12118612441E+03  0.12118612441E+03  0.00000000000E+00 0.  1.
          5    1    1    2  502    0  0.10065502430E+03  0.98103910698E+01  0.60272977403E+01  0.10142039247E+03  0.47000000000E+01 0.  1.
         -5    1    1    2    0  502 -0.36561250178E+02 -0.11723961482E+02 -0.55232794666E+01  0.39073941488E+02  0.47000000000E+01 0.  1.
        -11    1    1    2    0    0 -0.39697564572E+02  0.44908291113E+02  0.15439332885E+02  0.61895268345E+02  0.00000000000E+00 0. -1.
         11    1    1    2    0    0 -0.24396209553E+02 -0.42994720701E+02 -0.61151896764E+01  0.49810807999E+02  0.00000000000E+00 0.  1.
<mgrwt>
<rscale>  0 0.25200884E+03</rscale>
<asrwt>0</asrwt>
<pdfrwt beam="1">  1        1 0.20156044E-01 0.25200884E+03</pdfrwt>
<pdfrwt beam="2">  1       -1 0.18644019E-01 0.25200884E+03</pdfrwt>
<totfact> 0.56487987E+03</totfact>
</mgrwt>
</event>
<event>
 6    1  0.5818426E-006  0.1562455E+03  0.7546771E-02  0.1200558E+00
         -2   -1    0    0    0  501 -0.00000000000E+00  0.00000000000E+00  0.48909473814E+02  0.48909473814E+02  0.00000000000E+00 0.  1.
          2   -1    0    0  501    0  0.00000000000E+00 -0.00000000000E+00 -0.45044152962E+03  0.45044152962E+03  0.00000000000E+00 0. -1.
          5    1    1    2  502    0  0.81321902438E+02 -0.20468236144E+02 -0.44140099814E+02  0.94882237108E+02  0.47000000000E+01 0. -1.
         -5    1    1    2    0  502 -0.22004906150E+02 -0.52118388444E+02 -0.11440083122E+03  0.12771132484E+03  0.47000000000E+01 0. -1.
        -11    1    1    2    0    0 -0.32001238078E+02  0.37178849508E+02 -0.22200186886E+03  0.22735693495E+03  0.00000000000E+00 0. -1.
         11    1    1    2    0    0 -0.27315758209E+02  0.35407775079E+02 -0.20989255905E+02  0.49400506536E+02  0.00000000000E+00 0.  1.
<mgrwt>
<rscale>  0 0.14993062E+03</rscale>
<asrwt>0</asrwt>
<pdfrwt beam="2">  1        2 0.69298696E-01 0.15624553E+03</pdfrwt>
<pdfrwt beam="1">  1       -2 0.75245346E-02 0.15624553E+03</pdfrwt>
<totfact> 0.70317436E+03</totfact>
</mgrwt>
</event>
<event>
 6    1  0.5818426E-006  0.1365989E+03  0.7546771E-02  0.1227675E+00
         -1   -1    0    0    0  501 -0.00000000000E+00  0.00000000000E+00  0.62340435649E+03  0.62340435649E+03  0.00000000000E+00 0.  1.
          1   -1    0    0  501    0  0.00000000000E+00 -0.00000000000E+00 -0.19915147270E+03  0.19915147270E+03  0.00000000000E+00 0. -1.
          5    1    1    2  502    0  0.28535268942E+01  0.15826320827E+02  0.44647538634E+01  0.17338946730E+02  0.47000000000E+01 0. -1.
         -5    1    1    2    0  502 -0.38950121980E+02  0.37846736256E+02  0.59501046170E+03  0.59750232383E+03  0.47000000000E+01 0.  1.
        -11    1    1    2    0    0 -0.77783681326E+01  0.14495899997E+02 -0.84339934917E+02  0.85929382340E+02  0.00000000000E+00 0. -1.
         11    1    1    2    0    0  0.43874963218E+02 -0.68168957079E+02 -0.90882396856E+02  0.12178517629E+03  0.00000000000E+00 0.  1.
<mgrwt>
<rscale>  0 0.12985201E+03</rscale>
<asrwt>0</asrwt>
<pdfrwt beam="2">  1        1 0.30638688E-01 0.13659888E+03</pdfrwt>
<pdfrwt beam="1">  1       -1 0.95908361E-01 0.13659888E+03</pdfrwt>
<totfact> 0.16737170E+02</totfact>
</mgrwt>
</event>
<event>
 6    1  0.5818426E-006  0.1700629E+03  0.7546771E-02  0.1193691E+00
          2   -1    0    0  501    0  0.00000000000E+00  0.00000000000E+00  0.44188399464E+02  0.44188399464E+02  0.00000000000E+00 0. -1.
         -2   -1    0    0    0  501 -0.00000000000E+00 -0.00000000000E+00 -0.55632665173E+03  0.55632665173E+03  0.00000000000E+00 0.  1.
          5    1    1    2  502    0 -0.74558190904E+02 -0.53658392080E+02 -0.22061627359E+03  0.23902254506E+03  0.47000000000E+01 0. -1.
         -5    1    1    2    0  502  0.65250183809E+02  0.42630084624E+02 -0.18773387830E+03  0.20332488698E+03  0.47000000000E+01 0.  1.
        -11    1    1    2    0    0  0.27695009553E+02  0.46801203518E+02 -0.10465038471E+03  0.11793671703E+03  0.00000000000E+00 0.  1.
         11    1    1    2    0    0 -0.18387002458E+02 -0.35772896063E+02  0.86228432988E+00  0.40230902133E+02  0.00000000000E+00 0. -1.
<mgrwt>
<rscale>  0 0.15565575E+03</rscale>
<asrwt>0</asrwt>
<pdfrwt beam="1">  1        2 0.67982153E-02 0.17006294E+03</pdfrwt>
<pdfrwt beam="2">  1       -2 0.85588716E-01 0.17006294E+03</pdfrwt>
<totfact> 0.12596151E+03</totfact>
</mgrwt>
</event>
<event>
 6    1  0.5818426E-006  0.3639071E+03  0.7546771E-02  0.1057047E+00
          3   -1    0    0  501    0  0.00000000000E+00  0.00000000000E+00  0.11354804321E+03  0.11354804321E+03  0.00000000000E+00 0. -1.
         -3   -1    0    0    0  501 -0.00000000000E+00 -0.00000000000E+00 -0.29156907795E+03  0.29156907795E+03  0.00000000000E+00 0.  1.
          5    1    1    2  502    0 -0.10116897121E+02  0.25998710240E+01  0.88231842291E+01  0.14458544762E+02  0.47000000000E+01 0. -1.
         -5    1    1    2    0  502  0.26428169576E+02  0.17743494823E+02 -0.26539639459E+03  0.26733988856E+03  0.47000000000E+01 0.  1.
        -11    1    1    2    0    0 -0.54319641477E+02 -0.14191993999E+02  0.40860036604E+02  0.69437588777E+02  0.00000000000E+00 0. -1.
         11    1    1    2    0    0  0.38008369022E+02 -0.61513718481E+01  0.37692139017E+02  0.53881099052E+02  0.00000000000E+00 0.  1.
<mgrwt>
<rscale>  0 0.36390712E+03</rscale>
<asrwt>0</asrwt>
<pdfrwt beam="1">  1        3 0.17468930E-01 0.36390712E+03</pdfrwt>
<pdfrwt beam="2">  1       -3 0.44856781E-01 0.36390712E+03</pdfrwt>
<totfact> 0.36676822E+02</totfact>
</mgrwt>
</event>
<event>
 6    1  0.5818426E-006  0.1277265E+03  0.7546771E-02  0.1246350E+00
         -2   -1    0    0    0  501 -0.00000000000E+00  0.00000000000E+00  0.14319203464E+03  0.14319203464E+03  0.00000000000E+00 0. -1.
          2   -1    0    0  501    0  0.00000000000E+00 -0.00000000000E+00 -0.16648378697E+03  0.16648378697E+03  0.00000000000E+00 0.  1.
          5    1    1    2  502    0  0.45489867469E+01  0.51044129350E+02  0.11266537466E+03  0.12386191129E+03  0.47000000000E+01 0.  1.
         -5    1    1    2    0  502  0.91659602054E+01 -0.28699238572E+02 -0.17739191712E+02  0.35276480035E+02  0.47000000000E+01 0.  1.
        -11    1    1    2    0    0  0.31898724074E+02 -0.18903456522E+02 -0.19860143670E+02  0.42062983402E+02  0.00000000000E+00 0. -1.
         11    1    1    2    0    0 -0.45613671027E+02 -0.34414342561E+01 -0.98357791617E+02  0.10847444688E+03  0.00000000000E+00 0.  1.
<mgrwt>
<rscale>  0 0.11804928E+03</rscale>
<asrwt>0</asrwt>
<pdfrwt beam="2">  1        2 0.25612890E-01 0.12772646E+03</pdfrwt>
<pdfrwt beam="1">  1       -2 0.22029544E-01 0.12772646E+03</pdfrwt>
<totfact> 0.35645491E+03</totfact>
</mgrwt>
</event>
<event>
 6    1  0.5818426E-006  0.1314090E+03  0.7546771E-02  0.1237159E+00
          2   -1    0    0  501    0  0.00000000000E+00  0.00000000000E+00  0.22063107778E+03  0.22063107778E+03  0.00000000000E+00 0. -1.
         -2   -1    0    0    0  501 -0.00000000000E+00 -0.00000000000E+00 -0.67377411475E+02  0.67377411475E+02  0.00000000000E+00 0.  1.
          5    1    1    2  502    0  0.73132482927E+01 -0.17569247188E+02  0.71632751518E+02  0.74266433450E+02  0.47000000000E+01 0. -1.
         -5    1    1    2    0  502 -0.27146407758E+02  0.52914082708E+02 -0.25675241827E+02  0.64947175812E+02  0.47000000000E+01 0. -1.
        -11    1    1    2    0    0  0.79977163542E+01 -0.10876588987E+02 -0.16916437779E+02  0.21643232707E+02  0.00000000000E+00 0.  1.
         11    1    1    2    0    0  0.11835443111E+02 -0.24468246533E+02  0.12421259439E+03  0.12715164729E+03  0.00000000000E+00 0. -1.
<mgrwt>
<rscale>  0 0.12367234E+03</rscale>
<asrwt>0</asrwt>
<pdfrwt beam="1">  1        2 0.33943243E-01 0.13140904E+03</pdfrwt>
<pdfrwt beam="2">  1       -2 0.10365756E-01 0.13140904E+03</pdfrwt>
<totfact> 0.90394962E+03</totfact>
</mgrwt>
</event>
<event>
 6    1  0.5818426E-006  0.1815632E+03  0.7546771E-02  0.1171987E+00
         -2   -1    0    0    0  501 -0.00000000000E+00  0.00000000000E+00  0.17367295846E+02  0.17367295846E+02  0.00000000000E+00 0.  1.
          2   -1    0    0  501    0  0.00000000000E+00 -0.00000000000E+00 -0.17120442357E+04  0.17120442357E+04  0.00000000000E+00 0. -1.
          5    1    1    2  502    0  0.10213184149E+03 -0.58345219518E+02 -0.74707124127E+03  0.75628870626E+03  0.47000000000E+01 0.  1.
         -5    1    1    2    0  502 -0.12979234563E+01 -0.26342203077E+02 -0.24320928019E+02  0.36182783309E+02  0.47000000000E+01 0.  1.
        -11    1    1    2    0    0  0.16772705212E+02  0.14405826084E+02 -0.11074916732E+03  0.11293462502E+03  0.00000000000E+00 0.  1.
         11    1    1    2    0    0 -0.11760662324E+03  0.70281596512E+02 -0.81253560320E+03  0.82400541692E+03  0.00000000000E+00 0. -1.
<mgrwt>
<rscale>  0 0.17574340E+03</rscale>
<asrwt>0</asrwt>
<pdfrwt beam="2">  1        2 0.26339140E+00 0.18156317E+03</pdfrwt>
<pdfrwt beam="1">  1       -2 0.26718919E-02 0.18156317E+03</pdfrwt>
<totfact> 0.52679785E+03</totfact>
</mgrwt>
</event>
<event>
 6    1  0.5818426E-006  0.1254332E+03  0.7546771E-02  0.1250073E+00
          2   -1    0    0  501    0  0.00000000000E+00  0.00000000000E+00  0.27133453302E+03  0.27133453302E+03  0.00000000000E+00 0. -1.
         -2   -1    0    0    0  501 -0.00000000000E+00 -0.00000000000E+00 -0.43435603731E+02  0.43435603731E+02  0.00000000000E+00 0.  1.
          5    1    1    2  502    0  0.61692963805E+02  0.53988471445E+01  0.60358394531E+02  0.86604821597E+02  0.47000000000E+01 0. -1.
         -5    1    1    2    0  502 -0.61123039381E+02 -0.15870207024E+02  0.62530897916E+02  0.88994902148E+02  0.47000000000E+01 0. -1.
        -11    1    1    2    0    0  0.21371754348E+02  0.32279842774E+02  0.11065941962E+02  0.40264068410E+02  0.00000000000E+00 0.  1.
         11    1    1    2    0    0 -0.21941678773E+02 -0.21808482895E+02  0.93943694881E+02  0.98906344596E+02  0.00000000000E+00 0. -1.
<mgrwt>
<rscale>  0 0.11586815E+03</rscale>
<asrwt>0</asrwt>
<pdfrwt beam="1">  1        2 0.41743773E-01 0.12543319E+03</pdfrwt>
<pdfrwt beam="2">  1       -2 0.66824007E-02 0.12543319E+03</pdfrwt>
<totfact> 0.14251226E+04</totfact>
</mgrwt>
</event>
<event>
 6    1  0.5818426E-006  0.1357340E+03  0.7546771E-02  0.1227708E+00
          2   -1    0    0  501    0  0.00000000000E+00  0.00000000000E+00  0.51087684386E+03  0.51087684386E+03  0.00000000000E+00 0. -1.
         -2   -1    0    0    0  501 -0.00000000000E+00 -0.00000000000E+00 -0.32382123603E+02  0.32382123603E+02  0.00000000000E+00 0.  1.
          5    1    1    2  502    0  0.16259944986E+02 -0.79716367094E+02  0.10457497291E+03  0.13257865572E+03  0.47000000000E+01 0. -1.
         -5    1    1    2    0  502 -0.45924504373E+02  0.27169184236E+02  0.88096300258E+02  0.10310321427E+03  0.47000000000E+01 0.  1.
        -11    1    1    2    0    0 -0.18208168372E+02  0.44894249323E+02  0.62637805793E+02  0.79186651225E+02  0.00000000000E+00 0.  1.
         11    1    1    2    0    0  0.47872727760E+02  0.76529335358E+01  0.22318564130E+03  0.22839044625E+03  0.00000000000E+00 0. -1.
<mgrwt>
<rscale>  0 0.12983045E+03</rscale>
<asrwt>0</asrwt>
<pdfrwt beam="1">  1        2 0.78596432E-01 0.13573402E+03</pdfrwt>
<pdfrwt beam="2">  1       -2 0.49818655E-02 0.13573402E+03</pdfrwt>
<totfact> 0.11368131E+04</totfact>
</mgrwt>
</event>
<event>
 6    1  0.5818426E-006  0.1491254E+03  0.7546771E-02  0.1212332E+00
         -1   -1    0    0    0  501 -0.00000000000E+00  0.00000000000E+00  0.11120164189E+04  0.11120164189E+04  0.00000000000E+00 0.  1.
          1   -1    0    0  501    0  0.00000000000E+00 -0.00000000000E+00 -0.17462646920E+02  0.17462646920E+02  0.00000000000E+00 0. -1.
          5    1    1    2  502    0 -0.89583685478E+01  0.25955328110E+02  0.38429351440E+03  0.38530186430E+03  0.47000000000E+01 0.  1.
         -5    1    1    2    0  502 -0.30939329721E+02 -0.96821692534E+02  0.37893963106E+03  0.39236337273E+03  0.47000000000E+01 0.  1.
        -11    1    1    2    0    0  0.15827872533E+02 -0.12246269604E+02  0.18523141586E+02  0.27269019827E+02  0.00000000000E+00 0. -1.
         11    1    1    2    0    0  0.24069825737E+02  0.83112634029E+02  0.31279748498E+03  0.32454480901E+03  0.00000000000E+00 0.  1.
<mgrwt>
<rscale>  0 0.14074346E+03</rscale>
<asrwt>0</asrwt>
<pdfrwt beam="2">  1        1 0.26865619E-02 0.14912541E+03</pdfrwt>
<pdfrwt beam="1">  1       -1 0.17107939E+00 0.14912541E+03</pdfrwt>
<totfact> 0.10360526E+03</totfact>
</mgrwt>
</event>
<event>
 6    1  0.5818426E-006  0.1254014E+03  0.7546771E-02  0.1251243E+00
          1   -1    0    0  501    0  0.00000000000E+00  0.00000000000E+00  0.28161113106E+02  0.28161113106E+02  0.00000000000E+00 0. -1.
         -1   -1    0    0    0  501 -0.00000000000E+00 -0.00000000000E+00 -0.53974578196E+03  0.53974578196E+03  0.00000000000E+00 0.  1.
          5    1    1    2  502    0 -0.43812612242E+02 -0.48782290099E+02 -0.24425582323E+03  0.25294713677E+03  0.47000000000E+01 0. -1.
         -5    1    1    2    0  502  0.33749796922E+02  0.48363894834E+02 -0.18229919379E+03  0.19165907538E+03  0.47000000000E+01 0. -1.
        -11    1    1    2    0    0  0.26853801382E+02  0.30434054596E+01  0.84287799214E+01  0.28309597250E+02  0.00000000000E+00 0. -1.
         11    1    1    2    0    0 -0.16790986062E+02 -0.26250101946E+01 -0.93458431751E+02  0.94991085671E+02  0.00000000000E+00 0.  1.
<mgrwt>
<rscale>  0 0.11519391E+03</rscale>
<asrwt>0</asrwt>
<pdfrwt beam="1">  1        1 0.43324793E-02 0.12540136E+03</pdfrwt>
<pdfrwt beam="2">  1       -1 0.83037806E-01 0.12540136E+03</pdfrwt>
<totfact> 0.29435885E+03</totfact>
</mgrwt>
</event>
<event>
 6    1  0.5818426E-006  0.1342123E+03  0.7546771E-02  0.1233832E+00
         -2   -1    0    0    0  501 -0.00000000000E+00  0.00000000000E+00  0.14892897419E+03  0.14892897419E+03  0.00000000000E+00 0.  1.
          2   -1    0    0  501    0  0.00000000000E+00 -0.00000000000E+00 -0.94971451483E+02  0.94971451483E+02  0.00000000000E+00 0. -1.
          5    1    1    2  502    0  0.61342014715E+02  0.24962951191E+02  0.57112288832E+02  0.87577938073E+02  0.47000000000E+01 0.  1.
         -5    1    1    2    0  502 -0.13940641926E+02 -0.36884766738E+02 -0.29470475143E+02  0.49451252965E+02  0.47000000000E+01 0.  1.
        -11    1    1    2    0    0 -0.20104034088E+02 -0.17552562057E+02  0.52516713911E+02  0.58908996438E+02  0.00000000000E+00 0.  1.
         11    1    1    2    0    0 -0.27297338701E+02  0.29474377604E+02 -0.26201004894E+02  0.47962238196E+02  0.00000000000E+00 0. -1.
<mgrwt>
<rscale>  0 0.12579511E+03</rscale>
<asrwt>0</asrwt>
<pdfrwt beam="2">  1        2 0.14610992E-01 0.13421225E+03</pdfrwt>
<pdfrwt beam="1">  1       -2 0.22912150E-01 0.13421225E+03</pdfrwt>
<totfact> 0.63200583E+03</totfact>
</mgrwt>
</event>
<event>
 6    1  0.5818426E-006  0.1622940E+03  0.7546771E-02  0.1193517E+00
         -1   -1    0    0    0  501 -0.00000000000E+00  0.00000000000E+00  0.11428545624E+03  0.11428545624E+03  0.00000000000E+00 0.  1.
          1   -1    0    0  501    0  0.00000000000E+00 -0.00000000000E+00 -0.19837901096E+03  0.19837901096E+03  0.00000000000E+00 0. -1.
          5    1    1    2  502    0  0.19452914142E+02  0.10183894787E+03  0.28806111987E+01  0.10382665888E+03  0.47000000000E+01 0.  1.
         -5    1    1    2    0  502 -0.50099903706E+02 -0.29720098764E+01 -0.35656394456E+02  0.61743839043E+02  0.47000000000E+01 0.  1.
        -11    1    1    2    0    0  0.14173004037E+02  0.15849190838E+02 -0.13504594686E+02  0.25188191107E+02  0.00000000000E+00 0.  1.
         11    1    1    2    0    0  0.16473985527E+02 -0.11471612883E+03 -0.37813176784E+02  0.12190577817E+03  0.00000000000E+00 0. -1.
<mgrwt>
<rscale>  0 0.15580448E+03</rscale>
<asrwt>0</asrwt>
<pdfrwt beam="2">  1        1 0.30519848E-01 0.16229399E+03</pdfrwt>
<pdfrwt beam="1">  1       -1 0.17582378E-01 0.16229399E+03</pdfrwt>
<totfact> 0.35848581E+03</totfact>
</mgrwt>
</event>
<event>
 6    1  0.6574037E-006  0.1936955E+03  0.7546771E-02  0.1159778E+00
          1   -1    0    0  501    0  0.00000000000E+00  0.00000000000E+00  0.27382017831E+03  0.27382017831E+03  0.00000000000E+00 0. -1.
         -1   -1    0    0    0  501 -0.00000000000E+00 -0.00000000000E+00 -0.12777754868E+03  0.12777754868E+03  0.00000000000E+00 0.  1.
          5    1    1    2  502    0 -0.91851410973E+01 -0.94884028208E+02  0.37918719668E+02  0.10269987793E+03  0.47000000000E+01 0. -1.
         -5    1    1    2    0  502  0.90394320112E+02 -0.28802272795E+02  0.16870273425E+01  0.95003368824E+02  0.47000000000E+01 0. -1.
        -11    1    1    2    0    0  0.17789419417E+02  0.33303928428E+02  0.10954033581E+02  0.39314195193E+02  0.00000000000E+00 0.  1.
         11    1    1    2    0    0 -0.98998598432E+02  0.90382372575E+02  0.95482849040E+02  0.16458028504E+03  0.00000000000E+00 0. -1.
<mgrwt>
<rscale>  0 0.18854711E+03</rscale>
<asrwt>0</asrwt>
<pdfrwt beam="1">  1        1 0.42126181E-01 0.19369553E+03</pdfrwt>
<pdfrwt beam="2">  1       -1 0.19658084E-01 0.19369553E+03</pdfrwt>
<totfact> 0.20178694E+03</totfact>
</mgrwt>
</event>
<event>
 6    1  0.5818426E-006  0.2676283E+03  0.7546771E-02  0.1102645E+00
          2   -1    0    0  501    0  0.00000000000E+00  0.00000000000E+00  0.56556893429E+03  0.56556893429E+03  0.00000000000E+00 0. -1.
         -2   -1    0    0    0  501 -0.00000000000E+00 -0.00000000000E+00 -0.31660559851E+02  0.31660559851E+02  0.00000000000E+00 0.  1.
          5    1    1    2  502    0 -0.99546939122E+01  0.18296613231E+02 -0.38429158833E+01  0.21696082345E+02  0.47000000000E+01 0. -1.
         -5    1    1    2    0  502 -0.49089498626E+02 -0.67010703936E+02  0.26535088137E+03  0.27808882315E+03  0.47000000000E+01 0. -1.
        -11    1    1    2    0    0  0.34843030823E+02  0.11855552426E+01  0.21547982338E+02  0.40984849409E+02  0.00000000000E+00 0.  1.
         11    1    1    2    0    0  0.24201161715E+02  0.47528535463E+02  0.25085242662E+03  0.25645973924E+03  0.00000000000E+00 0. -1.
<mgrwt>
<rscale>  0 0.26762832E+03</rscale>
<asrwt>0</asrwt>
<pdfrwt beam="1">  1        2 0.87010598E-01 0.26762832E+03</pdfrwt>
<pdfrwt beam="2">  1       -2 0.48708558E-02 0.26762832E+03</pdfrwt>
<totfact> 0.10943513E+04</totfact>
</mgrwt>
</event>
<event>
 6    1  0.5818426E-006  0.1251305E+03  0.7546771E-02  0.1250702E+00
         -4   -1    0    0    0  501 -0.00000000000E+00  0.00000000000E+00  0.15020389396E+03  0.15020389396E+03  0.00000000000E+00 0.  1.
          4   -1    0    0  501    0  0.00000000000E+00 -0.00000000000E+00 -0.81725925277E+02  0.81725925277E+02  0.00000000000E+00 0. -1.
          5    1    1    2  502    0  0.16891068453E+02 -0.57971636224E+02  0.74482660564E+01  0.61021188674E+02  0.47000000000E+01 0.  1.
         -5    1    1    2    0  502 -0.12968670366E+02  0.53797800668E+02  0.57572387932E+02  0.79994122409E+02  0.47000000000E+01 0.  1.
        -11    1    1    2    0    0 -0.18052061996E+02  0.44319113486E+02  0.62639675469E+01  0.48262801948E+02  0.00000000000E+00 0.  1.
         11    1    1    2    0    0  0.14129663909E+02 -0.40145277930E+02 -0.28066528505E+01  0.42651706208E+02  0.00000000000E+00 0. -1.
<mgrwt>
<rscale>  0 0.11550533E+03</rscale>
<asrwt>0</asrwt>
<pdfrwt beam="2">  1        4 0.12573219E-01 0.12513046E+03</pdfrwt>
<pdfrwt beam="1">  1       -4 0.23108291E-01 0.12513046E+03</pdfrwt>
<totfact> 0.14368112E+03</totfact>
</mgrwt>
</event>
<event>
 6    1  0.5818426E-006  0.2002612E+03  0.7546771E-02  0.1156758E+00
          2   -1    0    0  501    0  0.00000000000E+00  0.00000000000E+00  0.22231644018E+03  0.22231644018E+03  0.00000000000E+00 0. -1.
         -2   -1    0    0    0  501 -0.00000000000E+00 -0.00000000000E+00 -0.15825589214E+03  0.15825589214E+03  0.00000000000E+00 0.  1.
          5    1    1    2  502    0  0.12133370586E+03  0.15098891000E+02 -0.54268354244E+02  0.13385435726E+03  0.47000000000E+01 0. -1.
         -5    1    1    2    0  502  0.31285993274E+02  0.19339682632E+02  0.55092292001E+02  0.66408488443E+02  0.47000000000E+01 0. -1.
        -11    1    1    2    0    0 -0.61336878087E+02  0.18046258321E+01 -0.36664645035E+01  0.61472857830E+02  0.00000000000E+00 0.  1.
         11    1    1    2    0    0 -0.91282821043E+02 -0.36243199464E+02  0.66903074787E+02  0.11883662878E+03  0.00000000000E+00 0. -1.
<mgrwt>
<rscale>  0 0.19190099E+03</rscale>
<asrwt>0</asrwt>
<pdfrwt beam="1">  1        2 0.34202529E-01 0.20026115E+03</pdfrwt>
<pdfrwt beam="2">  1       -2 0.24347060E-01 0.20026115E+03</pdfrwt>
<totfact> 0.22313004E+03</totfact>
</mgrwt>
</event>
<event>
 6    1  0.5818426E-006  0.1406443E+03  0.7546771E-02  0.1230378E+00
          2   -1    0    0  501    0  0.00000000000E+00  0.00000000000E+00  0.52852115015E+03  0.52852115015E+03  0.00000000000E+00 0. -1.
         -2   -1    0    0    0  501 -0.00000000000E+00 -0.00000000000E+00 -0.42434309221E+02  0.42434309221E+02  0.00000000000E+00 0.  1.
          5    1    1    2  502    0 -0.50714272061E+02  0.14963995373E+02  0.10497814834E+03  0.11763655970E+03  0.47000000000E+01 0. -1.
         -5    1    1    2    0  502  0.53008035451E+02 -0.93882660489E+01 -0.59629953610E+01  0.54365785890E+02  0.47000000000E+01 0.  1.
        -11    1    1    2    0    0  0.15781609619E+02  0.42467111992E+02  0.17973202560E+03  0.18535402836E+03  0.00000000000E+00 0.  1.
         11    1    1    2    0    0 -0.18075373009E+02 -0.48042841317E+02  0.20733966235E+03  0.21359908542E+03  0.00000000000E+00 0. -1.
<mgrwt>
<rscale>  0 0.12805000E+03</rscale>
<asrwt>0</asrwt>
<pdfrwt beam="1">  1        2 0.81310941E-01 0.14064425E+03</pdfrwt>
<pdfrwt beam="2">  1       -2 0.65283557E-02 0.14064425E+03</pdfrwt>
<totfact> 0.72905954E+03</totfact>
</mgrwt>
</event>
<event>
 6    1  0.5818426E-006  0.2641786E+03  0.7546771E-02  0.1111489E+00
         -1   -1    0    0    0  501 -0.00000000000E+00  0.00000000000E+00  0.18482380710E+03  0.18482380710E+03  0.00000000000E+00 0.  1.
          1   -1    0    0  501    0  0.00000000000E+00 -0.00000000000E+00 -0.32803259114E+03  0.32803259114E+03  0.00000000000E+00 0. -1.
          5    1    1    2  502    0 -0.17736331869E+03 -0.15065564306E+03 -0.32613889855E+02  0.23503324321E+03  0.47000000000E+01 0. -1.
         -5    1    1    2    0  502  0.28193958116E+02  0.13037958246E+02 -0.39388250005E+01  0.31662153620E+02  0.47000000000E+01 0.  1.
        -11    1    1    2    0    0  0.10196551128E+03  0.42331003303E+02 -0.80552665691E+02  0.13666605753E+03  0.00000000000E+00 0.  1.
         11    1    1    2    0    0  0.47203849295E+02  0.95286681507E+02 -0.26103403495E+02  0.10949494388E+03  0.00000000000E+00 0. -1.
<mgrwt>
<rscale>  0 0.25289522E+03</rscale>
<asrwt>0</asrwt>
<pdfrwt beam="2">  1        1 0.50466552E-01 0.26417860E+03</pdfrwt>
<pdfrwt beam="1">  1       -1 0.28434432E-01 0.26417860E+03</pdfrwt>
<totfact> 0.87743325E+02</totfact>
</mgrwt>
</event>
<event>
 6    1  0.5818426E-006  0.1718022E+03  0.7546771E-02  0.1198042E+00
         -2   -1    0    0    0  501 -0.00000000000E+00  0.00000000000E+00  0.12123406302E+03  0.12123406302E+03  0.00000000000E+00 0.  1.
          2   -1    0    0  501    0  0.00000000000E+00 -0.00000000000E+00 -0.16592151776E+03  0.16592151776E+03  0.00000000000E+00 0. -1.
          5    1    1    2  502    0  0.22937445591E+02  0.45872829132E+02 -0.76542858527E+02  0.92256934993E+02  0.47000000000E+01 0. -1.
         -5    1    1    2    0  502  0.79790247546E+01 -0.10201789866E+01  0.79015775545E+02  0.79563109455E+02  0.47000000000E+01 0.  1.
        -11    1    1    2    0    0 -0.29814358266E+02 -0.68343507849E+02 -0.52535411123E+02  0.91212391953E+02  0.00000000000E+00 0.  1.
         11    1    1    2    0    0 -0.11021120804E+01  0.23490857704E+02  0.53750393634E+01  0.24123144381E+02  0.00000000000E+00 0. -1.
<mgrwt>
<rscale>  0 0.15199532E+03</rscale>
<asrwt>0</asrwt>
<pdfrwt beam="2">  1        2 0.25526387E-01 0.17180225E+03</pdfrwt>
<pdfrwt beam="1">  1       -2 0.18651394E-01 0.17180225E+03</pdfrwt>
<totfact> 0.48268153E+03</totfact>
</mgrwt>
</event>
<event>
 6    1  0.5818426E-006  0.1451872E+03  0.7546771E-02  0.1216711E+00
          1   -1    0    0  501    0  0.00000000000E+00  0.00000000000E+00  0.40139958610E+03  0.40139958610E+03  0.00000000000E+00 0. -1.
         -1   -1    0    0    0  501 -0.00000000000E+00 -0.00000000000E+00 -0.67378861971E+02  0.67378861971E+02  0.00000000000E+00 0.  1.
          5    1    1    2  502    0 -0.54591460674E+02  0.30608715054E+02  0.23775344555E+02  0.67115408250E+02  0.47000000000E+01 0. -1.
         -5    1    1    2    0  502  0.10983133619E+01 -0.81534556190E+02  0.13558608318E+02  0.82795024034E+02  0.47000000000E+01 0. -1.
        -11    1    1    2    0    0  0.64978163829E+01  0.45899039777E+02  0.52019961752E+02  0.69677972780E+02  0.00000000000E+00 0.  1.
         11    1    1    2    0    0  0.46995330929E+02  0.50268013588E+01  0.24466680950E+03  0.24919004301E+03  0.00000000000E+00 0. -1.
<mgrwt>
<rscale>  0 0.13751585E+03</rscale>
<asrwt>0</asrwt>
<pdfrwt beam="1">  1        1 0.61753781E-01 0.14518717E+03</pdfrwt>
<pdfrwt beam="2">  1       -1 0.10365979E-01 0.14518717E+03</pdfrwt>
<totfact> 0.33794909E+03</totfact>
</mgrwt>
</event>
<event>
 6    1  0.5818426E-006  0.1637327E+03  0.7546771E-02  0.1188653E+00
          2   -1    0    0  501    0  0.00000000000E+00  0.00000000000E+00  0.45352238939E+03  0.45352238939E+03  0.00000000000E+00 0.  1.
         -2   -1    0    0    0  501 -0.00000000000E+00 -0.00000000000E+00 -0.91530224392E+02  0.91530224392E+02  0.00000000000E+00 0. -1.
          5    1    1    2  502    0  0.40794940445E+02 -0.22506850394E+02  0.51229519697E+02  0.69407054173E+02  0.47000000000E+01 0.  1.
         -5    1    1    2    0  502  0.71540781654E+02  0.47610648645E+02 -0.39602332208E+02  0.94738017819E+02  0.47000000000E+01 0. -1.
        -11    1    1    2    0    0 -0.12487708280E+03 -0.42917995435E+01  0.30027698254E+03  0.32523679311E+03  0.00000000000E+00 0. -1.
         11    1    1    2    0    0  0.12541360697E+02 -0.20811998707E+02  0.50087994971E+02  0.55670748679E+02  0.00000000000E+00 0.  1.
<mgrwt>
<rscale>  0 0.16003861E+03</rscale>
<asrwt>0</asrwt>
<pdfrwt beam="1">  1        2 0.69772674E-01 0.16373275E+03</pdfrwt>
<pdfrwt beam="2">  1       -2 0.14081573E-01 0.16373275E+03</pdfrwt>
<totfact> 0.25938069E+03</totfact>
</mgrwt>
</event>
<event>
 6    1  0.5818426E-006  0.2124849E+03  0.7546771E-02  0.1143216E+00
          2   -1    0    0  501    0  0.00000000000E+00  0.00000000000E+00  0.42735551498E+03  0.42735551498E+03  0.00000000000E+00 0. -1.
         -2   -1    0    0    0  501 -0.00000000000E+00 -0.00000000000E+00 -0.97162519289E+02  0.97162519289E+02  0.00000000000E+00 0.  1.
          5    1    1    2  502    0  0.13174152941E+03 -0.45144842582E+02  0.19575393268E+03  0.24028229136E+03  0.47000000000E+01 0. -1.
         -5    1    1    2    0  502  0.35124514666E+02  0.41546474271E+01 -0.14979002584E+02  0.38696939726E+02  0.47000000000E+01 0. -1.
        -11    1    1    2    0    0 -0.24206729152E+01  0.19547169275E+02 -0.34465310471E+01  0.19995751056E+02  0.00000000000E+00 0.  1.
         11    1    1    2    0    0 -0.16444537116E+03  0.21443025880E+02  0.15286459664E+03  0.22554305212E+03  0.00000000000E+00 0. -1.
<mgrwt>
<rscale>  0 0.20792988E+03</rscale>
<asrwt>0</asrwt>
<pdfrwt beam="1">  1        2 0.65747001E-01 0.21248491E+03</pdfrwt>
<pdfrwt beam="2">  1       -2 0.14948080E-01 0.21248491E+03</pdfrwt>
<totfact> 0.25299560E+03</totfact>
</mgrwt>
</event>
<event>
 6    1  0.5818426E-006  0.1447496E+03  0.7546771E-02  0.1217102E+00
          2   -1    0    0  501    0  0.00000000000E+00  0.00000000000E+00  0.38296941719E+03  0.38296941719E+03  0.00000000000E+00 0. -1.
         -2   -1    0    0    0  501 -0.00000000000E+00 -0.00000000000E+00 -0.44817256427E+02  0.44817256427E+02  0.00000000000E+00 0.  1.
          5    1    1    2  502    0  0.41098701803E+02 -0.23611163614E+02  0.21979145991E+02  0.52457251125E+02  0.47000000000E+01 0. -1.
         -5    1    1    2    0  502 -0.72231253321E+02 -0.42387619357E+02  0.15439593101E+03  0.17571072177E+03  0.47000000000E+01 0. -1.
        -11    1    1    2    0    0  0.36742445447E+02  0.38190726390E+02  0.22656972980E+02  0.57635729407E+02  0.00000000000E+00 0.  1.
         11    1    1    2    0    0 -0.56098939285E+01  0.27808056580E+02  0.13912011078E+03  0.14198297132E+03  0.00000000000E+00 0. -1.
<mgrwt>
<rscale>  0 0.13723257E+03</rscale>
<asrwt>0</asrwt>
<pdfrwt beam="1">  1        2 0.58918370E-01 0.14474963E+03</pdfrwt>
<pdfrwt beam="2">  1       -2 0.68949628E-02 0.14474963E+03</pdfrwt>
<totfact> 0.95311752E+03</totfact>
</mgrwt>
</event>
<event>
 6    1  0.5818426E-006  0.2643937E+03  0.7546771E-02  0.1104532E+00
         -2   -1    0    0    0  501 -0.00000000000E+00  0.00000000000E+00  0.63446059955E+03  0.63446059955E+03  0.00000000000E+00 0. -1.
          2   -1    0    0  501    0  0.00000000000E+00 -0.00000000000E+00 -0.27544659552E+02  0.27544659552E+02  0.00000000000E+00 0.  1.
          5    1    1    2  502    0 -0.65470897497E+02  0.35140004837E+01  0.41922522875E+03  0.42434734480E+03  0.47000000000E+01 0.  1.
         -5    1    1    2    0  502  0.46814415332E+01  0.22019097762E+02  0.60276545998E+01  0.23773497451E+02  0.47000000000E+01 0.  1.
        -11    1    1    2    0    0  0.32843020987E+02  0.20092061133E+02  0.14241825098E+03  0.14753071938E+03  0.00000000000E+00 0. -1.
         11    1    1    2    0    0  0.27946434976E+02 -0.45625159379E+02  0.39244805669E+02  0.66353697472E+02  0.00000000000E+00 0.  1.
<mgrwt>
<rscale>  0 0.26439366E+03</rscale>
<asrwt>0</asrwt>
<pdfrwt beam="2">  1        2 0.42376404E-02 0.26439366E+03</pdfrwt>
<pdfrwt beam="1">  1       -2 0.97609312E-01 0.26439366E+03</pdfrwt>
<totfact> 0.17746089E+03</totfact>
</mgrwt>
</event>
<event>
 6    1  0.5818426E-006  0.2681548E+03  0.7546771E-02  0.1102340E+00
          1   -1    0    0  501    0  0.00000000000E+00  0.00000000000E+00  0.29840225677E+03  0.29840225677E+03  0.00000000000E+00 0. -1.
         -1   -1    0    0    0  501 -0.00000000000E+00 -0.00000000000E+00 -0.60243340282E+02  0.60243340282E+02  0.00000000000E+00 0.  1.
          5    1    1    2  502    0 -0.26902536000E+02  0.28283201007E+02  0.41532751930E+02  0.57190430889E+02  0.47000000000E+01 0.  1.
         -5    1    1    2    0  502  0.76951108171E+02 -0.47987841085E+02  0.24452078625E+02  0.94044139051E+02  0.47000000000E+01 0.  1.
        -11    1    1    2    0    0 -0.31959384781E+02 -0.15332908601E+02  0.16315488786E+03  0.16696112659E+03  0.00000000000E+00 0. -1.
         11    1    1    2    0    0 -0.18089187390E+02  0.35037548680E+02  0.90191980758E+01  0.40449900517E+02  0.00000000000E+00 0.  1.
<mgrwt>
<rscale>  0 0.26815480E+03</rscale>
<asrwt>0</asrwt>
<pdfrwt beam="1">  1        1 0.45908039E-01 0.26815480E+03</pdfrwt>
<pdfrwt beam="2">  1       -1 0.92682063E-02 0.26815480E+03</pdfrwt>
<totfact> 0.60024126E+03</totfact>
</mgrwt>
</event>
<event>
 6    1  0.5818426E-006  0.1745476E+03  0.7546771E-02  0.1179046E+00
         -1   -1    0    0    0  501 -0.00000000000E+00  0.00000000000E+00  0.16230043058E+03  0.16230043058E+03  0.00000000000E+00 0.  1.
          1   -1    0    0  501    0  0.00000000000E+00 -0.00000000000E+00 -0.21649240186E+03  0.21649240186E+03  0.00000000000E+00 0. -1.
          5    1    1    2  502    0  0.14648032340E+03 -0.20166277543E+02  0.56626334485E+02  0.15840390036E+03  0.47000000000E+01 0. -1.
         -5    1    1    2    0  502 -0.25908959537E+02  0.26944518757E+01  0.70061909633E+01  0.27380850371E+02  0.47000000000E+01 0. -1.
        -11    1    1    2    0    0  0.36969856793E+01  0.27176924524E+02 -0.14047353590E+02  0.30815273366E+02  0.00000000000E+00 0.  1.
         11    1    1    2    0    0 -0.12426834954E+03 -0.97050988568E+01 -0.10377714314E+03  0.16219280835E+03  0.00000000000E+00 0. -1.
<mgrwt>
<rscale>  0 0.16885606E+03</rscale>
<asrwt>0</asrwt>
<pdfrwt beam="2">  1        1 0.33306523E-01 0.17454763E+03</pdfrwt>
<pdfrwt beam="1">  1       -1 0.24969297E-01 0.17454763E+03</pdfrwt>
<totfact> 0.18246420E+03</totfact>
</mgrwt>
</event>
<event>
 6    1  0.5818426E-006  0.2590920E+03  0.7546771E-02  0.1109922E+00
         -2   -1    0    0    0  501 -0.00000000000E+00  0.00000000000E+00  0.61644265512E+02  0.61644265512E+02  0.00000000000E+00 0.  1.
          2   -1    0    0  501    0  0.00000000000E+00 -0.00000000000E+00 -0.11005176906E+04  0.11005176906E+04  0.00000000000E+00 0. -1.
          5    1    1    2  502    0  0.34278565265E+02 -0.25391094458E+02 -0.16932970135E+02  0.46136137593E+02  0.47000000000E+01 0.  1.
         -5    1    1    2    0  502  0.66599017574E+01 -0.19771651269E+03 -0.36878253955E+03  0.41851980259E+03  0.47000000000E+01 0.  1.
        -11    1    1    2    0    0 -0.81590469434E+00  0.93735502002E+02 -0.15390374584E+03  0.18020369868E+03  0.00000000000E+00 0.  1.
         11    1    1    2    0    0 -0.40122562328E+02  0.12937210515E+03 -0.49925416952E+03  0.51730231720E+03  0.00000000000E+00 0. -1.
<mgrwt>
<rscale>  0 0.25542791E+03</rscale>
<asrwt>0</asrwt>
<pdfrwt beam="2">  1        2 0.16931040E+00 0.25909205E+03</pdfrwt>
<pdfrwt beam="1">  1       -2 0.94837340E-02 0.25909205E+03</pdfrwt>
<totfact> 0.16489901E+03</totfact>
</mgrwt>
</event>
<event>
 6    1  0.5818426E-006  0.1320941E+03  0.7546771E-02  0.1239475E+00
          1   -1    0    0  501    0  0.00000000000E+00  0.00000000000E+00  0.32445693731E+02  0.32445693731E+02  0.00000000000E+00 0. -1.
         -1   -1    0    0    0  501 -0.00000000000E+00 -0.00000000000E+00 -0.44707097266E+03  0.44707097266E+03  0.00000000000E+00 0.  1.
          5    1    1    2  502    0 -0.52988300813E+02 -0.29368676598E+02 -0.12376042987E+03  0.13787317792E+03  0.47000000000E+01 0. -1.
         -5    1    1    2    0  502  0.69516542121E+02 -0.99913974106E+01 -0.18622984016E+03  0.19908797306E+03  0.47000000000E+01 0. -1.
        -11    1    1    2    0    0 -0.37988610297E+02 -0.10917869107E+02 -0.60638793682E+02  0.72383683779E+02  0.00000000000E+00 0.  1.
         11    1    1    2    0    0  0.21460368989E+02  0.50277943116E+02 -0.43996215212E+02  0.70171831628E+02  0.00000000000E+00 0. -1.
<mgrwt>
<rscale>  0 0.12222240E+03</rscale>
<asrwt>0</asrwt>
<pdfrwt beam="1">  1        1 0.49916456E-02 0.13209409E+03</pdfrwt>
<pdfrwt beam="2">  1       -1 0.68780144E-01 0.13209409E+03</pdfrwt>
<totfact> 0.35541092E+03</totfact>
</mgrwt>
</event>
<event>
 6    1  0.5818426E-006  0.1437808E+03  0.7546771E-02  0.1219373E+00
         -2   -1    0    0    0  501 -0.00000000000E+00  0.00000000000E+00  0.21591961476E+02  0.21591961476E+02  0.00000000000E+00 0.  1.
          2   -1    0    0  501    0  0.00000000000E+00 -0.00000000000E+00 -0.77035203849E+03  0.77035203849E+03  0.00000000000E+00 0. -1.
          5    1    1    2  502    0  0.39817863824E+02  0.33609229483E+02 -0.17713505810E+03  0.18469965185E+03  0.47000000000E+01 0.  1.
         -5    1    1    2    0  502  0.38714882098E+01 -0.89646364943E+02 -0.21863380916E+03  0.23637743479E+03  0.47000000000E+01 0.  1.
        -11    1    1    2    0    0  0.77444684769E+01  0.28225629655E+02 -0.27485376476E+02  0.40151075719E+02  0.00000000000E+00 0.  1.
         11    1    1    2    0    0 -0.51433820511E+02  0.27811505806E+02 -0.32550583327E+03  0.33071583761E+03  0.00000000000E+00 0. -1.
<mgrwt>
<rscale>  0 0.13560173E+03</rscale>
<asrwt>0</asrwt>
<pdfrwt beam="2">  1        2 0.11851571E+00 0.14378079E+03</pdfrwt>
<pdfrwt beam="1">  1       -2 0.33218399E-02 0.14378079E+03</pdfrwt>
<totfact> 0.12976111E+04</totfact>
</mgrwt>
</event>
<event>
 6    1  0.5818426E-006  0.1391898E+03  0.7546771E-02  0.1225649E+00
         -1   -1    0    0    0  501 -0.00000000000E+00  0.00000000000E+00  0.14472153704E+03  0.14472153704E+03  0.00000000000E+00 0.  1.
          1   -1    0    0  501    0  0.00000000000E+00 -0.00000000000E+00 -0.12911316739E+03  0.12911316739E+03  0.00000000000E+00 0. -1.
          5    1    1    2  502    0  0.45688224423E+02  0.63987535415E+02  0.69069281835E+02  0.10475912482E+03  0.47000000000E+01 0. -1.
         -5    1    1    2    0  502 -0.48178223400E+02 -0.27855665489E+01 -0.44663483638E+01  0.48692287466E+02  0.47000000000E+01 0. -1.
        -11    1    1    2    0    0 -0.38104525998E+02 -0.25671810957E+02  0.22177738960E+01  0.45999079343E+02  0.00000000000E+00 0.  1.
         11    1    1    2    0    0  0.40594524975E+02 -0.35530157909E+02 -0.51212337716E+02  0.74384212796E+02  0.00000000000E+00 0. -1.
<mgrwt>
<rscale>  0 0.13122492E+03</rscale>
<asrwt>0</asrwt>
<pdfrwt beam="2">  1        1 0.19863564E-01 0.13918979E+03</pdfrwt>
<pdfrwt beam="1">  1       -1 0.22264852E-01 0.13918979E+03</pdfrwt>
<totfact> 0.41790220E+03</totfact>
</mgrwt>
</event>
<event>
 6    1  0.5818426E-006  0.1524736E+03  0.7546771E-02  0.1206430E+00
         -2   -1    0    0    0  501 -0.00000000000E+00  0.00000000000E+00  0.16169059506E+03  0.16169059506E+03  0.00000000000E+00 0.  1.
          2   -1    0    0  501    0  0.00000000000E+00 -0.00000000000E+00 -0.11954858529E+03  0.11954858529E+03  0.00000000000E+00 0. -1.
          5    1    1    2  502    0 -0.16692131189E+01  0.18510468679E+02  0.50198749443E+02  0.53734794769E+02  0.47000000000E+01 0. -1.
         -5    1    1    2    0  502  0.84688248410E+02 -0.45517338340E+02 -0.28227706663E+02  0.10031361289E+03  0.47000000000E+01 0. -1.
        -11    1    1    2    0    0  0.12622786807E+02  0.24522046159E+02  0.14956813696E+02  0.31374699529E+02  0.00000000000E+00 0. -1.
         11    1    1    2    0    0 -0.95641822097E+02  0.24848235020E+01  0.52141532953E+01  0.95816073164E+02  0.00000000000E+00 0.  1.
<mgrwt>
<rscale>  0 0.14525363E+03</rscale>
<asrwt>0</asrwt>
<pdfrwt beam="2">  1        2 0.18392090E-01 0.15247356E+03</pdfrwt>
<pdfrwt beam="1">  1       -2 0.24875476E-01 0.15247356E+03</pdfrwt>
<totfact> 0.42302677E+03</totfact>
</mgrwt>
</event>
<event>
 6    1  0.5818426E-006  0.1457839E+03  0.7546771E-02  0.1215890E+00
          2   -1    0    0  501    0  0.00000000000E+00  0.00000000000E+00  0.23070775315E+03  0.23070775315E+03  0.00000000000E+00 0. -1.
         -2   -1    0    0    0  501 -0.00000000000E+00 -0.00000000000E+00 -0.10149535993E+03  0.10149535993E+03  0.00000000000E+00 0.  1.
          5    1    1    2  502    0  0.40534192743E+02 -0.86100304105E+01  0.26195647386E+02  0.49248912141E+02  0.47000000000E+01 0.  1.
         -5    1    1    2    0  502 -0.61130612384E+02 -0.63527245012E+02 -0.40816357265E+02  0.97266271902E+02  0.47000000000E+01 0.  1.
        -11    1    1    2    0    0 -0.31424526562E+02  0.43006100607E+02  0.42608469337E+02  0.68209289824E+02  0.00000000000E+00 0.  1.
         11    1    1    2    0    0  0.52020946202E+02  0.29131174816E+02  0.10122463377E+03  0.11747863921E+03  0.00000000000E+00 0. -1.
<mgrwt>
<rscale>  0 0.13811335E+03</rscale>
<asrwt>0</asrwt>
<pdfrwt beam="1">  1        2 0.35493500E-01 0.14578386E+03</pdfrwt>
<pdfrwt beam="2">  1       -2 0.15614671E-01 0.14578386E+03</pdfrwt>
<totfact> 0.44898775E+03</totfact>
</mgrwt>
</event>
<event>
 6    1  0.5818426E-006  0.1490552E+03  0.7546771E-02  0.1211028E+00
         -1   -1    0    0    0  501 -0.00000000000E+00  0.00000000000E+00  0.23968549404E+02  0.23968549404E+02  0.00000000000E+00 0.  1.
          1   -1    0    0  501    0  0.00000000000E+00 -0.00000000000E+00 -0.77000984682E+03  0.77000984682E+03  0.00000000000E+00 0. -1.
          5    1    1    2  502    0  0.26952664197E+02 -0.79378381475E+02 -0.31290523430E+03  0.32397399465E+03  0.47000000000E+01 0.  1.
         -5    1    1    2    0  502 -0.59806442093E+02  0.51304901487E+01 -0.12821091493E+03  0.14164484160E+03  0.47000000000E+01 0.  1.
        -11    1    1    2    0    0  0.63817755282E+02  0.41647060121E+02 -0.17491532532E+03  0.19079453488E+03  0.00000000000E+00 0. -1.
         11    1    1    2    0    0 -0.30963977386E+02  0.32600831205E+02 -0.13000982286E+03  0.13756502511E+03  0.00000000000E+00 0.  1.
<mgrwt>
<rscale>  0 0.14172351E+03</rscale>
<asrwt>0</asrwt>
<pdfrwt beam="2">  1        1 0.11846304E+00 0.14905517E+03</pdfrwt>
<pdfrwt beam="1">  1       -1 0.36874695E-02 0.14905517E+03</pdfrwt>
<totfact> 0.65899558E+03</totfact>
</mgrwt>
</event>
<event>
 6    1  0.5818426E-006  0.3738178E+03  0.7546771E-02  0.1054098E+00
          1   -1    0    0  501    0  0.00000000000E+00  0.00000000000E+00  0.19398636904E+04  0.19398636904E+04  0.00000000000E+00 0. -1.
         -1   -1    0    0    0  501 -0.00000000000E+00 -0.00000000000E+00 -0.76902760921E+02  0.76902760921E+02  0.00000000000E+00 0.  1.
          5    1    1    2  502    0 -0.31852509764E+02 -0.34771842164E+02  0.43374684838E+02  0.64242639038E+02  0.47000000000E+01 0. -1.
         -5    1    1    2    0  502  0.35753091884E+02 -0.31750343874E+03  0.60345389422E+03  0.68283629784E+03  0.47000000000E+01 0. -1.
        -11    1    1    2    0    0  0.35816532981E+02  0.24794036169E+03  0.90926818724E+03  0.94314679839E+03  0.00000000000E+00 0.  1.
         11    1    1    2    0    0 -0.39717115100E+02  0.10433491921E+03  0.30686416321E+03  0.32654071609E+03  0.00000000000E+00 0. -1.
<mgrwt>
<rscale>  0 0.37155990E+03</rscale>
<asrwt>0</asrwt>
<pdfrwt beam="1">  1        1 0.29844053E+00 0.37381777E+03</pdfrwt>
<pdfrwt beam="2">  1       -1 0.11831195E-01 0.37381777E+03</pdfrwt>
<totfact> 0.16994862E+02</totfact>
</mgrwt>
</event>
<event>
 6    1  0.5818426E-006  0.2635432E+03  0.7546771E-02  0.1105033E+00
         -4   -1    0    0    0  501 -0.00000000000E+00  0.00000000000E+00  0.10848002012E+03  0.10848002012E+03  0.00000000000E+00 0.  1.
          4   -1    0    0  501    0  0.00000000000E+00 -0.00000000000E+00 -0.16006407135E+03  0.16006407135E+03  0.00000000000E+00 0. -1.
          5    1    1    2  502    0  0.69539137633E+01  0.75453919236E+01 -0.43821548755E+02  0.45251607609E+02  0.47000000000E+01 0.  1.
         -5    1    1    2    0  502  0.72245523451E+01 -0.50036503034E+02  0.75969643430E+02  0.91374627306E+02  0.47000000000E+01 0.  1.
        -11    1    1    2    0    0 -0.37671616039E+02  0.60623099159E+02 -0.66763078507E+02  0.97732386947E+02  0.00000000000E+00 0. -1.
         11    1    1    2    0    0  0.23493149931E+02 -0.18131988049E+02 -0.16969067396E+02  0.34185469612E+02  0.00000000000E+00 0.  1.
<mgrwt>
<rscale>  0 0.26354319E+03</rscale>
<asrwt>0</asrwt>
<pdfrwt beam="2">  1        4 0.24625242E-01 0.26354319E+03</pdfrwt>
<pdfrwt beam="1">  1       -4 0.16689234E-01 0.26354319E+03</pdfrwt>
<totfact> 0.89677704E+02</totfact>
</mgrwt>
</event>
<event>
 6    1  0.5818426E-006  0.2244613E+03  0.7546771E-02  0.1133623E+00
         -2   -1    0    0    0  501 -0.00000000000E+00  0.00000000000E+00  0.11649840160E+03  0.11649840160E+03  0.00000000000E+00 0.  1.
          2   -1    0    0  501    0  0.00000000000E+00 -0.00000000000E+00 -0.43252853326E+03  0.43252853326E+03  0.00000000000E+00 0. -1.
          5    1    1    2  502    0  0.79688730821E+02  0.75070626879E+02  0.13148311820E+02  0.11036693773E+03  0.47000000000E+01 0. -1.
         -5    1    1    2    0  502  0.76052246782E+02  0.27412452194E+02 -0.10394000707E+03  0.13176115454E+03  0.47000000000E+01 0. -1.
        -11    1    1    2    0    0 -0.10120731642E+02  0.15695317097E+02 -0.35530451580E+02  0.40139571214E+02  0.00000000000E+00 0.  1.
         11    1    1    2    0    0 -0.14562024596E+03 -0.11817839617E+03 -0.18970798484E+03  0.26675927138E+03  0.00000000000E+00 0. -1.
<mgrwt>
<rscale>  0 0.22034872E+03</rscale>
<asrwt>0</asrwt>
<pdfrwt beam="2">  1        2 0.66542851E-01 0.22446131E+03</pdfrwt>
<pdfrwt beam="1">  1       -2 0.17922831E-01 0.22446131E+03</pdfrwt>
<totfact> 0.18473492E+03</totfact>
</mgrwt>
</event>
<event>
 6    1  0.5818426E-006  0.1467729E+03  0.7546771E-02  0.1213901E+00
         -3   -1    0    0    0  501 -0.00000000000E+00  0.00000000000E+00  0.34688288263E+02  0.34688288263E+02  0.00000000000E+00 0.  1.
          3   -1    0    0  501    0  0.00000000000E+00 -0.00000000000E+00 -0.52231981112E+03  0.52231981112E+03  0.00000000000E+00 0. -1.
          5    1    1    2  502    0 -0.37971641312E+02  0.34979562451E+02 -0.14663966735E+03  0.15553358921E+03  0.47000000000E+01 0. -1.
         -5    1    1    2    0  502 -0.25417693221E+02 -0.78556495660E+02 -0.84238934626E+02  0.11804859273E+03  0.47000000000E+01 0. -1.
        -11    1    1    2    0    0  0.22061828998E+02 -0.87065668640E+01 -0.67024325294E+01  0.24646525254E+02  0.00000000000E+00 0.  1.
         11    1    1    2    0    0  0.41327505535E+02  0.52283500073E+02 -0.25005048835E+03  0.25877939218E+03  0.00000000000E+00 0. -1.
<mgrwt>
<rscale>  0 0.13957594E+03</rscale>
<asrwt>0</asrwt>
<pdfrwt beam="2">  1        3 0.80356887E-01 0.14677289E+03</pdfrwt>
<pdfrwt beam="1">  1       -3 0.53366602E-02 0.14677289E+03</pdfrwt>
<totfact> 0.71091398E+02</totfact>
</mgrwt>
</event>
<event>
 6    1  0.5818426E-006  0.1698753E+03  0.7546771E-02  0.1190039E+00
          2   -1    0    0  501    0  0.00000000000E+00  0.00000000000E+00  0.77836278215E+03  0.77836278215E+03  0.00000000000E+00 0. -1.
         -2   -1    0    0    0  501 -0.00000000000E+00 -0.00000000000E+00 -0.29178733972E+02  0.29178733972E+02  0.00000000000E+00 0.  1.
          5    1    1    2  502    0  0.54491012574E+02 -0.64837541893E+02  0.87357873232E+02  0.12176479502E+03  0.47000000000E+01 0. -1.
         -5    1    1    2    0  502  0.27462987505E+02 -0.15894461603E+02  0.29366208319E+03  0.29540879929E+03  0.47000000000E+01 0. -1.
        -11    1    1    2    0    0 -0.35721197647E+02  0.68257510855E+02  0.27540960642E+03  0.28598171805E+03  0.00000000000E+00 0.  1.
         11    1    1    2    0    0 -0.46232802432E+02  0.12474492641E+02  0.92754485338E+02  0.10438620377E+03  0.00000000000E+00 0. -1.
<mgrwt>
<rscale>  0 0.15881730E+03</rscale>
<asrwt>0</asrwt>
<pdfrwt beam="1">  1        2 0.11974810E+00 0.16987525E+03</pdfrwt>
<pdfrwt beam="2">  1       -2 0.44890366E-02 0.16987525E+03</pdfrwt>
<totfact> 0.82621453E+03</totfact>
</mgrwt>
</event>
<event>
 6    1  0.5818426E-006  0.1330425E+03  0.7546771E-02  0.1235921E+00
         -2   -1    0    0    0  501 -0.00000000000E+00  0.00000000000E+00  0.19863107852E+02  0.19863107852E+02  0.00000000000E+00 0.  1.
          2   -1    0    0  501    0  0.00000000000E+00 -0.00000000000E+00 -0.72086840165E+03  0.72086840165E+03  0.00000000000E+00 0. -1.
          5    1    1    2  502    0 -0.19291816111E+02 -0.73430634001E+02 -0.18075094960E+03  0.19610514516E+03  0.47000000000E+01 0.  1.
         -5    1    1    2    0  502  0.44332134812E+02  0.35379619587E+02 -0.14448466597E+03  0.15528993644E+03  0.47000000000E+01 0.  1.
        -11    1    1    2    0    0  0.20226638218E+01  0.64098416172E+02 -0.22530552904E+03  0.23425473217E+03  0.00000000000E+00 0. -1.
         11    1    1    2    0    0 -0.27062982523E+02 -0.26047401757E+02 -0.15046414918E+03  0.15508169573E+03  0.00000000000E+00 0.  1.
<mgrwt>
<rscale>  0 0.12445645E+03</rscale>
<asrwt>0</asrwt>
<pdfrwt beam="2">  1        2 0.11090284E+00 0.13304247E+03</pdfrwt>
<pdfrwt beam="1">  1       -2 0.30558625E-02 0.13304247E+03</pdfrwt>
<totfact> 0.15818563E+04</totfact>
</mgrwt>
</event>
<event>
 6    1  0.5818426E-006  0.1964682E+03  0.7546771E-02  0.1157214E+00
          1   -1    0    0  501    0  0.00000000000E+00  0.00000000000E+00  0.68563226319E+03  0.68563226319E+03  0.00000000000E+00 0. -1.
         -1   -1    0    0    0  501 -0.00000000000E+00 -0.00000000000E+00 -0.54079630590E+02  0.54079630590E+02  0.00000000000E+00 0.  1.
          5    1    1    2  502    0 -0.14547411337E+03  0.63978392667E+02  0.17568312915E+03  0.23694430624E+03  0.47000000000E+01 0. -1.
         -5    1    1    2    0  502  0.23156437321E+02  0.25536007880E+02  0.65189611666E+02  0.73892379560E+02  0.47000000000E+01 0. -1.
        -11    1    1    2    0    0  0.13409685317E+03 -0.89663656979E+02  0.33312011433E+03  0.37012234191E+03  0.00000000000E+00 0.  1.
         11    1    1    2    0    0 -0.11779177112E+02  0.14925643156E+00  0.57559777454E+02  0.58752866071E+02  0.00000000000E+00 0. -1.
<mgrwt>
<rscale>  0 0.19138936E+03</rscale>
<asrwt>0</asrwt>
<pdfrwt beam="1">  1        1 0.10548188E+00 0.19646824E+03</pdfrwt>
<pdfrwt beam="2">  1       -1 0.83199437E-02 0.19646824E+03</pdfrwt>
<totfact> 0.23369297E+03</totfact>
</mgrwt>
</event>
<event>
 6    1  0.5818426E-006  0.1639080E+03  0.7546771E-02  0.1191574E+00
          1   -1    0    0  501    0  0.00000000000E+00  0.00000000000E+00  0.40588211121E+03  0.40588211121E+03  0.00000000000E+00 0. -1.
         -1   -1    0    0    0  501 -0.00000000000E+00 -0.00000000000E+00 -0.63758980142E+02  0.63758980142E+02  0.00000000000E+00 0.  1.
          5    1    1    2  502    0 -0.46652842243E+02 -0.69905079680E+00 -0.97326699171E+01  0.47893540536E+02  0.47000000000E+01 0. -1.
         -5    1    1    2    0  502 -0.94443875227E+01  0.90651111301E+02  0.11538722490E+03  0.14711601580E+03  0.47000000000E+01 0. -1.
        -11    1    1    2    0    0  0.24450535589E+02  0.15035354326E+02  0.35089560839E+02  0.45333959128E+02  0.00000000000E+00 0.  1.
         11    1    1    2    0    0  0.31646694177E+02 -0.10498741483E+03  0.20137901524E+03  0.22929757588E+03  0.00000000000E+00 0. -1.
<mgrwt>
<rscale>  0 0.15747756E+03</rscale>
<asrwt>0</asrwt>
<pdfrwt beam="1">  1        1 0.62443400E-01 0.16390803E+03</pdfrwt>
<pdfrwt beam="2">  1       -1 0.98090741E-02 0.16390803E+03</pdfrwt>
<totfact> 0.36454592E+03</totfact>
</mgrwt>
</event>
<event>
 6    1  0.5818426E-006  0.2348601E+03  0.7546771E-02  0.1123265E+00
          2   -1    0    0  501    0  0.00000000000E+00  0.00000000000E+00  0.96489030414E+02  0.96489030414E+02  0.00000000000E+00 0. -1.
         -2   -1    0    0    0  501 -0.00000000000E+00 -0.00000000000E+00 -0.14291584066E+03  0.14291584066E+03  0.00000000000E+00 0.  1.
          5    1    1    2  502    0  0.56681724652E+01  0.29329930999E+01 -0.83395722636E+02  0.83771517723E+02  0.47000000000E+01 0. -1.
         -5    1    1    2    0  502  0.47855257293E+02 -0.21634138808E+02  0.33277874160E+02  0.62351170968E+02  0.47000000000E+01 0. -1.
        -11    1    1    2    0    0 -0.32197074096E+02  0.42098729975E+01 -0.34387355231E+02  0.47295505186E+02  0.00000000000E+00 0.  1.
         11    1    1    2    0    0 -0.21326355662E+02  0.14491272711E+02  0.38078393464E+02  0.45986677194E+02  0.00000000000E+00 0. -1.
<mgrwt>
<rscale>  0 0.23486005E+03</rscale>
<asrwt>0</asrwt>
<pdfrwt beam="1">  1        2 0.14844466E-01 0.23486005E+03</pdfrwt>
<pdfrwt beam="2">  1       -2 0.21987052E-01 0.23486005E+03</pdfrwt>
<totfact> 0.69129466E+03</totfact>
</mgrwt>
</event>
<event>
 6    1  0.5818426E-006  0.1383986E+03  0.7546771E-02  0.1227032E+00
          2   -1    0    0  501    0  0.00000000000E+00  0.00000000000E+00  0.12508214243E+04  0.12508214243E+04  0.00000000000E+00 0.  1.
         -2   -1    0    0    0  501 -0.00000000000E+00 -0.00000000000E+00 -0.12250372129E+02  0.12250372129E+02  0.00000000000E+00 0. -1.
          5    1    1    2  502    0  0.73729181938E+02 -0.33316317545E+02  0.27699809133E+03  0.28861046739E+03  0.47000000000E+01 0.  1.
         -5    1    1    2    0  502 -0.42918146082E+02 -0.17472051590E+02  0.37735105535E+03  0.38021460891E+03  0.47000000000E+01 0.  1.
        -11    1    1    2    0    0 -0.43689014247E+02 -0.11423823078E+02  0.24488731387E+03  0.24901612437E+03  0.00000000000E+00 0.  1.
         11    1    1    2    0    0  0.12877978391E+02  0.62212192213E+02  0.33933459158E+03  0.34523059573E+03  0.00000000000E+00 0. -1.
<mgrwt>
<rscale>  0 0.13028611E+03</rscale>
<asrwt>0</asrwt>
<pdfrwt beam="1">  1        2 0.19243396E+00 0.13839862E+03</pdfrwt>
<pdfrwt beam="2">  1       -2 0.18846736E-02 0.13839862E+03</pdfrwt>
<totfact> 0.15218706E+04</totfact>
</mgrwt>
</event>
<event>
 6    1  0.5818426E-006  0.3423726E+03  0.7546771E-02  0.1065790E+00
         -1   -1    0    0    0  501 -0.00000000000E+00  0.00000000000E+00  0.41431883582E+03  0.41431883582E+03  0.00000000000E+00 0.  1.
          1   -1    0    0  501    0  0.00000000000E+00 -0.00000000000E+00 -0.70729946253E+02  0.70729946253E+02  0.00000000000E+00 0. -1.
          5    1    1    2  502    0  0.13787394291E+03  0.61090382972E+02  0.10599772294E+03  0.18438781493E+03  0.47000000000E+01 0.  1.
         -5    1    1    2    0  502 -0.25459351469E+02 -0.48888416049E+01  0.20648629612E+02  0.33474396996E+02  0.47000000000E+01 0.  1.
        -11    1    1    2    0    0 -0.27194465995E+02 -0.50249636257E+02  0.14376122731E+03  0.15469924176E+03  0.00000000000E+00 0.  1.
         11    1    1    2    0    0 -0.85220125451E+02 -0.59519051101E+01  0.73181309709E+02  0.11248732838E+03  0.00000000000E+00 0. -1.
<mgrwt>
<rscale>  0 0.34237260E+03</rscale>
<asrwt>0</asrwt>
<pdfrwt beam="2">  1        1 0.10881530E-01 0.34237260E+03</pdfrwt>
<pdfrwt beam="1">  1       -1 0.63741358E-01 0.34237260E+03</pdfrwt>
<totfact> 0.14828693E+03</totfact>
</mgrwt>
</event>
<event>
 6    1  0.5818426E-006  0.1416289E+03  0.7546771E-02  0.1223201E+00
         -1   -1    0    0    0  501 -0.00000000000E+00  0.00000000000E+00  0.28203920750E+03  0.28203920750E+03  0.00000000000E+00 0.  1.
          1   -1    0    0  501    0  0.00000000000E+00 -0.00000000000E+00 -0.71012423590E+02  0.71012423590E+02  0.00000000000E+00 0. -1.
          5    1    1    2  502    0  0.23558666201E+02  0.27312549579E+02  0.75414835378E+02  0.83728570469E+02  0.47000000000E+01 0. -1.
         -5    1    1    2    0  502 -0.55659274453E+02 -0.85667270370E+02  0.12113264938E+03  0.15853089538E+03  0.47000000000E+01 0. -1.
        -11    1    1    2    0    0  0.20024163480E+02 -0.11232059707E+01  0.40161285032E+02  0.44890506014E+02  0.00000000000E+00 0.  1.
         11    1    1    2    0    0  0.12076444772E+02  0.59477926761E+02 -0.25681985878E+02  0.65901659226E+02  0.00000000000E+00 0. -1.
<mgrwt>
<rscale>  0 0.13290946E+03</rscale>
<asrwt>0</asrwt>
<pdfrwt beam="2">  1        1 0.10924988E-01 0.14162886E+03</pdfrwt>
<pdfrwt beam="1">  1       -1 0.43390647E-01 0.14162886E+03</pdfrwt>
<totfact> 0.29349847E+03</totfact>
</mgrwt>
</event>
<event>
 6    1  0.5818426E-006  0.1254737E+03  0.7546771E-02  0.1250071E+00
          1   -1    0    0  501    0  0.00000000000E+00  0.00000000000E+00  0.85832745635E+02  0.85832745635E+02  0.00000000000E+00 0. -1.
         -1   -1    0    0    0  501 -0.00000000000E+00 -0.00000000000E+00 -0.14316220197E+03  0.14316220197E+03  0.00000000000E+00 0.  1.
          5    1    1    2  502    0 -0.38721013491E+02 -0.31263536776E+02 -0.65680904419E+02  0.82539668177E+02  0.47000000000E+01 0.  1.
         -5    1    1    2    0  502  0.34976163908E+02  0.41525149823E+02  0.88410074368E+01  0.55208002337E+02  0.47000000000E+01 0.  1.
        -11    1    1    2    0    0 -0.41353769382E+02  0.26188224138E+01  0.11174132908E+02  0.42916823265E+02  0.00000000000E+00 0. -1.
         11    1    1    2    0    0  0.45098618964E+02 -0.12880435461E+02 -0.11663692266E+02  0.48330453830E+02  0.00000000000E+00 0.  1.
<mgrwt>
<rscale>  0 0.11586918E+03</rscale>
<asrwt>0</asrwt>
<pdfrwt beam="1">  1        1 0.13205038E-01 0.12547369E+03</pdfrwt>
<pdfrwt beam="2">  1       -1 0.22024954E-01 0.12547369E+03</pdfrwt>
<totfact> 0.71438043E+03</totfact>
</mgrwt>
</event>
<event>
 6    1  0.5818426E-006  0.2845096E+03  0.7546771E-02  0.1095736E+00
          1   -1    0    0  501    0  0.00000000000E+00  0.00000000000E+00  0.69371507117E+03  0.69371507117E+03  0.00000000000E+00 0. -1.
         -1   -1    0    0    0  501 -0.00000000000E+00 -0.00000000000E+00 -0.10945713714E+03  0.10945713714E+03  0.00000000000E+00 0.  1.
          5    1    1    2  502    0  0.20706003070E+02 -0.14838468950E+02  0.62740784113E+02  0.67877939826E+02  0.47000000000E+01 0.  1.
         -5    1    1    2    0  502 -0.11888611929E+03 -0.22112585377E+03  0.23433715119E+03  0.34346257874E+03  0.47000000000E+01 0.  1.
        -11    1    1    2    0    0  0.11055084307E+03  0.20729541014E+03  0.24610279790E+03  0.34023442375E+03  0.00000000000E+00 0. -1.
         11    1    1    2    0    0 -0.12370726843E+02  0.28668912583E+02  0.41077200816E+02  0.51597265996E+02  0.00000000000E+00 0.  1.
<mgrwt>
<rscale>  0 0.27991466E+03</rscale>
<asrwt>0</asrwt>
<pdfrwt beam="1">  1        1 0.10672539E+00 0.28450962E+03</pdfrwt>
<pdfrwt beam="2">  1       -1 0.16839560E-01 0.28450962E+03</pdfrwt>
<totfact> 0.76429857E+02</totfact>
</mgrwt>
</event>
<event>
 6    1  0.5818426E-006  0.1622926E+03  0.7546771E-02  0.1193707E+00
         -2   -1    0    0    0  501 -0.00000000000E+00  0.00000000000E+00  0.40429153670E+02  0.40429153670E+02  0.00000000000E+00 0.  1.
          2   -1    0    0  501    0  0.00000000000E+00 -0.00000000000E+00 -0.56215139852E+03  0.56215139852E+03  0.00000000000E+00 0. -1.
          5    1    1    2  502    0  0.73465245211E+02  0.86877870754E+01 -0.38414037124E+02  0.83488610878E+02  0.47000000000E+01 0.  1.
         -5    1    1    2    0  502  0.29131859707E+02 -0.22454218657E+02 -0.20994852184E+03  0.21319786351E+03  0.47000000000E+01 0.  1.
        -11    1    1    2    0    0 -0.86386458499E+02  0.43031063133E+02 -0.15236077696E+03  0.18035547943E+03  0.00000000000E+00 0.  1.
         11    1    1    2    0    0 -0.16210646419E+02 -0.29264631550E+02 -0.12099890893E+03  0.12553859837E+03  0.00000000000E+00 0. -1.
<mgrwt>
<rscale>  0 0.15564156E+03</rscale>
<asrwt>0</asrwt>
<pdfrwt beam="2">  1        2 0.86484826E-01 0.16229265E+03</pdfrwt>
<pdfrwt beam="1">  1       -2 0.62198701E-02 0.16229265E+03</pdfrwt>
<totfact> 0.73863917E+03</totfact>
</mgrwt>
</event>
<event>
 6    1  0.5818426E-006  0.1554398E+03  0.7546771E-02  0.1202498E+00
          3   -1    0    0  501    0  0.00000000000E+00  0.00000000000E+00  0.20912386358E+03  0.20912386358E+03  0.00000000000E+00 0. -1.
         -3   -1    0    0    0  501 -0.00000000000E+00 -0.00000000000E+00 -0.16511948918E+03  0.16511948918E+03  0.00000000000E+00 0.  1.
          5    1    1    2  502    0 -0.60779280548E+02  0.13128501097E+02 -0.97808471030E+02  0.11599597187E+03  0.47000000000E+01 0.  1.
         -5    1    1    2    0  502 -0.15551859237E+02 -0.65186041463E+02  0.88533621230E+00  0.67185966895E+02  0.47000000000E+01 0.  1.
        -11    1    1    2    0    0  0.57514290306E+02  0.20634812359E+02  0.14182119151E+03  0.15442454284E+03  0.00000000000E+00 0. -1.
         11    1    1    2    0    0  0.18816849479E+02  0.31422728006E+02 -0.89368229761E+00  0.36636871151E+02  0.00000000000E+00 0.  1.
<mgrwt>
<rscale>  0 0.14836400E+03</rscale>
<asrwt>0</asrwt>
<pdfrwt beam="1">  1        3 0.32172902E-01 0.15543979E+03</pdfrwt>
<pdfrwt beam="2">  1       -3 0.25402998E-01 0.15543979E+03</pdfrwt>
<totfact> 0.32563020E+02</totfact>
</mgrwt>
</event>
<event>
 6    1  0.5818426E-006  0.1314405E+03  0.7546771E-02  0.1238925E+00
         -2   -1    0    0    0  501 -0.00000000000E+00  0.00000000000E+00  0.95919597077E+02  0.95919597077E+02  0.00000000000E+00 0.  1.
          2   -1    0    0  501    0  0.00000000000E+00 -0.00000000000E+00 -0.15705254904E+03  0.15705254904E+03  0.00000000000E+00 0. -1.
          5    1    1    2  502    0 -0.25421490080E+02  0.39815608532E+02  0.32026476617E+02  0.57265347682E+02  0.47000000000E+01 0.  1.
         -5    1    1    2    0  502 -0.13332786677E+01 -0.70411858966E+02 -0.23659763732E+02  0.74441130666E+02  0.47000000000E+01 0.  1.
        -11    1    1    2    0    0  0.37228237591E+02  0.48994911151E+01 -0.82484187259E+02  0.90628846595E+02  0.00000000000E+00 0. -1.
         11    1    1    2    0    0 -0.10473468843E+02  0.25696759319E+02  0.12984522415E+02  0.30636821171E+02  0.00000000000E+00 0.  1.
<mgrwt>
<rscale>  0 0.12256453E+03</rscale>
<asrwt>0</asrwt>
<pdfrwt beam="2">  1        2 0.24161930E-01 0.13144046E+03</pdfrwt>
<pdfrwt beam="1">  1       -2 0.14756861E-01 0.13144046E+03</pdfrwt>
<totfact> 0.74323658E+03</totfact>
</mgrwt>
</event>
<event>
 6    1  0.5818426E-006  0.2022594E+03  0.7546771E-02  0.1151910E+00
          2   -1    0    0  501    0  0.00000000000E+00  0.00000000000E+00  0.18977290710E+03  0.18977290710E+03  0.00000000000E+00 0. -1.
         -2   -1    0    0    0  501 -0.00000000000E+00 -0.00000000000E+00 -0.32700918056E+03  0.32700918056E+03  0.00000000000E+00 0.  1.
          5    1    1    2  502    0  0.47595662275E+01 -0.46046545262E+02 -0.29265707569E+02  0.54968258484E+02  0.47000000000E+01 0.  1.
         -5    1    1    2    0  502  0.15040063209E+03  0.11288027353E+02 -0.20462526366E+03  0.25424664841E+03  0.47000000000E+01 0.  1.
        -11    1    1    2    0    0 -0.21968688086E+02  0.30748797900E+02 -0.73910082576E+01  0.38506347939E+02  0.00000000000E+00 0.  1.
         11    1    1    2    0    0 -0.13319151024E+03  0.40097200092E+01  0.10404570603E+03  0.16906083283E+03  0.00000000000E+00 0. -1.
<mgrwt>
<rscale>  0 0.19744808E+03</rscale>
<asrwt>0</asrwt>
<pdfrwt beam="1">  1        2 0.29195832E-01 0.20225942E+03</pdfrwt>
<pdfrwt beam="2">  1       -2 0.50309104E-01 0.20225942E+03</pdfrwt>
<totfact> 0.68495407E+02</totfact>
</mgrwt>
</event>
<event>
 6    1  0.5818426E-006  0.1873869E+03  0.7546771E-02  0.1164924E+00
          2   -1    0    0  501    0  0.00000000000E+00  0.00000000000E+00  0.99710956172E+03  0.99710956172E+03  0.00000000000E+00 0.  1.
         -2   -1    0    0    0  501 -0.00000000000E+00 -0.00000000000E+00 -0.43717956512E+02  0.43717956512E+02  0.00000000000E+00 0. -1.
          5    1    1    2  502    0 -0.91355313010E+02  0.16472224087E+02  0.14501814963E+03  0.17224831233E+03  0.47000000000E+01 0. -1.
         -5    1    1    2    0  502  0.12081817360E+01  0.90123112526E+02  0.80268094381E+02  0.12078365821E+03  0.47000000000E+01 0. -1.
        -11    1    1    2    0    0  0.27170890185E+02  0.15336646568E+02  0.95194329637E+02  0.10017699535E+03  0.00000000000E+00 0.  1.
         11    1    1    2    0    0  0.62976241089E+02 -0.12193198318E+03  0.63291103156E+03  0.64761855234E+03  0.00000000000E+00 0. -1.
<mgrwt>
<rscale>  0 0.18300703E+03</rscale>
<asrwt>0</asrwt>
<pdfrwt beam="1">  1        2 0.15340145E+00 0.18738688E+03</pdfrwt>
<pdfrwt beam="2">  1       -2 0.67258402E-02 0.18738688E+03</pdfrwt>
<totfact> 0.32412388E+03</totfact>
</mgrwt>
</event>
<event>
 6    1  0.5818426E-006  0.1412860E+03  0.7546771E-02  0.1222402E+00
          2   -1    0    0  501    0  0.00000000000E+00  0.00000000000E+00  0.14930041233E+03  0.14930041233E+03  0.00000000000E+00 0. -1.
         -2   -1    0    0    0  501 -0.00000000000E+00 -0.00000000000E+00 -0.10805276506E+03  0.10805276506E+03  0.00000000000E+00 0.  1.
          5    1    1    2  502    0 -0.16263885423E+02 -0.54781092965E+02  0.47923017243E+02  0.74727422659E+02  0.47000000000E+01 0.  1.
         -5    1    1    2    0  502  0.65508349876E+02  0.11048695254E+02 -0.19486396702E+02  0.69391838329E+02  0.47000000000E+01 0.  1.
        -11    1    1    2    0    0 -0.24297157946E+02  0.60188879137E+02 -0.20893115549E+02  0.68187794607E+02  0.00000000000E+00 0.  1.
         11    1    1    2    0    0 -0.24947306507E+02 -0.16456481425E+02  0.33704142277E+02  0.45046121803E+02  0.00000000000E+00 0. -1.
<mgrwt>
<rscale>  0 0.13346550E+03</rscale>
<asrwt>0</asrwt>
<pdfrwt beam="1">  1        2 0.22969294E-01 0.14128595E+03</pdfrwt>
<pdfrwt beam="2">  1       -2 0.16623502E-01 0.14128595E+03</pdfrwt>
<totfact> 0.64980622E+03</totfact>
</mgrwt>
</event>
<event>
 6    1  0.5818426E-006  0.2797035E+03  0.7546771E-02  0.1097888E+00
          2   -1    0    0  501    0  0.00000000000E+00  0.00000000000E+00  0.78669970893E+03  0.78669970893E+03  0.00000000000E+00 0. -1.
         -2   -1    0    0    0  501 -0.00000000000E+00 -0.00000000000E+00 -0.16078407701E+03  0.16078407701E+03  0.00000000000E+00 0.  1.
          5    1    1    2  502    0  0.47170835163E+02  0.17951196152E+02 -0.49200513315E+02  0.70640736433E+02  0.47000000000E+01 0.  1.
         -5    1    1    2    0  502  0.18555288662E+03  0.73954522293E+02  0.62614058505E+02  0.20938422917E+03  0.47000000000E+01 0.  1.
        -11    1    1    2    0    0 -0.16662890269E+03 -0.26392660343E+02  0.34100804804E+03  0.38045795110E+03  0.00000000000E+00 0.  1.
         11    1    1    2    0    0 -0.66094819099E+02 -0.65513058103E+02  0.27149403870E+03  0.28700086924E+03  0.00000000000E+00 0. -1.
<mgrwt>
<rscale>  0 0.27601053E+03</rscale>
<asrwt>0</asrwt>
<pdfrwt beam="1">  1        2 0.12103072E+00 0.27970352E+03</pdfrwt>
<pdfrwt beam="2">  1       -2 0.24736012E-01 0.27970352E+03</pdfrwt>
<totfact> 0.52753007E+02</totfact>
</mgrwt>
</event>
<event>
 6    1  0.5818426E-006  0.1476995E+03  0.7546771E-02  0.1211877E+00
          1   -1    0    0  501    0  0.00000000000E+00  0.00000000000E+00  0.21938697826E+03  0.21938697826E+03  0.00000000000E+00 0. -1.
         -1   -1    0    0    0  501 -0.00000000000E+00 -0.00000000000E+00 -0.94808510505E+02  0.94808510505E+02  0.00000000000E+00 0.  1.
          5    1    1    2  502    0 -0.47146465338E+02  0.29294998423E+02  0.66949250886E+02  0.87093503321E+02  0.47000000000E+01 0.  1.
         -5    1    1    2    0  502 -0.67319626433E+01  0.28079834135E+02 -0.53748602565E+02  0.61194760264E+02  0.47000000000E+01 0.  1.
        -11    1    1    2    0    0 -0.10001577614E+02 -0.40956636560E+02  0.74445088302E+01  0.42812362056E+02  0.00000000000E+00 0.  1.
         11    1    1    2    0    0  0.63880005596E+02 -0.16418195998E+02  0.10393331060E+03  0.12309486312E+03  0.00000000000E+00 0. -1.
<mgrwt>
<rscale>  0 0.14108440E+03</rscale>
<asrwt>0</asrwt>
<pdfrwt beam="1">  1        1 0.33751843E-01 0.14769953E+03</pdfrwt>
<pdfrwt beam="2">  1       -1 0.14585925E-01 0.14769953E+03</pdfrwt>
<totfact> 0.42280193E+03</totfact>
</mgrwt>
</event>
<event>
 6    1  0.5818426E-006  0.2213827E+03  0.7546771E-02  0.1132856E+00
         -1   -1    0    0    0  501 -0.00000000000E+00  0.00000000000E+00  0.99598562009E+02  0.99598562009E+02  0.00000000000E+00 0.  1.
          1   -1    0    0  501    0  0.00000000000E+00 -0.00000000000E+00 -0.12301959527E+03  0.12301959527E+03  0.00000000000E+00 0. -1.
          5    1    1    2  502    0  0.10725890420E+02 -0.11167608814E+02 -0.47883440840E+02  0.50543784174E+02  0.47000000000E+01 0. -1.
         -5    1    1    2    0  502 -0.88822018542E+01  0.51707614805E+02  0.47248502478E+02  0.70760737171E+02  0.47000000000E+01 0.  1.
        -11    1    1    2    0    0  0.41574694938E+02 -0.36331227759E+01 -0.96013084572E+01  0.42823357696E+02  0.00000000000E+00 0. -1.
         11    1    1    2    0    0 -0.43418383504E+02 -0.36906883214E+02 -0.13184786441E+02  0.58490278236E+02  0.00000000000E+00 0.  1.
<mgrwt>
<rscale>  0 0.22138270E+03</rscale>
<asrwt>0</asrwt>
<pdfrwt beam="2">  1        1 0.18926092E-01 0.22138270E+03</pdfrwt>
<pdfrwt beam="1">  1       -1 0.15322856E-01 0.22138270E+03</pdfrwt>
<totfact> 0.83302550E+03</totfact>
</mgrwt>
</event>
<event>
 6    1  0.5818426E-006  0.1706517E+03  0.7546771E-02  0.1187705E+00
          1   -1    0    0  501    0  0.00000000000E+00  0.00000000000E+00  0.35567765954E+03  0.35567765954E+03  0.00000000000E+00 0. -1.
         -1   -1    0    0    0  501 -0.00000000000E+00 -0.00000000000E+00 -0.66754850607E+02  0.66754850607E+02  0.00000000000E+00 0.  1.
          5    1    1    2  502    0 -0.59583646727E+02 -0.26480629133E+02  0.17919372432E+02  0.67783689667E+02  0.47000000000E+01 0.  1.
         -5    1    1    2    0  502  0.29762070863E+01 -0.74967971347E+02  0.17102862387E+03  0.18682059500E+03  0.47000000000E+01 0.  1.
        -11    1    1    2    0    0  0.33571328804E+02  0.64709111060E+02  0.10086969895E+03  0.12445480842E+03  0.00000000000E+00 0. -1.
         11    1    1    2    0    0  0.23036110837E+02  0.36739489421E+02 -0.89488632005E+00  0.43373417054E+02  0.00000000000E+00 0.  1.
<mgrwt>
<rscale>  0 0.16088158E+03</rscale>
<asrwt>0</asrwt>
<pdfrwt beam="1">  1        1 0.54719639E-01 0.17065168E+03</pdfrwt>
<pdfrwt beam="2">  1       -1 0.10269977E-01 0.17065168E+03</pdfrwt>
<totfact> 0.40213846E+03</totfact>
</mgrwt>
</event>
<event>
 6    1  0.5818426E-006  0.2594673E+03  0.7546771E-02  0.1109623E+00
         -2   -1    0    0    0  501 -0.00000000000E+00  0.00000000000E+00  0.57527569895E+02  0.57527569895E+02  0.00000000000E+00 0.  1.
          2   -1    0    0  501    0  0.00000000000E+00 -0.00000000000E+00 -0.11161991503E+04  0.11161991503E+04  0.00000000000E+00 0. -1.
          5    1    1    2  502    0 -0.87952807734E+02 -0.16027791853E+03 -0.47287189417E+03  0.50700554815E+03  0.47000000000E+01 0. -1.
         -5    1    1    2    0  502 -0.83126991913E+01 -0.45710943898E+02 -0.21693200508E+02  0.51490545813E+02  0.47000000000E+01 0. -1.
        -11    1    1    2    0    0  0.80343461785E+02  0.88074545598E+02 -0.35699167524E+03  0.37637116471E+03  0.00000000000E+00 0. -1.
         11    1    1    2    0    0  0.15922045140E+02  0.11791431683E+03 -0.20711481046E+03  0.23885946150E+03  0.00000000000E+00 0.  1.
<mgrwt>
<rscale>  0 0.25591451E+03</rscale>
<asrwt>0</asrwt>
<pdfrwt beam="2">  1        2 0.17172293E+00 0.25946725E+03</pdfrwt>
<pdfrwt beam="1">  1       -2 0.88503963E-02 0.25946725E+03</pdfrwt>
<totfact> 0.18011967E+03</totfact>
</mgrwt>
</event>
<event>
 6    1  0.5818426E-006  0.3944814E+03  0.7546771E-02  0.1045707E+00
          1   -1    0    0  501    0  0.00000000000E+00  0.00000000000E+00  0.21728608847E+03  0.21728608847E+03  0.00000000000E+00 0. -1.
         -1   -1    0    0    0  501 -0.00000000000E+00 -0.00000000000E+00 -0.17904460300E+03  0.17904460300E+03  0.00000000000E+00 0.  1.
          5    1    1    2  502    0 -0.11071502926E+03  0.96807111612E+02 -0.26544607723E+02  0.14951970025E+03  0.47000000000E+01 0. -1.
         -5    1    1    2    0  502 -0.23541582524E+02 -0.37237978424E+01  0.52460230469E+02  0.57812096995E+02  0.47000000000E+01 0. -1.
        -11    1    1    2    0    0  0.47454086456E+02  0.14932147640E+02 -0.12537499380E+01  0.49763754314E+02  0.00000000000E+00 0.  1.
         11    1    1    2    0    0  0.86802525328E+02 -0.10801546141E+03  0.13579612666E+02  0.13923513991E+03  0.00000000000E+00 0. -1.
<mgrwt>
<rscale>  0 0.39448144E+03</rscale>
<asrwt>0</asrwt>
<pdfrwt beam="1">  1        1 0.33428629E-01 0.39448144E+03</pdfrwt>
<pdfrwt beam="2">  1       -1 0.27545324E-01 0.39448144E+03</pdfrwt>
<totfact> 0.15678715E+03</totfact>
</mgrwt>
</event>
<event>
 6    1  0.5818426E-006  0.2010715E+03  0.7546771E-02  0.1152054E+00
         -1   -1    0    0    0  501 -0.00000000000E+00  0.00000000000E+00  0.93151523707E+02  0.93151523707E+02  0.00000000000E+00 0.  1.
          1   -1    0    0  501    0  0.00000000000E+00 -0.00000000000E+00 -0.58225760720E+03  0.58225760720E+03  0.00000000000E+00 0. -1.
          5    1    1    2  502    0 -0.80113187162E+02  0.27243669108E+02 -0.94014378111E+02  0.12657461655E+03  0.47000000000E+01 0. -1.
         -5    1    1    2    0  502 -0.76835166109E+02  0.16056400646E+02  0.30419382649E+02  0.84314171961E+02  0.47000000000E+01 0.  1.
        -11    1    1    2    0    0  0.13262355530E+03 -0.69907382729E+02 -0.35395748234E+03  0.38439816452E+03  0.00000000000E+00 0. -1.
         11    1    1    2    0    0  0.24324797966E+02  0.26607312975E+02 -0.71553605697E+02  0.80122177879E+02  0.00000000000E+00 0.  1.
<mgrwt>
<rscale>  0 0.19728068E+03</rscale>
<asrwt>0</asrwt>
<pdfrwt beam="2">  1        1 0.89578094E-01 0.20107152E+03</pdfrwt>
<pdfrwt beam="1">  1       -1 0.14331004E-01 0.20107152E+03</pdfrwt>
<totfact> 0.12659452E+03</totfact>
</mgrwt>
</event>
<event>
 6    1  0.5818426E-006  0.1357920E+03  0.7546771E-02  0.1230913E+00
          1   -1    0    0  501    0  0.00000000000E+00  0.00000000000E+00  0.73122601800E+02  0.73122601800E+02  0.00000000000E+00 0. -1.
         -1   -1    0    0    0  501 -0.00000000000E+00 -0.00000000000E+00 -0.26368077163E+03  0.26368077163E+03  0.00000000000E+00 0.  1.
          5    1    1    2  502    0 -0.22585123036E+02  0.82080367536E+02 -0.14430422019E+03  0.16760988181E+03  0.47000000000E+01 0.  1.
         -5    1    1    2    0  502 -0.14626583537E+02 -0.44269617110E+02 -0.41978491700E+02  0.62912794490E+02  0.47000000000E+01 0.  1.
        -11    1    1    2    0    0  0.48490682782E+02 -0.48530922377E+01 -0.34866083090E+02  0.59921136263E+02  0.00000000000E+00 0.  1.
         11    1    1    2    0    0 -0.11278976208E+02 -0.32957658188E+02  0.30590625142E+02  0.46359560870E+02  0.00000000000E+00 0. -1.
<mgrwt>
<rscale>  0 0.12769715E+03</rscale>
<asrwt>0</asrwt>
<pdfrwt beam="1">  1        1 0.11249631E-01 0.13579196E+03</pdfrwt>
<pdfrwt beam="2">  1       -1 0.40566272E-01 0.13579196E+03</pdfrwt>
<totfact> 0.31738249E+03</totfact>
</mgrwt>
</event>
<event>
 6    1  0.5818426E-006  0.1579193E+03  0.7546771E-02  0.1198944E+00
          1   -1    0    0  501    0  0.00000000000E+00  0.00000000000E+00  0.42243989695E+03  0.42243989695E+03  0.00000000000E+00 0. -1.
         -1   -1    0    0    0  501 -0.00000000000E+00 -0.00000000000E+00 -0.61713947776E+02  0.61713947776E+02  0.00000000000E+00 0.  1.
          5    1    1    2  502    0  0.63686231312E+02  0.33687465598E+02  0.10870595642E+03  0.13049849178E+03  0.47000000000E+01 0.  1.
         -5    1    1    2    0  502 -0.77457093822E+01  0.44938609777E+02 -0.20686411041E+02  0.50294057942E+02  0.47000000000E+01 0.  1.
        -11    1    1    2    0    0 -0.16873959126E+02 -0.88703088062E+02  0.16098549655E+03  0.18457870524E+03  0.00000000000E+00 0.  1.
         11    1    1    2    0    0 -0.39066562804E+02  0.10077012687E+02  0.11172090724E+03  0.11878258975E+03  0.00000000000E+00 0. -1.
<mgrwt>
<rscale>  0 0.15125094E+03</rscale>
<asrwt>0</asrwt>
<pdfrwt beam="1">  1        1 0.64990751E-01 0.15791930E+03</pdfrwt>
<pdfrwt beam="2">  1       -1 0.94944538E-02 0.15791930E+03</pdfrwt>
<totfact> 0.36359439E+03</totfact>
</mgrwt>
</event>
<event>
 6    1  0.5818426E-006  0.2156824E+03  0.7546771E-02  0.1166108E+00
         -2   -1    0    0    0  501 -0.00000000000E+00  0.00000000000E+00  0.47209159147E+02  0.47209159147E+02  0.00000000000E+00 0.  1.
          2   -1    0    0  501    0  0.00000000000E+00 -0.00000000000E+00 -0.60021516044E+03  0.60021516044E+03  0.00000000000E+00 0. -1.
          5    1    1    2  502    0  0.84380718453E+02  0.85030933698E+02 -0.26010300340E+03  0.28640186402E+03  0.47000000000E+01 0. -1.
         -5    1    1    2    0  502 -0.39882636294E+02 -0.49345352156E+02 -0.19141295070E+02  0.66438449967E+02  0.47000000000E+01 0.  1.
        -11    1    1    2    0    0 -0.69786707463E+02 -0.32680848538E+02 -0.15471325167E+03  0.17284216106E+03  0.00000000000E+00 0.  1.
         11    1    1    2    0    0  0.25288625304E+02 -0.30047330050E+01 -0.11904845116E+03  0.12174184454E+03  0.00000000000E+00 0. -1.
<mgrwt>
<rscale>  0 0.18176227E+03</rscale>
<asrwt>0</asrwt>
<pdfrwt beam="2">  1        2 0.92340795E-01 0.21568243E+03</pdfrwt>
<pdfrwt beam="1">  1       -2 0.72629475E-02 0.21568243E+03</pdfrwt>
<totfact> 0.54732574E+03</totfact>
</mgrwt>
</event>
<event>
 6    1  0.5818426E-006  0.1274060E+03  0.7546771E-02  0.1245387E+00
         -3   -1    0    0    0  501 -0.00000000000E+00  0.00000000000E+00  0.92896402483E+02  0.92896402483E+02  0.00000000000E+00 0.  1.
          3   -1    0    0  501    0  0.00000000000E+00 -0.00000000000E+00 -0.13507476600E+03  0.13507476600E+03  0.00000000000E+00 0. -1.
          5    1    1    2  502    0  0.58454875689E+02  0.48180501190E+02 -0.47329827191E+01  0.76044883537E+02  0.47000000000E+01 0.  1.
         -5    1    1    2    0  502 -0.39393243761E+02 -0.32517962767E+02 -0.92826119103E+01  0.52129669483E+02  0.47000000000E+01 0.  1.
        -11    1    1    2    0    0 -0.45088333658E+02 -0.39502064151E+02 -0.12761685281E+02  0.61288102561E+02  0.00000000000E+00 0. -1.
         11    1    1    2    0    0  0.26026701729E+02  0.23839525728E+02 -0.15401083609E+02  0.38508512905E+02  0.00000000000E+00 0.  1.
<mgrwt>
<rscale>  0 0.11862224E+03</rscale>
<asrwt>0</asrwt>
<pdfrwt beam="2">  1        3 0.20780733E-01 0.12740596E+03</pdfrwt>
<pdfrwt beam="1">  1       -3 0.14291754E-01 0.12740596E+03</pdfrwt>
<totfact> 0.19178149E+03</totfact>
</mgrwt>
</event>
<event>
 6    1  0.5818426E-006  0.1689204E+03  0.7546771E-02  0.1184333E+00
         -1   -1    0    0    0  501 -0.00000000000E+00  0.00000000000E+00  0.27379604543E+02  0.27379604543E+02  0.00000000000E+00 0.  1.
          1   -1    0    0  501    0  0.00000000000E+00 -0.00000000000E+00 -0.96795382790E+03  0.96795382790E+03  0.00000000000E+00 0. -1.
          5    1    1    2  502    0  0.16307944333E+02  0.40727631103E+02 -0.45278900297E+02  0.63221497892E+02  0.47000000000E+01 0. -1.
         -5    1    1    2    0  502 -0.10457948337E+03  0.30802935763E+02 -0.35061894090E+03  0.36720759920E+03  0.47000000000E+01 0. -1.
        -11    1    1    2    0    0  0.10801901225E+03 -0.54640479097E+02 -0.40011166313E+03  0.41802276485E+03  0.00000000000E+00 0.  1.
         11    1    1    2    0    0 -0.19747473217E+02 -0.16890087769E+02 -0.14456471904E+03  0.14688157050E+03  0.00000000000E+00 0. -1.
<mgrwt>
<rscale>  0 0.16392699E+03</rscale>
<asrwt>0</asrwt>
<pdfrwt beam="2">  1        1 0.14891597E+00 0.16892042E+03</pdfrwt>
<pdfrwt beam="1">  1       -1 0.42122470E-02 0.16892042E+03</pdfrwt>
<totfact> 0.37990210E+03</totfact>
</mgrwt>
</event>
<event>
 6    1  0.5818426E-006  0.3065804E+03  0.7546771E-02  0.1081997E+00
          1   -1    0    0  501    0  0.00000000000E+00  0.00000000000E+00  0.26645438991E+03  0.26645438991E+03  0.00000000000E+00 0. -1.
         -1   -1    0    0    0  501 -0.00000000000E+00 -0.00000000000E+00 -0.88187281583E+02  0.88187281583E+02  0.00000000000E+00 0.  1.
          5    1    1    2  502    0  0.11075535350E+03  0.44236023295E+02  0.30631557333E+02  0.12322319746E+03  0.47000000000E+01 0. -1.
         -5    1    1    2    0  502 -0.38691487959E+01 -0.36020346348E+02  0.45077728607E+02  0.58021782804E+02  0.47000000000E+01 0. -1.
        -11    1    1    2    0    0 -0.52639099870E+02  0.19391879303E+02  0.23445058368E+01  0.56146384796E+02  0.00000000000E+00 0.  1.
         11    1    1    2    0    0 -0.54247104837E+02 -0.27607556250E+02  0.10021331655E+03  0.11725030644E+03  0.00000000000E+00 0. -1.
<mgrwt>
<rscale>  0 0.30658042E+03</rscale>
<asrwt>0</asrwt>
<pdfrwt beam="1">  1        1 0.40992983E-01 0.30658042E+03</pdfrwt>
<pdfrwt beam="2">  1       -1 0.13567274E-01 0.30658042E+03</pdfrwt>
<totfact> 0.38369146E+03</totfact>
</mgrwt>
</event>
<event>
 6    1  0.5818426E-006  0.1269121E+03  0.7546771E-02  0.1245538E+00
         -1   -1    0    0    0  501 -0.00000000000E+00  0.00000000000E+00  0.22834848210E+02  0.22834848210E+02  0.00000000000E+00 0.  1.
          1   -1    0    0  501    0  0.00000000000E+00 -0.00000000000E+00 -0.58986672380E+03  0.58986672380E+03  0.00000000000E+00 0. -1.
          5    1    1    2  502    0 -0.66118663840E+02 -0.20118925752E+02 -0.11230602713E+03  0.13195144035E+03  0.47000000000E+01 0. -1.
         -5    1    1    2    0  502  0.56275578243E+02  0.48485226291E+00 -0.12481850763E+03  0.13699972859E+03  0.47000000000E+01 0. -1.
        -11    1    1    2    0    0  0.48275235805E+02  0.13598011563E+02 -0.11666919921E+03  0.12699254449E+03  0.00000000000E+00 0.  1.
         11    1    1    2    0    0 -0.38432150207E+02  0.60360619253E+01 -0.21323814162E+03  0.21675785857E+03  0.00000000000E+00 0. -1.
<mgrwt>
<rscale>  0 0.11853218E+03</rscale>
<asrwt>0</asrwt>
<pdfrwt beam="2">  1        1 0.90748724E-01 0.12691212E+03</pdfrwt>
<pdfrwt beam="1">  1       -1 0.35130537E-02 0.12691212E+03</pdfrwt>
<totfact> 0.10212966E+04</totfact>
</mgrwt>
</event>
<event>
 6    1  0.5818426E-006  0.1849498E+03  0.7546771E-02  0.1168383E+00
         -2   -1    0    0    0  501 -0.00000000000E+00  0.00000000000E+00  0.17866110662E+02  0.17866110662E+02  0.00000000000E+00 0.  1.
          2   -1    0    0  501    0  0.00000000000E+00 -0.00000000000E+00 -0.17665621042E+04  0.17665621042E+04  0.00000000000E+00 0. -1.
          5    1    1    2  502    0 -0.77798659392E+01 -0.42307604342E+02 -0.15800233040E+03  0.16382089644E+03  0.47000000000E+01 0.  1.
         -5    1    1    2    0  502 -0.12853137494E+03  0.41228364366E+02 -0.93877371514E+03  0.94843991407E+03  0.47000000000E+01 0.  1.
        -11    1    1    2    0    0 -0.71620588214E+01  0.17530336344E+02 -0.61947227237E+02  0.64777054126E+02  0.00000000000E+00 0.  1.
         11    1    1    2    0    0  0.14347329970E+03 -0.16451096368E+02 -0.58997272078E+03  0.60739035023E+03  0.00000000000E+00 0. -1.
<mgrwt>
<rscale>  0 0.17940157E+03</rscale>
<asrwt>0</asrwt>
<pdfrwt beam="2">  1        2 0.27177877E+00 0.18494977E+03</pdfrwt>
<pdfrwt beam="1">  1       -2 0.27486326E-02 0.18494977E+03</pdfrwt>
<totfact> 0.47354410E+03</totfact>
</mgrwt>
</event>
<event>
 6    1  0.5818426E-006  0.1627142E+03  0.7546771E-02  0.1203259E+00
          2   -1    0    0  501    0  0.00000000000E+00  0.00000000000E+00  0.11766058935E+03  0.11766058935E+03  0.00000000000E+00 0. -1.
         -2   -1    0    0    0  501 -0.00000000000E+00 -0.00000000000E+00 -0.29742553216E+03  0.29742553216E+03  0.00000000000E+00 0.  1.
          5    1    1    2  502    0  0.20109536420E+02 -0.78872305236E+01  0.15781016748E+02  0.27161228801E+02  0.47000000000E+01 0. -1.
         -5    1    1    2    0  502  0.16115030374E+02  0.58361346906E+02 -0.25513568316E+03  0.26226331775E+03  0.47000000000E+01 0.  1.
        -11    1    1    2    0    0 -0.32122999289E+01  0.26597033525E+02  0.14455883734E+02  0.30441643151E+02  0.00000000000E+00 0.  1.
         11    1    1    2    0    0 -0.33012266866E+02 -0.77071149908E+02  0.45133839863E+02  0.95219931803E+02  0.00000000000E+00 0. -1.
<mgrwt>
<rscale>  0 0.14775470E+03</rscale>
<asrwt>0</asrwt>
<pdfrwt beam="1">  1        2 0.18101629E-01 0.16271420E+03</pdfrwt>
<pdfrwt beam="2">  1       -2 0.45757774E-01 0.16271420E+03</pdfrwt>
<totfact> 0.14052507E+03</totfact>
</mgrwt>
</event>
<event>
 6    1  0.5818426E-006  0.1267991E+03  0.7546771E-02  0.1246786E+00
          1   -1    0    0  501    0  0.00000000000E+00  0.00000000000E+00  0.10835439874E+03  0.10835439874E+03  0.00000000000E+00 0. -1.
         -1   -1    0    0    0  501 -0.00000000000E+00 -0.00000000000E+00 -0.11580887777E+03  0.11580887777E+03  0.00000000000E+00 0.  1.
          5    1    1    2  502    0  0.61463558109E+02  0.18632479100E+02 -0.54550207801E+01  0.64628055088E+02  0.47000000000E+01 0. -1.
         -5    1    1    2    0  502 -0.49810263564E+02 -0.36468672975E+02 -0.16321338308E+02  0.64027357817E+02  0.47000000000E+01 0. -1.
        -11    1    1    2    0    0  0.28983113118E+02  0.38145579282E+02  0.14584791269E+02  0.50078160920E+02  0.00000000000E+00 0. -1.
         11    1    1    2    0    0 -0.40636407662E+02 -0.20309385407E+02 -0.26291121641E+00  0.45429702680E+02  0.00000000000E+00 0.  1.
<mgrwt>
<rscale>  0 0.11779102E+03</rscale>
<asrwt>0</asrwt>
<pdfrwt beam="1">  1        1 0.16669907E-01 0.12679908E+03</pdfrwt>
<pdfrwt beam="2">  1       -1 0.17816750E-01 0.12679908E+03</pdfrwt>
<totfact> 0.74294050E+03</totfact>
</mgrwt>
</event>
<event>
 6    1  0.5818426E-006  0.2842065E+03  0.7546771E-02  0.1093413E+00
         -1   -1    0    0    0  501 -0.00000000000E+00  0.00000000000E+00  0.12626432473E+03  0.12626432473E+03  0.00000000000E+00 0.  1.
          1   -1    0    0  501    0  0.00000000000E+00 -0.00000000000E+00 -0.15992907027E+03  0.15992907027E+03  0.00000000000E+00 0. -1.
          5    1    1    2  502    0  0.44257251307E+02  0.86062988712E+02 -0.27754901945E+02  0.10078673971E+03  0.47000000000E+01 0.  1.
         -5    1    1    2    0  502 -0.15369929261E+02 -0.79418387335E+01  0.47413298204E+02  0.50689430600E+02  0.47000000000E+01 0.  1.
        -11    1    1    2    0    0  0.79467311276E+00 -0.34201260384E+02 -0.71021505141E+02  0.78831541337E+02  0.00000000000E+00 0. -1.
         11    1    1    2    0    0 -0.29681995159E+02 -0.43919889595E+02  0.17698363343E+02  0.55885683352E+02  0.00000000000E+00 0.  1.
<mgrwt>
<rscale>  0 0.28420652E+03</rscale>
<asrwt>0</asrwt>
<pdfrwt beam="2">  1        1 0.24604472E-01 0.28420652E+03</pdfrwt>
<pdfrwt beam="1">  1       -1 0.19425281E-01 0.28420652E+03</pdfrwt>
<totfact> 0.41113886E+03</totfact>
</mgrwt>
</event>
<event>
 6    1  0.5818426E-006  0.1145007E+03  0.7546771E-02  0.1279781E+00
          1   -1    0    0  501    0  0.00000000000E+00  0.00000000000E+00  0.37756565609E+03  0.37756565609E+03  0.00000000000E+00 0. -1.
         -1   -1    0    0    0  501 -0.00000000000E+00 -0.00000000000E+00 -0.70255771210E+02  0.70255771210E+02  0.00000000000E+00 0.  1.
          5    1    1    2  502    0 -0.40968575576E+02  0.21710194858E+02 -0.42406429396E+01  0.46795617295E+02  0.47000000000E+01 0. -1.
         -5    1    1    2    0  502  0.45718022317E+02 -0.49762289420E+02 -0.13513901447E+02  0.69073428648E+02  0.47000000000E+01 0.  1.
        -11    1    1    2    0    0  0.25123828962E+02  0.27670295727E+02  0.17646049700E+03  0.18037505107E+03  0.00000000000E+00 0. -1.
         11    1    1    2    0    0 -0.29873275703E+02  0.38179883469E+00  0.14860393226E+03  0.15157733028E+03  0.00000000000E+00 0.  1.
<mgrwt>
<rscale>  0 0.10024540E+03</rscale>
<asrwt>0</asrwt>
<pdfrwt beam="1">  1        1 0.58087023E-01 0.11450071E+03</pdfrwt>
<pdfrwt beam="2">  1       -1 0.10808580E-01 0.11450071E+03</pdfrwt>
<totfact> 0.33861856E+03</totfact>
</mgrwt>
</event>
<event>
 6    1  0.5818426E-006  0.1498999E+03  0.7546771E-02  0.1209443E+00
          1   -1    0    0  501    0  0.00000000000E+00  0.00000000000E+00  0.14969039553E+03  0.14969039553E+03  0.00000000000E+00 0. -1.
         -1   -1    0    0    0  501 -0.00000000000E+00 -0.00000000000E+00 -0.13710047917E+03  0.13710047917E+03  0.00000000000E+00 0.  1.
          5    1    1    2  502    0  0.32300834354E+02  0.21731097310E+02 -0.49676950757E+02  0.63288813599E+02  0.47000000000E+01 0. -1.
         -5    1    1    2    0  502 -0.74509900945E+02  0.49430667503E+02  0.14443185081E+02  0.90696261356E+02  0.47000000000E+01 0. -1.
        -11    1    1    2    0    0  0.36976974744E+02 -0.61627810212E+02  0.74792638486E+02  0.10372667171E+03  0.00000000000E+00 0. -1.
         11    1    1    2    0    0  0.52320918469E+01 -0.95339546009E+01 -0.26968956452E+02  0.29079128039E+02  0.00000000000E+00 0.  1.
<mgrwt>
<rscale>  0 0.14292742E+03</rscale>
<asrwt>0</asrwt>
<pdfrwt beam="1">  1        1 0.23029292E-01 0.14989992E+03</pdfrwt>
<pdfrwt beam="2">  1       -1 0.21092381E-01 0.14989992E+03</pdfrwt>
<totfact> 0.37971696E+03</totfact>
</mgrwt>
</event>
<event>
 6    1  0.5818426E-006  0.1330910E+03  0.7546771E-02  0.1235980E+00
          1   -1    0    0  501    0  0.00000000000E+00  0.00000000000E+00  0.36871479039E+03  0.36871479039E+03  0.00000000000E+00 0. -1.
         -1   -1    0    0    0  501 -0.00000000000E+00 -0.00000000000E+00 -0.49213283505E+02  0.49213283505E+02  0.00000000000E+00 0.  1.
          5    1    1    2  502    0 -0.14150279577E+02  0.63464853238E+02  0.69032036294E+01  0.65557320178E+02  0.47000000000E+01 0.  1.
         -5    1    1    2    0  502  0.45481711648E+02 -0.30343354188E+02  0.67245998106E+02  0.86795273484E+02  0.47000000000E+01 0.  1.
        -11    1    1    2    0    0  0.11262736759E+02 -0.53315580375E+02  0.13406407455E+03  0.14471550171E+03  0.00000000000E+00 0. -1.
         11    1    1    2    0    0 -0.42594168830E+02  0.20194081325E+02  0.11128823059E+03  0.12085997852E+03  0.00000000000E+00 0.  1.
<mgrwt>
<rscale>  0 0.12441925E+03</rscale>
<asrwt>0</asrwt>
<pdfrwt beam="1">  1        1 0.56725351E-01 0.13309098E+03</pdfrwt>
<pdfrwt beam="2">  1       -1 0.75712746E-02 0.13309098E+03</pdfrwt>
<totfact> 0.60299923E+03</totfact>
</mgrwt>
</event>
<event>
 6    1  0.5818426E-006  0.1489396E+03  0.7546771E-02  0.1210753E+00
         -1   -1    0    0    0  501 -0.00000000000E+00  0.00000000000E+00  0.11416760506E+04  0.11416760506E+04  0.00000000000E+00 0.  1.
          1   -1    0    0  501    0  0.00000000000E+00 -0.00000000000E+00 -0.18135181616E+02  0.18135181616E+02  0.00000000000E+00 0. -1.
          5    1    1    2  502    0  0.27236021013E+02 -0.86144691034E+02  0.31088149606E+03  0.32377786092E+03  0.47000000000E+01 0. -1.
         -5    1    1    2    0  502  0.19945487478E+02  0.20344757632E+02  0.48900473361E+03  0.48985656178E+03  0.47000000000E+01 0. -1.
        -11    1    1    2    0    0 -0.25346137495E+02 -0.20750863549E+02  0.70294318517E+02  0.77552022796E+02  0.00000000000E+00 0.  1.
         11    1    1    2    0    0 -0.21835370996E+02  0.86550796951E+02  0.25336032085E+03  0.26862478676E+03  0.00000000000E+00 0. -1.
<mgrwt>
<rscale>  0 0.14193174E+03</rscale>
<asrwt>0</asrwt>
<pdfrwt beam="2">  1        1 0.27900288E-02 0.14893956E+03</pdfrwt>
<pdfrwt beam="1">  1       -1 0.17564241E+00 0.14893956E+03</pdfrwt>
<totfact> 0.91327671E+02</totfact>
</mgrwt>
</event>
<event>
 6    1  0.5818426E-006  0.1383252E+03  0.7546771E-02  0.1226298E+00
         -2   -1    0    0    0  501 -0.00000000000E+00  0.00000000000E+00  0.18340039828E+02  0.18340039828E+02  0.00000000000E+00 0.  1.
          2   -1    0    0  501    0  0.00000000000E+00 -0.00000000000E+00 -0.85753947797E+03  0.85753947797E+03  0.00000000000E+00 0. -1.
          5    1    1    2  502    0  0.27834209086E+02 -0.22688471334E+02 -0.37646228932E+03  0.37820028451E+03  0.47000000000E+01 0. -1.
         -5    1    1    2    0  502 -0.23523981787E+02 -0.36392154227E+02 -0.35029882849E+02  0.55919131795E+02  0.47000000000E+01 0. -1.
        -11    1    1    2    0    0 -0.31413849889E+02 -0.12528623857E+02 -0.12064684561E+03  0.12529747697E+03  0.00000000000E+00 0.  1.
         11    1    1    2    0    0  0.27103622590E+02  0.71609249418E+02 -0.30706042038E+03  0.31646262453E+03  0.00000000000E+00 0. -1.
<mgrwt>
<rscale>  0 0.13078355E+03</rscale>
<asrwt>0</asrwt>
<pdfrwt beam="2">  1        2 0.13192911E+00 0.13832520E+03</pdfrwt>
<pdfrwt beam="1">  1       -2 0.28215454E-02 0.13832520E+03</pdfrwt>
<totfact> 0.14388235E+04</totfact>
</mgrwt>
</event>
<event>
 6    1  0.5818426E-006  0.1655039E+03  0.7546771E-02  0.1190039E+00
         -2   -1    0    0    0  501 -0.00000000000E+00  0.00000000000E+00  0.51037003417E+02  0.51037003417E+02  0.00000000000E+00 0.  1.
          2   -1    0    0  501    0  0.00000000000E+00 -0.00000000000E+00 -0.48469232936E+03  0.48469232936E+03  0.00000000000E+00 0. -1.
          5    1    1    2  502    0  0.55073144675E+02  0.61880225642E+02 -0.17068296377E+03  0.18978139453E+03  0.47000000000E+01 0. -1.
         -5    1    1    2    0  502 -0.23637583852E+02  0.41936879598E+02 -0.56385441578E+00  0.48371946132E+02  0.47000000000E+01 0. -1.
        -11    1    1    2    0    0  0.49605295897E+01 -0.65678951414E+02 -0.62380045308E+02  0.90717151439E+02  0.00000000000E+00 0.  1.
         11    1    1    2    0    0 -0.36396090413E+02 -0.38138153826E+02 -0.20002846245E+03  0.20685884067E+03  0.00000000000E+00 0. -1.
<mgrwt>
<rscale>  0 0.15881658E+03</rscale>
<asrwt>0</asrwt>
<pdfrwt beam="2">  1        2 0.74568054E-01 0.16550390E+03</pdfrwt>
<pdfrwt beam="1">  1       -2 0.78518463E-02 0.16550390E+03</pdfrwt>
<totfact> 0.60957589E+03</totfact>
</mgrwt>
</event>
<event>
 6    1  0.5818426E-006  0.1311272E+03  0.7546771E-02  0.1239492E+00
          2   -1    0    0  501    0  0.00000000000E+00  0.00000000000E+00  0.17755856350E+03  0.17755856350E+03  0.00000000000E+00 0. -1.
         -2   -1    0    0    0  501 -0.00000000000E+00 -0.00000000000E+00 -0.88435008651E+02  0.88435008651E+02  0.00000000000E+00 0.  1.
          5    1    1    2  502    0 -0.65220123674E+02  0.51056436683E+02  0.14719159561E+02  0.84256560083E+02  0.47000000000E+01 0.  1.
         -5    1    1    2    0  502  0.35701900426E+02 -0.24620279185E+02 -0.17210655596E+02  0.46894354748E+02  0.47000000000E+01 0.  1.
        -11    1    1    2    0    0 -0.32283542859E+01  0.29424853743E+02  0.11320465567E+02  0.31692226647E+02  0.00000000000E+00 0.  1.
         11    1    1    2    0    0  0.32746577534E+02 -0.55861011241E+02  0.80294585321E+02  0.10315043068E+03  0.00000000000E+00 0. -1.
<mgrwt>
<rscale>  0 0.12221183E+03</rscale>
<asrwt>0</asrwt>
<pdfrwt beam="1">  1        2 0.27316702E-01 0.13112725E+03</pdfrwt>
<pdfrwt beam="2">  1       -2 0.13605386E-01 0.13112725E+03</pdfrwt>
<totfact> 0.74085037E+03</totfact>
</mgrwt>
</event>
<event>
 6    1  0.5818426E-006  0.1393278E+03  0.7546771E-02  0.1225445E+00
          2   -1    0    0  501    0  0.00000000000E+00  0.00000000000E+00  0.57801857858E+03  0.57801857858E+03  0.00000000000E+00 0. -1.
         -2   -1    0    0    0  501 -0.00000000000E+00 -0.00000000000E+00 -0.34927852504E+02  0.34927852504E+02  0.00000000000E+00 0.  1.
          5    1    1    2  502    0  0.56939863648E+02  0.32585089594E+02  0.24043331602E+02  0.70029336215E+02  0.47000000000E+01 0. -1.
         -5    1    1    2    0  502 -0.39469913188E+02  0.26427710582E+02  0.12594555257E+03  0.13468730506E+03  0.47000000000E+01 0. -1.
        -11    1    1    2    0    0  0.28867687550E+02 -0.41572848984E+02  0.11343408822E+03  0.12421327436E+03  0.00000000000E+00 0.  1.
         11    1    1    2    0    0 -0.46337638010E+02 -0.17439951192E+02  0.27966775369E+03  0.28401651545E+03  0.00000000000E+00 0. -1.
<mgrwt>
<rscale>  0 0.13136431E+03</rscale>
<asrwt>0</asrwt>
<pdfrwt beam="1">  1        2 0.88925928E-01 0.13932781E+03</pdfrwt>
<pdfrwt beam="2">  1       -2 0.53735162E-02 0.13932781E+03</pdfrwt>
<totfact> 0.88554074E+03</totfact>
</mgrwt>
</event>
<event>
 6    1  0.5818426E-006  0.2694062E+03  0.7546771E-02  0.1103710E+00
          2   -1    0    0  501    0  0.00000000000E+00  0.00000000000E+00  0.38429262364E+03  0.38429262364E+03  0.00000000000E+00 0. -1.
         -2   -1    0    0    0  501 -0.00000000000E+00 -0.00000000000E+00 -0.28567092927E+03  0.28567092927E+03  0.00000000000E+00 0.  1.
          5    1    1    2  502    0  0.11772312702E+03 -0.54859465667E+02 -0.34732292860E+02  0.13452404163E+03  0.47000000000E+01 0.  1.
         -5    1    1    2    0  502  0.42985951051E+02 -0.12157385475E+03 -0.11970026293E+03  0.17600635526E+03  0.47000000000E+01 0.  1.
        -11    1    1    2    0    0 -0.56609446997E+02  0.81225284249E+02  0.16712889935E+03  0.19425304448E+03  0.00000000000E+00 0. -1.
         11    1    1    2    0    0 -0.10409963108E+03  0.95208036163E+02  0.85925350803E+02  0.16518011155E+03  0.00000000000E+00 0.  1.
<mgrwt>
<rscale>  0 0.26579683E+03</rscale>
<asrwt>0</asrwt>
<pdfrwt beam="1">  1        2 0.59121942E-01 0.26940622E+03</pdfrwt>
<pdfrwt beam="2">  1       -2 0.43949374E-01 0.26940622E+03</pdfrwt>
<totfact> 0.41630382E+02</totfact>
</mgrwt>
</event>
<event>
 6    1  0.5818426E-006  0.1372197E+03  0.7546771E-02  0.1228751E+00
         -2   -1    0    0    0  501 -0.00000000000E+00  0.00000000000E+00  0.75644573851E+02  0.75644573851E+02  0.00000000000E+00 0.  1.
          2   -1    0    0  501    0  0.00000000000E+00 -0.00000000000E+00 -0.21024327212E+03  0.21024327212E+03  0.00000000000E+00 0. -1.
          5    1    1    2  502    0 -0.45334363164E+02  0.22880436550E+01  0.29147701554E+02  0.54149036309E+02  0.47000000000E+01 0.  1.
         -5    1    1    2    0  502  0.23002809637E+02  0.49725099584E+02 -0.70013941780E+02  0.89026719717E+02  0.47000000000E+01 0.  1.
        -11    1    1    2    0    0 -0.16135984364E+02  0.19876823679E+02 -0.16875142868E+02  0.30663146573E+02  0.00000000000E+00 0.  1.
         11    1    1    2    0    0  0.38467537890E+02 -0.71889966918E+02 -0.76857315174E+02  0.11204894337E+03  0.00000000000E+00 0. -1.
<mgrwt>
<rscale>  0 0.12913099E+03</rscale>
<asrwt>0</asrwt>
<pdfrwt beam="2">  1        2 0.32345118E-01 0.13721971E+03</pdfrwt>
<pdfrwt beam="1">  1       -2 0.11637627E-01 0.13721971E+03</pdfrwt>
<totfact> 0.79509928E+03</totfact>
</mgrwt>
</event>
<event>
 6    1  0.5818426E-006  0.1340248E+03  0.7546771E-02  0.1242441E+00
          1   -1    0    0  501    0  0.00000000000E+00  0.00000000000E+00  0.10117976677E+04  0.10117976677E+04  0.00000000000E+00 0. -1.
         -1   -1    0    0    0  501 -0.00000000000E+00 -0.00000000000E+00 -0.12132297053E+02  0.12132297053E+02  0.00000000000E+00 0.  1.
          5    1    1    2  502    0  0.47794649233E+01  0.39201707605E+02  0.28333478427E+03  0.28611240298E+03  0.47000000000E+01 0.  1.
         -5    1    1    2    0  502 -0.24189282671E+02 -0.83478702537E+02  0.29658678126E+03  0.30909484627E+03  0.47000000000E+01 0.  1.
        -11    1    1    2    0    0  0.46842755938E+02  0.29786895832E+02  0.24138566247E+03  0.24768637627E+03  0.00000000000E+00 0.  1.
         11    1    1    2    0    0 -0.27432938191E+02  0.14490099101E+02  0.17835814264E+03  0.18103633921E+03  0.00000000000E+00 0. -1.
<mgrwt>
<rscale>  0 0.12039853E+03</rscale>
<asrwt>0</asrwt>
<pdfrwt beam="1">  1        1 0.15566111E+00 0.13402480E+03</pdfrwt>
<pdfrwt beam="2">  1       -1 0.18665080E-02 0.13402480E+03</pdfrwt>
<totfact> 0.11434300E+04</totfact>
</mgrwt>
</event>
<event>
 6    1  0.5818426E-006  0.1521313E+03  0.7546771E-02  0.1206794E+00
          1   -1    0    0  501    0  0.00000000000E+00  0.00000000000E+00  0.10018772362E+03  0.10018772362E+03  0.00000000000E+00 0. -1.
         -1   -1    0    0    0  501 -0.00000000000E+00 -0.00000000000E+00 -0.33895090845E+03  0.33895090845E+03  0.00000000000E+00 0.  1.
          5    1    1    2  502    0  0.19411006478E+02 -0.32419302024E+02 -0.20579060366E+03  0.20928368515E+03  0.47000000000E+01 0.  1.
         -5    1    1    2    0  502  0.67081030146E+02  0.38455813556E+02 -0.64168575542E+02  0.10059030912E+03  0.47000000000E+01 0.  1.
        -11    1    1    2    0    0 -0.23971554984E+01 -0.35845818542E+02  0.13004201110E+02  0.38207045266E+02  0.00000000000E+00 0.  1.
         11    1    1    2    0    0 -0.84094881126E+02  0.29809307011E+02  0.18191793263E+02  0.91057592534E+02  0.00000000000E+00 0. -1.
<mgrwt>
<rscale>  0 0.14496938E+03</rscale>
<asrwt>0</asrwt>
<pdfrwt beam="1">  1        1 0.15413496E-01 0.15213130E+03</pdfrwt>
<pdfrwt beam="2">  1       -1 0.52146293E-01 0.15213130E+03</pdfrwt>
<totfact> 0.13445152E+03</totfact>
</mgrwt>
</event>
<event>
 6    1  0.5818426E-006  0.1415783E+03  0.7546771E-02  0.1221546E+00
         -1   -1    0    0    0  501 -0.00000000000E+00  0.00000000000E+00  0.14911543083E+03  0.14911543083E+03  0.00000000000E+00 0.  1.
          1   -1    0    0  501    0  0.00000000000E+00 -0.00000000000E+00 -0.11729168428E+03  0.11729168428E+03  0.00000000000E+00 0. -1.
          5    1    1    2  502    0 -0.21978647530E+02 -0.30070730318E+02 -0.38646780791E+02  0.53879248646E+02  0.47000000000E+01 0. -1.
         -5    1    1    2    0  502 -0.33502846041E+02 -0.65578541697E+01  0.90596537157E+02  0.96929194204E+02  0.47000000000E+01 0. -1.
        -11    1    1    2    0    0 -0.11150331074E+02 -0.11365470351E+02 -0.28918764772E+02  0.33012100134E+02  0.00000000000E+00 0. -1.
         11    1    1    2    0    0  0.66631824645E+02  0.47994054839E+02  0.87927549507E+01  0.82586572123E+02  0.00000000000E+00 0.  1.
<mgrwt>
<rscale>  0 0.13406478E+03</rscale>
<asrwt>0</asrwt>
<pdfrwt beam="2">  1        1 0.18044875E-01 0.14157828E+03</pdfrwt>
<pdfrwt beam="1">  1       -1 0.22940835E-01 0.14157828E+03</pdfrwt>
<totfact> 0.45042058E+03</totfact>
</mgrwt>
</event>
<event>
 6    1  0.5818426E-006  0.1765835E+03  0.7546771E-02  0.1176731E+00
         -2   -1    0    0    0  501 -0.00000000000E+00  0.00000000000E+00  0.10111842026E+03  0.10111842026E+03  0.00000000000E+00 0.  1.
          2   -1    0    0  501    0  0.00000000000E+00 -0.00000000000E+00 -0.27279402043E+03  0.27279402043E+03  0.00000000000E+00 0. -1.
          5    1    1    2  502    0  0.25319657152E+02  0.34582113006E+02  0.18229126394E+02  0.46812376861E+02  0.47000000000E+01 0.  1.
         -5    1    1    2    0  502  0.99341497208E+02 -0.37374317855E+02 -0.10716103278E+03  0.15090112541E+03  0.47000000000E+01 0.  1.
        -11    1    1    2    0    0 -0.26631380893E+02 -0.18141511499E+02  0.15575131522E+02  0.35790076971E+02  0.00000000000E+00 0.  1.
         11    1    1    2    0    0 -0.98029773467E+02  0.20933716348E+02 -0.98318825307E+02  0.14040886146E+03  0.00000000000E+00 0. -1.
<mgrwt>
<rscale>  0 0.17107579E+03</rscale>
<asrwt>0</asrwt>
<pdfrwt beam="2">  1        2 0.41968310E-01 0.17658354E+03</pdfrwt>
<pdfrwt beam="1">  1       -2 0.15556680E-01 0.17658354E+03</pdfrwt>
<totfact> 0.38126316E+03</totfact>
</mgrwt>
</event>
<event>
 6    1  0.5818426E-006  0.1316115E+03  0.7546771E-02  0.1238754E+00
          2   -1    0    0  501    0  0.00000000000E+00  0.00000000000E+00  0.23535990552E+03  0.23535990552E+03  0.00000000000E+00 0. -1.
         -2   -1    0    0    0  501 -0.00000000000E+00 -0.00000000000E+00 -0.12844307690E+03  0.12844307690E+03  0.00000000000E+00 0.  1.
          5    1    1    2  502    0 -0.12297012634E+02  0.40781378741E+02 -0.76090219043E+02  0.87327823777E+02  0.47000000000E+01 0.  1.
         -5    1    1    2    0  502 -0.23317658323E+02 -0.61504691689E+02 -0.25604823513E+01  0.65993835767E+02  0.47000000000E+01 0.  1.
        -11    1    1    2    0    0  0.21066330122E+02  0.56468331445E+02  0.12292602608E+03  0.13690606491E+03  0.00000000000E+00 0.  1.
         11    1    1    2    0    0  0.14548340835E+02 -0.35745018496E+02  0.62641503934E+02  0.73575257957E+02  0.00000000000E+00 0. -1.
<mgrwt>
<rscale>  0 0.12267161E+03</rscale>
<asrwt>0</asrwt>
<pdfrwt beam="1">  1        2 0.36209216E-01 0.13161154E+03</pdfrwt>
<pdfrwt beam="2">  1       -2 0.19760473E-01 0.13161154E+03</pdfrwt>
<totfact> 0.29538732E+03</totfact>
</mgrwt>
</event>
<event>
 6    1  0.1225770E-005  0.3892841E+03  0.7546771E-02  0.1047555E+00
          1   -1    0    0  501    0  0.00000000000E+00  0.00000000000E+00  0.38751954134E+03  0.38751954134E+03  0.00000000000E+00 0. -1.
         -1   -1    0    0    0  501 -0.00000000000E+00 -0.00000000000E+00 -0.97764152098E+02  0.97764152098E+02  0.00000000000E+00 0.  1.
          5    1    1    2  502    0 -0.20668047139E+02  0.57443609434E+01 -0.15966359265E+02  0.27151067813E+02  0.47000000000E+01 0. -1.
         -5    1    1    2    0  502  0.89129240165E+02  0.13035270591E+03  0.10078663429E+03  0.18739232920E+03  0.47000000000E+01 0. -1.
        -11    1    1    2    0    0 -0.52363360900E+02 -0.17052054297E+02  0.47619088160E+02  0.72802964759E+02  0.00000000000E+00 0.  1.
         11    1    1    2    0    0 -0.16097832126E+02 -0.11904501256E+03  0.15731602606E+03  0.19793733167E+03  0.00000000000E+00 0. -1.
<mgrwt>
<rscale>  0 0.38928406E+03</rscale>
<asrwt>0</asrwt>
<pdfrwt beam="1">  1        1 0.59618390E-01 0.38928406E+03</pdfrwt>
<pdfrwt beam="2">  1       -1 0.15040639E-01 0.38928406E+03</pdfrwt>
<totfact> 0.20290850E+03</totfact>
</mgrwt>
</event>
<event>
 6    1  0.5818426E-006  0.1323599E+03  0.7546771E-02  0.1232614E+00
          3   -1    0    0  501    0  0.00000000000E+00  0.00000000000E+00  0.71397931200E+02  0.71397931200E+02  0.00000000000E+00 0. -1.
         -3   -1    0    0    0  501 -0.00000000000E+00 -0.00000000000E+00 -0.26580391417E+03  0.26580391417E+03  0.00000000000E+00 0.  1.
          5    1    1    2  502    0  0.32063646398E+02 -0.16841727147E+02 -0.32902524428E+01  0.36669291714E+02  0.47000000000E+01 0. -1.
         -5    1    1    2    0  502 -0.35026199672E+02 -0.47346507150E+02 -0.17976763480E+03  0.18922742646E+03  0.47000000000E+01 0.  1.
        -11    1    1    2    0    0 -0.41096083962E+02  0.25253285741E+02 -0.19339238882E+02  0.51967515991E+02  0.00000000000E+00 0.  1.
         11    1    1    2    0    0  0.44058637236E+02  0.38934948556E+02  0.79911431590E+01  0.59337611202E+02  0.00000000000E+00 0. -1.
<mgrwt>
<rscale>  0 0.12658400E+03</rscale>
<asrwt>0</asrwt>
<pdfrwt beam="1">  1        3 0.10984297E-01 0.13235988E+03</pdfrwt>
<pdfrwt beam="2">  1       -3 0.40892910E-01 0.13235988E+03</pdfrwt>
<totfact> 0.86285707E+02</totfact>
</mgrwt>
</event>
<event>
 6    1  0.5818426E-006  0.2710580E+03  0.7546771E-02  0.1102696E+00
          2   -1    0    0  501    0  0.00000000000E+00  0.00000000000E+00  0.12248613387E+04  0.12248613387E+04  0.00000000000E+00 0. -1.
         -2   -1    0    0    0  501 -0.00000000000E+00 -0.00000000000E+00 -0.90642763038E+02  0.90642763038E+02  0.00000000000E+00 0.  1.
          5    1    1    2  502    0  0.12222680287E+03 -0.16693856317E+03  0.12762739792E+03  0.24314341018E+03  0.47000000000E+01 0.  1.
         -5    1    1    2    0  502 -0.30957767447E+02 -0.55587769237E+02  0.47972149234E+02  0.79823558905E+02  0.47000000000E+01 0.  1.
        -11    1    1    2    0    0 -0.33629245176E+02  0.55187212291E+02  0.12940325708E+03  0.14464355318E+03  0.00000000000E+00 0.  1.
         11    1    1    2    0    0 -0.57639790245E+02  0.16733912012E+03  0.82921577143E+03  0.84789357948E+03  0.00000000000E+00 0. -1.
<mgrwt>
<rscale>  0 0.26753905E+03</rscale>
<asrwt>0</asrwt>
<pdfrwt beam="1">  1        2 0.18844019E+00 0.27105804E+03</pdfrwt>
<pdfrwt beam="2">  1       -2 0.13945041E-01 0.27105804E+03</pdfrwt>
<totfact> 0.74955640E+02</totfact>
</mgrwt>
</event>
<event>
 6    1  0.5818426E-006  0.1356576E+03  0.7546771E-02  0.1231895E+00
          2   -1    0    0  501    0  0.00000000000E+00  0.00000000000E+00  0.65759705219E+02  0.65759705219E+02  0.00000000000E+00 0. -1.
         -2   -1    0    0    0  501 -0.00000000000E+00 -0.00000000000E+00 -0.22321118773E+03  0.22321118773E+03  0.00000000000E+00 0.  1.
          5    1    1    2  502    0  0.11283441555E+02  0.33872327787E+02 -0.52966388432E+02  0.64048254829E+02  0.47000000000E+01 0.  1.
         -5    1    1    2    0  502 -0.82683484237E+01 -0.86216093064E+02 -0.16253750747E+02  0.88248822668E+02  0.47000000000E+01 0.  1.
        -11    1    1    2    0    0 -0.40024971330E+02  0.53215857618E+02 -0.48568758138E+02  0.82418748468E+02  0.00000000000E+00 0.  1.
         11    1    1    2    0    0  0.37009878199E+02 -0.87209234159E+00 -0.39662585198E+02  0.54255066988E+02  0.00000000000E+00 0. -1.
<mgrwt>
<rscale>  0 0.12705337E+03</rscale>
<asrwt>0</asrwt>
<pdfrwt beam="1">  1        2 0.10116878E-01 0.13565755E+03</pdfrwt>
<pdfrwt beam="2">  1       -2 0.34340183E-01 0.13565755E+03</pdfrwt>
<totfact> 0.47851091E+03</totfact>
</mgrwt>
</event>
<event>
 6    1  0.5818426E-006  0.1383664E+03  0.7546771E-02  0.1226682E+00
         -4   -1    0    0    0  501 -0.00000000000E+00  0.00000000000E+00  0.33100837399E+03  0.33100837399E+03  0.00000000000E+00 0. -1.
          4   -1    0    0  501    0  0.00000000000E+00 -0.00000000000E+00 -0.76627708366E+02  0.76627708366E+02  0.00000000000E+00 0.  1.
          5    1    1    2  502    0  0.52319944642E+02  0.21962628006E+02  0.44526446363E+02  0.72280205188E+02  0.47000000000E+01 0.  1.
         -5    1    1    2    0  502 -0.38942695056E+02  0.35871222459E+02  0.21905389824E+03  0.22541068838E+03  0.47000000000E+01 0.  1.
        -11    1    1    2    0    0 -0.34833759744E+02 -0.74318809049E+02 -0.11080864996E+02  0.82821867677E+02  0.00000000000E+00 0.  1.
         11    1    1    2    0    0  0.21456510159E+02  0.16484958584E+02  0.18811860181E+01  0.27123321119E+02  0.00000000000E+00 0. -1.
<mgrwt>
<rscale>  0 0.13052259E+03</rscale>
<asrwt>0</asrwt>
<pdfrwt beam="2">  1        4 0.11788878E-01 0.13836643E+03</pdfrwt>
<pdfrwt beam="1">  1       -4 0.50924364E-01 0.13836643E+03</pdfrwt>
<totfact> 0.35722478E+02</totfact>
</mgrwt>
</event>
<event>
 6    1  0.5818426E-006  0.6003576E+03  0.7546771E-02  0.1020098E+00
          2   -1    0    0  501    0  0.00000000000E+00  0.00000000000E+00  0.82562976171E+03  0.82562976171E+03  0.00000000000E+00 0. -1.
         -2   -1    0    0    0  501 -0.00000000000E+00 -0.00000000000E+00 -0.21724765287E+03  0.21724765287E+03  0.00000000000E+00 0.  1.
          5    1    1    2  502    0  0.70801396745E+02 -0.44159430516E+02  0.50311975856E+03  0.51001419053E+03  0.47000000000E+01 0. -1.
         -5    1    1    2    0  502  0.10596437086E+03 -0.86985005992E+02 -0.13643153005E+03  0.19346961403E+03  0.47000000000E+01 0.  1.
        -11    1    1    2    0    0 -0.16965587426E+03  0.81816515565E+02  0.18755108809E+03  0.26580532074E+03  0.00000000000E+00 0.  1.
         11    1    1    2    0    0 -0.71098933513E+01  0.49327920943E+02  0.54142792239E+02  0.73588289282E+02  0.00000000000E+00 0. -1.
<mgrwt>
<rscale>  0 0.47651256E+03</rscale>
<asrwt>0</asrwt>
<pdfrwt beam="1">  1        2 0.12701996E+00 0.60035757E+03</pdfrwt>
<pdfrwt beam="2">  1       -2 0.33422716E-01 0.60035757E+03</pdfrwt>
<totfact> 0.28045023E+02</totfact>
</mgrwt>
</event>
<event>
 6    1  0.5818426E-006  0.1627536E+03  0.7546771E-02  0.1192247E+00
          1   -1    0    0  501    0  0.00000000000E+00  0.00000000000E+00  0.76354331432E+03  0.76354331432E+03  0.00000000000E+00 0. -1.
         -1   -1    0    0    0  501 -0.00000000000E+00 -0.00000000000E+00 -0.31004928496E+02  0.31004928496E+02  0.00000000000E+00 0.  1.
          5    1    1    2  502    0 -0.73158543000E+00 -0.23614893357E+02 -0.57387418984E+00  0.24096010812E+02  0.47000000000E+01 0.  1.
         -5    1    1    2    0  502  0.91545427702E+02 -0.27528535205E+02  0.32600264860E+03  0.33976197916E+03  0.47000000000E+01 0.  1.
        -11    1    1    2    0    0  0.12237464946E+02  0.32572239685E+02  0.12583798934E+03  0.13055997054E+03  0.00000000000E+00 0. -1.
         11    1    1    2    0    0 -0.10305130722E+03  0.18571188877E+02  0.28127162208E+03  0.30013028231E+03  0.00000000000E+00 0.  1.
<mgrwt>
<rscale>  0 0.15689534E+03</rscale>
<asrwt>0</asrwt>
<pdfrwt beam="1">  1        1 0.11746819E+00 0.16275365E+03</pdfrwt>
<pdfrwt beam="2">  1       -1 0.47699896E-02 0.16275365E+03</pdfrwt>
<totfact> 0.45822134E+03</totfact>
</mgrwt>
</event>
<event>
 6    1  0.5818426E-006  0.1288964E+03  0.7546771E-02  0.1242186E+00
         -3   -1    0    0    0  501 -0.00000000000E+00  0.00000000000E+00  0.36308446437E+03  0.36308446437E+03  0.00000000000E+00 0.  1.
          3   -1    0    0  501    0  0.00000000000E+00 -0.00000000000E+00 -0.36783047718E+02  0.36783047718E+02  0.00000000000E+00 0. -1.
          5    1    1    2  502    0 -0.25252589696E+02  0.20972011528E+02  0.37206869868E+01  0.33368429174E+02  0.47000000000E+01 0. -1.
         -5    1    1    2    0  502  0.48573743082E+02  0.10860312076E+00  0.21534095292E+03  0.22080135035E+03  0.47000000000E+01 0. -1.
        -11    1    1    2    0    0 -0.35284557740E+00 -0.47410779836E+02  0.99046875335E+02  0.10980979036E+03  0.00000000000E+00 0.  1.
         11    1    1    2    0    0 -0.22968307809E+02  0.26330165188E+02  0.81929014106E+01  0.35887942208E+02  0.00000000000E+00 0. -1.
<mgrwt>
<rscale>  0 0.12055367E+03</rscale>
<asrwt>0</asrwt>
<pdfrwt beam="2">  1        3 0.56589307E-02 0.12889637E+03</pdfrwt>
<pdfrwt beam="1">  1       -3 0.55859146E-01 0.12889637E+03</pdfrwt>
<totfact> 0.13608689E+03</totfact>
</mgrwt>
</event>
<event>
 6    1  0.5818426E-006  0.1418167E+03  0.7546771E-02  0.1221610E+00
         -2   -1    0    0    0  501 -0.00000000000E+00  0.00000000000E+00  0.48587471853E+02  0.48587471853E+02  0.00000000000E+00 0.  1.
          2   -1    0    0  501    0  0.00000000000E+00 -0.00000000000E+00 -0.34491037037E+03  0.34491037037E+03  0.00000000000E+00 0. -1.
          5    1    1    2  502    0 -0.48497102003E+02 -0.30765572945E+02 -0.27915668526E+02  0.64030179842E+02  0.47000000000E+01 0. -1.
         -5    1    1    2    0  502  0.63331764274E+00  0.77627867043E+02 -0.10225207739E+03  0.12846814455E+03  0.47000000000E+01 0. -1.
        -11    1    1    2    0    0  0.22352286503E+02 -0.72528217471E+02 -0.99338643810E+02  0.12501253215E+03  0.00000000000E+00 0.  1.
         11    1    1    2    0    0  0.25511497858E+02  0.25665923374E+02 -0.66816508787E+02  0.75986985676E+02  0.00000000000E+00 0. -1.
<mgrwt>
<rscale>  0 0.13401954E+03</rscale>
<asrwt>0</asrwt>
<pdfrwt beam="2">  1        2 0.53063133E-01 0.14181665E+03</pdfrwt>
<pdfrwt beam="1">  1       -2 0.74749958E-02 0.14181665E+03</pdfrwt>
<totfact> 0.93999398E+03</totfact>
</mgrwt>
</event>
<event>
 6    1  0.5818426E-006  0.1288972E+03  0.7546771E-02  0.1241801E+00
         -1   -1    0    0    0  501 -0.00000000000E+00  0.00000000000E+00  0.47517096438E+02  0.47517096438E+02  0.00000000000E+00 0.  1.
          1   -1    0    0  501    0  0.00000000000E+00 -0.00000000000E+00 -0.27429214168E+03  0.27429214168E+03  0.00000000000E+00 0. -1.
          5    1    1    2  502    0  0.31570134753E+00 -0.58999750192E+02 -0.22015246225E+02  0.63149277560E+02  0.47000000000E+01 0.  1.
         -5    1    1    2    0  502 -0.34799429000E+02  0.41209257020E+02 -0.10327623027E+03  0.11660734480E+03  0.47000000000E+01 0. -1.
        -11    1    1    2    0    0  0.59814509624E+02  0.20548276281E+02 -0.97567388902E+02  0.11627296589E+03  0.00000000000E+00 0.  1.
         11    1    1    2    0    0 -0.25330781972E+02 -0.27577831089E+01 -0.39161798535E+01  0.25779649874E+02  0.00000000000E+00 0. -1.
<mgrwt>
<rscale>  0 0.12078901E+03</rscale>
<asrwt>0</asrwt>
<pdfrwt beam="2">  1        1 0.42198791E-01 0.12889720E+03</pdfrwt>
<pdfrwt beam="1">  1       -1 0.73103226E-02 0.12889720E+03</pdfrwt>
<totfact> 0.91533525E+03</totfact>
</mgrwt>
</event>
<event>
 6    1  0.5818426E-006  0.1304743E+03  0.7546771E-02  0.1240189E+00
          4   -1    0    0  501    0  0.00000000000E+00  0.00000000000E+00  0.22826986205E+03  0.22826986205E+03  0.00000000000E+00 0.  1.
         -4   -1    0    0    0  501 -0.00000000000E+00 -0.00000000000E+00 -0.60505216493E+02  0.60505216493E+02  0.00000000000E+00 0. -1.
          5    1    1    2  502    0  0.47988308820E+02  0.26417296036E+02  0.53626731045E+01  0.55241285069E+02  0.47000000000E+01 0. -1.
         -5    1    1    2    0  502 -0.68049650570E+02  0.51431853376E+01  0.58572962483E+02  0.90056033847E+02  0.47000000000E+01 0. -1.
        -11    1    1    2    0    0  0.15836128871E+02 -0.41236102528E+02  0.11789022601E+03  0.12589402097E+03  0.00000000000E+00 0.  1.
         11    1    1    2    0    0  0.42252128795E+01  0.96756211543E+01 -0.14061216037E+02  0.17583738653E+02  0.00000000000E+00 0. -1.
<mgrwt>
<rscale>  0 0.12178027E+03</rscale>
<asrwt>0</asrwt>
<pdfrwt beam="1">  1        4 0.35118440E-01 0.13047431E+03</pdfrwt>
<pdfrwt beam="2">  1       -4 0.93084949E-02 0.13047431E+03</pdfrwt>
<totfact> 0.11007177E+03</totfact>
</mgrwt>
</event>
<event>
 6    1  0.5818426E-006  0.1560671E+03  0.7546771E-02  0.1202545E+00
          2   -1    0    0  501    0  0.00000000000E+00  0.00000000000E+00  0.82983609895E+02  0.82983609895E+02  0.00000000000E+00 0. -1.
         -2   -1    0    0    0  501 -0.00000000000E+00 -0.00000000000E+00 -0.33125089228E+03  0.33125089228E+03  0.00000000000E+00 0.  1.
          5    1    1    2  502    0 -0.49608459463E+02 -0.34069437287E+02 -0.34726769393E+02  0.69640249281E+02  0.47000000000E+01 0.  1.
         -5    1    1    2    0  502 -0.41426657260E+02  0.55103303632E+02 -0.20572898651E+03  0.21702315060E+03  0.47000000000E+01 0.  1.
        -11    1    1    2    0    0  0.66402942687E+02 -0.52853642077E+02 -0.16363029866E+02  0.86432673363E+02  0.00000000000E+00 0. -1.
         11    1    1    2    0    0  0.24632174037E+02  0.31819775732E+02  0.85515033830E+01  0.41138428939E+02  0.00000000000E+00 0.  1.
<mgrwt>
<rscale>  0 0.14832612E+03</rscale>
<asrwt>0</asrwt>
<pdfrwt beam="1">  1        2 0.12766709E-01 0.15606708E+03</pdfrwt>
<pdfrwt beam="2">  1       -2 0.50961676E-01 0.15606708E+03</pdfrwt>
<totfact> 0.17098478E+03</totfact>
</mgrwt>
</event>
<event>
 6    1  0.5818426E-006  0.2435217E+03  0.7546771E-02  0.1120041E+00
         -2   -1    0    0    0  501 -0.00000000000E+00  0.00000000000E+00  0.51306529919E+02  0.51306529919E+02  0.00000000000E+00 0. -1.
          2   -1    0    0  501    0  0.00000000000E+00 -0.00000000000E+00 -0.12313105742E+04  0.12313105742E+04  0.00000000000E+00 0.  1.
          5    1    1    2  502    0 -0.92615107839E+02 -0.93825987425E+02 -0.14716729517E+03  0.19763900648E+03  0.47000000000E+01 0. -1.
         -5    1    1    2    0  502  0.11658043122E+02 -0.98849368561E+02 -0.23847675277E+03  0.25845765464E+03  0.47000000000E+01 0. -1.
        -11    1    1    2    0    0  0.10664630177E+02  0.43653767100E+02 -0.66608304987E+02  0.80349561368E+02  0.00000000000E+00 0.  1.
         11    1    1    2    0    0  0.70292434540E+02  0.14902158889E+03 -0.72775169138E+03  0.74617088164E+03  0.00000000000E+00 0. -1.
<mgrwt>
<rscale>  0 0.23962792E+03</rscale>
<asrwt>0</asrwt>
<pdfrwt beam="2">  1        2 0.18943240E+00 0.24352173E+03</pdfrwt>
<pdfrwt beam="1">  1       -2 0.78933121E-02 0.24352173E+03</pdfrwt>
<totfact> 0.18523050E+03</totfact>
</mgrwt>
</event>
<event>
 6    1  0.5818426E-006  0.1264848E+03  0.7546771E-02  0.1246669E+00
          1   -1    0    0  501    0  0.00000000000E+00  0.00000000000E+00  0.58098589203E+03  0.58098589203E+03  0.00000000000E+00 0. -1.
         -1   -1    0    0    0  501 -0.00000000000E+00 -0.00000000000E+00 -0.22412076710E+02  0.22412076710E+02  0.00000000000E+00 0.  1.
          5    1    1    2  502    0  0.59175669637E+02  0.31670249741E+02  0.16267665630E+03  0.17604132782E+03  0.47000000000E+01 0.  1.
         -5    1    1    2    0  502 -0.41081143995E+02 -0.38260689321E+02  0.83476618266E+02  0.10070738074E+03  0.47000000000E+01 0.  1.
        -11    1    1    2    0    0  0.24342631338E+02  0.32556648871E+02  0.90346556699E+02  0.99070678777E+02  0.00000000000E+00 0.  1.
         11    1    1    2    0    0 -0.42437156979E+02 -0.25966209291E+02  0.22207398406E+03  0.22757858140E+03  0.00000000000E+00 0. -1.
<mgrwt>
<rscale>  0 0.11786045E+03</rscale>
<asrwt>0</asrwt>
<pdfrwt beam="1">  1        1 0.89382434E-01 0.12648483E+03</pdfrwt>
<pdfrwt beam="2">  1       -1 0.34480122E-02 0.12648483E+03</pdfrwt>
<totfact> 0.10709716E+04</totfact>
</mgrwt>
</event>
<event>
 6    1  0.5818426E-006  0.1498069E+03  0.7546771E-02  0.1210217E+00
          2   -1    0    0  501    0  0.00000000000E+00  0.00000000000E+00  0.74738921922E+03  0.74738921922E+03  0.00000000000E+00 0. -1.
         -2   -1    0    0    0  501 -0.00000000000E+00 -0.00000000000E+00 -0.25943970033E+02  0.25943970033E+02  0.00000000000E+00 0.  1.
          5    1    1    2  502    0  0.41019801357E+02 -0.23139038751E+02  0.24369301614E+02  0.53235252219E+02  0.47000000000E+01 0. -1.
         -5    1    1    2    0  502 -0.10693189183E+02 -0.53652779254E+02  0.28813966120E+03  0.29332493820E+03  0.47000000000E+01 0. -1.
        -11    1    1    2    0    0 -0.49398606732E+02  0.32523794489E+02  0.32183023490E+03  0.32721968103E+03  0.00000000000E+00 0. -1.
         11    1    1    2    0    0  0.19071994558E+02  0.44268023516E+02  0.87106051481E+02  0.99553317810E+02  0.00000000000E+00 0.  1.
<mgrwt>
<rscale>  0 0.14233777E+03</rscale>
<asrwt>0</asrwt>
<pdfrwt beam="1">  1        2 0.11498294E+00 0.14980692E+03</pdfrwt>
<pdfrwt beam="2">  1       -2 0.39913806E-02 0.14980692E+03</pdfrwt>
<totfact> 0.10281878E+04</totfact>
</mgrwt>
</event>
<event>
 6    1  0.5818426E-006  0.1397204E+03  0.7546771E-02  0.1225353E+00
          2   -1    0    0  501    0  0.00000000000E+00  0.00000000000E+00  0.58466454527E+03  0.58466454527E+03  0.00000000000E+00 0. -1.
         -2   -1    0    0    0  501 -0.00000000000E+00 -0.00000000000E+00 -0.29288356143E+02  0.29288356143E+02  0.00000000000E+00 0.  1.
          5    1    1    2  502    0  0.39033233241E+02 -0.31263446068E+02  0.88022523833E+02  0.10134619410E+03  0.47000000000E+01 0.  1.
         -5    1    1    2    0  502 -0.88624179064E+02 -0.66698542633E+01  0.12679570453E+03  0.15491279082E+03  0.47000000000E+01 0.  1.
        -11    1    1    2    0    0  0.71685965384E+02  0.20001327565E+02  0.29271364006E+03  0.30202682963E+03  0.00000000000E+00 0.  1.
         11    1    1    2    0    0 -0.22095019561E+02  0.17931972766E+02  0.47844320696E+02  0.55667086860E+02  0.00000000000E+00 0. -1.
<mgrwt>
<rscale>  0 0.13142711E+03</rscale>
<asrwt>0</asrwt>
<pdfrwt beam="1">  1        2 0.89948383E-01 0.13972042E+03</pdfrwt>
<pdfrwt beam="2">  1       -2 0.45059014E-02 0.13972042E+03</pdfrwt>
<totfact> 0.11389317E+04</totfact>
</mgrwt>
</event>
<event>
 6    1  0.5818426E-006  0.1392988E+03  0.7546771E-02  0.1226583E+00
         -4   -1    0    0    0  501 -0.00000000000E+00  0.00000000000E+00  0.11867457653E+04  0.11867457653E+04  0.00000000000E+00 0.  1.
          4   -1    0    0  501    0  0.00000000000E+00 -0.00000000000E+00 -0.18119000156E+02  0.18119000156E+02  0.00000000000E+00 0. -1.
          5    1    1    2  502    0 -0.62128074819E+01  0.14846661123E+02  0.80995541254E+03  0.81012892963E+03  0.47000000000E+01 0. -1.
         -5    1    1    2    0  502 -0.54778265572E+02 -0.71876519667E+01  0.15076623662E+03  0.16063893931E+03  0.47000000000E+01 0. -1.
        -11    1    1    2    0    0  0.54991415107E+02  0.21544209506E+02  0.63801386908E+02  0.86941507176E+02  0.00000000000E+00 0. -1.
         11    1    1    2    0    0  0.59996579470E+01 -0.29203218662E+02  0.14410372904E+03  0.14715538929E+03  0.00000000000E+00 0.  1.
<mgrwt>
<rscale>  0 0.13058981E+03</rscale>
<asrwt>0</asrwt>
<pdfrwt beam="2">  1        4 0.27875394E-02 0.13929884E+03</pdfrwt>
<pdfrwt beam="1">  1       -4 0.18257621E+00 0.13929884E+03</pdfrwt>
<totfact> 0.19244823E+02</totfact>
</mgrwt>
</event>
<event>
 6    1  0.5818426E-006  0.1142864E+03  0.7546771E-02  0.1325785E+00
          3   -1    0    0  501    0  0.00000000000E+00  0.00000000000E+00  0.15056134841E+02  0.15056134841E+02  0.00000000000E+00 0. -1.
         -3   -1    0    0    0  501 -0.00000000000E+00 -0.00000000000E+00 -0.68785227191E+03  0.68785227191E+03  0.00000000000E+00 0.  1.
          5    1    1    2  502    0 -0.46197212108E+02  0.19010539170E+02 -0.15456385569E+03  0.16250433376E+03  0.47000000000E+01 0. -1.
         -5    1    1    2    0  502  0.42611939912E+02  0.65908133554E+01 -0.50760276613E+03  0.50945252422E+03  0.47000000000E+01 0.  1.
        -11    1    1    2    0    0  0.79468935691E+01 -0.98897701640E+01 -0.57667482671E+01  0.13936142109E+02  0.00000000000E+00 0.  1.
         11    1    1    2    0    0 -0.43616213730E+01 -0.15711582361E+02 -0.48627669820E+01  0.17015406666E+02  0.00000000000E+00 0. -1.
<mgrwt>
<rscale>  0 0.81162197E+02</rscale>
<asrwt>0</asrwt>
<pdfrwt beam="1">  1        3 0.23163284E-02 0.11428641E+03</pdfrwt>
<pdfrwt beam="2">  1       -3 0.10582343E+00 0.11428641E+03</pdfrwt>
<totfact> 0.13512751E+03</totfact>
</mgrwt>
</event>
<event>
 6    1  0.5818426E-006  0.1331307E+03  0.7546771E-02  0.1235415E+00
         -3   -1    0    0    0  501 -0.00000000000E+00  0.00000000000E+00  0.52790412241E+02  0.52790412241E+02  0.00000000000E+00 0.  1.
          3   -1    0    0  501    0  0.00000000000E+00 -0.00000000000E+00 -0.27270674348E+03  0.27270674348E+03  0.00000000000E+00 0. -1.
          5    1    1    2  502    0  0.45810860144E+02 -0.18941491322E+02 -0.10627120815E+03  0.11735874353E+03  0.47000000000E+01 0.  1.
         -5    1    1    2    0  502 -0.35250351346E+02 -0.25685964019E+02  0.12342701007E+02  0.45571792655E+02  0.47000000000E+01 0.  1.
        -11    1    1    2    0    0  0.39592122027E+02  0.23487262716E+02 -0.41002370228E+02  0.61647238388E+02  0.00000000000E+00 0.  1.
         11    1    1    2    0    0 -0.50152630824E+02  0.21140192625E+02 -0.84985453862E+02  0.10091938115E+03  0.00000000000E+00 0. -1.
<mgrwt>
<rscale>  0 0.12477883E+03</rscale>
<asrwt>0</asrwt>
<pdfrwt beam="2">  1        3 0.41954884E-01 0.13313074E+03</pdfrwt>
<pdfrwt beam="1">  1       -3 0.81216018E-02 0.13313074E+03</pdfrwt>
<totfact> 0.13509923E+03</totfact>
</mgrwt>
</event>
<event>
 6    1  0.5818426E-006  0.1288060E+03  0.7546771E-02  0.1243132E+00
         -2   -1    0    0    0  501 -0.00000000000E+00  0.00000000000E+00  0.40592723589E+02  0.40592723589E+02  0.00000000000E+00 0.  1.
          2   -1    0    0  501    0  0.00000000000E+00 -0.00000000000E+00 -0.35875200492E+03  0.35875200492E+03  0.00000000000E+00 0. -1.
          5    1    1    2  502    0 -0.25050940555E+02  0.42189024252E+02 -0.10769389047E+03  0.11843786318E+03  0.47000000000E+01 0.  1.
         -5    1    1    2    0  502  0.46111536390E+02 -0.19081046656E+02 -0.10532987861E+01  0.50135412315E+02  0.47000000000E+01 0.  1.
        -11    1    1    2    0    0 -0.51489942632E+02 -0.23468681172E+02 -0.81033402790E+02  0.98835244502E+02  0.00000000000E+00 0.  1.
         11    1    1    2    0    0  0.30429346797E+02  0.36070357560E+00 -0.12837868928E+03  0.13193620851E+03  0.00000000000E+00 0. -1.
<mgrwt>
<rscale>  0 0.11997892E+03</rscale>
<asrwt>0</asrwt>
<pdfrwt beam="2">  1        2 0.55192617E-01 0.12880605E+03</pdfrwt>
<pdfrwt beam="1">  1       -2 0.62450343E-02 0.12880605E+03</pdfrwt>
<totfact> 0.11781025E+04</totfact>
</mgrwt>
</event>
<event>
 6    1  0.5818426E-006  0.1495894E+03  0.7546771E-02  0.1210081E+00
         -2   -1    0    0    0  501 -0.00000000000E+00  0.00000000000E+00  0.21496129430E+03  0.21496129430E+03  0.00000000000E+00 0.  1.
          2   -1    0    0  501    0  0.00000000000E+00 -0.00000000000E+00 -0.91244212353E+02  0.91244212353E+02  0.00000000000E+00 0. -1.
          5    1    1    2  502    0  0.40885807062E+02  0.64139133182E+02  0.82277111547E+02  0.11214762908E+03  0.47000000000E+01 0.  1.
         -5    1    1    2    0  502  0.40418975173E+02 -0.52239065787E+02  0.20394010815E+02  0.69286501033E+02  0.47000000000E+01 0.  1.
        -11    1    1    2    0    0 -0.27120751114E+02 -0.62598409251E+01  0.54249572622E+02  0.60973247241E+02  0.00000000000E+00 0.  1.
         11    1    1    2    0    0 -0.54184031120E+02 -0.56402264705E+01 -0.33203613037E+02  0.63798129297E+02  0.00000000000E+00 0. -1.
<mgrwt>
<rscale>  0 0.14244178E+03</rscale>
<asrwt>0</asrwt>
<pdfrwt beam="2">  1        2 0.14037571E-01 0.14958939E+03</pdfrwt>
<pdfrwt beam="1">  1       -2 0.33070968E-01 0.14958939E+03</pdfrwt>
<totfact> 0.34772655E+03</totfact>
</mgrwt>
</event>
<event>
 6    1  0.5818426E-006  0.3655180E+03  0.7546771E-02  0.1056420E+00
         -1   -1    0    0    0  501 -0.00000000000E+00  0.00000000000E+00  0.20495438618E+03  0.20495438618E+03  0.00000000000E+00 0.  1.
          1   -1    0    0  501    0  0.00000000000E+00 -0.00000000000E+00 -0.16296723459E+03  0.16296723459E+03  0.00000000000E+00 0. -1.
          5    1    1    2  502    0  0.14072373531E+03  0.51167012413E+02  0.48759703748E+02  0.15754628383E+03  0.47000000000E+01 0. -1.
         -5    1    1    2    0  502 -0.32116904715E+00 -0.38314902339E+02  0.13670397956E+02  0.40952468437E+02  0.47000000000E+01 0. -1.
        -11    1    1    2    0    0 -0.53842714682E+02 -0.46473510268E+02 -0.27587602551E+02  0.76288274954E+02  0.00000000000E+00 0. -1.
         11    1    1    2    0    0 -0.86559851586E+02  0.33621400195E+02  0.71446524392E+01  0.93134593552E+02  0.00000000000E+00 0.  1.
<mgrwt>
<rscale>  0 0.36551799E+03</rscale>
<asrwt>0</asrwt>
<pdfrwt beam="2">  1        1 0.25071882E-01 0.36551799E+03</pdfrwt>
<pdfrwt beam="1">  1       -1 0.31531444E-01 0.36551799E+03</pdfrwt>
<totfact> 0.17951872E+03</totfact>
</mgrwt>
</event>
<event>
 6    1  0.5818426E-006  0.1311062E+03  0.7546771E-02  0.1238611E+00
          1   -1    0    0  501    0  0.00000000000E+00  0.00000000000E+00  0.44944850774E+02  0.44944850774E+02  0.00000000000E+00 0. -1.
         -1   -1    0    0    0  501 -0.00000000000E+00 -0.00000000000E+00 -0.35726407410E+03  0.35726407410E+03  0.00000000000E+00 0.  1.
          5    1    1    2  502    0  0.39490708785E+02 -0.35289995525E+02 -0.81030583542E+02  0.96917208656E+02  0.47000000000E+01 0. -1.
         -5    1    1    2    0  502 -0.75306454993E+02  0.90701964830E+01 -0.17279238195E+03  0.18876606657E+03  0.47000000000E+01 0.  1.
        -11    1    1    2    0    0 -0.53728056290E+01 -0.24414318279E+02 -0.42525765822E+02  0.49329167195E+02  0.00000000000E+00 0.  1.
         11    1    1    2    0    0  0.41188551836E+02  0.50634117321E+02 -0.15970492013E+02  0.67196482456E+02  0.00000000000E+00 0. -1.
<mgrwt>
<rscale>  0 0.12276088E+03</rscale>
<asrwt>0</asrwt>
<pdfrwt beam="1">  1        1 0.69145924E-02 0.13110620E+03</pdfrwt>
<pdfrwt beam="2">  1       -1 0.54963704E-01 0.13110620E+03</pdfrwt>
<totfact> 0.35026182E+03</totfact>
</mgrwt>
</event>
<event>
 6    1  0.5818426E-006  0.2396444E+03  0.7546771E-02  0.1152304E+00
         -2   -1    0    0    0  501 -0.00000000000E+00  0.00000000000E+00  0.12380488783E+03  0.12380488783E+03  0.00000000000E+00 0.  1.
          2   -1    0    0  501    0  0.00000000000E+00 -0.00000000000E+00 -0.68498970353E+03  0.68498970353E+03  0.00000000000E+00 0. -1.
          5    1    1    2  502    0 -0.42633927453E+02 -0.17919451592E+01 -0.11337211837E+03  0.12122784359E+03  0.47000000000E+01 0. -1.
         -5    1    1    2    0  502  0.13870201217E+01 -0.41785400131E+02  0.11070667591E+03  0.11843142142E+03  0.47000000000E+01 0.  1.
        -11    1    1    2    0    0 -0.19973643724E+02  0.43817505134E+02 -0.23862825002E+03  0.24343862041E+03  0.00000000000E+00 0.  1.
         11    1    1    2    0    0  0.61220551055E+02 -0.24015984368E+00 -0.31989112321E+03  0.32569670594E+03  0.00000000000E+00 0. -1.
<mgrwt>
<rscale>  0 0.19698920E+03</rscale>
<asrwt>0</asrwt>
<pdfrwt beam="2">  1        2 0.10538303E+00 0.23964444E+03</pdfrwt>
<pdfrwt beam="1">  1       -2 0.19046906E-01 0.23964444E+03</pdfrwt>
<totfact> 0.98670049E+02</totfact>
</mgrwt>
</event>
<event>
 6    1  0.5818426E-006  0.1424311E+03  0.7546771E-02  0.1218412E+00
         -2   -1    0    0    0  501 -0.00000000000E+00  0.00000000000E+00  0.17224899599E+03  0.17224899599E+03  0.00000000000E+00 0. -1.
          2   -1    0    0  501    0  0.00000000000E+00 -0.00000000000E+00 -0.12228747254E+03  0.12228747254E+03  0.00000000000E+00 0.  1.
          5    1    1    2  502    0  0.28580267552E+02 -0.32851590380E+02  0.16239782578E+02  0.46710590041E+02  0.47000000000E+01 0.  1.
         -5    1    1    2    0  502 -0.25778957219E+01  0.96731447703E+02  0.73892979038E+02  0.12184367391E+03  0.47000000000E+01 0.  1.
        -11    1    1    2    0    0 -0.24813023780E+01 -0.65611775052E+02  0.13790739385E+02  0.67091328648E+02  0.00000000000E+00 0. -1.
         11    1    1    2    0    0 -0.23521069452E+02  0.17319177289E+01 -0.53961977543E+02  0.58890875928E+02  0.00000000000E+00 0.  1.
<mgrwt>
<rscale>  0 0.13628881E+03</rscale>
<asrwt>0</asrwt>
<pdfrwt beam="2">  1        2 0.18813457E-01 0.14243112E+03</pdfrwt>
<pdfrwt beam="1">  1       -2 0.26499845E-01 0.14243112E+03</pdfrwt>
<totfact> 0.36741235E+03</totfact>
</mgrwt>
</event>
<event>
 6    1  0.5818426E-006  0.1368136E+03  0.7546771E-02  0.1237654E+00
         -3   -1    0    0    0  501 -0.00000000000E+00  0.00000000000E+00  0.40923424869E+03  0.40923424869E+03  0.00000000000E+00 0.  1.
          3   -1    0    0  501    0  0.00000000000E+00 -0.00000000000E+00 -0.32142513889E+02  0.32142513889E+02  0.00000000000E+00 0. -1.
          5    1    1    2  502    0  0.47999343794E+02  0.40441742072E+02  0.93271620007E+02  0.11252180502E+03  0.47000000000E+01 0. -1.
         -5    1    1    2    0  502 -0.49545803352E+02 -0.51365329747E+02  0.16247361793E+03  0.17751887295E+03  0.47000000000E+01 0.  1.
        -11    1    1    2    0    0  0.23962637755E+02  0.42383204749E+02  0.86751354063E+02  0.99480357281E+02  0.00000000000E+00 0. -1.
         11    1    1    2    0    0 -0.22416178197E+02 -0.31459617073E+02  0.34595142798E+02  0.51855727326E+02  0.00000000000E+00 0.  1.
<mgrwt>
<rscale>  0 0.12336032E+03</rscale>
<asrwt>0</asrwt>
<pdfrwt beam="2">  1        3 0.49450024E-02 0.13681363E+03</pdfrwt>
<pdfrwt beam="1">  1       -3 0.62959111E-01 0.13681363E+03</pdfrwt>
<totfact> 0.13312889E+03</totfact>
</mgrwt>
</event>
<event>
 6    1  0.5818426E-006  0.4306962E+03  0.7546771E-02  0.1068139E+00
         -2   -1    0    0    0  501 -0.00000000000E+00  0.00000000000E+00  0.19046749412E+03  0.19046749412E+03  0.00000000000E+00 0.  1.
          2   -1    0    0  501    0  0.00000000000E+00 -0.00000000000E+00 -0.45997517599E+03  0.45997517599E+03  0.00000000000E+00 0. -1.
          5    1    1    2  502    0 -0.12808109230E+03 -0.10582261440E+03 -0.10214297265E+03  0.19508579852E+03  0.47000000000E+01 0. -1.
         -5    1    1    2    0  502  0.10659209049E+03  0.23953648161E+03 -0.99374597260E+02  0.28042289556E+03  0.47000000000E+01 0.  1.
        -11    1    1    2    0    0  0.31892978597E+02 -0.96845178764E+01 -0.29884747688E+02  0.44766618307E+02  0.00000000000E+00 0. -1.
         11    1    1    2    0    0 -0.10403976790E+02 -0.12402934933E+03 -0.38105364265E+02  0.13016735771E+03  0.00000000000E+00 0.  1.
<mgrwt>
<rscale>  0 0.33686552E+03</rscale>
<asrwt>0</asrwt>
<pdfrwt beam="2">  1        2 0.70765411E-01 0.43069617E+03</pdfrwt>
<pdfrwt beam="1">  1       -2 0.29302692E-01 0.43069617E+03</pdfrwt>
<totfact> 0.73155571E+02</totfact>
</mgrwt>
</event>
<event>
 6    1  0.5818426E-006  0.1831302E+03  0.7546771E-02  0.1172341E+00
          1   -1    0    0  501    0  0.00000000000E+00  0.00000000000E+00  0.77615960560E+02  0.77615960560E+02  0.00000000000E+00 0. -1.
         -1   -1    0    0    0  501 -0.00000000000E+00 -0.00000000000E+00 -0.43042608725E+03  0.43042608725E+03  0.00000000000E+00 0.  1.
          5    1    1    2  502    0  0.45297691753E+02  0.16105723240E+02 -0.24229485969E+02  0.54041032462E+02  0.47000000000E+01 0.  1.
         -5    1    1    2    0  502 -0.11073024326E+02  0.11327741060E+03 -0.26288390211E+03  0.28650378637E+03  0.47000000000E+01 0.  1.
        -11    1    1    2    0    0  0.23341932641E+02 -0.24718221416E+02 -0.84263510839E+01  0.35026271311E+02  0.00000000000E+00 0.  1.
         11    1    1    2    0    0 -0.57566600069E+02 -0.10466491242E+03 -0.57270387531E+02  0.13247095766E+03  0.00000000000E+00 0. -1.
<mgrwt>
<rscale>  0 0.17538942E+03</rscale>
<asrwt>0</asrwt>
<pdfrwt beam="1">  1        1 0.11940917E-01 0.18313022E+03</pdfrwt>
<pdfrwt beam="2">  1       -1 0.66219398E-01 0.18313022E+03</pdfrwt>
<totfact> 0.11986594E+03</totfact>
</mgrwt>
</event>
<event>
 6    1  0.5818426E-006  0.1355844E+03  0.7546771E-02  0.1229908E+00
          3   -1    0    0  501    0  0.00000000000E+00  0.00000000000E+00  0.44495097544E+02  0.44495097544E+02  0.00000000000E+00 0. -1.
         -3   -1    0    0    0  501 -0.00000000000E+00 -0.00000000000E+00 -0.37133790390E+03  0.37133790390E+03  0.00000000000E+00 0.  1.
          5    1    1    2  502    0 -0.35197845516E+02  0.22645767015E+02 -0.12770572483E+02  0.44010187619E+02  0.47000000000E+01 0.  1.
         -5    1    1    2    0  502  0.30747324080E+02  0.29672670733E+02 -0.23066519808E+03  0.23463671693E+03  0.47000000000E+01 0.  1.
        -11    1    1    2    0    0 -0.43042483827E+02 -0.37718471988E+02 -0.57597513672E+02  0.81196133678E+02  0.00000000000E+00 0.  1.
         11    1    1    2    0    0  0.47493005263E+02 -0.14599965760E+02 -0.25809522126E+02  0.55989963221E+02  0.00000000000E+00 0. -1.
<mgrwt>
<rscale>  0 0.12836094E+03</rscale>
<asrwt>0</asrwt>
<pdfrwt beam="1">  1        3 0.68453996E-02 0.13558438E+03</pdfrwt>
<pdfrwt beam="2">  1       -3 0.57128908E-01 0.13558438E+03</pdfrwt>
<totfact> 0.96659990E+02</totfact>
</mgrwt>
</event>
<event>
 6    1  0.5818426E-006  0.2386665E+03  0.7546771E-02  0.1120684E+00
         -1   -1    0    0    0  501 -0.00000000000E+00  0.00000000000E+00  0.39002101200E+02  0.39002101200E+02  0.00000000000E+00 0.  1.
          1   -1    0    0  501    0  0.00000000000E+00 -0.00000000000E+00 -0.36511927146E+03  0.36511927146E+03  0.00000000000E+00 0. -1.
          5    1    1    2  502    0  0.17023903246E+02 -0.82309902141E+00  0.13433782082E+02  0.22204667860E+02  0.47000000000E+01 0. -1.
         -5    1    1    2    0  502 -0.56286898961E+02  0.32626738863E+02 -0.16873773660E+03  0.18090669650E+03  0.47000000000E+01 0.  1.
        -11    1    1    2    0    0  0.16478592085E+01 -0.24709705138E+02  0.11956707784E+01  0.24793438580E+02  0.00000000000E+00 0.  1.
         11    1    1    2    0    0  0.37615136506E+02 -0.70939347034E+01 -0.17200888652E+03  0.17621656972E+03  0.00000000000E+00 0. -1.
<mgrwt>
<rscale>  0 0.23866645E+03</rscale>
<asrwt>0</asrwt>
<pdfrwt beam="2">  1        1 0.56172195E-01 0.23866645E+03</pdfrwt>
<pdfrwt beam="1">  1       -1 0.60003233E-02 0.23866645E+03</pdfrwt>
<totfact> 0.89720771E+03</totfact>
</mgrwt>
</event>
<event>
 6    1  0.5818426E-006  0.1275236E+03  0.7546771E-02  0.1246656E+00
         -1   -1    0    0    0  501 -0.00000000000E+00  0.00000000000E+00  0.68161904239E+02  0.68161904239E+02  0.00000000000E+00 0.  1.
          1   -1    0    0  501    0  0.00000000000E+00 -0.00000000000E+00 -0.17994947829E+03  0.17994947829E+03  0.00000000000E+00 0. -1.
          5    1    1    2  502    0  0.58240203144E+02  0.47863313076E+02 -0.56749328462E+02  0.94474304876E+02  0.47000000000E+01 0.  1.
         -5    1    1    2    0  502 -0.38951954423E+02 -0.31583836910E+02 -0.18883763191E+02  0.53791077509E+02  0.47000000000E+01 0.  1.
        -11    1    1    2    0    0  0.27420474978E+02  0.19030466984E+02 -0.20745411602E+02  0.39299023196E+02  0.00000000000E+00 0.  1.
         11    1    1    2    0    0 -0.46708723699E+02 -0.35309943150E+02 -0.15409070799E+02  0.60546976950E+02  0.00000000000E+00 0. -1.
<mgrwt>
<rscale>  0 0.11786791E+03</rscale>
<asrwt>0</asrwt>
<pdfrwt beam="2">  1        1 0.27684535E-01 0.12752356E+03</pdfrwt>
<pdfrwt beam="1">  1       -1 0.10486447E-01 0.12752356E+03</pdfrwt>
<totfact> 0.89259261E+03</totfact>
</mgrwt>
</event>
<event>
 6    1  0.5818426E-006  0.1555406E+03  0.7546771E-02  0.1202239E+00
         -2   -1    0    0    0  501 -0.00000000000E+00  0.00000000000E+00  0.25848439117E+03  0.25848439117E+03  0.00000000000E+00 0.  1.
          2   -1    0    0  501    0  0.00000000000E+00 -0.00000000000E+00 -0.78593087894E+02  0.78593087894E+02  0.00000000000E+00 0. -1.
          5    1    1    2  502    0 -0.99065473350E+02 -0.80116413733E+00  0.51608473034E+02  0.11180399976E+03  0.47000000000E+01 0. -1.
         -5    1    1    2    0  502  0.21660859377E+02 -0.49965512592E+02  0.49241939770E+02  0.73570401045E+02  0.47000000000E+01 0. -1.
        -11    1    1    2    0    0  0.64057956352E+02  0.55565128971E+02  0.15006495200E+02  0.86116782497E+02  0.00000000000E+00 0. -1.
         11    1    1    2    0    0  0.13346657621E+02 -0.47984522416E+01  0.64034395272E+02  0.65586295760E+02  0.00000000000E+00 0.  1.
<mgrwt>
<rscale>  0 0.14857221E+03</rscale>
<asrwt>0</asrwt>
<pdfrwt beam="2">  1        2 0.12091244E-01 0.15554055E+03</pdfrwt>
<pdfrwt beam="1">  1       -2 0.39766829E-01 0.15554055E+03</pdfrwt>
<totfact> 0.29542935E+03</totfact>
</mgrwt>
</event>
<event>
 6    1  0.5818426E-006  0.1411390E+03  0.7546771E-02  0.1222963E+00
          3   -1    0    0  501    0  0.00000000000E+00  0.00000000000E+00  0.32843819093E+02  0.32843819093E+02  0.00000000000E+00 0. -1.
         -3   -1    0    0    0  501 -0.00000000000E+00 -0.00000000000E+00 -0.48810566261E+03  0.48810566261E+03  0.00000000000E+00 0.  1.
          5    1    1    2  502    0  0.89446693039E+01 -0.29877112623E+02 -0.25644379257E+01  0.31643566637E+02  0.47000000000E+01 0.  1.
         -5    1    1    2    0  502  0.53327887669E+02  0.96400238921E+01 -0.26860373889E+03  0.27405629387E+03  0.47000000000E+01 0.  1.
        -11    1    1    2    0    0 -0.21125102329E+02 -0.16390273063E+02 -0.14562547829E+03  0.14805975458E+03  0.00000000000E+00 0.  1.
         11    1    1    2    0    0 -0.41147454644E+02  0.36627361794E+02 -0.38468188401E+02  0.67189866606E+02  0.00000000000E+00 0. -1.
<mgrwt>
<rscale>  0 0.13307494E+03</rscale>
<asrwt>0</asrwt>
<pdfrwt beam="1">  1        3 0.50528955E-02 0.14113903E+03</pdfrwt>
<pdfrwt beam="2">  1       -3 0.75093175E-01 0.14113903E+03</pdfrwt>
<totfact> 0.89111429E+02</totfact>
</mgrwt>
</event>
<event>
 6    1  0.5818426E-006  0.2737764E+03  0.7546771E-02  0.1099138E+00
         -1   -1    0    0    0  501 -0.00000000000E+00  0.00000000000E+00  0.13348921507E+03  0.13348921507E+03  0.00000000000E+00 0.  1.
          1   -1    0    0  501    0  0.00000000000E+00 -0.00000000000E+00 -0.14037376218E+03  0.14037376218E+03  0.00000000000E+00 0. -1.
          5    1    1    2  502    0 -0.13367568119E+02 -0.76580912437E+02 -0.28853012193E+02  0.83053683481E+02  0.47000000000E+01 0.  1.
         -5    1    1    2    0  502 -0.24333986057E+01  0.58668464649E+01  0.65541619632E+02  0.66016173928E+02  0.47000000000E+01 0.  1.
        -11    1    1    2    0    0  0.14097727927E+02  0.23577581851E+02  0.27903201817E+02  0.39156569951E+02  0.00000000000E+00 0.  1.
         11    1    1    2    0    0  0.17032387979E+01  0.47136484121E+02 -0.71476356362E+02  0.85636549886E+02  0.00000000000E+00 0. -1.
<mgrwt>
<rscale>  0 0.27377643E+03</rscale>
<asrwt>0</asrwt>
<pdfrwt beam="2">  1        1 0.21595963E-01 0.27377643E+03</pdfrwt>
<pdfrwt beam="1">  1       -1 0.20536802E-01 0.27377643E+03</pdfrwt>
<totfact> 0.44324737E+03</totfact>
</mgrwt>
</event>
<event>
 6    1  0.5818426E-006  0.2813243E+03  0.7546771E-02  0.1094968E+00
         -1   -1    0    0    0  501 -0.00000000000E+00  0.00000000000E+00  0.28332990813E+03  0.28332990813E+03  0.00000000000E+00 0.  1.
          1   -1    0    0  501    0  0.00000000000E+00 -0.00000000000E+00 -0.69833202623E+02  0.69833202623E+02  0.00000000000E+00 0. -1.
          5    1    1    2  502    0 -0.18963854248E+02  0.18515014614E+02 -0.55981051576E+01  0.27492950286E+02  0.47000000000E+01 0. -1.
         -5    1    1    2    0  502  0.29147660352E+02 -0.10696003086E+03  0.12356625271E+03  0.16607451073E+03  0.47000000000E+01 0. -1.
        -11    1    1    2    0    0  0.29398541013E+01  0.38962656255E+02 -0.11688233212E+02  0.40784140547E+02  0.00000000000E+00 0. -1.
         11    1    1    2    0    0 -0.13123660205E+02  0.49482359992E+02  0.10721679117E+03  0.11881150919E+03  0.00000000000E+00 0.  1.
<mgrwt>
<rscale>  0 0.28132426E+03</rscale>
<asrwt>0</asrwt>
<pdfrwt beam="2">  1        1 0.10743570E-01 0.28132426E+03</pdfrwt>
<pdfrwt beam="1">  1       -1 0.43589216E-01 0.28132426E+03</pdfrwt>
<totfact> 0.30691723E+03</totfact>
</mgrwt>
</event>
<event>
 6    1  0.5818426E-006  0.1346056E+03  0.7546771E-02  0.1230853E+00
         -1   -1    0    0    0  501 -0.00000000000E+00  0.00000000000E+00  0.63901695130E+03  0.63901695130E+03  0.00000000000E+00 0.  1.
          1   -1    0    0  501    0  0.00000000000E+00 -0.00000000000E+00 -0.38158743322E+02  0.38158743322E+02  0.00000000000E+00 0. -1.
          5    1    1    2  502    0  0.14054087787E+02 -0.39362642672E+01  0.73570796943E+00  0.15350662074E+02  0.47000000000E+01 0.  1.
         -5    1    1    2    0  502  0.11874833010E+02  0.46567943644E+02  0.52974776057E+03  0.53194394899E+03  0.47000000000E+01 0.  1.
        -11    1    1    2    0    0 -0.47713718663E+02 -0.61632452698E+02  0.38779755568E+02  0.87057610903E+02  0.00000000000E+00 0. -1.
         11    1    1    2    0    0  0.21784797867E+02  0.19000773321E+02  0.31594983873E+02  0.42823472662E+02  0.00000000000E+00 0.  1.
<mgrwt>
<rscale>  0 0.12773680E+03</rscale>
<asrwt>0</asrwt>
<pdfrwt beam="2">  1        1 0.58705764E-02 0.13460565E+03</pdfrwt>
<pdfrwt beam="1">  1       -1 0.98310292E-01 0.13460565E+03</pdfrwt>
<totfact> 0.13635165E+03</totfact>
</mgrwt>
</event>
<event>
 6    1  0.5818426E-006  0.1380825E+03  0.7546771E-02  0.1227250E+00
          1   -1    0    0  501    0  0.00000000000E+00  0.00000000000E+00  0.70866373519E+03  0.70866373519E+03  0.00000000000E+00 0.  1.
         -1   -1    0    0    0  501 -0.00000000000E+00 -0.00000000000E+00 -0.22491437860E+02  0.22491437860E+02  0.00000000000E+00 0. -1.
          5    1    1    2  502    0  0.22251558328E+02 -0.37547726052E+02  0.17065138466E+03  0.17620711866E+03  0.47000000000E+01 0. -1.
         -5    1    1    2    0  502 -0.79942936372E+02  0.26879358415E+02  0.13598767588E+03  0.16008782270E+03  0.47000000000E+01 0. -1.
        -11    1    1    2    0    0 -0.10986408164E+02  0.54965942489E+01  0.37884125227E+01  0.12855573971E+02  0.00000000000E+00 0. -1.
         11    1    1    2    0    0  0.68677786208E+02  0.51717733888E+01  0.37574482427E+03  0.38200465772E+03  0.00000000000E+00 0.  1.
<mgrwt>
<rscale>  0 0.13013865E+03</rscale>
<asrwt>0</asrwt>
<pdfrwt beam="1">  1        1 0.10902517E+00 0.13808249E+03</pdfrwt>
<pdfrwt beam="2">  1       -1 0.34602218E-02 0.13808249E+03</pdfrwt>
<totfact> 0.81327298E+03</totfact>
</mgrwt>
</event>
<event>
 6    1  0.5818426E-006  0.3785490E+03  0.7546771E-02  0.1051471E+00
         -2   -1    0    0    0  501 -0.00000000000E+00  0.00000000000E+00  0.67334723575E+03  0.67334723575E+03  0.00000000000E+00 0.  1.
          2   -1    0    0  501    0  0.00000000000E+00 -0.00000000000E+00 -0.53204104616E+02  0.53204104616E+02  0.00000000000E+00 0. -1.
          5    1    1    2  502    0  0.39660031013E+01 -0.22627412093E+02  0.80998078937E+02  0.84323826705E+02  0.47000000000E+01 0.  1.
         -5    1    1    2    0  502 -0.71584999612E+02  0.14747750869E+03  0.36714286697E+03  0.40210695406E+03  0.47000000000E+01 0.  1.
        -11    1    1    2    0    0  0.45532345197E+02 -0.14942234497E+02  0.21675789428E+02  0.52595671668E+02  0.00000000000E+00 0.  1.
         11    1    1    2    0    0  0.22086651313E+02 -0.10990786210E+03  0.15032639580E+03  0.18752488792E+03  0.00000000000E+00 0. -1.
<mgrwt>
<rscale>  0 0.37854900E+03</rscale>
<asrwt>0</asrwt>
<pdfrwt beam="2">  1        2 0.81852474E-02 0.37854900E+03</pdfrwt>
<pdfrwt beam="1">  1       -2 0.10359188E+00 0.37854900E+03</pdfrwt>
<totfact> 0.65573452E+02</totfact>
</mgrwt>
</event>
<event>
 6    1  0.5818426E-006  0.1324027E+03  0.7546771E-02  0.1236458E+00
          2   -1    0    0  501    0  0.00000000000E+00  0.00000000000E+00  0.40264192111E+03  0.40264192111E+03  0.00000000000E+00 0. -1.
         -2   -1    0    0    0  501 -0.00000000000E+00 -0.00000000000E+00 -0.36625752959E+02  0.36625752959E+02  0.00000000000E+00 0.  1.
          5    1    1    2  502    0  0.46791303408E+02  0.79274609895E+00 -0.30204167454E+00  0.47034410278E+02  0.47000000000E+01 0.  1.
         -5    1    1    2    0  502 -0.13141127515E+02  0.26990003550E+02  0.14900380338E+03  0.15207028949E+03  0.47000000000E+01 0.  1.
        -11    1    1    2    0    0 -0.31983433372E+02  0.26918904495E+02  0.56446471837E+02  0.70240811586E+02  0.00000000000E+00 0.  1.
         11    1    1    2    0    0 -0.16667425210E+01 -0.54701654143E+02  0.16086793461E+03  0.16992216272E+03  0.00000000000E+00 0. -1.
<mgrwt>
<rscale>  0 0.12411553E+03</rscale>
<asrwt>0</asrwt>
<pdfrwt beam="1">  1        2 0.61944908E-01 0.13240267E+03</pdfrwt>
<pdfrwt beam="2">  1       -2 0.56347315E-02 0.13240267E+03</pdfrwt>
<totfact> 0.12200899E+04</totfact>
</mgrwt>
</event>
<event>
 6    1  0.5818426E-006  0.3569929E+03  0.7546771E-02  0.1059781E+00
          2   -1    0    0  501    0  0.00000000000E+00  0.00000000000E+00  0.14631320321E+04  0.14631320321E+04  0.00000000000E+00 0. -1.
         -2   -1    0    0    0  501 -0.00000000000E+00 -0.00000000000E+00 -0.21775875350E+02  0.21775875350E+02  0.00000000000E+00 0.  1.
          5    1    1    2  502    0  0.13354065972E+03  0.82254267568E+02  0.52480638973E+03  0.54776154396E+03  0.47000000000E+01 0. -1.
         -5    1    1    2    0  502 -0.99277727163E+01 -0.17820392756E+02  0.19040292302E+03  0.19155022882E+03  0.47000000000E+01 0. -1.
        -11    1    1    2    0    0 -0.43339980437E+02 -0.76548433452E+02  0.36958604739E+03  0.37991033547E+03  0.00000000000E+00 0. -1.
         11    1    1    2    0    0 -0.80272906571E+02  0.12114558641E+02  0.35656079658E+03  0.36568579917E+03  0.00000000000E+00 0.  1.
<mgrwt>
<rscale>  0 0.35699289E+03</rscale>
<asrwt>0</asrwt>
<pdfrwt beam="1">  1        2 0.22509716E+00 0.35699289E+03</pdfrwt>
<pdfrwt beam="2">  1       -2 0.33501358E-02 0.35699289E+03</pdfrwt>
<totfact> 0.51415798E+03</totfact>
</mgrwt>
</event>
<event>
 6    1  0.5818426E-006  0.2022826E+03  0.7546771E-02  0.1151926E+00
          1   -1    0    0  501    0  0.00000000000E+00  0.00000000000E+00  0.31480963223E+02  0.31480963223E+02  0.00000000000E+00 0.  1.
         -1   -1    0    0    0  501 -0.00000000000E+00 -0.00000000000E+00 -0.15686006579E+04  0.15686006579E+04  0.00000000000E+00 0. -1.
          5    1    1    2  502    0  0.64508432978E+02 -0.11510104685E+03 -0.67974529071E+03  0.69244879894E+03  0.47000000000E+01 0. -1.
         -5    1    1    2    0  502  0.63345195703E+02  0.20512018850E+02 -0.51362153140E+03  0.51794065708E+03  0.47000000000E+01 0. -1.
        -11    1    1    2    0    0 -0.94247656019E+02  0.15258445873E+02 -0.15237278944E+03  0.17981353619E+03  0.00000000000E+00 0. -1.
         11    1    1    2    0    0 -0.33605972662E+02  0.79330582123E+02 -0.19138008313E+03  0.20987862892E+03  0.00000000000E+00 0.  1.
<mgrwt>
<rscale>  0 0.19742990E+03</rscale>
<asrwt>0</asrwt>
<pdfrwt beam="1">  1        1 0.48432239E-02 0.20228263E+03</pdfrwt>
<pdfrwt beam="2">  1       -1 0.24132324E+00 0.20228263E+03</pdfrwt>
<totfact> 0.15770321E+02</totfact>
</mgrwt>
</event>
<event>
 6    1  0.5818426E-006  0.4225941E+03  0.7546771E-02  0.1036225E+00
         -2   -1    0    0    0  501 -0.00000000000E+00  0.00000000000E+00  0.12580559430E+03  0.12580559430E+03  0.00000000000E+00 0.  1.
          2   -1    0    0  501    0  0.00000000000E+00 -0.00000000000E+00 -0.35488443019E+03  0.35488443019E+03  0.00000000000E+00 0. -1.
          5    1    1    2  502    0 -0.10775974466E+03 -0.84219344185E+02  0.76386531763E+01  0.13706020402E+03  0.47000000000E+01 0. -1.
         -5    1    1    2    0  502  0.56995322536E+01  0.24748029054E+02  0.28910773612E+02  0.38766898777E+02  0.47000000000E+01 0. -1.
        -11    1    1    2    0    0  0.55464794729E+02  0.81057945616E+02 -0.17770967311E+03  0.20304546761E+03  0.00000000000E+00 0.  1.
         11    1    1    2    0    0  0.46595417678E+02 -0.21586630485E+02 -0.87918589564E+02  0.10181745408E+03  0.00000000000E+00 0. -1.
<mgrwt>
<rscale>  0 0.42259412E+03</rscale>
<asrwt>0</asrwt>
<pdfrwt beam="2">  1        2 0.54597604E-01 0.42259412E+03</pdfrwt>
<pdfrwt beam="1">  1       -2 0.19354707E-01 0.42259412E+03</pdfrwt>
<totfact> 0.20382294E+03</totfact>
</mgrwt>
</event>
<event>
 6    1  0.5818426E-006  0.1250974E+03  0.7546771E-02  0.1250898E+00
          3   -1    0    0  501    0  0.00000000000E+00  0.00000000000E+00  0.46901893516E+03  0.46901893516E+03  0.00000000000E+00 0. -1.
         -3   -1    0    0    0  501 -0.00000000000E+00 -0.00000000000E+00 -0.24834499985E+02  0.24834499985E+02  0.00000000000E+00 0.  1.
          5    1    1    2  502    0  0.11153462482E+02 -0.57446025717E+02  0.88818762637E+02  0.10646740437E+03  0.47000000000E+01 0.  1.
         -5    1    1    2    0  502 -0.13339282650E+02  0.61735404495E+02  0.15860978342E+03  0.17078744106E+03  0.47000000000E+01 0.  1.
        -11    1    1    2    0    0 -0.44079100328E+02 -0.17291367825E+01  0.10145791535E+03  0.11063302214E+03  0.00000000000E+00 0. -1.
         11    1    1    2    0    0  0.46264920496E+02 -0.25602419952E+01  0.95297973771E+02  0.10596556758E+03  0.00000000000E+00 0.  1.
<mgrwt>
<rscale>  0 0.11539226E+03</rscale>
<asrwt>0</asrwt>
<pdfrwt beam="1">  1        3 0.72156752E-01 0.12509742E+03</pdfrwt>
<pdfrwt beam="2">  1       -3 0.38206927E-02 0.12509742E+03</pdfrwt>
<totfact> 0.14777583E+03</totfact>
</mgrwt>
</event>
<event>
 6    1  0.5818426E-006  0.3808146E+03  0.7546771E-02  0.1051540E+00
          2   -1    0    0  501    0  0.00000000000E+00  0.00000000000E+00  0.45689270427E+03  0.45689270427E+03  0.00000000000E+00 0. -1.
         -2   -1    0    0    0  501 -0.00000000000E+00 -0.00000000000E+00 -0.33014052072E+03  0.33014052072E+03  0.00000000000E+00 0.  1.
          5    1    1    2  502    0  0.37594854464E+02  0.96767104812E+02 -0.69520301437E+01  0.10415213094E+03  0.47000000000E+01 0.  1.
         -5    1    1    2    0  502  0.24941183214E+03  0.12008310697E+03 -0.27613805576E+02  0.27822801233E+03  0.47000000000E+01 0.  1.
        -11    1    1    2    0    0 -0.47326660519E+02 -0.13509891635E+02  0.52678781957E+02  0.72092884783E+02  0.00000000000E+00 0.  1.
         11    1    1    2    0    0 -0.23968002608E+03 -0.20334032014E+03  0.10863923732E+03  0.33256019693E+03  0.00000000000E+00 0. -1.
<mgrwt>
<rscale>  0 0.37836424E+03</rscale>
<asrwt>0</asrwt>
<pdfrwt beam="1">  1        2 0.70291186E-01 0.38081462E+03</pdfrwt>
<pdfrwt beam="2">  1       -2 0.50790849E-01 0.38081462E+03</pdfrwt>
<totfact> 0.25666944E+02</totfact>
</mgrwt>
</event>
<event>
 6    1  0.5818426E-006  0.4586977E+03  0.7546771E-02  0.1025160E+00
          2   -1    0    0  501    0  0.00000000000E+00  0.00000000000E+00  0.13158232341E+03  0.13158232341E+03  0.00000000000E+00 0. -1.
         -2   -1    0    0    0  501 -0.00000000000E+00 -0.00000000000E+00 -0.39975648458E+03  0.39975648458E+03  0.00000000000E+00 0.  1.
          5    1    1    2  502    0  0.12073835420E+03  0.12312131063E+03 -0.22270233120E+03  0.28170024073E+03  0.47000000000E+01 0.  1.
         -5    1    1    2    0  502 -0.10787889048E+02 -0.14873453207E+02 -0.66222239869E+02  0.68884491823E+02  0.47000000000E+01 0.  1.
        -11    1    1    2    0    0 -0.10295582234E+03 -0.40787063927E+02  0.36109308931E+01  0.11079947996E+03  0.00000000000E+00 0.  1.
         11    1    1    2    0    0 -0.69946428147E+01 -0.67460793497E+02  0.17139479014E+02  0.69954595477E+02  0.00000000000E+00 0. -1.
<mgrwt>
<rscale>  0 0.45869767E+03</rscale>
<asrwt>0</asrwt>
<pdfrwt beam="1">  1        2 0.20243434E-01 0.45869767E+03</pdfrwt>
<pdfrwt beam="2">  1       -2 0.61500998E-01 0.45869767E+03</pdfrwt>
<totfact> 0.69214328E+02</totfact>
</mgrwt>
</event>
<event>
 6    1  0.5818426E-006  0.1905840E+03  0.7546771E-02  0.1163019E+00
         -1   -1    0    0    0  501 -0.00000000000E+00  0.00000000000E+00  0.76494750842E+03  0.76494750842E+03  0.00000000000E+00 0.  1.
          1   -1    0    0  501    0  0.00000000000E+00 -0.00000000000E+00 -0.42753283017E+02  0.42753283017E+02  0.00000000000E+00 0. -1.
          5    1    1    2  502    0  0.32925492756E+02 -0.86328291052E+02  0.22525543095E+03  0.24351336941E+03  0.47000000000E+01 0. -1.
         -5    1    1    2    0  502  0.95061055100E+02  0.20618340149E+02  0.19677237158E+03  0.21955221785E+03  0.47000000000E+01 0. -1.
        -11    1    1    2    0    0 -0.88053987247E+02  0.41506704546E+02  0.10182382728E+03  0.14087016361E+03  0.00000000000E+00 0. -1.
         11    1    1    2    0    0 -0.39932560608E+02  0.24203246356E+02  0.19834259559E+03  0.20376504057E+03  0.00000000000E+00 0.  1.
<mgrwt>
<rscale>  0 0.18503336E+03</rscale>
<asrwt>0</asrwt>
<pdfrwt beam="2">  1        1 0.65774287E-02 0.19058403E+03</pdfrwt>
<pdfrwt beam="1">  1       -1 0.11768422E+00 0.19058403E+03</pdfrwt>
<totfact> 0.78419449E+02</totfact>
</mgrwt>
</event>
<event>
 6    1  0.5818426E-006  0.1912773E+03  0.7546771E-02  0.1162298E+00
         -2   -1    0    0    0  501 -0.00000000000E+00  0.00000000000E+00  0.97923502578E+02  0.97923502578E+02  0.00000000000E+00 0.  1.
          2   -1    0    0  501    0  0.00000000000E+00 -0.00000000000E+00 -0.36891135026E+03  0.36891135026E+03  0.00000000000E+00 0. -1.
          5    1    1    2  502    0  0.89226331916E+02  0.41518529936E+01 -0.10189843489E+03  0.13558745231E+03  0.47000000000E+01 0. -1.
         -5    1    1    2    0  502  0.50606030945E+02  0.33392377872E+02  0.31185698628E+02  0.68342220236E+02  0.47000000000E+01 0. -1.
        -11    1    1    2    0    0 -0.68570776233E+01 -0.32362889780E+02 -0.19400963401E+02  0.38350665305E+02  0.00000000000E+00 0. -1.
         11    1    1    2    0    0 -0.13297528524E+03 -0.51813410849E+01 -0.18087414802E+03  0.22455451499E+03  0.00000000000E+00 0.  1.
<mgrwt>
<rscale>  0 0.18580794E+03</rscale>
<asrwt>0</asrwt>
<pdfrwt beam="2">  1        2 0.56755593E-01 0.19127734E+03</pdfrwt>
<pdfrwt beam="1">  1       -2 0.15065154E-01 0.19127734E+03</pdfrwt>
<totfact> 0.29190409E+03</totfact>
</mgrwt>
</event>
<event>
 6    1  0.5818426E-006  0.1272945E+03  0.7546771E-02  0.1243948E+00
          1   -1    0    0  501    0  0.00000000000E+00  0.00000000000E+00  0.60207324481E+03  0.60207324481E+03  0.00000000000E+00 0. -1.
         -1   -1    0    0    0  501 -0.00000000000E+00 -0.00000000000E+00 -0.23809705712E+02  0.23809705712E+02  0.00000000000E+00 0.  1.
          5    1    1    2  502    0  0.32015815473E+02 -0.54052037932E+02  0.17577743233E+03  0.18672554984E+03  0.47000000000E+01 0.  1.
         -5    1    1    2    0  502 -0.39681160063E+02  0.31260708152E+02  0.43533298764E+02  0.66851061617E+02  0.47000000000E+01 0.  1.
        -11    1    1    2    0    0  0.10774933600E+02 -0.31669410544E+02  0.62625864812E+02  0.71000350011E+02  0.00000000000E+00 0.  1.
         11    1    1    2    0    0 -0.31095890099E+01  0.54460740323E+02  0.29632694320E+03  0.30130598906E+03  0.00000000000E+00 0. -1.
<mgrwt>
<rscale>  0 0.11948566E+03</rscale>
<asrwt>0</asrwt>
<pdfrwt beam="1">  1        1 0.92626642E-01 0.12729454E+03</pdfrwt>
<pdfrwt beam="2">  1       -1 0.36630321E-02 0.12729454E+03</pdfrwt>
<totfact> 0.93468002E+03</totfact>
</mgrwt>
</event>
<event>
 6    1  0.5818426E-006  0.1256258E+03  0.7546771E-02  0.1249316E+00
          3   -1    0    0  501    0  0.00000000000E+00  0.00000000000E+00  0.61406372291E+02  0.61406372291E+02  0.00000000000E+00 0. -1.
         -3   -1    0    0    0  501 -0.00000000000E+00 -0.00000000000E+00 -0.21506823643E+03  0.21506823643E+03  0.00000000000E+00 0.  1.
          5    1    1    2  502    0 -0.45586439010E+02  0.46294795206E+02 -0.82822976655E+02  0.10537109161E+03  0.47000000000E+01 0.  1.
         -5    1    1    2    0  502  0.33265670887E+02 -0.48417422029E+02 -0.48037652656E+02  0.76029978878E+02  0.47000000000E+01 0.  1.
        -11    1    1    2    0    0  0.18198580412E+02 -0.41990932103E+02 -0.21468394287E+02  0.50550159853E+02  0.00000000000E+00 0.  1.
         11    1    1    2    0    0 -0.58778122899E+01  0.44113558925E+02 -0.13328405384E+01  0.44523378379E+02  0.00000000000E+00 0. -1.
<mgrwt>
<rscale>  0 0.11630764E+03</rscale>
<asrwt>0</asrwt>
<pdfrwt beam="1">  1        3 0.94471342E-02 0.12562581E+03</pdfrwt>
<pdfrwt beam="2">  1       -3 0.33087421E-01 0.12562581E+03</pdfrwt>
<totfact> 0.16413013E+03</totfact>
</mgrwt>
</event>
<event>
 6    1  0.5818426E-006  0.2899919E+03  0.7546771E-02  0.1090353E+00
          2   -1    0    0  501    0  0.00000000000E+00  0.00000000000E+00  0.34379277208E+03  0.34379277208E+03  0.00000000000E+00 0. -1.
         -2   -1    0    0    0  501 -0.00000000000E+00 -0.00000000000E+00 -0.61152611014E+02  0.61152611014E+02  0.00000000000E+00 0.  1.
          5    1    1    2  502    0  0.18070033392E+02 -0.11624676110E+02 -0.20051584748E+02  0.29762648611E+02  0.47000000000E+01 0.  1.
         -5    1    1    2    0  502 -0.45534251034E+02 -0.78556389167E+02  0.14227025696E+03  0.16884131696E+03  0.47000000000E+01 0.  1.
        -11    1    1    2    0    0  0.50034369052E+02  0.56841325579E+02  0.14431917029E+03  0.16297974504E+03  0.00000000000E+00 0. -1.
         11    1    1    2    0    0 -0.22570151409E+02  0.33339739698E+02  0.16102318564E+02  0.43361672487E+02  0.00000000000E+00 0.  1.
<mgrwt>
<rscale>  0 0.28999190E+03</rscale>
<asrwt>0</asrwt>
<pdfrwt beam="1">  1        2 0.52891195E-01 0.28999190E+03</pdfrwt>
<pdfrwt beam="2">  1       -2 0.94080942E-02 0.28999190E+03</pdfrwt>
<totfact> 0.68649069E+03</totfact>
</mgrwt>
</event>
<event>
 6    1  0.5818426E-006  0.1360581E+03  0.7546771E-02  0.1228100E+00
         -3   -1    0    0    0  501 -0.00000000000E+00  0.00000000000E+00  0.90244145984E+02  0.90244145984E+02  0.00000000000E+00 0.  1.
          3   -1    0    0  501    0  0.00000000000E+00 -0.00000000000E+00 -0.17515727459E+03  0.17515727459E+03  0.00000000000E+00 0. -1.
          5    1    1    2  502    0  0.16966172310E+02  0.14748853097E+02 -0.66878325497E+02  0.70711951548E+02  0.47000000000E+01 0. -1.
         -5    1    1    2    0  502  0.48692236522E+02 -0.19330938548E+02  0.42362343462E+02  0.67537228446E+02  0.47000000000E+01 0.  1.
        -11    1    1    2    0    0 -0.65102484694E+02 -0.33120047413E+02 -0.48238609349E+02  0.87534190383E+02  0.00000000000E+00 0. -1.
         11    1    1    2    0    0 -0.55592413798E+00  0.37702132864E+02 -0.12158537223E+02  0.39618050199E+02  0.00000000000E+00 0.  1.
<mgrwt>
<rscale>  0 0.12956666E+03</rscale>
<asrwt>0</asrwt>
<pdfrwt beam="2">  1        3 0.26947273E-01 0.13605808E+03</pdfrwt>
<pdfrwt beam="1">  1       -3 0.13883715E-01 0.13605808E+03</pdfrwt>
<totfact> 0.12782881E+03</totfact>
</mgrwt>
</event>
<event>
 6    1  0.5818426E-006  0.2919567E+03  0.7546771E-02  0.1089332E+00
         -2   -1    0    0    0  501 -0.00000000000E+00  0.00000000000E+00  0.54062817383E+02  0.54062817383E+02  0.00000000000E+00 0.  1.
          2   -1    0    0  501    0  0.00000000000E+00 -0.00000000000E+00 -0.39416501782E+03  0.39416501782E+03  0.00000000000E+00 0. -1.
          5    1    1    2  502    0  0.52810601221E+01 -0.49658352159E+01 -0.13753214149E+03  0.13780322587E+03  0.47000000000E+01 0. -1.
         -5    1    1    2    0  502  0.37515887537E+02  0.92191765533E+02 -0.63819826268E+02  0.11832930184E+03  0.47000000000E+01 0. -1.
        -11    1    1    2    0    0 -0.62270417840E+02 -0.25402168543E+02 -0.60254555009E+02  0.90296658322E+02  0.00000000000E+00 0.  1.
         11    1    1    2    0    0  0.19473470181E+02 -0.61823761773E+02 -0.78495677664E+02  0.10179864917E+03  0.00000000000E+00 0. -1.
<mgrwt>
<rscale>  0 0.29195665E+03</rscale>
<asrwt>0</asrwt>
<pdfrwt beam="2">  1        2 0.60640774E-01 0.29195665E+03</pdfrwt>
<pdfrwt beam="1">  1       -2 0.83173562E-02 0.29195665E+03</pdfrwt>
<totfact> 0.71898243E+03</totfact>
</mgrwt>
</event>
<event>
 6    1  0.5818426E-006  0.3186945E+03  0.7546771E-02  0.1076252E+00
          2   -1    0    0  501    0  0.00000000000E+00  0.00000000000E+00  0.79157119411E+02  0.79157119411E+02  0.00000000000E+00 0. -1.
         -2   -1    0    0    0  501 -0.00000000000E+00 -0.00000000000E+00 -0.32077401985E+03  0.32077401985E+03  0.00000000000E+00 0.  1.
          5    1    1    2  502    0 -0.11080958552E+03  0.36820139667E+01 -0.89165655936E+02  0.14235492850E+03  0.47000000000E+01 0. -1.
         -5    1    1    2    0  502  0.13357286706E+02  0.51297990677E+02 -0.78430829700E+02  0.94780725904E+02  0.47000000000E+01 0. -1.
        -11    1    1    2    0    0  0.55110909149E+02 -0.21416510981E+02 -0.88888150019E+02  0.10675665068E+03  0.00000000000E+00 0.  1.
         11    1    1    2    0    0  0.42341389667E+02 -0.33563493662E+02  0.14867735214E+02  0.56038834179E+02  0.00000000000E+00 0. -1.
<mgrwt>
<rscale>  0 0.31869451E+03</rscale>
<asrwt>0</asrwt>
<pdfrwt beam="1">  1        2 0.12178019E-01 0.31869451E+03</pdfrwt>
<pdfrwt beam="2">  1       -2 0.49349848E-01 0.31869451E+03</pdfrwt>
<totfact> 0.19837837E+03</totfact>
</mgrwt>
</event>
<event>
 6    1  0.5818426E-006  0.1231274E+03  0.7546771E-02  0.1286856E+00
         -2   -1    0    0    0  501 -0.00000000000E+00  0.00000000000E+00  0.15893772613E+03  0.15893772613E+03  0.00000000000E+00 0.  1.
          2   -1    0    0  501    0  0.00000000000E+00 -0.00000000000E+00 -0.45876471277E+02  0.45876471277E+02  0.00000000000E+00 0. -1.
          5    1    1    2  502    0  0.31181212645E+02 -0.48034739109E+02 -0.40045116041E+01  0.57599742156E+02  0.47000000000E+01 0. -1.
         -5    1    1    2    0  502 -0.18174844044E+02  0.46022381826E+01  0.91324987091E+02  0.93347998476E+02  0.47000000000E+01 0.  1.
        -11    1    1    2    0    0  0.26503344338E+00  0.17084677264E+02  0.49983253274E+01  0.17802800230E+02  0.00000000000E+00 0.  1.
         11    1    1    2    0    0 -0.13271402045E+02  0.26347823662E+02  0.20742454042E+02  0.36063656548E+02  0.00000000000E+00 0. -1.
<mgrwt>
<rscale>  0 0.96944451E+02</rscale>
<asrwt>0</asrwt>
<pdfrwt beam="2">  1        2 0.70579187E-02 0.12312739E+03</pdfrwt>
<pdfrwt beam="1">  1       -2 0.24451958E-01 0.12312739E+03</pdfrwt>
<totfact> 0.13638314E+04</totfact>
</mgrwt>
</event>
<event>
 6    1  0.5818426E-006  0.1341703E+03  0.7546771E-02  0.1233422E+00
          1   -1    0    0  501    0  0.00000000000E+00  0.00000000000E+00  0.72004469540E+03  0.72004469540E+03  0.00000000000E+00 0. -1.
         -1   -1    0    0    0  501 -0.00000000000E+00 -0.00000000000E+00 -0.21677896756E+02  0.21677896756E+02  0.00000000000E+00 0.  1.
          5    1    1    2  502    0  0.74378532098E+02 -0.53070904680E+01  0.11178006546E+03  0.13445149416E+03  0.47000000000E+01 0. -1.
         -5    1    1    2    0  502 -0.41650357015E+02 -0.30565521425E+02  0.16817630737E+03  0.17599535135E+03  0.47000000000E+01 0. -1.
        -11    1    1    2    0    0 -0.27052011787E+02 -0.25728693647E+02  0.96395477448E+02  0.10337245809E+03  0.00000000000E+00 0.  1.
         11    1    1    2    0    0 -0.56761632962E+01  0.61601305540E+02  0.32201494836E+03  0.32790328855E+03  0.00000000000E+00 0. -1.
<mgrwt>
<rscale>  0 0.12605998E+03</rscale>
<asrwt>0</asrwt>
<pdfrwt beam="1">  1        1 0.11077609E+00 0.13417031E+03</pdfrwt>
<pdfrwt beam="2">  1       -1 0.33350616E-02 0.13417031E+03</pdfrwt>
<totfact> 0.83737940E+03</totfact>
</mgrwt>
</event>
<event>
 6    1  0.5818426E-006  0.2237679E+03  0.7546771E-02  0.1134336E+00
         -2   -1    0    0    0  501 -0.00000000000E+00  0.00000000000E+00  0.11774602137E+03  0.11774602137E+03  0.00000000000E+00 0.  1.
          2   -1    0    0  501    0  0.00000000000E+00 -0.00000000000E+00 -0.41162425699E+03  0.41162425699E+03  0.00000000000E+00 0. -1.
          5    1    1    2  502    0 -0.34264604452E+02  0.39398155174E+02 -0.93966521838E+02  0.10760146363E+03  0.47000000000E+01 0.  1.
         -5    1    1    2    0  502 -0.15021252845E+03 -0.59768338685E+02 -0.11389325926E+03  0.19781259444E+03  0.47000000000E+01 0.  1.
        -11    1    1    2    0    0  0.78000285513E+02 -0.15314344074E+01  0.10331890043E+02  0.78696491556E+02  0.00000000000E+00 0.  1.
         11    1    1    2    0    0  0.10647684739E+03  0.21901617919E+02 -0.96350344553E+02  0.14525972874E+03  0.00000000000E+00 0. -1.
<mgrwt>
<rscale>  0 0.21939386E+03</rscale>
<asrwt>0</asrwt>
<pdfrwt beam="2">  1        2 0.63326809E-01 0.22376787E+03</pdfrwt>
<pdfrwt beam="1">  1       -2 0.18114773E-01 0.22376787E+03</pdfrwt>
<totfact> 0.19152330E+03</totfact>
</mgrwt>
</event>
<event>
 6    1  0.5818426E-006  0.2320913E+03  0.7546771E-02  0.1125176E+00
         -1   -1    0    0    0  501 -0.00000000000E+00  0.00000000000E+00  0.30649804897E+03  0.30649804897E+03  0.00000000000E+00 0.  1.
          1   -1    0    0  501    0  0.00000000000E+00 -0.00000000000E+00 -0.43936948580E+02  0.43936948580E+02  0.00000000000E+00 0. -1.
          5    1    1    2  502    0 -0.20082919306E+02  0.32375490651E+01 -0.11911004290E+02  0.24036792528E+02  0.47000000000E+01 0.  1.
         -5    1    1    2    0  502  0.51539892895E+02 -0.17350606596E+02  0.18098199424E+03  0.18903432585E+03  0.47000000000E+01 0.  1.
        -11    1    1    2    0    0 -0.45048386562E+01  0.37030386950E+02  0.94888808143E+02  0.10195797683E+03  0.00000000000E+00 0.  1.
         11    1    1    2    0    0 -0.26952134932E+02 -0.22917329419E+02 -0.13986977083E+01  0.35405902338E+02  0.00000000000E+00 0. -1.
<mgrwt>
<rscale>  0 0.23209127E+03</rscale>
<asrwt>0</asrwt>
<pdfrwt beam="2">  1        1 0.67595308E-02 0.23209127E+03</pdfrwt>
<pdfrwt beam="1">  1       -1 0.47153545E-01 0.23209127E+03</pdfrwt>
<totfact> 0.49503269E+03</totfact>
</mgrwt>
</event>
<event>
 6    1  0.5818426E-006  0.3362086E+03  0.7546771E-02  0.1068422E+00
         -4   -1    0    0    0  501 -0.00000000000E+00  0.00000000000E+00  0.21646068572E+03  0.21646068572E+03  0.00000000000E+00 0.  1.
          4   -1    0    0  501    0  0.00000000000E+00 -0.00000000000E+00 -0.13055055966E+03  0.13055055966E+03  0.00000000000E+00 0. -1.
          5    1    1    2  502    0  0.99239279038E+02  0.49203630744E+02  0.47980140703E+02  0.12080403836E+03  0.47000000000E+01 0.  1.
         -5    1    1    2    0  502 -0.56183304258E+01 -0.18734296657E+02  0.82668892569E+02  0.85080992628E+02  0.47000000000E+01 0.  1.
        -11    1    1    2    0    0 -0.51410215833E+02 -0.55063979323E+02 -0.67400678173E+00  0.75335956860E+02  0.00000000000E+00 0.  1.
         11    1    1    2    0    0 -0.42210732780E+02  0.24594645237E+02 -0.44064900425E+02  0.65790257528E+02  0.00000000000E+00 0. -1.
<mgrwt>
<rscale>  0 0.33620865E+03</rscale>
<asrwt>0</asrwt>
<pdfrwt beam="2">  1        4 0.20084701E-01 0.33620865E+03</pdfrwt>
<pdfrwt beam="1">  1       -4 0.33301644E-01 0.33620865E+03</pdfrwt>
<totfact> 0.37369287E+02</totfact>
</mgrwt>
</event>
<event>
 6    1  0.5818426E-006  0.1317524E+03  0.7546771E-02  0.1237942E+00
         -1   -1    0    0    0  501 -0.00000000000E+00  0.00000000000E+00  0.19588261100E+02  0.19588261100E+02  0.00000000000E+00 0.  1.
          1   -1    0    0  501    0  0.00000000000E+00 -0.00000000000E+00 -0.69076268129E+03  0.69076268129E+03  0.00000000000E+00 0. -1.
          5    1    1    2  502    0 -0.33684438052E+02  0.53341169511E+01 -0.28790509072E+02  0.44878475722E+02  0.47000000000E+01 0.  1.
         -5    1    1    2    0  502  0.54897564899E+02 -0.41218572036E+02 -0.33605541665E+03  0.34302776327E+03  0.47000000000E+01 0.  1.
        -11    1    1    2    0    0 -0.31340845685E+02 -0.15741706940E+02 -0.51935150802E+02  0.62668252205E+02  0.00000000000E+00 0. -1.
         11    1    1    2    0    0  0.10127718838E+02  0.51626162025E+02 -0.25439334366E+03  0.25977645119E+03  0.00000000000E+00 0.  1.
<mgrwt>
<rscale>  0 0.12317954E+03</rscale>
<asrwt>0</asrwt>
<pdfrwt beam="2">  1        1 0.10627119E+00 0.13175242E+03</pdfrwt>
<pdfrwt beam="1">  1       -1 0.30135785E-02 0.13175242E+03</pdfrwt>
<totfact> 0.10289853E+04</totfact>
</mgrwt>
</event>
<event>
 6    1  0.5818426E-006  0.1397300E+03  0.7546771E-02  0.1224908E+00
          2   -1    0    0  501    0  0.00000000000E+00  0.00000000000E+00  0.39691627343E+03  0.39691627343E+03  0.00000000000E+00 0. -1.
         -2   -1    0    0    0  501 -0.00000000000E+00 -0.00000000000E+00 -0.39401701879E+02  0.39401701879E+02  0.00000000000E+00 0.  1.
          5    1    1    2  502    0 -0.73798839521E+02 -0.10387604377E+01  0.64393331364E+02  0.98060893643E+02  0.47000000000E+01 0.  1.
         -5    1    1    2    0  502  0.30836054819E+02 -0.44280189830E+02  0.13461679436E+03  0.14510468225E+03  0.47000000000E+01 0.  1.
        -11    1    1    2    0    0  0.51907742866E+02  0.55413959359E+02  0.16226433922E+03  0.17915031801E+03  0.00000000000E+00 0. -1.
         11    1    1    2    0    0 -0.89449581637E+01 -0.10095009092E+02 -0.37598933961E+01  0.14002081398E+02  0.00000000000E+00 0.  1.
<mgrwt>
<rscale>  0 0.13173215E+03</rscale>
<asrwt>0</asrwt>
<pdfrwt beam="1">  1        2 0.61064039E-01 0.13972998E+03</pdfrwt>
<pdfrwt beam="2">  1       -2 0.60618006E-02 0.13972998E+03</pdfrwt>
<totfact> 0.11136382E+04</totfact>
</mgrwt>
</event>
<event>
 6    1  0.5818426E-006  0.1533705E+03  0.7546771E-02  0.1205157E+00
         -2   -1    0    0    0  501 -0.00000000000E+00  0.00000000000E+00  0.42845565128E+03  0.42845565128E+03  0.00000000000E+00 0.  1.
          2   -1    0    0  501    0  0.00000000000E+00 -0.00000000000E+00 -0.46049070776E+02  0.46049070776E+02  0.00000000000E+00 0. -1.
          5    1    1    2  502    0  0.29952704498E+02 -0.32255642028E+01  0.18370344670E+03  0.18621658116E+03  0.47000000000E+01 0. -1.
         -5    1    1    2    0  502  0.58766011761E+02 -0.16972727628E+01  0.83568121381E+01  0.59567198878E+02  0.47000000000E+01 0. -1.
        -11    1    1    2    0    0 -0.25215702592E+02 -0.14151225376E+02  0.14627319236E+03  0.14910377473E+03  0.00000000000E+00 0.  1.
         11    1    1    2    0    0 -0.63503013667E+02  0.19074062341E+02  0.44073129310E+02  0.79617167283E+02  0.00000000000E+00 0. -1.
<mgrwt>
<rscale>  0 0.14625053E+03</rscale>
<asrwt>0</asrwt>
<pdfrwt beam="2">  1        2 0.70844727E-02 0.15337054E+03</pdfrwt>
<pdfrwt beam="1">  1       -2 0.65916251E-01 0.15337054E+03</pdfrwt>
<totfact> 0.20922442E+03</totfact>
</mgrwt>
</event>
<event>
 6    1  0.5818426E-006  0.1968904E+03  0.7546771E-02  0.1157803E+00
         -4   -1    0    0    0  501 -0.00000000000E+00  0.00000000000E+00  0.12249611500E+03  0.12249611500E+03  0.00000000000E+00 0.  1.
          4   -1    0    0  501    0  0.00000000000E+00 -0.00000000000E+00 -0.29252815745E+03  0.29252815745E+03  0.00000000000E+00 0. -1.
          5    1    1    2  502    0  0.22201478710E+02 -0.37267856714E+01 -0.16322837246E+02  0.28201411385E+02  0.47000000000E+01 0. -1.
         -5    1    1    2    0  502 -0.16169481655E+03 -0.56961658177E+02 -0.30680017808E+02  0.17422169123E+03  0.47000000000E+01 0. -1.
        -11    1    1    2    0    0  0.51525184610E+02  0.66814525757E+02 -0.70566309050E+02  0.10999377016E+03  0.00000000000E+00 0.  1.
         11    1    1    2    0    0  0.87968153234E+02 -0.61260819078E+01 -0.52462878348E+02  0.10260739967E+03  0.00000000000E+00 0. -1.
<mgrwt>
<rscale>  0 0.19073160E+03</rscale>
<asrwt>0</asrwt>
<pdfrwt beam="2">  1        4 0.45004332E-01 0.19689044E+03</pdfrwt>
<pdfrwt beam="1">  1       -4 0.18845556E-01 0.19689044E+03</pdfrwt>
<totfact> 0.21411518E+02</totfact>
</mgrwt>
</event>
<event>
 6    1  0.5818426E-006  0.1390933E+03  0.7546771E-02  0.1225698E+00
          2   -1    0    0  501    0  0.00000000000E+00  0.00000000000E+00  0.15336525103E+03  0.15336525103E+03  0.00000000000E+00 0. -1.
         -2   -1    0    0    0  501 -0.00000000000E+00 -0.00000000000E+00 -0.15214809345E+03  0.15214809345E+03  0.00000000000E+00 0.  1.
          5    1    1    2  502    0  0.63021614689E+02 -0.17051758325E+02 -0.13615633549E+02  0.66857773348E+02  0.47000000000E+01 0. -1.
         -5    1    1    2    0  502 -0.47583244260E+02 -0.41979518745E+02 -0.73718346426E+02  0.97380335428E+02  0.47000000000E+01 0. -1.
        -11    1    1    2    0    0  0.73325308938E+01  0.41053106545E+02 -0.62187139864E+01  0.42163917868E+02  0.00000000000E+00 0.  1.
         11    1    1    2    0    0 -0.22770901323E+02  0.17978170525E+02  0.94769851544E+02  0.99111317841E+02  0.00000000000E+00 0. -1.
<mgrwt>
<rscale>  0 0.13119149E+03</rscale>
<asrwt>0</asrwt>
<pdfrwt beam="1">  1        2 0.23594654E-01 0.13909325E+03</pdfrwt>
<pdfrwt beam="2">  1       -2 0.23407399E-01 0.13909325E+03</pdfrwt>
<totfact> 0.35323815E+03</totfact>
</mgrwt>
</event>
<event>
 6    1  0.5818426E-006  0.1299348E+03  0.7546771E-02  0.1240716E+00
          1   -1    0    0  501    0  0.00000000000E+00  0.00000000000E+00  0.61182654578E+02  0.61182654578E+02  0.00000000000E+00 0. -1.
         -1   -1    0    0    0  501 -0.00000000000E+00 -0.00000000000E+00 -0.22857155491E+03  0.22857155491E+03  0.00000000000E+00 0.  1.
          5    1    1    2  502    0 -0.49989129621E+02 -0.54335653638E+02 -0.10815795908E+03  0.13104011007E+03  0.47000000000E+01 0.  1.
         -5    1    1    2    0  502  0.43650601377E+02  0.19354030074E+02 -0.21691645507E+02  0.52655208341E+02  0.47000000000E+01 0.  1.
        -11    1    1    2    0    0  0.45025222358E+02  0.37832339836E+02 -0.31765005132E+02  0.66839899289E+02  0.00000000000E+00 0.  1.
         11    1    1    2    0    0 -0.38686694114E+02 -0.28507162720E+01 -0.57742906201E+01  0.39218991788E+02  0.00000000000E+00 0. -1.
<mgrwt>
<rscale>  0 0.12145477E+03</rscale>
<asrwt>0</asrwt>
<pdfrwt beam="1">  1        1 0.94127163E-02 0.12993479E+03</pdfrwt>
<pdfrwt beam="2">  1       -1 0.35164854E-01 0.12993479E+03</pdfrwt>
<totfact> 0.51349045E+03</totfact>
</mgrwt>
</event>
<event>
 6    1  0.5818426E-006  0.1606240E+03  0.7546771E-02  0.1195559E+00
         -1   -1    0    0    0  501 -0.00000000000E+00  0.00000000000E+00  0.27847939477E+03  0.27847939477E+03  0.00000000000E+00 0.  1.
          1   -1    0    0  501    0  0.00000000000E+00 -0.00000000000E+00 -0.79144808554E+02  0.79144808554E+02  0.00000000000E+00 0. -1.
          5    1    1    2  502    0 -0.80830780915E+02 -0.87430432632E+02  0.59411128327E+02  0.13315204791E+03  0.47000000000E+01 0. -1.
         -5    1    1    2    0  502  0.38280104667E+02 -0.40238154989E+01  0.40187685595E+02  0.55845300411E+02  0.47000000000E+01 0. -1.
        -11    1    1    2    0    0  0.48725195083E+02  0.82366061892E+02  0.33358599269E+02  0.10134647963E+03  0.00000000000E+00 0. -1.
         11    1    1    2    0    0 -0.61745188358E+01  0.90881862389E+01  0.66377173022E+02  0.67280375374E+02  0.00000000000E+00 0.  1.
<mgrwt>
<rscale>  0 0.15407014E+03</rscale>
<asrwt>0</asrwt>
<pdfrwt beam="2">  1        1 0.12176125E-01 0.16062401E+03</pdfrwt>
<pdfrwt beam="1">  1       -1 0.42842983E-01 0.16062401E+03</pdfrwt>
<totfact> 0.26179101E+03</totfact>
</mgrwt>
</event>
<event>
 6    1  0.5818426E-006  0.2302059E+03  0.7546771E-02  0.1148733E+00
         -2   -1    0    0    0  501 -0.00000000000E+00  0.00000000000E+00  0.60644520465E+03  0.60644520465E+03  0.00000000000E+00 0.  1.
          2   -1    0    0  501    0  0.00000000000E+00 -0.00000000000E+00 -0.70754125166E+02  0.70754125166E+02  0.00000000000E+00 0. -1.
          5    1    1    2  502    0 -0.78829618429E+02 -0.11148424660E+03  0.16426268057E+03  0.21365196982E+03  0.47000000000E+01 0. -1.
         -5    1    1    2    0  502  0.63606243806E+01  0.43311024587E+02  0.31465979855E+03  0.31772500880E+03  0.47000000000E+01 0.  1.
        -11    1    1    2    0    0  0.77193645759E+02  0.19425519786E+02  0.55114169162E+02  0.96818290663E+02  0.00000000000E+00 0.  1.
         11    1    1    2    0    0 -0.47246517101E+01  0.48747702231E+02  0.16544312143E+01  0.49004060539E+02  0.00000000000E+00 0. -1.
<mgrwt>
<rscale>  0 0.20119693E+03</rscale>
<asrwt>0</asrwt>
<pdfrwt beam="2">  1        2 0.10885250E-01 0.23020589E+03</pdfrwt>
<pdfrwt beam="1">  1       -2 0.93299259E-01 0.23020589E+03</pdfrwt>
<totfact> 0.57878004E+02</totfact>
</mgrwt>
</event>
<event>
 6    1  0.5818426E-006  0.1593138E+03  0.7546771E-02  0.1196680E+00
          2   -1    0    0  501    0  0.00000000000E+00  0.00000000000E+00  0.19169360901E+03  0.19169360901E+03  0.00000000000E+00 0. -1.
         -2   -1    0    0    0  501 -0.00000000000E+00 -0.00000000000E+00 -0.11379318297E+03  0.11379318297E+03  0.00000000000E+00 0.  1.
          5    1    1    2  502    0 -0.88672988743E+02  0.18573678170E+02  0.59805844484E+02  0.10865868344E+03  0.47000000000E+01 0.  1.
         -5    1    1    2    0  502  0.15725583751E+02  0.48012900166E+02 -0.21640539097E+02  0.55162809021E+02  0.47000000000E+01 0.  1.
        -11    1    1    2    0    0  0.15094821370E+02 -0.94932710564E+01 -0.29781219264E+02  0.34711624110E+02  0.00000000000E+00 0.  1.
         11    1    1    2    0    0  0.57852583622E+02 -0.57093307279E+02  0.69516339911E+02  0.10695367540E+03  0.00000000000E+00 0. -1.
<mgrwt>
<rscale>  0 0.15312909E+03</rscale>
<asrwt>0</asrwt>
<pdfrwt beam="1">  1        2 0.29491324E-01 0.15931381E+03</pdfrwt>
<pdfrwt beam="2">  1       -2 0.17506644E-01 0.15931381E+03</pdfrwt>
<totfact> 0.45613146E+03</totfact>
</mgrwt>
</event>
<event>
 6    1  0.5818426E-006  0.3272715E+03  0.7546771E-02  0.1072351E+00
         -2   -1    0    0    0  501 -0.00000000000E+00  0.00000000000E+00  0.89395243003E+03  0.89395243003E+03  0.00000000000E+00 0. -1.
          2   -1    0    0  501    0  0.00000000000E+00 -0.00000000000E+00 -0.29953112903E+02  0.29953112903E+02  0.00000000000E+00 0.  1.
          5    1    1    2  502    0  0.14707524635E+02  0.13262023565E+03  0.49057902714E+03  0.50842335711E+03  0.47000000000E+01 0. -1.
         -5    1    1    2    0  502 -0.23622117225E+02 -0.22718769953E+02  0.12966370144E+03  0.13382418467E+03  0.47000000000E+01 0. -1.
        -11    1    1    2    0    0  0.43853217681E+02 -0.36464852090E+02  0.74009864485E+02  0.93435807805E+02  0.00000000000E+00 0.  1.
         11    1    1    2    0    0 -0.34938625091E+02 -0.73436613606E+02  0.16974672406E+03  0.18822219336E+03  0.00000000000E+00 0. -1.
<mgrwt>
<rscale>  0 0.32727150E+03</rscale>
<asrwt>0</asrwt>
<pdfrwt beam="2">  1        2 0.46081719E-02 0.32727150E+03</pdfrwt>
<pdfrwt beam="1">  1       -2 0.13753112E+00 0.32727150E+03</pdfrwt>
<totfact> 0.69701775E+02</totfact>
</mgrwt>
</event>
<event>
 6    1  0.5818426E-006  0.1526266E+03  0.7546771E-02  0.1206622E+00
         -2   -1    0    0    0  501 -0.00000000000E+00  0.00000000000E+00  0.28369168801E+03  0.28369168801E+03  0.00000000000E+00 0.  1.
          2   -1    0    0  501    0  0.00000000000E+00 -0.00000000000E+00 -0.67782193592E+02  0.67782193592E+02  0.00000000000E+00 0. -1.
          5    1    1    2  502    0 -0.13883300916E+02 -0.33686312706E+02 -0.14808019986E+02  0.39609104559E+02  0.47000000000E+01 0.  1.
         -5    1    1    2    0  502  0.69257016573E+02 -0.34161910265E+02  0.13128230972E+03  0.15238341545E+03  0.47000000000E+01 0.  1.
        -11    1    1    2    0    0 -0.72083108060E+02  0.64807260094E+02  0.10372132282E+03  0.14196502470E+03  0.00000000000E+00 0.  1.
         11    1    1    2    0    0  0.16709392403E+02  0.30409628769E+01 -0.42861181401E+01  0.17516336900E+02  0.00000000000E+00 0. -1.
<mgrwt>
<rscale>  0 0.14510361E+03</rscale>
<asrwt>0</asrwt>
<pdfrwt beam="2">  1        2 0.10428030E-01 0.15262656E+03</pdfrwt>
<pdfrwt beam="1">  1       -2 0.43644874E-01 0.15262656E+03</pdfrwt>
<totfact> 0.29569691E+03</totfact>
</mgrwt>
</event>
<event>
 6    1  0.5818426E-006  0.2445863E+03  0.7546771E-02  0.1116775E+00
         -2   -1    0    0    0  501 -0.00000000000E+00  0.00000000000E+00  0.36080306856E+02  0.36080306856E+02  0.00000000000E+00 0.  1.
          2   -1    0    0  501    0  0.00000000000E+00 -0.00000000000E+00 -0.41450917391E+03  0.41450917391E+03  0.00000000000E+00 0. -1.
          5    1    1    2  502    0  0.74359771922E+02 -0.32959313394E+02 -0.19557514304E+03  0.21186651127E+03  0.47000000000E+01 0.  1.
         -5    1    1    2    0  502 -0.21453504783E+02  0.33465595425E+02 -0.25206622204E+02  0.47303940085E+02  0.47000000000E+01 0.  1.
        -11    1    1    2    0    0 -0.21568168441E+02 -0.36755992861E+02 -0.22845326554E+02  0.48353881400E+02  0.00000000000E+00 0.  1.
         11    1    1    2    0    0 -0.31338098697E+02  0.36249710829E+02 -0.13480177526E+03  0.14306514802E+03  0.00000000000E+00 0. -1.
<mgrwt>
<rscale>  0 0.24458633E+03</rscale>
<asrwt>0</asrwt>
<pdfrwt beam="2">  1        2 0.63770646E-01 0.24458633E+03</pdfrwt>
<pdfrwt beam="1">  1       -2 0.55508161E-02 0.24458633E+03</pdfrwt>
<totfact> 0.12625150E+04</totfact>
</mgrwt>
</event>
<event>
 6    1  0.5818426E-006  0.1216106E+03  0.7546771E-02  0.1244010E+00
          1   -1    0    0  501    0  0.00000000000E+00  0.00000000000E+00  0.16290943184E+03  0.16290943184E+03  0.00000000000E+00 0. -1.
         -1   -1    0    0    0  501 -0.00000000000E+00 -0.00000000000E+00 -0.14521972171E+03  0.14521972171E+03  0.00000000000E+00 0.  1.
          5    1    1    2  502    0  0.37839060359E+02  0.51558299465E+02 -0.93402949912E+02  0.11329719231E+03  0.47000000000E+01 0. -1.
         -5    1    1    2    0  502  0.60493525936E+01 -0.37384847522E+02  0.29333279393E+01  0.38274219833E+02  0.47000000000E+01 0.  1.
        -11    1    1    2    0    0 -0.45461217870E+02 -0.55332346438E+02  0.62329129351E+02  0.94938460374E+02  0.00000000000E+00 0.  1.
         11    1    1    2    0    0  0.15728049178E+01  0.41158894494E+02  0.45830202749E+02  0.61619281035E+02  0.00000000000E+00 0. -1.
<mgrwt>
<rscale>  0 0.11944837E+03</rscale>
<asrwt>0</asrwt>
<pdfrwt beam="1">  1        1 0.25062990E-01 0.12161061E+03</pdfrwt>
<pdfrwt beam="2">  1       -1 0.22341496E-01 0.12161061E+03</pdfrwt>
<totfact> 0.30766964E+03</totfact>
</mgrwt>
</event>
<event>
 6    1  0.5818426E-006  0.1519996E+03  0.7546771E-02  0.1214923E+00
         -1   -1    0    0    0  501 -0.00000000000E+00  0.00000000000E+00  0.47397520900E+02  0.47397520900E+02  0.00000000000E+00 0.  1.
          1   -1    0    0  501    0  0.00000000000E+00 -0.00000000000E+00 -0.40693643659E+03  0.40693643659E+03  0.00000000000E+00 0. -1.
          5    1    1    2  502    0 -0.46822149411E+02  0.31876799024E+02 -0.13514410019E+03  0.14660989669E+03  0.47000000000E+01 0. -1.
         -5    1    1    2    0  502 -0.44420972332E+01 -0.47913230312E+02  0.11071158403E+02  0.49599096919E+02  0.47000000000E+01 0.  1.
        -11    1    1    2    0    0  0.72175381712E+02 -0.14698929352E+01 -0.20446880536E+03  0.21683850829E+03  0.00000000000E+00 0. -1.
         11    1    1    2    0    0 -0.20911135067E+02  0.17506324223E+02 -0.30997168534E+02  0.41286455585E+02  0.00000000000E+00 0.  1.
<mgrwt>
<rscale>  0 0.13882183E+03</rscale>
<asrwt>0</asrwt>
<pdfrwt beam="2">  1        1 0.62605606E-01 0.15199959E+03</pdfrwt>
<pdfrwt beam="1">  1       -1 0.72919263E-02 0.15199959E+03</pdfrwt>
<totfact> 0.56792748E+03</totfact>
</mgrwt>
</event>
<event>
 6    1  0.5818426E-006  0.1291045E+03  0.7546771E-02  0.1242791E+00
          2   -1    0    0  501    0  0.00000000000E+00  0.00000000000E+00  0.93847455062E+02  0.93847455062E+02  0.00000000000E+00 0.  1.
         -2   -1    0    0    0  501 -0.00000000000E+00 -0.00000000000E+00 -0.17911352968E+03  0.17911352968E+03  0.00000000000E+00 0. -1.
          5    1    1    2  502    0  0.53096309896E+02  0.64038387147E+01 -0.12698412595E+03  0.13786691234E+03  0.47000000000E+01 0.  1.
         -5    1    1    2    0  502 -0.27803019977E+02  0.13678716780E+02  0.13405459645E+02  0.34086823860E+02  0.47000000000E+01 0.  1.
        -11    1    1    2    0    0 -0.32695104841E+02  0.79064289667E-01 -0.26532755686E+02  0.42106570224E+02  0.00000000000E+00 0. -1.
         11    1    1    2    0    0  0.74018149215E+01 -0.20161619785E+02  0.54845347379E+02  0.58900678312E+02  0.00000000000E+00 0.  1.
<mgrwt>
<rscale>  0 0.12018548E+03</rscale>
<asrwt>0</asrwt>
<pdfrwt beam="1">  1        2 0.14438070E-01 0.12910451E+03</pdfrwt>
<pdfrwt beam="2">  1       -2 0.27555928E-01 0.12910451E+03</pdfrwt>
<totfact> 0.46303889E+03</totfact>
</mgrwt>
</event>
<event>
 6    1  0.5818426E-006  0.1359892E+03  0.7546771E-02  0.1230418E+00
         -1   -1    0    0    0  501 -0.00000000000E+00  0.00000000000E+00  0.37765386277E+03  0.37765386277E+03  0.00000000000E+00 0.  1.
          1   -1    0    0  501    0  0.00000000000E+00 -0.00000000000E+00 -0.39990316575E+02  0.39990316575E+02  0.00000000000E+00 0. -1.
          5    1    1    2  502    0 -0.29244484041E+02  0.62077719317E+02  0.22939490502E+03  0.23948485449E+03  0.47000000000E+01 0.  1.
         -5    1    1    2    0  502  0.13375601295E+02 -0.10887712316E+02 -0.85935869932E+01  0.19834029517E+02  0.47000000000E+01 0.  1.
        -11    1    1    2    0    0  0.32499592327E+02 -0.54010270102E+02  0.29943658095E+02  0.69785066010E+02  0.00000000000E+00 0. -1.
         11    1    1    2    0    0 -0.16630709581E+02  0.28202631015E+01  0.86918570073E+02  0.88540229324E+02  0.00000000000E+00 0.  1.
<mgrwt>
<rscale>  0 0.12802346E+03</rscale>
<asrwt>0</asrwt>
<pdfrwt beam="2">  1        1 0.61523566E-02 0.13598920E+03</pdfrwt>
<pdfrwt beam="1">  1       -1 0.58100592E-01 0.13598920E+03</pdfrwt>
<totfact> 0.37052843E+03</totfact>
</mgrwt>
</event>
<event>
 6    1  0.5818426E-006  0.1604721E+03  0.7546771E-02  0.1195123E+00
         -1   -1    0    0    0  501 -0.00000000000E+00  0.00000000000E+00  0.51187534753E+03  0.51187534753E+03  0.00000000000E+00 0.  1.
          1   -1    0    0  501    0  0.00000000000E+00 -0.00000000000E+00 -0.87829528074E+02  0.87829528074E+02  0.00000000000E+00 0. -1.
          5    1    1    2  502    0  0.25162845826E+01  0.88913874957E+02  0.17686668934E+03  0.19803011045E+03  0.47000000000E+01 0.  1.
         -5    1    1    2    0  502 -0.62249098259E+02 -0.79325912591E+01  0.25610434004E+03  0.26372220086E+03  0.47000000000E+01 0.  1.
        -11    1    1    2    0    0 -0.21939182868E+02 -0.41114809509E+02 -0.63568772362E+01  0.47033660224E+02  0.00000000000E+00 0.  1.
         11    1    1    2    0    0  0.81671996544E+02 -0.39866474189E+02 -0.25683326917E+01  0.90918904066E+02  0.00000000000E+00 0. -1.
<mgrwt>
<rscale>  0 0.15443805E+03</rscale>
<asrwt>0</asrwt>
<pdfrwt beam="2">  1        1 0.13512235E-01 0.16047207E+03</pdfrwt>
<pdfrwt beam="1">  1       -1 0.78750052E-01 0.16047207E+03</pdfrwt>
<totfact> 0.71839473E+02</totfact>
</mgrwt>
</event>
<event>
 6    1  0.5818426E-006  0.1724398E+03  0.7546771E-02  0.1193733E+00
         -1   -1    0    0    0  501 -0.00000000000E+00  0.00000000000E+00  0.16341490907E+03  0.16341490907E+03  0.00000000000E+00 0.  1.
          1   -1    0    0  501    0  0.00000000000E+00 -0.00000000000E+00 -0.13075823237E+03  0.13075823237E+03  0.00000000000E+00 0. -1.
          5    1    1    2  502    0  0.39739150510E+02 -0.50614902219E+02  0.28969843596E+02  0.70727719091E+02  0.47000000000E+01 0. -1.
         -5    1    1    2    0  502 -0.10532502415E+03  0.15261483867E+02  0.18462823678E+02  0.10811678621E+03  0.47000000000E+01 0.  1.
        -11    1    1    2    0    0  0.10463328877E+01  0.39095545033E+02  0.17762104122E+02  0.42954031205E+02  0.00000000000E+00 0.  1.
         11    1    1    2    0    0  0.64539540756E+02 -0.37421266803E+01 -0.32538094689E+02  0.72374604932E+02  0.00000000000E+00 0. -1.
<mgrwt>
<rscale>  0 0.15561949E+03</rscale>
<asrwt>0</asrwt>
<pdfrwt beam="2">  1        1 0.20116651E-01 0.17243984E+03</pdfrwt>
<pdfrwt beam="1">  1       -1 0.25140755E-01 0.17243984E+03</pdfrwt>
<totfact> 0.34079634E+03</totfact>
</mgrwt>
</event>
<event>
 6    1  0.5818426E-006  0.1532604E+03  0.7546771E-02  0.1204218E+00
          2   -1    0    0  501    0  0.00000000000E+00  0.00000000000E+00  0.63019850869E+03  0.63019850869E+03  0.00000000000E+00 0. -1.
         -2   -1    0    0    0  501 -0.00000000000E+00 -0.00000000000E+00 -0.32771013911E+02  0.32771013911E+02  0.00000000000E+00 0.  1.
          5    1    1    2  502    0  0.16930641511E+01  0.33639844330E+02  0.99028771937E+02  0.10470574609E+03  0.47000000000E+01 0. -1.
         -5    1    1    2    0  502  0.61106443683E+02 -0.96251262407E+02  0.16575200134E+03  0.20123150579E+03  0.47000000000E+01 0. -1.
        -11    1    1    2    0    0 -0.46160188502E+02  0.85806765265E+02  0.28803964132E+03  0.30407301581E+03  0.00000000000E+00 0. -1.
         11    1    1    2    0    0 -0.16639319332E+02 -0.23195347188E+02  0.44607080183E+02  0.52959254918E+02  0.00000000000E+00 0.  1.
<mgrwt>
<rscale>  0 0.14699240E+03</rscale>
<asrwt>0</asrwt>
<pdfrwt beam="1">  1        2 0.96953608E-01 0.15326038E+03</pdfrwt>
<pdfrwt beam="2">  1       -2 0.50416949E-02 0.15326038E+03</pdfrwt>
<totfact> 0.88829910E+03</totfact>
</mgrwt>
</event>
<event>
 6    1  0.5818426E-006  0.1444078E+03  0.7546771E-02  0.1217579E+00
          2   -1    0    0  501    0  0.00000000000E+00  0.00000000000E+00  0.24982828370E+03  0.24982828370E+03  0.00000000000E+00 0. -1.
         -2   -1    0    0    0  501 -0.00000000000E+00 -0.00000000000E+00 -0.69407128756E+02  0.69407128756E+02  0.00000000000E+00 0.  1.
          5    1    1    2  502    0  0.21946070683E+02 -0.68840640839E+02  0.35084324668E+02  0.80459080824E+02  0.47000000000E+01 0.  1.
         -5    1    1    2    0  502  0.48528503942E+02  0.52710676429E+02  0.43380187450E+02  0.83888984782E+02  0.47000000000E+01 0.  1.
        -11    1    1    2    0    0 -0.91138799017E+02  0.88199120044E+01  0.94873043065E+02  0.13185206041E+03  0.00000000000E+00 0. -1.
         11    1    1    2    0    0  0.20664224392E+02  0.73100524050E+01  0.70835997617E+01  0.23035286442E+02  0.00000000000E+00 0.  1.
<mgrwt>
<rscale>  0 0.13688791E+03</rscale>
<asrwt>0</asrwt>
<pdfrwt beam="1">  1        2 0.38435120E-01 0.14440778E+03</pdfrwt>
<pdfrwt beam="2">  1       -2 0.10678020E-01 0.14440778E+03</pdfrwt>
<totfact> 0.76024790E+03</totfact>
</mgrwt>
</event>
<event>
 6    1  0.5818426E-006  0.1317055E+03  0.7546771E-02  0.1239923E+00
          1   -1    0    0  501    0  0.00000000000E+00  0.00000000000E+00  0.19882808776E+03  0.19882808776E+03  0.00000000000E+00 0. -1.
         -1   -1    0    0    0  501 -0.00000000000E+00 -0.00000000000E+00 -0.65845596818E+02  0.65845596818E+02  0.00000000000E+00 0.  1.
          5    1    1    2  502    0  0.39198840311E+02 -0.27799137378E+02  0.31278476207E+01  0.48386098742E+02  0.47000000000E+01 0. -1.
         -5    1    1    2    0  502 -0.31434539694E+02  0.68503975014E+02  0.66330979011E+02  0.10051275369E+03  0.47000000000E+01 0. -1.
        -11    1    1    2    0    0 -0.22093609847E+02 -0.60622163756E+01 -0.15941290942E+02  0.27910621999E+02  0.00000000000E+00 0.  1.
         11    1    1    2    0    0  0.14329309230E+02 -0.34642621260E+02  0.79464955248E+02  0.87864210139E+02  0.00000000000E+00 0. -1.
<mgrwt>
<rscale>  0 0.12194445E+03</rscale>
<asrwt>0</asrwt>
<pdfrwt beam="1">  1        1 0.30588936E-01 0.13170550E+03</pdfrwt>
<pdfrwt beam="2">  1       -1 0.10130092E-01 0.13170550E+03</pdfrwt>
<totfact> 0.83326991E+03</totfact>
</mgrwt>
</event>
<event>
 6    1  0.5818426E-006  0.1221831E+03  0.7546771E-02  0.1253098E+00
          1   -1    0    0  501    0  0.00000000000E+00  0.00000000000E+00  0.11026507481E+03  0.11026507481E+03  0.00000000000E+00 0. -1.
         -1   -1    0    0    0  501 -0.00000000000E+00 -0.00000000000E+00 -0.17001635223E+03  0.17001635223E+03  0.00000000000E+00 0.  1.
          5    1    1    2  502    0 -0.55855170588E+02  0.26659780992E+02 -0.52951279607E+02  0.81587204977E+02  0.47000000000E+01 0. -1.
         -5    1    1    2    0  502  0.58231473062E+02 -0.11994173008E+02 -0.65582457321E+02  0.88644872098E+02  0.47000000000E+01 0.  1.
        -11    1    1    2    0    0 -0.28761904212E+02  0.25785159274E+02  0.70300115677E+01  0.39262483815E+02  0.00000000000E+00 0. -1.
         11    1    1    2    0    0  0.26385601738E+02 -0.40450767258E+02  0.51752447945E+02  0.70786866149E+02  0.00000000000E+00 0.  1.
<mgrwt>
<rscale>  0 0.11413525E+03</rscale>
<asrwt>0</asrwt>
<pdfrwt beam="1">  1        1 0.16963858E-01 0.12218311E+03</pdfrwt>
<pdfrwt beam="2">  1       -1 0.26156362E-01 0.12218311E+03</pdfrwt>
<totfact> 0.38983355E+03</totfact>
</mgrwt>
</event>
<event>
 6    1  0.5818426E-006  0.4290440E+03  0.7546771E-02  0.1034162E+00
          1   -1    0    0  501    0  0.00000000000E+00  0.00000000000E+00  0.26241886595E+03  0.26241886595E+03  0.00000000000E+00 0. -1.
         -1   -1    0    0    0  501 -0.00000000000E+00 -0.00000000000E+00 -0.17536732683E+03  0.17536732683E+03  0.00000000000E+00 0.  1.
          5    1    1    2  502    0 -0.13039988875E+02 -0.16911876666E+02 -0.25662048911E+02  0.33714739158E+02  0.47000000000E+01 0. -1.
         -5    1    1    2    0  502 -0.18606001004E+02  0.16882820640E+03 -0.23593496303E+02  0.17154559049E+03  0.47000000000E+01 0. -1.
        -11    1    1    2    0    0  0.56394660558E+02 -0.11233160132E+03  0.13688289383E+03  0.18583775993E+03  0.00000000000E+00 0. -1.
         11    1    1    2    0    0 -0.24748670679E+02 -0.39584728417E+02 -0.57580948842E+00  0.46688103204E+02  0.00000000000E+00 0.  1.
<mgrwt>
<rscale>  0 0.42904403E+03</rscale>
<asrwt>0</asrwt>
<pdfrwt beam="1">  1        1 0.40372133E-01 0.42904403E+03</pdfrwt>
<pdfrwt beam="2">  1       -1 0.26979589E-01 0.42904403E+03</pdfrwt>
<totfact> 0.12777782E+03</totfact>
</mgrwt>
</event>
<event>
 6    1  0.5818426E-006  0.1520492E+03  0.7546771E-02  0.1206668E+00
          1   -1    0    0  501    0  0.00000000000E+00  0.00000000000E+00  0.61210664509E+03  0.61210664509E+03  0.00000000000E+00 0. -1.
         -1   -1    0    0    0  501 -0.00000000000E+00 -0.00000000000E+00 -0.32312233080E+02  0.32312233080E+02  0.00000000000E+00 0.  1.
          5    1    1    2  502    0 -0.39541891148E+02  0.38376973996E+02  0.36060608054E+02  0.66021290066E+02  0.47000000000E+01 0. -1.
         -5    1    1    2    0  502  0.50452139425E+02  0.47488234321E+02  0.23187417997E+03  0.24205015205E+03  0.47000000000E+01 0. -1.
        -11    1    1    2    0    0  0.39044525407E+02 -0.25721164988E+02  0.96381497007E+02  0.10712350936E+03  0.00000000000E+00 0. -1.
         11    1    1    2    0    0 -0.49954773684E+02 -0.60144043329E+02  0.21547812698E+03  0.22922392669E+03  0.00000000000E+00 0.  1.
<mgrwt>
<rscale>  0 0.14506782E+03</rscale>
<asrwt>0</asrwt>
<pdfrwt beam="1">  1        1 0.94170245E-01 0.15204921E+03</pdfrwt>
<pdfrwt beam="2">  1       -1 0.49711132E-02 0.15204921E+03</pdfrwt>
<totfact> 0.58903780E+03</totfact>
</mgrwt>
</event>
<event>
 6    1  0.5818426E-006  0.1562526E+03  0.7546771E-02  0.1200376E+00
          2   -1    0    0  501    0  0.00000000000E+00  0.00000000000E+00  0.21113382324E+03  0.21113382324E+03  0.00000000000E+00 0. -1.
         -2   -1    0    0    0  501 -0.00000000000E+00 -0.00000000000E+00 -0.10563222568E+03  0.10563222568E+03  0.00000000000E+00 0.  1.
          5    1    1    2  502    0  0.36384344359E+02  0.14263779455E+02 -0.29268970412E+02  0.49051386807E+02  0.47000000000E+01 0. -1.
         -5    1    1    2    0  502  0.73225289959E+01 -0.97215324601E+02  0.46605227086E+02  0.10815995544E+03  0.47000000000E+01 0. -1.
        -11    1    1    2    0    0  0.24575556419E+02  0.45794024586E+01  0.30050919715E+01  0.25178551943E+02  0.00000000000E+00 0. -1.
         11    1    1    2    0    0 -0.68282429774E+02  0.78372142687E+02  0.85160248918E+02  0.13437615473E+03  0.00000000000E+00 0.  1.
<mgrwt>
<rscale>  0 0.15007891E+03</rscale>
<asrwt>0</asrwt>
<pdfrwt beam="1">  1        2 0.32482127E-01 0.15625255E+03</pdfrwt>
<pdfrwt beam="2">  1       -2 0.16251112E-01 0.15625255E+03</pdfrwt>
<totfact> 0.46428109E+03</totfact>
</mgrwt>
</event>
<event>
 6    1  0.5818426E-006  0.1388114E+03  0.7546771E-02  0.1225710E+00
          1   -1    0    0  501    0  0.00000000000E+00  0.00000000000E+00  0.17549202809E+03  0.17549202809E+03  0.00000000000E+00 0. -1.
         -1   -1    0    0    0  501 -0.00000000000E+00 -0.00000000000E+00 -0.10828801302E+03  0.10828801302E+03  0.00000000000E+00 0.  1.
          5    1    1    2  502    0 -0.16619576415E+02  0.43103372321E+02 -0.20030424203E+02  0.50570929588E+02  0.47000000000E+01 0.  1.
         -5    1    1    2    0  502  0.76869524248E+02 -0.46816019089E+02 -0.32943944460E+01  0.90186509169E+02  0.47000000000E+01 0.  1.
        -11    1    1    2    0    0 -0.21346904573E+02 -0.43404316827E+02  0.29460918124E+02  0.56635419579E+02  0.00000000000E+00 0.  1.
         11    1    1    2    0    0 -0.38903043260E+02  0.47116963596E+02  0.61067915596E+02  0.86387182779E+02  0.00000000000E+00 0. -1.
<mgrwt>
<rscale>  0 0.13118379E+03</rscale>
<asrwt>0</asrwt>
<pdfrwt beam="1">  1        1 0.26998774E-01 0.13881142E+03</pdfrwt>
<pdfrwt beam="2">  1       -1 0.16659694E-01 0.13881142E+03</pdfrwt>
<totfact> 0.45140826E+03</totfact>
</mgrwt>
</event>
<event>
 6    1  0.5818426E-006  0.2955409E+03  0.7546771E-02  0.1089145E+00
         -1   -1    0    0    0  501 -0.00000000000E+00  0.00000000000E+00  0.13209919786E+03  0.13209919786E+03  0.00000000000E+00 0.  1.
          1   -1    0    0  501    0  0.00000000000E+00 -0.00000000000E+00 -0.91811964771E+03  0.91811964771E+03  0.00000000000E+00 0. -1.
          5    1    1    2  502    0  0.35064419408E+02  0.48079989524E+02 -0.85912507249E+02  0.10461475901E+03  0.47000000000E+01 0. -1.
         -5    1    1    2    0  502  0.13655991889E+03  0.15748717582E+03 -0.20528962198E+02  0.20950978565E+03  0.47000000000E+01 0. -1.
        -11    1    1    2    0    0 -0.14722007979E+03 -0.14607865931E+03 -0.41660471264E+03  0.46537319776E+03  0.00000000000E+00 0.  1.
         11    1    1    2    0    0 -0.24404258501E+02 -0.59488506035E+02 -0.26297426777E+03  0.27072110315E+03  0.00000000000E+00 0. -1.
<mgrwt>
<rscale>  0 0.29231721E+03</rscale>
<asrwt>0</asrwt>
<pdfrwt beam="2">  1        1 0.14124917E+00 0.29554093E+03</pdfrwt>
<pdfrwt beam="1">  1       -1 0.20322954E-01 0.29554093E+03</pdfrwt>
<totfact> 0.36442906E+02</totfact>
</mgrwt>
</event>
<event>
 6    1  0.5818426E-006  0.1362532E+03  0.7546771E-02  0.1231498E+00
          1   -1    0    0  501    0  0.00000000000E+00  0.00000000000E+00  0.16821493574E+03  0.16821493574E+03  0.00000000000E+00 0. -1.
         -1   -1    0    0    0  501 -0.00000000000E+00 -0.00000000000E+00 -0.85688348679E+02  0.85688348679E+02  0.00000000000E+00 0.  1.
          5    1    1    2  502    0 -0.43303633807E+02 -0.41145392361E+01  0.11709008071E+02  0.45291555549E+02  0.47000000000E+01 0. -1.
         -5    1    1    2    0  502  0.82036059960E+02  0.42068391920E+02  0.35637502510E+02  0.98953455310E+02  0.47000000000E+01 0. -1.
        -11    1    1    2    0    0  0.20407998891E+01 -0.26226077647E+02 -0.24824789572E+02  0.36169630772E+02  0.00000000000E+00 0.  1.
         11    1    1    2    0    0 -0.40773226042E+02 -0.11727775037E+02  0.60004866054E+02  0.73488642792E+02  0.00000000000E+00 0. -1.
<mgrwt>
<rscale>  0 0.12731339E+03</rscale>
<asrwt>0</asrwt>
<pdfrwt beam="1">  1        1 0.25879221E-01 0.13625319E+03</pdfrwt>
<pdfrwt beam="2">  1       -1 0.13182823E-01 0.13625319E+03</pdfrwt>
<totfact> 0.68601069E+03</totfact>
</mgrwt>
</event>
<event>
 6    1  0.5818426E-006  0.1271992E+03  0.7546771E-02  0.1246230E+00
          1   -1    0    0  501    0  0.00000000000E+00  0.00000000000E+00  0.93416022436E+02  0.93416022436E+02  0.00000000000E+00 0. -1.
         -1   -1    0    0    0  501 -0.00000000000E+00 -0.00000000000E+00 -0.13458275642E+03  0.13458275642E+03  0.00000000000E+00 0.  1.
          5    1    1    2  502    0  0.14721975771E+02  0.53152966581E+02 -0.35743739261E+02  0.65891420711E+02  0.47000000000E+01 0.  1.
         -5    1    1    2    0  502  0.43215756217E+01 -0.67059970260E+02 -0.44623177232E+01  0.67510872506E+02  0.47000000000E+01 0.  1.
        -11    1    1    2    0    0 -0.45515378342E+02  0.25591780915E+02  0.22971202553E+02  0.57046166066E+02  0.00000000000E+00 0. -1.
         11    1    1    2    0    0  0.26471826949E+02 -0.11684777237E+02 -0.23931879552E+02  0.37550319572E+02  0.00000000000E+00 0.  1.
<mgrwt>
<rscale>  0 0.11812084E+03</rscale>
<asrwt>0</asrwt>
<pdfrwt beam="1">  1        1 0.14371696E-01 0.12719923E+03</pdfrwt>
<pdfrwt beam="2">  1       -1 0.20705039E-01 0.12719923E+03</pdfrwt>
<totfact> 0.70782889E+03</totfact>
</mgrwt>
</event>
<event>
 6    1  0.5818426E-006  0.1759806E+03  0.7546771E-02  0.1177498E+00
          2   -1    0    0  501    0  0.00000000000E+00  0.00000000000E+00  0.70002475819E+03  0.70002475819E+03  0.00000000000E+00 0. -1.
         -2   -1    0    0    0  501 -0.00000000000E+00 -0.00000000000E+00 -0.42644680774E+02  0.42644680774E+02  0.00000000000E+00 0.  1.
          5    1    1    2  502    0  0.21406620172E+02 -0.62661643322E+02  0.10917378035E+03  0.12777217712E+03  0.47000000000E+01 0.  1.
         -5    1    1    2    0  502 -0.10406407467E+03 -0.29576923592E+02  0.13068646970E+03  0.16972085731E+03  0.47000000000E+01 0.  1.
        -11    1    1    2    0    0  0.70317101069E+02  0.62154184376E+02  0.39405657239E+03  0.40507804134E+03  0.00000000000E+00 0. -1.
         11    1    1    2    0    0  0.12340353429E+02  0.30084382537E+02  0.23463254987E+02  0.40098363183E+02  0.00000000000E+00 0.  1.
<mgrwt>
<rscale>  0 0.17033567E+03</rscale>
<asrwt>0</asrwt>
<pdfrwt beam="1">  1        2 0.10769611E+00 0.17598058E+03</pdfrwt>
<pdfrwt beam="2">  1       -2 0.65607206E-02 0.17598058E+03</pdfrwt>
<totfact> 0.52964437E+03</totfact>
</mgrwt>
</event>
<event>
 6    1  0.5818426E-006  0.1346840E+03  0.7546771E-02  0.1230414E+00
          2   -1    0    0  501    0  0.00000000000E+00  0.00000000000E+00  0.23927251909E+03  0.23927251909E+03  0.00000000000E+00 0.  1.
         -2   -1    0    0    0  501 -0.00000000000E+00 -0.00000000000E+00 -0.63161071439E+02  0.63161071439E+02  0.00000000000E+00 0. -1.
          5    1    1    2  502    0  0.47928123503E+02 -0.39902216841E+02  0.49701117792E+02  0.79884811079E+02  0.47000000000E+01 0.  1.
         -5    1    1    2    0  502 -0.70438160673E+02 -0.49028723889E+01  0.32200664870E+02  0.77746674879E+02  0.47000000000E+01 0.  1.
        -11    1    1    2    0    0  0.11782836292E+02  0.37133052359E+02  0.11430729625E+03  0.12076364016E+03  0.00000000000E+00 0.  1.
         11    1    1    2    0    0  0.10727200879E+02  0.76720368713E+01 -0.20097631267E+02  0.24038464406E+02  0.00000000000E+00 0. -1.
<mgrwt>
<rscale>  0 0.12802658E+03</rscale>
<asrwt>0</asrwt>
<pdfrwt beam="1">  1        2 0.36811156E-01 0.13468401E+03</pdfrwt>
<pdfrwt beam="2">  1       -2 0.97170880E-02 0.13468401E+03</pdfrwt>
<totfact> 0.91905555E+03</totfact>
</mgrwt>
</event>
<event>
 6    1  0.5818426E-006  0.3158956E+03  0.7546771E-02  0.1182283E+00
          2   -1    0    0  501    0  0.00000000000E+00  0.00000000000E+00  0.12633925671E+03  0.12633925671E+03  0.00000000000E+00 0. -1.
         -2   -1    0    0    0  501 -0.00000000000E+00 -0.00000000000E+00 -0.27073260281E+03  0.27073260281E+03  0.00000000000E+00 0.  1.
          5    1    1    2  502    0  0.99781479139E+02  0.75118160928E+02  0.24060024691E+02  0.12727944244E+03  0.47000000000E+01 0. -1.
         -5    1    1    2    0  502 -0.83581075326E+02 -0.91940765038E+02 -0.19672055796E+03  0.23272294333E+03  0.47000000000E+01 0.  1.
        -11    1    1    2    0    0 -0.11099179558E+02  0.76912896453E+01  0.15208793972E+02  0.20338513647E+02  0.00000000000E+00 0.  1.
         11    1    1    2    0    0 -0.51012242549E+01  0.91313144646E+01  0.13058393198E+02  0.16730960094E+02  0.00000000000E+00 0. -1.
<mgrwt>
<rscale>  0 0.16581613E+03</rscale>
<asrwt>0</asrwt>
<pdfrwt beam="1">  1        2 0.19436809E-01 0.31589564E+03</pdfrwt>
<pdfrwt beam="2">  1       -2 0.41651169E-01 0.31589564E+03</pdfrwt>
<totfact> 0.15850304E+03</totfact>
</mgrwt>
</event>
<event>
 6    1  0.5818426E-006  0.1232494E+03  0.7546771E-02  0.1250666E+00
         -1   -1    0    0    0  501 -0.00000000000E+00  0.00000000000E+00  0.40953459596E+03  0.40953459596E+03  0.00000000000E+00 0.  1.
          1   -1    0    0  501    0  0.00000000000E+00 -0.00000000000E+00 -0.44121616984E+02  0.44121616984E+02  0.00000000000E+00 0. -1.
          5    1    1    2  502    0 -0.37031168259E+02 -0.35801397840E+02  0.73933720053E+02  0.90229332652E+02  0.47000000000E+01 0. -1.
         -5    1    1    2    0  502  0.17100241916E+02  0.52750310561E+02  0.25585292662E+03  0.26183548957E+03  0.47000000000E+01 0.  1.
        -11    1    1    2    0    0  0.42212213856E+02  0.81302360118E+01 -0.10789539351E+02  0.44321393205E+02  0.00000000000E+00 0. -1.
         11    1    1    2    0    0 -0.22281287514E+02 -0.25079148732E+02  0.46415871656E+02  0.57269997520E+02  0.00000000000E+00 0.  1.
<mgrwt>
<rscale>  0 0.11552582E+03</rscale>
<asrwt>0</asrwt>
<pdfrwt beam="2">  1        1 0.67879414E-02 0.12324937E+03</pdfrwt>
<pdfrwt beam="1">  1       -1 0.63005320E-01 0.12324937E+03</pdfrwt>
<totfact> 0.27649793E+03</totfact>
</mgrwt>
</event>
<event>
 6    1  0.5818426E-006  0.1271130E+03  0.7546771E-02  0.1239346E+00
          3   -1    0    0  501    0  0.00000000000E+00  0.00000000000E+00  0.33430275042E+02  0.33430275042E+02  0.00000000000E+00 0. -1.
         -3   -1    0    0    0  501 -0.00000000000E+00 -0.00000000000E+00 -0.57089285636E+03  0.57089285636E+03  0.00000000000E+00 0.  1.
          5    1    1    2  502    0  0.51016453785E+02  0.10984717347E+02 -0.12222439758E+03  0.13298208877E+03  0.47000000000E+01 0. -1.
         -5    1    1    2    0  502 -0.24515576570E+02 -0.63417794883E+02 -0.31831056705E+03  0.32552501793E+03  0.47000000000E+01 0.  1.
        -11    1    1    2    0    0 -0.52743415734E+02  0.11374225190E+02 -0.26338801345E+02  0.60041430348E+02  0.00000000000E+00 0.  1.
         11    1    1    2    0    0  0.26242538520E+02  0.41058852346E+02 -0.70588815345E+02  0.85774594349E+02  0.00000000000E+00 0. -1.
<mgrwt>
<rscale>  0 0.12230288E+03</rscale>
<asrwt>0</asrwt>
<pdfrwt beam="1">  1        3 0.51431191E-02 0.12711299E+03</pdfrwt>
<pdfrwt beam="2">  1       -3 0.87829672E-01 0.12711299E+03</pdfrwt>
<totfact> 0.60640491E+02</totfact>
</mgrwt>
</event>
<event>
 6    1  0.5818426E-006  0.1372938E+03  0.7546771E-02  0.1228568E+00
         -1   -1    0    0    0  501 -0.00000000000E+00  0.00000000000E+00  0.22294307899E+02  0.22294307899E+02  0.00000000000E+00 0.  1.
          1   -1    0    0  501    0  0.00000000000E+00 -0.00000000000E+00 -0.67454093301E+03  0.67454093301E+03  0.00000000000E+00 0. -1.
          5    1    1    2  502    0  0.57347416776E+02  0.34544264543E+02 -0.29022497689E+03  0.29788363439E+03  0.47000000000E+01 0.  1.
         -5    1    1    2    0  502 -0.51272239541E+02  0.21903354466E+02 -0.85901899668E+02  0.10251744169E+03  0.47000000000E+01 0.  1.
        -11    1    1    2    0    0 -0.36634211563E+02 -0.45899344673E+02 -0.24360217252E+03  0.25058099240E+03  0.00000000000E+00 0.  1.
         11    1    1    2    0    0  0.30559034329E+02 -0.10548274337E+02 -0.32517576033E+02  0.45853172428E+02  0.00000000000E+00 0. -1.
<mgrwt>
<rscale>  0 0.12925306E+03</rscale>
<asrwt>0</asrwt>
<pdfrwt beam="2">  1        1 0.10377551E+00 0.13729383E+03</pdfrwt>
<pdfrwt beam="1">  1       -1 0.34298941E-02 0.13729383E+03</pdfrwt>
<totfact> 0.88348004E+03</totfact>
</mgrwt>
</event>
<event>
 6    1  0.5818426E-006  0.2374581E+03  0.7546771E-02  0.1124269E+00
         -2   -1    0    0    0  501 -0.00000000000E+00  0.00000000000E+00  0.79439350526E+03  0.79439350526E+03  0.00000000000E+00 0. -1.
          2   -1    0    0  501    0  0.00000000000E+00 -0.00000000000E+00 -0.84884656008E+02  0.84884656008E+02  0.00000000000E+00 0.  1.
          5    1    1    2  502    0  0.37739162068E+01 -0.20636001879E+03  0.52854105479E+03  0.56742967529E+03  0.47000000000E+01 0.  1.
         -5    1    1    2    0  502 -0.26989919246E+02  0.58036450429E+01  0.41212055298E+02  0.49826313716E+02  0.47000000000E+01 0.  1.
        -11    1    1    2    0    0 -0.23000437348E+02  0.79115349626E+02  0.92215086306E+02  0.12366034452E+03  0.00000000000E+00 0.  1.
         11    1    1    2    0    0  0.46216440387E+02  0.12144102412E+03  0.47540652851E+02  0.13836182774E+03  0.00000000000E+00 0. -1.
<mgrwt>
<rscale>  0 0.23340057E+03</rscale>
<asrwt>0</asrwt>
<pdfrwt beam="2">  1        2 0.13059178E-01 0.23745810E+03</pdfrwt>
<pdfrwt beam="1">  1       -2 0.12221438E+00 0.23745810E+03</pdfrwt>
<totfact> 0.24507620E+02</totfact>
</mgrwt>
</event>
<event>
 6    1  0.5818426E-006  0.1272814E+03  0.7546771E-02  0.1245602E+00
         -2   -1    0    0    0  501 -0.00000000000E+00  0.00000000000E+00  0.75112514952E+02  0.75112514952E+02  0.00000000000E+00 0.  1.
          2   -1    0    0  501    0  0.00000000000E+00 -0.00000000000E+00 -0.17157126140E+03  0.17157126140E+03  0.00000000000E+00 0. -1.
          5    1    1    2  502    0  0.51768521659E+02  0.11059211823E+02  0.31154609246E+02  0.61603455083E+02  0.47000000000E+01 0.  1.
         -5    1    1    2    0  502 -0.29559491154E+02 -0.19744179411E+01 -0.62734911982E+02  0.69537191667E+02  0.47000000000E+01 0.  1.
        -11    1    1    2    0    0  0.24298491200E+02 -0.65363483345E+01  0.10232025832E+02  0.27163116110E+02  0.00000000000E+00 0.  1.
         11    1    1    2    0    0 -0.46507521706E+02 -0.25484455477E+01 -0.75110469547E+02  0.88380013495E+02  0.00000000000E+00 0. -1.
<mgrwt>
<rscale>  0 0.11849443E+03</rscale>
<asrwt>0</asrwt>
<pdfrwt beam="2">  1        2 0.26395578E-01 0.12728140E+03</pdfrwt>
<pdfrwt beam="1">  1       -2 0.11555772E-01 0.12728140E+03</pdfrwt>
<totfact> 0.99677855E+03</totfact>
</mgrwt>
</event>
<event>
 6    1  0.5818426E-006  0.1448467E+03  0.7546771E-02  0.1217263E+00
          2   -1    0    0  501    0  0.00000000000E+00  0.00000000000E+00  0.88954324711E+02  0.88954324711E+02  0.00000000000E+00 0. -1.
         -2   -1    0    0    0  501 -0.00000000000E+00 -0.00000000000E+00 -0.22226720822E+03  0.22226720822E+03  0.00000000000E+00 0.  1.
          5    1    1    2  502    0  0.20164168512E+01  0.44667398085E+02 -0.11801902438E+03  0.12629260669E+03  0.47000000000E+01 0. -1.
         -5    1    1    2    0  502 -0.66529166845E+02 -0.10121616240E+02 -0.12342666780E+02  0.68578484816E+02  0.47000000000E+01 0. -1.
        -11    1    1    2    0    0  0.79858212678E+02 -0.14936264612E+02 -0.22940165408E+02  0.84419650092E+02  0.00000000000E+00 0.  1.
         11    1    1    2    0    0 -0.15345462684E+02 -0.19609517233E+02  0.19988973061E+02  0.31930791333E+02  0.00000000000E+00 0. -1.
<mgrwt>
<rscale>  0 0.13711614E+03</rscale>
<asrwt>0</asrwt>
<pdfrwt beam="1">  1        2 0.13685281E-01 0.14484672E+03</pdfrwt>
<pdfrwt beam="2">  1       -2 0.34194955E-01 0.14484672E+03</pdfrwt>
<totfact> 0.33639617E+03</totfact>
</mgrwt>
</event>
<event>
 6    1  0.5818426E-006  0.1400424E+03  0.7546771E-02  0.1224327E+00
         -2   -1    0    0    0  501 -0.00000000000E+00  0.00000000000E+00  0.79998131635E+02  0.79998131635E+02  0.00000000000E+00 0.  1.
          2   -1    0    0  501    0  0.00000000000E+00 -0.00000000000E+00 -0.22134575971E+03  0.22134575971E+03  0.00000000000E+00 0. -1.
          5    1    1    2  502    0  0.86138190051E+02 -0.14397872236E+02 -0.68480406553E+01  0.87727260136E+02  0.47000000000E+01 0. -1.
         -5    1    1    2    0  502 -0.29059943421E+02  0.41429852407E+02 -0.21351415919E+02  0.55126091316E+02  0.47000000000E+01 0. -1.
        -11    1    1    2    0    0  0.15857730290E+02 -0.28317181600E+01  0.55933291720E+01  0.17052025361E+02  0.00000000000E+00 0.  1.
         11    1    1    2    0    0 -0.72935976920E+02 -0.24200262011E+02 -0.11874150067E+03  0.14143851453E+03  0.00000000000E+00 0. -1.
<mgrwt>
<rscale>  0 0.13213158E+03</rscale>
<asrwt>0</asrwt>
<pdfrwt beam="2">  1        2 0.34053193E-01 0.14004239E+03</pdfrwt>
<pdfrwt beam="1">  1       -2 0.12307405E-01 0.14004239E+03</pdfrwt>
<totfact> 0.68893340E+03</totfact>
</mgrwt>
</event>
<event>
 6    1  0.5818426E-006  0.1286830E+03  0.7546771E-02  0.1236863E+00
         -2   -1    0    0    0  501 -0.00000000000E+00  0.00000000000E+00  0.31841565428E+02  0.31841565428E+02  0.00000000000E+00 0.  1.
          2   -1    0    0  501    0  0.00000000000E+00 -0.00000000000E+00 -0.45805316651E+03  0.45805316651E+03  0.00000000000E+00 0. -1.
          5    1    1    2  502    0 -0.30462285564E+02  0.30550924821E+02 -0.20408012036E+03  0.20864346473E+03  0.47000000000E+01 0. -1.
         -5    1    1    2    0  502 -0.22214688379E+02  0.18954342544E+01  0.94610351727E+01  0.24671567387E+02  0.47000000000E+01 0.  1.
        -11    1    1    2    0    0  0.53257664152E+02 -0.57529792170E+02 -0.20741418976E+03  0.22173565770E+03  0.00000000000E+00 0. -1.
         11    1    1    2    0    0 -0.58069020994E+00  0.25083433095E+02 -0.24178326129E+02  0.34844042121E+02  0.00000000000E+00 0.  1.
<mgrwt>
<rscale>  0 0.12385889E+03</rscale>
<asrwt>0</asrwt>
<pdfrwt beam="2">  1        2 0.70469720E-01 0.12868301E+03</pdfrwt>
<pdfrwt beam="1">  1       -2 0.48987022E-02 0.12868301E+03</pdfrwt>
<totfact> 0.13081338E+04</totfact>
</mgrwt>
</event>
<event>
 6    1  0.5818426E-006  0.1257788E+03  0.7546771E-02  0.1246543E+00
         -3   -1    0    0    0  501 -0.00000000000E+00  0.00000000000E+00  0.16258738498E+03  0.16258738498E+03  0.00000000000E+00 0.  1.
          3   -1    0    0  501    0  0.00000000000E+00 -0.00000000000E+00 -0.83845165240E+02  0.83845165240E+02  0.00000000000E+00 0. -1.
          5    1    1    2  502    0  0.41601900104E+02  0.10350947350E+02 -0.84224567610E+01  0.43941870479E+02  0.47000000000E+01 0. -1.
         -5    1    1    2    0  502 -0.55577689755E+02 -0.10243859502E+02  0.88678274912E+02  0.10526035672E+03  0.47000000000E+01 0. -1.
        -11    1    1    2    0    0  0.28976704160E+02 -0.41138776657E+02 -0.13169601309E+02  0.52014293492E+02  0.00000000000E+00 0. -1.
         11    1    1    2    0    0 -0.15000914510E+02  0.41031688809E+02  0.11656002900E+02  0.45216029528E+02  0.00000000000E+00 0.  1.
<mgrwt>
<rscale>  0 0.11793505E+03</rscale>
<asrwt>0</asrwt>
<pdfrwt beam="2">  1        3 0.12899256E-01 0.12577881E+03</pdfrwt>
<pdfrwt beam="1">  1       -3 0.25013444E-01 0.12577881E+03</pdfrwt>
<totfact> 0.16348455E+03</totfact>
</mgrwt>
</event>
<event>
 6    1  0.5818426E-006  0.1645689E+03  0.7546771E-02  0.1190577E+00
          2   -1    0    0  501    0  0.00000000000E+00  0.00000000000E+00  0.45907951116E+03  0.45907951116E+03  0.00000000000E+00 0. -1.
         -2   -1    0    0    0  501 -0.00000000000E+00 -0.00000000000E+00 -0.55053409419E+02  0.55053409419E+02  0.00000000000E+00 0.  1.
          5    1    1    2  502    0  0.91312439831E+02 -0.87824812766E+02  0.13923617485E+03  0.18830815647E+03  0.47000000000E+01 0.  1.
         -5    1    1    2    0  502 -0.96870222862E+00  0.30429170829E+02  0.64324860947E+01  0.31469663148E+02  0.47000000000E+01 0.  1.
        -11    1    1    2    0    0 -0.78079639379E+02  0.27390587503E+02  0.24620461485E+03  0.25973714933E+03  0.00000000000E+00 0. -1.
         11    1    1    2    0    0 -0.12264098224E+02  0.30005054434E+02  0.12152825950E+02  0.34617951635E+02  0.00000000000E+00 0.  1.
<mgrwt>
<rscale>  0 0.15834617E+03</rscale>
<asrwt>0</asrwt>
<pdfrwt beam="1">  1        2 0.70627615E-01 0.16456893E+03</pdfrwt>
<pdfrwt beam="2">  1       -2 0.84697556E-02 0.16456893E+03</pdfrwt>
<totfact> 0.57495728E+03</totfact>
</mgrwt>
</event>
<event>
 6    1  0.5818426E-006  0.3633328E+03  0.7546771E-02  0.1057272E+00
         -2   -1    0    0    0  501 -0.00000000000E+00  0.00000000000E+00  0.95183926205E+02  0.95183926205E+02  0.00000000000E+00 0.  1.
          2   -1    0    0  501    0  0.00000000000E+00 -0.00000000000E+00 -0.34672534319E+03  0.34672534319E+03  0.00000000000E+00 0. -1.
          5    1    1    2  502    0 -0.21840183064E+02  0.11029749999E+01 -0.26037144293E+02  0.34325399241E+02  0.47000000000E+01 0.  1.
         -5    1    1    2    0  502  0.15385284436E+03  0.27576723855E+02 -0.42229648404E+02  0.16197717932E+03  0.47000000000E+01 0.  1.
        -11    1    1    2    0    0 -0.62266756609E+02 -0.51852669252E+02 -0.55538129416E+02  0.98236103883E+02  0.00000000000E+00 0.  1.
         11    1    1    2    0    0 -0.69745904683E+02  0.23172970397E+02 -0.12773649487E+03  0.14737058695E+03  0.00000000000E+00 0. -1.
<mgrwt>
<rscale>  0 0.36333279E+03</rscale>
<asrwt>0</asrwt>
<pdfrwt beam="2">  1        2 0.53342360E-01 0.36333279E+03</pdfrwt>
<pdfrwt beam="1">  1       -2 0.14643681E-01 0.36333279E+03</pdfrwt>
<totfact> 0.33417190E+03</totfact>
</mgrwt>
</event>
<event>
 6    1  0.5818426E-006  0.1390810E+03  0.7546771E-02  0.1225161E+00
          1   -1    0    0  501    0  0.00000000000E+00  0.00000000000E+00  0.32502805581E+02  0.32502805581E+02  0.00000000000E+00 0. -1.
         -1   -1    0    0    0  501 -0.00000000000E+00 -0.00000000000E+00 -0.48626226572E+03  0.48626226572E+03  0.00000000000E+00 0.  1.
          5    1    1    2  502    0 -0.49392098469E+02 -0.41414159656E+02 -0.11001007451E+03  0.12758925701E+03  0.47000000000E+01 0.  1.
         -5    1    1    2    0  502  0.71624847833E+02 -0.15378878588E+02 -0.16484295317E+03  0.18044921154E+03  0.47000000000E+01 0.  1.
        -11    1    1    2    0    0  0.25312105393E+02 -0.54854918204E+01 -0.17353716286E+02  0.31176028754E+02  0.00000000000E+00 0. -1.
         11    1    1    2    0    0 -0.47544854757E+02  0.62278530065E+02 -0.16155271617E+03  0.17955057399E+03  0.00000000000E+00 0.  1.
<mgrwt>
<rscale>  0 0.13155899E+03</rscale>
<asrwt>0</asrwt>
<pdfrwt beam="1">  1        1 0.50004318E-02 0.13908095E+03</pdfrwt>
<pdfrwt beam="2">  1       -1 0.74809577E-01 0.13908095E+03</pdfrwt>
<totfact> 0.30096255E+03</totfact>
</mgrwt>
</event>
<event>
 6    1  0.5818426E-006  0.1617971E+03  0.7546771E-02  0.1193967E+00
         -1   -1    0    0    0  501 -0.00000000000E+00  0.00000000000E+00  0.59816333931E+02  0.59816333931E+02  0.00000000000E+00 0.  1.
          1   -1    0    0  501    0  0.00000000000E+00 -0.00000000000E+00 -0.60209635047E+03  0.60209635047E+03  0.00000000000E+00 0. -1.
          5    1    1    2  502    0 -0.48787102453E+02  0.26095194681E+02 -0.53557079121E+02  0.77146557118E+02  0.47000000000E+01 0.  1.
         -5    1    1    2    0  502  0.66206093115E+02  0.75147561443E+02 -0.28304453780E+02  0.10418077971E+03  0.47000000000E+01 0.  1.
        -11    1    1    2    0    0  0.17414417682E+02 -0.62742315435E+02 -0.37510964883E+03  0.38071919933E+03  0.00000000000E+00 0. -1.
         11    1    1    2    0    0 -0.34833408344E+02 -0.38500440689E+02 -0.85308834805E+02  0.99866148248E+02  0.00000000000E+00 0.  1.
<mgrwt>
<rscale>  0 0.15541993E+03</rscale>
<asrwt>0</asrwt>
<pdfrwt beam="2">  1        1 0.92630209E-01 0.16179707E+03</pdfrwt>
<pdfrwt beam="1">  1       -1 0.92025128E-02 0.16179707E+03</pdfrwt>
<totfact> 0.23932934E+03</totfact>
</mgrwt>
</event>
<event>
 6    1  0.5818426E-006  0.1202945E+03  0.7546771E-02  0.1255414E+00
         -1   -1    0    0    0  501 -0.00000000000E+00  0.00000000000E+00  0.53516687826E+02  0.53516687826E+02  0.00000000000E+00 0.  1.
          1   -1    0    0  501    0  0.00000000000E+00 -0.00000000000E+00 -0.28860610191E+03  0.28860610191E+03  0.00000000000E+00 0. -1.
          5    1    1    2  502    0  0.62739572982E+02 -0.32598114043E+01 -0.52308114865E+02  0.81884731599E+02  0.47000000000E+01 0. -1.
         -5    1    1    2    0  502 -0.43262266488E+02 -0.65394691813E+01  0.10903148437E+02  0.45336045314E+02  0.47000000000E+01 0.  1.
        -11    1    1    2    0    0 -0.15171125703E+02 -0.26757392813E+02 -0.18503709620E+02  0.35895799127E+02  0.00000000000E+00 0.  1.
         11    1    1    2    0    0 -0.43061807900E+01  0.36556673399E+02 -0.17518073804E+03  0.17900621370E+03  0.00000000000E+00 0. -1.
<mgrwt>
<rscale>  0 0.11283183E+03</rscale>
<asrwt>0</asrwt>
<pdfrwt beam="2">  1        1 0.44400939E-01 0.12029445E+03</pdfrwt>
<pdfrwt beam="1">  1       -1 0.82333366E-02 0.12029445E+03</pdfrwt>
<totfact> 0.71539178E+03</totfact>
</mgrwt>
</event>
<event>
 6    1  0.5818426E-006  0.1602638E+03  0.7546771E-02  0.1202989E+00
          2   -1    0    0  501    0  0.00000000000E+00  0.00000000000E+00  0.27618414201E+03  0.27618414201E+03  0.00000000000E+00 0. -1.
         -2   -1    0    0    0  501 -0.00000000000E+00 -0.00000000000E+00 -0.94206411747E+02  0.94206411747E+02  0.00000000000E+00 0.  1.
          5    1    1    2  502    0 -0.12781355474E+02 -0.70279847495E+00  0.71135348262E+02  0.72430551190E+02  0.47000000000E+01 0. -1.
         -5    1    1    2    0  502 -0.49077273675E+02 -0.35147511187E+02 -0.63856924012E+02  0.87998426567E+02  0.47000000000E+01 0.  1.
        -11    1    1    2    0    0 -0.18239176094E+02 -0.15136483489E+01  0.55700951765E+01  0.19130724926E+02  0.00000000000E+00 0.  1.
         11    1    1    2    0    0  0.80097805244E+02  0.37363958010E+02  0.16912921084E+03  0.19083085107E+03  0.00000000000E+00 0. -1.
<mgrwt>
<rscale>  0 0.14797048E+03</rscale>
<asrwt>0</asrwt>
<pdfrwt beam="1">  1        2 0.42489868E-01 0.16026379E+03</pdfrwt>
<pdfrwt beam="2">  1       -2 0.14493294E-01 0.16026379E+03</pdfrwt>
<totfact> 0.42070804E+03</totfact>
</mgrwt>
</event>
<event>
 6    1  0.5818426E-006  0.1357281E+03  0.7546771E-02  0.1231423E+00
         -2   -1    0    0    0  501 -0.00000000000E+00  0.00000000000E+00  0.26679596851E+02  0.26679596851E+02  0.00000000000E+00 0.  1.
          2   -1    0    0  501    0  0.00000000000E+00 -0.00000000000E+00 -0.56900832233E+03  0.56900832233E+03  0.00000000000E+00 0. -1.
          5    1    1    2  502    0  0.40086165149E+02  0.59782207173E+02 -0.58530231400E+02  0.92890747217E+02  0.47000000000E+01 0. -1.
         -5    1    1    2    0  502 -0.80117727670E+01 -0.17744564620E+02 -0.18357831328E+03  0.18466766145E+03  0.47000000000E+01 0. -1.
        -11    1    1    2    0    0  0.81702460873E+01  0.12741351454E+02 -0.62035730962E+01  0.16357850628E+02  0.00000000000E+00 0.  1.
         11    1    1    2    0    0 -0.40244638469E+02 -0.54778994007E+02 -0.29401660769E+03  0.30177165988E+03  0.00000000000E+00 0. -1.
<mgrwt>
<rscale>  0 0.12736250E+03</rscale>
<asrwt>0</asrwt>
<pdfrwt beam="2">  1        2 0.87539740E-01 0.13572812E+03</pdfrwt>
<pdfrwt beam="1">  1       -2 0.41045534E-02 0.13572812E+03</pdfrwt>
<totfact> 0.13468790E+04</totfact>
</mgrwt>
</event>
<event>
 6    1  0.5818426E-006  0.1386546E+03  0.7546771E-02  0.1234715E+00
         -2   -1    0    0    0  501 -0.00000000000E+00  0.00000000000E+00  0.59709091086E+02  0.59709091086E+02  0.00000000000E+00 0.  1.
          2   -1    0    0  501    0  0.00000000000E+00 -0.00000000000E+00 -0.32480813068E+03  0.32480813068E+03  0.00000000000E+00 0. -1.
          5    1    1    2  502    0  0.17985783589E+02  0.64002877792E+01 -0.89388247595E+02  0.91524864945E+02  0.47000000000E+01 0. -1.
         -5    1    1    2    0  502 -0.21031211967E+02 -0.22136786099E+02  0.44537230927E+02  0.54203358884E+02  0.47000000000E+01 0.  1.
        -11    1    1    2    0    0 -0.25538425270E+02 -0.28345614920E+02 -0.11486311502E+03  0.12103396318E+03  0.00000000000E+00 0.  1.
         11    1    1    2    0    0  0.28583853648E+02  0.44082113240E+02 -0.10538490791E+03  0.11775503476E+03  0.00000000000E+00 0. -1.
<mgrwt>
<rscale>  0 0.12522709E+03</rscale>
<asrwt>0</asrwt>
<pdfrwt beam="2">  1        2 0.49970481E-01 0.13865461E+03</pdfrwt>
<pdfrwt beam="1">  1       -2 0.91860142E-02 0.13865461E+03</pdfrwt>
<totfact> 0.72686042E+03</totfact>
</mgrwt>
</event>
<event>
 6    1  0.1107730E-005  0.2533887E+03  0.7546771E-02  0.1113744E+00
          1   -1    0    0  501    0  0.00000000000E+00  0.00000000000E+00  0.81770738789E+03  0.81770738789E+03  0.00000000000E+00 0. -1.
         -1   -1    0    0    0  501 -0.00000000000E+00 -0.00000000000E+00 -0.80708507556E+02  0.80708507556E+02  0.00000000000E+00 0.  1.
          5    1    1    2  502    0  0.11870623401E+03  0.13044690402E+03  0.23762357775E+03  0.29596388202E+03  0.47000000000E+01 0. -1.
         -5    1    1    2    0  502 -0.23196188436E+01  0.56729497612E+02  0.90869650810E+01  0.57691242535E+02  0.47000000000E+01 0. -1.
        -11    1    1    2    0    0 -0.84244210604E+02 -0.98277214619E+02  0.18967684621E+03  0.22963624261E+03  0.00000000000E+00 0. -1.
         11    1    1    2    0    0 -0.32142404559E+02 -0.88899187013E+02  0.30061149129E+03  0.31512452827E+03  0.00000000000E+00 0.  1.
<mgrwt>
<rscale>  0 0.24930599E+03</rscale>
<asrwt>0</asrwt>
<pdfrwt beam="1">  1        1 0.12580113E+00 0.25338874E+03</pdfrwt>
<pdfrwt beam="2">  1       -1 0.12416694E-01 0.25338874E+03</pdfrwt>
<totfact> 0.96880425E+02</totfact>
</mgrwt>
</event>
<event>
 6    1  0.5922233E-006  0.2090211E+03  0.7546771E-02  0.1146170E+00
          1   -1    0    0  501    0  0.00000000000E+00  0.00000000000E+00  0.14581064281E+04  0.14581064281E+04  0.00000000000E+00 0. -1.
         -1   -1    0    0    0  501 -0.00000000000E+00 -0.00000000000E+00 -0.29790542798E+02  0.29790542798E+02  0.00000000000E+00 0.  1.
          5    1    1    2  502    0 -0.74465666674E+00 -0.17066979986E+03  0.39745987426E+03  0.43257967676E+03  0.47000000000E+01 0.  1.
         -5    1    1    2    0  502 -0.33738103698E+02  0.67335828110E+01  0.13614447632E+03  0.14050270179E+03  0.47000000000E+01 0.  1.
        -11    1    1    2    0    0 -0.24374152167E+02  0.28898672319E+02  0.10787034142E+03  0.11430329441E+03  0.00000000000E+00 0.  1.
         11    1    1    2    0    0  0.58856912532E+02  0.13503754473E+03  0.78684119333E+03  0.80051129796E+03  0.00000000000E+00 0. -1.
<mgrwt>
<rscale>  0 0.20428945E+03</rscale>
<asrwt>0</asrwt>
<pdfrwt beam="1">  1        1 0.22432401E+00 0.20902107E+03</pdfrwt>
<pdfrwt beam="2">  1       -1 0.45831616E-02 0.20902107E+03</pdfrwt>
<totfact> 0.15334933E+03</totfact>
</mgrwt>
</event>
<event>
 6    1  0.5818426E-006  0.1540443E+03  0.7546771E-02  0.1204320E+00
          1   -1    0    0  501    0  0.00000000000E+00  0.00000000000E+00  0.76316678419E+02  0.76316678419E+02  0.00000000000E+00 0. -1.
         -1   -1    0    0    0  501 -0.00000000000E+00 -0.00000000000E+00 -0.26826549128E+03  0.26826549128E+03  0.00000000000E+00 0.  1.
          5    1    1    2  502    0  0.11195223738E+03  0.47166852988E+02 -0.10919356702E+03  0.16341156799E+03  0.47000000000E+01 0. -1.
         -5    1    1    2    0  502 -0.31234647717E+02 -0.73136489881E+01 -0.26481490113E+02  0.41862298052E+02  0.47000000000E+01 0. -1.
        -11    1    1    2    0    0  0.11577440784E+02  0.11353032608E+02  0.53653789964E+01  0.17079688998E+02  0.00000000000E+00 0. -1.
         11    1    1    2    0    0 -0.92295030444E+02 -0.51206236607E+02 -0.61639134727E+02  0.12222861466E+03  0.00000000000E+00 0.  1.
<mgrwt>
<rscale>  0 0.14691213E+03</rscale>
<asrwt>0</asrwt>
<pdfrwt beam="1">  1        1 0.11741027E-01 0.15404428E+03</pdfrwt>
<pdfrwt beam="2">  1       -1 0.41271615E-01 0.15404428E+03</pdfrwt>
<totfact> 0.29289488E+03</totfact>
</mgrwt>
</event>
<event>
 6    1  0.5818426E-006  0.1285009E+03  0.7546771E-02  0.1245682E+00
         -3   -1    0    0    0  501 -0.00000000000E+00  0.00000000000E+00  0.26960999258E+03  0.26960999258E+03  0.00000000000E+00 0.  1.
          3   -1    0    0  501    0  0.00000000000E+00 -0.00000000000E+00 -0.45791842210E+02  0.45791842210E+02  0.00000000000E+00 0. -1.
          5    1    1    2  502    0 -0.55975359658E+01  0.38762704366E+02  0.12826332128E+03  0.13419183748E+03  0.47000000000E+01 0.  1.
         -5    1    1    2    0  502 -0.20834510745E+02 -0.52639357017E+02  0.16029728179E+02  0.59025595555E+02  0.47000000000E+01 0.  1.
        -11    1    1    2    0    0 -0.23856501075E+02 -0.20066230404E+02  0.35366192513E+02  0.47143969063E+02  0.00000000000E+00 0.  1.
         11    1    1    2    0    0  0.50288547786E+02  0.33942883055E+02  0.44158908396E+02  0.75040432697E+02  0.00000000000E+00 0. -1.
<mgrwt>
<rscale>  0 0.11844650E+03</rscale>
<asrwt>0</asrwt>
<pdfrwt beam="2">  1        3 0.70448990E-02 0.12850094E+03</pdfrwt>
<pdfrwt beam="1">  1       -3 0.41478459E-01 0.12850094E+03</pdfrwt>
<totfact> 0.17276949E+03</totfact>
</mgrwt>
</event>
<event>
 6    1  0.5818426E-006  0.1298783E+03  0.7546771E-02  0.1233039E+00
         -1   -1    0    0    0  501 -0.00000000000E+00  0.00000000000E+00  0.23720190426E+03  0.23720190426E+03  0.00000000000E+00 0.  1.
          1   -1    0    0  501    0  0.00000000000E+00 -0.00000000000E+00 -0.67604532760E+02  0.67604532760E+02  0.00000000000E+00 0. -1.
          5    1    1    2  502    0  0.36959836182E+02  0.26106730146E+02  0.16272486231E+02  0.48316401539E+02  0.47000000000E+01 0. -1.
         -5    1    1    2    0  502 -0.71703829703E+02 -0.20318727150E+02  0.10904192370E+03  0.13216096622E+03  0.47000000000E+01 0. -1.
        -11    1    1    2    0    0  0.19475427091E+01  0.23339462933E+02  0.69771598134E+02  0.73597549951E+02  0.00000000000E+00 0.  1.
         11    1    1    2    0    0  0.32796450811E+02 -0.29127465929E+02 -0.25488636569E+02  0.50731519309E+02  0.00000000000E+00 0. -1.
<mgrwt>
<rscale>  0 0.12630807E+03</rscale>
<asrwt>0</asrwt>
<pdfrwt beam="2">  1        1 0.10400697E-01 0.12987832E+03</pdfrwt>
<pdfrwt beam="1">  1       -1 0.36492600E-01 0.12987832E+03</pdfrwt>
<totfact> 0.42209256E+03</totfact>
</mgrwt>
</event>
<event>
 6    1  0.5818426E-006  0.1428201E+03  0.7546771E-02  0.1219529E+00
         -2   -1    0    0    0  501 -0.00000000000E+00  0.00000000000E+00  0.11151284955E+04  0.11151284955E+04  0.00000000000E+00 0.  1.
          2   -1    0    0  501    0  0.00000000000E+00 -0.00000000000E+00 -0.31220562209E+02  0.31220562209E+02  0.00000000000E+00 0. -1.
          5    1    1    2  502    0  0.56069934924E+01  0.54696142517E+02  0.16536970030E+03  0.17433397305E+03  0.47000000000E+01 0. -1.
         -5    1    1    2    0  502 -0.47104570347E+02  0.54134529285E+00  0.81617520014E+03  0.81754705120E+03  0.47000000000E+01 0. -1.
        -11    1    1    2    0    0  0.13130032785E+02 -0.40590650902E+02  0.11302561223E+03  0.12080888925E+03  0.00000000000E+00 0.  1.
         11    1    1    2    0    0  0.28367544070E+02 -0.14646836907E+02 -0.10662579401E+02  0.33659144188E+02  0.00000000000E+00 0. -1.
<mgrwt>
<rscale>  0 0.13549018E+03</rscale>
<asrwt>0</asrwt>
<pdfrwt beam="2">  1        2 0.48031643E-02 0.14282008E+03</pdfrwt>
<pdfrwt beam="1">  1       -2 0.17155820E+00 0.14282008E+03</pdfrwt>
<totfact> 0.36312625E+02</totfact>
</mgrwt>
</event>
<event>
 6    1  0.5818426E-006  0.1898767E+03  0.7546771E-02  0.1163443E+00
          2   -1    0    0  501    0  0.00000000000E+00  0.00000000000E+00  0.19331636099E+03  0.19331636099E+03  0.00000000000E+00 0. -1.
         -2   -1    0    0    0  501 -0.00000000000E+00 -0.00000000000E+00 -0.19628726185E+03  0.19628726185E+03  0.00000000000E+00 0.  1.
          5    1    1    2  502    0  0.10416285727E+03  0.31916545187E+02  0.78478502398E+01  0.10932632549E+03  0.47000000000E+01 0. -1.
         -5    1    1    2    0  502  0.19588566999E+02  0.39587426965E+02 -0.84452033148E+02  0.95420711764E+02  0.47000000000E+01 0. -1.
        -11    1    1    2    0    0 -0.68464518027E+02 -0.59795057737E+02 -0.14134003131E+01  0.90911148156E+02  0.00000000000E+00 0.  1.
         11    1    1    2    0    0 -0.55286906245E+02 -0.11708914415E+02  0.75046682360E+02  0.93945437421E+02  0.00000000000E+00 0. -1.
<mgrwt>
<rscale>  0 0.18457956E+03</rscale>
<asrwt>0</asrwt>
<pdfrwt beam="1">  1        2 0.29740978E-01 0.18987667E+03</pdfrwt>
<pdfrwt beam="2">  1       -2 0.30198040E-01 0.18987667E+03</pdfrwt>
<totfact> 0.17669311E+03</totfact>
</mgrwt>
</event>
<event>
 6    1  0.5818426E-006  0.1279177E+03  0.7546771E-02  0.1315160E+00
         -2   -1    0    0    0  501 -0.00000000000E+00  0.00000000000E+00  0.88905935218E+01  0.88905935218E+01  0.00000000000E+00 0.  1.
          2   -1    0    0  501    0  0.00000000000E+00 -0.00000000000E+00 -0.65824723129E+03  0.65824723129E+03  0.00000000000E+00 0. -1.
          5    1    1    2  502    0  0.90485740904E+01 -0.35798104929E+01 -0.52952887602E+03  0.52963913401E+03  0.47000000000E+01 0. -1.
         -5    1    1    2    0  502 -0.18943371021E+02 -0.18511568624E+02 -0.17371307783E+02  0.32021583544E+02  0.47000000000E+01 0.  1.
        -11    1    1    2    0    0  0.87390007235E+01  0.11750385373E+02 -0.61536621469E+02  0.63255019342E+02  0.00000000000E+00 0.  1.
         11    1    1    2    0    0  0.11557962068E+01  0.10340993744E+02 -0.40919832495E+02  0.42222087915E+02  0.00000000000E+00 0. -1.
<mgrwt>
<rscale>  0 0.85104258E+02</rscale>
<asrwt>0</asrwt>
<pdfrwt beam="2">  1        2 0.10126883E+00 0.12791775E+03</pdfrwt>
<pdfrwt beam="1">  1       -2 0.13677833E-02 0.12791775E+03</pdfrwt>
<totfact> 0.56365414E+04</totfact>
</mgrwt>
</event>
<event>
 6    1  0.5818426E-006  0.1355477E+03  0.7546771E-02  0.1231256E+00
          1   -1    0    0  501    0  0.00000000000E+00  0.00000000000E+00  0.11949532172E+03  0.11949532172E+03  0.00000000000E+00 0. -1.
         -1   -1    0    0    0  501 -0.00000000000E+00 -0.00000000000E+00 -0.12211696826E+03  0.12211696826E+03  0.00000000000E+00 0.  1.
          5    1    1    2  502    0  0.43395907592E+02  0.14816606822E+02 -0.52464929518E+02  0.69838352377E+02  0.47000000000E+01 0. -1.
         -5    1    1    2    0  502  0.42292389325E+00 -0.43563362743E+02  0.49024667078E+02  0.65752972710E+02  0.47000000000E+01 0. -1.
        -11    1    1    2    0    0 -0.29996290820E+02 -0.35099724879E+01  0.42116844922E+02  0.51825920117E+02  0.00000000000E+00 0. -1.
         11    1    1    2    0    0 -0.13822540665E+02  0.32256728409E+02 -0.41298229016E+02  0.54195044773E+02  0.00000000000E+00 0.  1.
<mgrwt>
<rscale>  0 0.12747169E+03</rscale>
<asrwt>0</asrwt>
<pdfrwt beam="1">  1        1 0.18383896E-01 0.13554767E+03</pdfrwt>
<pdfrwt beam="2">  1       -1 0.18787226E-01 0.13554767E+03</pdfrwt>
<totfact> 0.60528614E+03</totfact>
</mgrwt>
</event>
<event>
 6    1  0.5818426E-006  0.1318100E+03  0.7546771E-02  0.1239621E+00
         -3   -1    0    0    0  501 -0.00000000000E+00  0.00000000000E+00  0.77208672682E+02  0.77208672682E+02  0.00000000000E+00 0.  1.
          3   -1    0    0  501    0  0.00000000000E+00 -0.00000000000E+00 -0.18368125754E+03  0.18368125754E+03  0.00000000000E+00 0. -1.
          5    1    1    2  502    0 -0.44326076662E+02  0.54577734055E+02 -0.23013508357E+02  0.74129897435E+02  0.47000000000E+01 0. -1.
         -5    1    1    2    0  502  0.28153464012E+01 -0.59768269121E+02 -0.21289936816E+01  0.60056596500E+02  0.47000000000E+01 0. -1.
        -11    1    1    2    0    0  0.59365709611E+02 -0.16140106729E+02 -0.30285161056E+02  0.68570996077E+02  0.00000000000E+00 0.  1.
         11    1    1    2    0    0 -0.17854979350E+02  0.21330641794E+02 -0.51044921762E+02  0.58132440209E+02  0.00000000000E+00 0. -1.
<mgrwt>
<rscale>  0 0.12213158E+03</rscale>
<asrwt>0</asrwt>
<pdfrwt beam="2">  1        3 0.28258655E-01 0.13180998E+03</pdfrwt>
<pdfrwt beam="1">  1       -3 0.11878258E-01 0.13180998E+03</pdfrwt>
<totfact> 0.15165820E+03</totfact>
</mgrwt>
</event>
<event>
 6    1  0.5818426E-006  0.3570773E+03  0.7546771E-02  0.1059747E+00
         -1   -1    0    0    0  501 -0.00000000000E+00  0.00000000000E+00  0.22762674292E+03  0.22762674292E+03  0.00000000000E+00 0.  1.
          1   -1    0    0  501    0  0.00000000000E+00 -0.00000000000E+00 -0.14003648053E+03  0.14003648053E+03  0.00000000000E+00 0. -1.
          5    1    1    2  502    0 -0.11721592302E+03 -0.50757542689E+02  0.11038340922E+03  0.16888602008E+03  0.47000000000E+01 0.  1.
         -5    1    1    2    0  502 -0.13173866915E+02  0.58402123562E+01 -0.30185252251E+02  0.33777186137E+02  0.47000000000E+01 0.  1.
        -11    1    1    2    0    0  0.37938320298E+01  0.37721472949E+02 -0.97112627427E+00  0.37924210857E+02  0.00000000000E+00 0. -1.
         11    1    1    2    0    0  0.12659595790E+03  0.71958573840E+01  0.83632317036E+01  0.12707580637E+03  0.00000000000E+00 0.  1.
<mgrwt>
<rscale>  0 0.35707729E+03</rscale>
<asrwt>0</asrwt>
<pdfrwt beam="2">  1        1 0.21544074E-01 0.35707729E+03</pdfrwt>
<pdfrwt beam="1">  1       -1 0.35019499E-01 0.35707729E+03</pdfrwt>
<totfact> 0.18184866E+03</totfact>
</mgrwt>
</event>
<event>
 6    1  0.5818426E-006  0.1368337E+03  0.7546771E-02  0.1229893E+00
          2   -1    0    0  501    0  0.00000000000E+00  0.00000000000E+00  0.70803244031E+02  0.70803244031E+02  0.00000000000E+00 0. -1.
         -2   -1    0    0    0  501 -0.00000000000E+00 -0.00000000000E+00 -0.20821330647E+03  0.20821330647E+03  0.00000000000E+00 0.  1.
          5    1    1    2  502    0  0.24254114339E+02  0.30938090794E+02 -0.98431611385E+01  0.40797124231E+02  0.47000000000E+01 0. -1.
         -5    1    1    2    0  502 -0.52788949826E+02 -0.78721978757E+02 -0.66647989918E+02  0.11596494179E+03  0.47000000000E+01 0. -1.
        -11    1    1    2    0    0  0.35666500407E+02  0.33851940313E+02  0.95293886654E+01  0.50088545223E+02  0.00000000000E+00 0. -1.
         11    1    1    2    0    0 -0.71316649203E+01  0.13931947651E+02 -0.70448300045E+02  0.72165939259E+02  0.00000000000E+00 0.  1.
<mgrwt>
<rscale>  0 0.12837089E+03</rscale>
<asrwt>0</asrwt>
<pdfrwt beam="1">  1        2 0.10892807E-01 0.13683366E+03</pdfrwt>
<pdfrwt beam="2">  1       -2 0.32032816E-01 0.13683366E+03</pdfrwt>
<totfact> 0.49685921E+03</totfact>
</mgrwt>
</event>
<event>
 6    1  0.5818426E-006  0.1251975E+03  0.7546771E-02  0.1251335E+00
         -1   -1    0    0    0  501 -0.00000000000E+00  0.00000000000E+00  0.10767515476E+03  0.10767515476E+03  0.00000000000E+00 0.  1.
          1   -1    0    0  501    0  0.00000000000E+00 -0.00000000000E+00 -0.11001838118E+03  0.11001838118E+03  0.00000000000E+00 0. -1.
          5    1    1    2  502    0 -0.12721563709E+01  0.62518496073E+02 -0.13847776826E+00  0.62707973250E+02  0.47000000000E+01 0.  1.
         -5    1    1    2    0  502  0.81417353378E+01 -0.60677400781E+02  0.16301830856E+02  0.63528533031E+02  0.47000000000E+01 0.  1.
        -11    1    1    2    0    0 -0.47105644898E+02  0.31699248665E+00  0.23176927823E-01  0.47106717171E+02  0.00000000000E+00 0. -1.
         11    1    1    2    0    0  0.40236065931E+02 -0.21580877785E+01 -0.18529756427E+02  0.44350312487E+02  0.00000000000E+00 0.  1.
<mgrwt>
<rscale>  0 0.11514133E+03</rscale>
<asrwt>0</asrwt>
<pdfrwt beam="2">  1        1 0.16925905E-01 0.12519745E+03</pdfrwt>
<pdfrwt beam="1">  1       -1 0.16565408E-01 0.12519745E+03</pdfrwt>
<totfact> 0.81664375E+03</totfact>
</mgrwt>
</event>
<event>
 6    1  0.5818426E-006  0.3791888E+03  0.7546771E-02  0.1051234E+00
         -2   -1    0    0    0  501 -0.00000000000E+00  0.00000000000E+00  0.39741521598E+02  0.39741521598E+02  0.00000000000E+00 0.  1.
          2   -1    0    0  501    0  0.00000000000E+00 -0.00000000000E+00 -0.90449560163E+03  0.90449560163E+03  0.00000000000E+00 0. -1.
          5    1    1    2  502    0 -0.16871544937E+03 -0.35407183064E+02 -0.31469016808E+03  0.35884615555E+03  0.47000000000E+01 0. -1.
         -5    1    1    2    0  502  0.19828986613E+02  0.11086157444E+02 -0.50688501431E+02  0.55745006720E+02  0.47000000000E+01 0. -1.
        -11    1    1    2    0    0  0.88219938666E+02 -0.30675290072E+02 -0.23503207247E+03  0.25291066820E+03  0.00000000000E+00 0.  1.
         11    1    1    2    0    0  0.60666524091E+02  0.54996315691E+02 -0.26434333806E+03  0.27673529276E+03  0.00000000000E+00 0. -1.
<mgrwt>
<rscale>  0 0.37918877E+03</rscale>
<asrwt>0</asrwt>
<pdfrwt beam="2">  1        2 0.13915317E+00 0.37918877E+03</pdfrwt>
<pdfrwt beam="1">  1       -2 0.61140803E-02 0.37918877E+03</pdfrwt>
<totfact> 0.43586671E+03</totfact>
</mgrwt>
</event>
<event>
 6    1  0.5818426E-006  0.1776363E+03  0.7546771E-02  0.1175828E+00
         -2   -1    0    0    0  501 -0.00000000000E+00  0.00000000000E+00  0.63305045356E+02  0.63305045356E+02  0.00000000000E+00 0.  1.
          2   -1    0    0  501    0  0.00000000000E+00 -0.00000000000E+00 -0.44915564828E+03  0.44915564828E+03  0.00000000000E+00 0. -1.
          5    1    1    2  502    0  0.10012252728E+03 -0.13920407179E+02 -0.33502951050E+02  0.10659660376E+03  0.47000000000E+01 0. -1.
         -5    1    1    2    0  502  0.20785821913E+02 -0.22285303244E+02 -0.13419749643E+03  0.13769438326E+03  0.47000000000E+01 0. -1.
        -11    1    1    2    0    0 -0.60116327855E+00  0.33252159379E+02 -0.29796071419E+02  0.44652809237E+02  0.00000000000E+00 0.  1.
         11    1    1    2    0    0 -0.12030718591E+03  0.29535510436E+01 -0.18835408402E+03  0.22351689737E+03  0.00000000000E+00 0. -1.
<mgrwt>
<rscale>  0 0.17195170E+03</rscale>
<asrwt>0</asrwt>
<pdfrwt beam="2">  1        2 0.69100869E-01 0.17763628E+03</pdfrwt>
<pdfrwt beam="1">  1       -2 0.97392377E-02 0.17763628E+03</pdfrwt>
<totfact> 0.47480813E+03</totfact>
</mgrwt>
</event>
<event>
 6    1  0.5818426E-006  0.1336614E+03  0.7546771E-02  0.1235105E+00
         -1   -1    0    0    0  501 -0.00000000000E+00  0.00000000000E+00  0.24896626984E+03  0.24896626984E+03  0.00000000000E+00 0.  1.
          1   -1    0    0  501    0  0.00000000000E+00 -0.00000000000E+00 -0.56535626073E+02  0.56535626073E+02  0.00000000000E+00 0. -1.
          5    1    1    2  502    0  0.21073035513E+02  0.42640884673E+02  0.25279827484E+02  0.54069192235E+02  0.47000000000E+01 0.  1.
         -5    1    1    2    0  502  0.63082414460E+01 -0.81260751644E+02  0.10035339140E+03  0.12936768079E+03  0.47000000000E+01 0.  1.
        -11    1    1    2    0    0  0.30208035196E+02 -0.17879762325E+01  0.30246452478E+02  0.42785162579E+02  0.00000000000E+00 0.  1.
         11    1    1    2    0    0 -0.57589312154E+02  0.40407843204E+02  0.36550972411E+02  0.79279860312E+02  0.00000000000E+00 0. -1.
<mgrwt>
<rscale>  0 0.12497744E+03</rscale>
<asrwt>0</asrwt>
<pdfrwt beam="2">  1        1 0.86977887E-02 0.13366144E+03</pdfrwt>
<pdfrwt beam="1">  1       -1 0.38302503E-01 0.13366144E+03</pdfrwt>
<totfact> 0.49311335E+03</totfact>
</mgrwt>
</event>
<event>
 6    1  0.5818426E-006  0.1316702E+03  0.7546771E-02  0.1239084E+00
         -2   -1    0    0    0  501 -0.00000000000E+00  0.00000000000E+00  0.29799949573E+02  0.29799949573E+02  0.00000000000E+00 0.  1.
          2   -1    0    0  501    0  0.00000000000E+00 -0.00000000000E+00 -0.45561225929E+03  0.45561225929E+03  0.00000000000E+00 0. -1.
          5    1    1    2  502    0  0.68377964286E+02  0.26593543365E+02 -0.62409712312E+02  0.96435598922E+02  0.47000000000E+01 0. -1.
         -5    1    1    2    0  502 -0.27123615888E+02 -0.23748208312E+02 -0.14302632502E+03  0.14757468477E+03  0.47000000000E+01 0. -1.
        -11    1    1    2    0    0 -0.49966495764E+02 -0.28424461333E+02 -0.19843431325E+03  0.20659326556E+03  0.00000000000E+00 0. -1.
         11    1    1    2    0    0  0.87121473665E+01  0.25579126280E+02 -0.21941959142E+02  0.34808659612E+02  0.00000000000E+00 0.  1.
<mgrwt>
<rscale>  0 0.12246545E+03</rscale>
<asrwt>0</asrwt>
<pdfrwt beam="2">  1        2 0.70094186E-01 0.13167024E+03</pdfrwt>
<pdfrwt beam="1">  1       -2 0.45846082E-02 0.13167024E+03</pdfrwt>
<totfact> 0.14555264E+04</totfact>
</mgrwt>
</event>
<event>
 6    1  0.5818426E-006  0.1399475E+03  0.7546771E-02  0.1226769E+00
          1   -1    0    0  501    0  0.00000000000E+00  0.00000000000E+00  0.67871465776E+03  0.67871465776E+03  0.00000000000E+00 0. -1.
         -1   -1    0    0    0  501 -0.00000000000E+00 -0.00000000000E+00 -0.28795346633E+02  0.28795346633E+02  0.00000000000E+00 0.  1.
          5    1    1    2  502    0 -0.48185947099E+00 -0.24323884702E+02  0.16291066668E+03  0.16478427981E+03  0.47000000000E+01 0. -1.
         -5    1    1    2    0  502  0.46885360642E+02  0.47419953167E+02  0.29331691405E+02  0.73002240525E+02  0.47000000000E+01 0.  1.
        -11    1    1    2    0    0 -0.25970172908E+02 -0.58470361637E+02  0.24919811501E+03  0.25727987406E+03  0.00000000000E+00 0.  1.
         11    1    1    2    0    0 -0.20433328264E+02  0.35374293171E+02  0.20847883804E+03  0.21244361000E+03  0.00000000000E+00 0. -1.
<mgrwt>
<rscale>  0 0.13046380E+03</rscale>
<asrwt>0</asrwt>
<pdfrwt beam="1">  1        1 0.10441763E+00 0.13994751E+03</pdfrwt>
<pdfrwt beam="2">  1       -1 0.44300538E-02 0.13994751E+03</pdfrwt>
<totfact> 0.60221105E+03</totfact>
</mgrwt>
</event>
<event>
 6    1  0.5818426E-006  0.1283138E+03  0.7546771E-02  0.1249091E+00
          3   -1    0    0  501    0  0.00000000000E+00  0.00000000000E+00  0.93182379748E+02  0.93182379748E+02  0.00000000000E+00 0. -1.
         -3   -1    0    0    0  501 -0.00000000000E+00 -0.00000000000E+00 -0.12811102185E+03  0.12811102185E+03  0.00000000000E+00 0.  1.
          5    1    1    2  502    0  0.48910018269E+01  0.57997349854E+02 -0.89653074721E+01  0.59076909423E+02  0.47000000000E+01 0. -1.
         -5    1    1    2    0  502  0.23332325497E+02 -0.64478925957E+02 -0.30266317367E+02  0.75100394624E+02  0.47000000000E+01 0. -1.
        -11    1    1    2    0    0  0.15186603403E+01  0.24912574714E+02 -0.29378613511E+02  0.38549262508E+02  0.00000000000E+00 0.  1.
         11    1    1    2    0    0 -0.29741987664E+02 -0.18430998610E+02  0.33681596250E+02  0.48566835041E+02  0.00000000000E+00 0. -1.
<mgrwt>
<rscale>  0 0.11643861E+03</rscale>
<asrwt>0</asrwt>
<pdfrwt beam="1">  1        3 0.14335751E-01 0.12831379E+03</pdfrwt>
<pdfrwt beam="2">  1       -3 0.19709388E-01 0.12831379E+03</pdfrwt>
<totfact> 0.20967849E+03</totfact>
</mgrwt>
</event>
<event>
 6    1  0.5818426E-006  0.1337459E+03  0.7546771E-02  0.1234157E+00
         -1   -1    0    0    0  501 -0.00000000000E+00  0.00000000000E+00  0.18428340333E+02  0.18428340333E+02  0.00000000000E+00 0.  1.
          1   -1    0    0  501    0  0.00000000000E+00 -0.00000000000E+00 -0.76700594116E+03  0.76700594116E+03  0.00000000000E+00 0. -1.
          5    1    1    2  502    0 -0.56054025877E+02  0.23919583328E+02 -0.31160562592E+03  0.31754425894E+03  0.47000000000E+01 0.  1.
         -5    1    1    2    0  502  0.19133839309E+02 -0.53916383527E+02 -0.10070983168E+03  0.11592083685E+03  0.47000000000E+01 0.  1.
        -11    1    1    2    0    0  0.51013370480E+01  0.58567203198E+02 -0.15615172980E+03  0.16685174153E+03  0.00000000000E+00 0.  1.
         11    1    1    2    0    0  0.31818849521E+02 -0.28570402999E+02 -0.18011041343E+03  0.18511744417E+03  0.00000000000E+00 0. -1.
<mgrwt>
<rscale>  0 0.12558531E+03</rscale>
<asrwt>0</asrwt>
<pdfrwt beam="2">  1        1 0.11800091E+00 0.13374585E+03</pdfrwt>
<pdfrwt beam="1">  1       -1 0.28351294E-02 0.13374585E+03</pdfrwt>
<totfact> 0.96717863E+03</totfact>
</mgrwt>
</event>
<event>
 6    1  0.5818426E-006  0.2719525E+03  0.7546771E-02  0.1100167E+00
         -1   -1    0    0    0  501 -0.00000000000E+00  0.00000000000E+00  0.25590749784E+02  0.25590749784E+02  0.00000000000E+00 0.  1.
          1   -1    0    0  501    0  0.00000000000E+00 -0.00000000000E+00 -0.72250878055E+03  0.72250878055E+03  0.00000000000E+00 0. -1.
          5    1    1    2  502    0  0.21429110224E+02 -0.27559178576E+02 -0.30292906113E+02  0.46459285935E+02  0.47000000000E+01 0. -1.
         -5    1    1    2    0  502 -0.64317877141E+01  0.98975631398E+02 -0.24999866329E+03  0.26899621773E+03  0.47000000000E+01 0. -1.
        -11    1    1    2    0    0  0.28402465152E+02 -0.43393215553E+02 -0.10898929293E+03  0.12069936684E+03  0.00000000000E+00 0.  1.
         11    1    1    2    0    0 -0.43399787662E+02 -0.28023237268E+02 -0.30763716842E+03  0.31194465982E+03  0.00000000000E+00 0. -1.
<mgrwt>
<rscale>  0 0.27195251E+03</rscale>
<asrwt>0</asrwt>
<pdfrwt beam="2">  1        1 0.11115520E+00 0.27195251E+03</pdfrwt>
<pdfrwt beam="1">  1       -1 0.39370383E-02 0.27195251E+03</pdfrwt>
<totfact> 0.67535261E+03</totfact>
</mgrwt>
</event>
<event>
 6    1  0.5818426E-006  0.1682072E+03  0.7546771E-02  0.1201666E+00
         -1   -1    0    0    0  501 -0.00000000000E+00  0.00000000000E+00  0.12302733592E+03  0.12302733592E+03  0.00000000000E+00 0.  1.
          1   -1    0    0  501    0  0.00000000000E+00 -0.00000000000E+00 -0.15019023143E+03  0.15019023143E+03  0.00000000000E+00 0. -1.
          5    1    1    2  502    0 -0.35741452686E+00 -0.19121932141E+02 -0.73630186479E+02  0.76218569882E+02  0.47000000000E+01 0. -1.
         -5    1    1    2    0  502 -0.17788954204E+02  0.70788991011E+02  0.57112168861E+02  0.92797726115E+02  0.47000000000E+01 0.  1.
        -11    1    1    2    0    0 -0.32433646795E+02 -0.73034118093E+01  0.83769154571E+01  0.34284894356E+02  0.00000000000E+00 0.  1.
         11    1    1    2    0    0  0.50580015525E+02 -0.44363647061E+02 -0.19021793350E+02  0.69916377004E+02  0.00000000000E+00 0. -1.
<mgrwt>
<rscale>  0 0.14903291E+03</rscale>
<asrwt>0</asrwt>
<pdfrwt beam="2">  1        1 0.23106189E-01 0.16820720E+03</pdfrwt>
<pdfrwt beam="1">  1       -1 0.18927283E-01 0.16820720E+03</pdfrwt>
<totfact> 0.45303234E+03</totfact>
</mgrwt>
</event>
<event>
 6    1  0.5818426E-006  0.1252194E+03  0.7546771E-02  0.1249776E+00
          2   -1    0    0  501    0  0.00000000000E+00  0.00000000000E+00  0.11241333371E+03  0.11241333371E+03  0.00000000000E+00 0. -1.
         -2   -1    0    0    0  501 -0.00000000000E+00 -0.00000000000E+00 -0.10668544139E+03  0.10668544139E+03  0.00000000000E+00 0.  1.
          5    1    1    2  502    0  0.48112215001E+02  0.24921936010E+02  0.32901795562E+02  0.63564976819E+02  0.47000000000E+01 0.  1.
         -5    1    1    2    0  502 -0.39142225256E+02 -0.22739094343E+02 -0.42090807665E+02  0.61991179206E+02  0.47000000000E+01 0.  1.
        -11    1    1    2    0    0  0.34761951090E+02  0.18709678619E+02  0.20967864346E+02  0.44700074417E+02  0.00000000000E+00 0. -1.
         11    1    1    2    0    0 -0.43731940834E+02 -0.20892520287E+02 -0.60509599261E+01  0.48842544662E+02  0.00000000000E+00 0.  1.
<mgrwt>
<rscale>  0 0.11604004E+03</rscale>
<asrwt>0</asrwt>
<pdfrwt beam="1">  1        2 0.17294359E-01 0.12521945E+03</pdfrwt>
<pdfrwt beam="2">  1       -2 0.16413145E-01 0.12521945E+03</pdfrwt>
<totfact> 0.90645940E+03</totfact>
</mgrwt>
</event>
<event>
 6    1  0.5818426E-006  0.1705597E+03  0.7546771E-02  0.1183283E+00
          2   -1    0    0  501    0  0.00000000000E+00  0.00000000000E+00  0.12533258922E+03  0.12533258922E+03  0.00000000000E+00 0.  1.
         -2   -1    0    0    0  501 -0.00000000000E+00 -0.00000000000E+00 -0.21250360721E+03  0.21250360721E+03  0.00000000000E+00 0. -1.
          5    1    1    2  502    0 -0.24867751344E+02  0.51962514722E+02 -0.76886004591E+02  0.96187606764E+02  0.47000000000E+01 0.  1.
         -5    1    1    2    0  502 -0.88389473567E+02 -0.26655255257E+02 -0.38635237355E+01  0.92521448789E+02  0.47000000000E+01 0.  1.
        -11    1    1    2    0    0 -0.13324479307E+02 -0.16603474362E+02  0.45614514805E+01  0.21772091064E+02  0.00000000000E+00 0.  1.
         11    1    1    2    0    0  0.12658170422E+03 -0.87037851020E+01 -0.10982941143E+02  0.12735504982E+03  0.00000000000E+00 0. -1.
<mgrwt>
<rscale>  0 0.16489056E+03</rscale>
<asrwt>0</asrwt>
<pdfrwt beam="1">  1        2 0.19281937E-01 0.17055973E+03</pdfrwt>
<pdfrwt beam="2">  1       -2 0.32692862E-01 0.17055973E+03</pdfrwt>
<totfact> 0.24712947E+03</totfact>
</mgrwt>
</event>
<event>
 6    1  0.5818426E-006  0.1666651E+03  0.7546771E-02  0.1187932E+00
         -2   -1    0    0    0  501 -0.00000000000E+00  0.00000000000E+00  0.31965572372E+02  0.31965572372E+02  0.00000000000E+00 0.  1.
          2   -1    0    0  501    0  0.00000000000E+00 -0.00000000000E+00 -0.77896279932E+03  0.77896279932E+03  0.00000000000E+00 0. -1.
          5    1    1    2  502    0  0.67620581583E+02 -0.82794230357E+02 -0.14602247572E+03  0.18103060805E+03  0.47000000000E+01 0. -1.
         -5    1    1    2    0  502  0.29260098820E+02  0.30225893153E+02 -0.18256220826E+03  0.18740546386E+03  0.47000000000E+01 0. -1.
        -11    1    1    2    0    0 -0.10578418718E+03  0.19357234024E+02 -0.34607452906E+03  0.36239836704E+03  0.00000000000E+00 0.  1.
         11    1    1    2    0    0  0.89035067722E+01  0.33211103180E+02 -0.72338013904E+02  0.80093932747E+02  0.00000000000E+00 0. -1.
<mgrwt>
<rscale>  0 0.16067908E+03</rscale>
<asrwt>0</asrwt>
<pdfrwt beam="2">  1        2 0.11984043E+00 0.16666507E+03</pdfrwt>
<pdfrwt beam="1">  1       -2 0.49177806E-02 0.16666507E+03</pdfrwt>
<totfact> 0.71886551E+03</totfact>
</mgrwt>
</event>
<event>
 6    1  0.5818426E-006  0.1380626E+03  0.7546771E-02  0.1227085E+00
          1   -1    0    0  501    0  0.00000000000E+00  0.00000000000E+00  0.15697272881E+03  0.15697272881E+03  0.00000000000E+00 0. -1.
         -1   -1    0    0    0  501 -0.00000000000E+00 -0.00000000000E+00 -0.10074819564E+03  0.10074819564E+03  0.00000000000E+00 0.  1.
          5    1    1    2  502    0  0.81764475188E+02  0.44957546966E+02  0.60100512006E+01  0.93620623516E+02  0.47000000000E+01 0.  1.
         -5    1    1    2    0  502 -0.23593061041E+02 -0.37594299801E+02  0.22832627578E+01  0.44690795424E+02  0.47000000000E+01 0.  1.
        -11    1    1    2    0    0 -0.76525113060E+02 -0.23047808305E+02  0.19795767502E+02  0.82335695828E+02  0.00000000000E+00 0.  1.
         11    1    1    2    0    0  0.18353698913E+02  0.15684561140E+02  0.28135451704E+02  0.37073809684E+02  0.00000000000E+00 0. -1.
<mgrwt>
<rscale>  0 0.13025035E+03</rscale>
<asrwt>0</asrwt>
<pdfrwt beam="1">  1        1 0.24149650E-01 0.13806256E+03</pdfrwt>
<pdfrwt beam="2">  1       -1 0.15499722E-01 0.13806256E+03</pdfrwt>
<totfact> 0.58155675E+03</totfact>
</mgrwt>
</event>
<event>
 6    1  0.5818426E-006  0.4281220E+03  0.7546771E-02  0.1034455E+00
          2   -1    0    0  501    0  0.00000000000E+00  0.00000000000E+00  0.36351340385E+03  0.36351340385E+03  0.00000000000E+00 0. -1.
         -2   -1    0    0    0  501 -0.00000000000E+00 -0.00000000000E+00 -0.12605342602E+03  0.12605342602E+03  0.00000000000E+00 0.  1.
          5    1    1    2  502    0 -0.51901177312E+02  0.12474042779E+03 -0.60464104368E+02  0.14809424178E+03  0.47000000000E+01 0. -1.
         -5    1    1    2    0  502  0.64367113103E+01 -0.82345866673E+01  0.29302025082E+02  0.31463285652E+02  0.47000000000E+01 0. -1.
        -11    1    1    2    0    0 -0.22421063757E+02 -0.53501061562E+02  0.13972117354E+03  0.15128474485E+03  0.00000000000E+00 0. -1.
         11    1    1    2    0    0  0.67885529758E+02 -0.63004779557E+02  0.12890088357E+03  0.15872455759E+03  0.00000000000E+00 0.  1.
<mgrwt>
<rscale>  0 0.42812199E+03</rscale>
<asrwt>0</asrwt>
<pdfrwt beam="1">  1        2 0.55925139E-01 0.42812199E+03</pdfrwt>
<pdfrwt beam="2">  1       -2 0.19392835E-01 0.42812199E+03</pdfrwt>
<totfact> 0.19786610E+03</totfact>
</mgrwt>
</event>
<event>
 6    1  0.5818426E-006  0.2491996E+03  0.7546771E-02  0.1113812E+00
          1   -1    0    0  501    0  0.00000000000E+00  0.00000000000E+00  0.89561673370E+02  0.89561673370E+02  0.00000000000E+00 0. -1.
         -1   -1    0    0    0  501 -0.00000000000E+00 -0.00000000000E+00 -0.17334553069E+03  0.17334553069E+03  0.00000000000E+00 0.  1.
          5    1    1    2  502    0  0.55634393004E+02  0.81279290554E+02 -0.42019374013E+02  0.10718780971E+03  0.47000000000E+01 0.  1.
         -5    1    1    2    0  502 -0.32139586577E+02 -0.23369387011E+02 -0.51454188072E+01  0.40344102535E+02  0.47000000000E+01 0.  1.
        -11    1    1    2    0    0 -0.40029138878E+02 -0.20253972138E+02 -0.54449771494E+02  0.70550215892E+02  0.00000000000E+00 0.  1.
         11    1    1    2    0    0  0.16534332451E+02 -0.37655931406E+02  0.17830706994E+02  0.44825075923E+02  0.00000000000E+00 0. -1.
<mgrwt>
<rscale>  0 0.24919965E+03</rscale>
<asrwt>0</asrwt>
<pdfrwt beam="1">  1        1 0.13778719E-01 0.24919965E+03</pdfrwt>
<pdfrwt beam="2">  1       -1 0.26668543E-01 0.24919965E+03</pdfrwt>
<totfact> 0.51472203E+03</totfact>
</mgrwt>
</event>
<event>
 6    1  0.5818426E-006  0.4861249E+03  0.7546771E-02  0.1017465E+00
         -2   -1    0    0    0  501 -0.00000000000E+00  0.00000000000E+00  0.81925979628E+02  0.81925979628E+02  0.00000000000E+00 0.  1.
          2   -1    0    0  501    0  0.00000000000E+00 -0.00000000000E+00 -0.72113076442E+03  0.72113076442E+03  0.00000000000E+00 0. -1.
          5    1    1    2  502    0 -0.53599188540E+00 -0.14708587381E+02  0.30602903443E+02  0.34282029246E+02  0.47000000000E+01 0.  1.
         -5    1    1    2    0  502 -0.81112289376E+02  0.95859959432E+02 -0.55863456491E+02  0.13751782096E+03  0.47000000000E+01 0.  1.
        -11    1    1    2    0    0  0.10000131944E+03 -0.55083393260E+02 -0.45125616349E+03  0.46547456342E+03  0.00000000000E+00 0.  1.
         11    1    1    2    0    0 -0.18353038176E+02 -0.26067978791E+02 -0.16268806825E+03  0.16578233042E+03  0.00000000000E+00 0. -1.
<mgrwt>
<rscale>  0 0.48612486E+03</rscale>
<asrwt>0</asrwt>
<pdfrwt beam="2">  1        2 0.11094320E+00 0.48612486E+03</pdfrwt>
<pdfrwt beam="1">  1       -2 0.12603997E-01 0.48612486E+03</pdfrwt>
<totfact> 0.18513416E+03</totfact>
</mgrwt>
</event>
<event>
 6    1  0.5818426E-006  0.1921818E+03  0.7546771E-02  0.1161418E+00
         -1   -1    0    0    0  501 -0.00000000000E+00  0.00000000000E+00  0.22666242857E+03  0.22666242857E+03  0.00000000000E+00 0.  1.
          1   -1    0    0  501    0  0.00000000000E+00 -0.00000000000E+00 -0.15503665142E+03  0.15503665142E+03  0.00000000000E+00 0. -1.
          5    1    1    2  502    0 -0.22297069723E+02  0.52512737517E+02 -0.19648114172E+02  0.60521775505E+02  0.47000000000E+01 0. -1.
         -5    1    1    2    0  502 -0.12347315800E+03 -0.44738657905E+02  0.10862782526E+02  0.13186075346E+03  0.47000000000E+01 0. -1.
        -11    1    1    2    0    0  0.64975567364E+02  0.25412730983E+02  0.74050363805E+02  0.10174029502E+03  0.00000000000E+00 0.  1.
         11    1    1    2    0    0  0.80794660361E+02 -0.33186810595E+02  0.63607449832E+01  0.87576256011E+02  0.00000000000E+00 0. -1.
<mgrwt>
<rscale>  0 0.18675882E+03</rscale>
<asrwt>0</asrwt>
<pdfrwt beam="2">  1        1 0.23851793E-01 0.19218183E+03</pdfrwt>
<pdfrwt beam="1">  1       -1 0.34871143E-01 0.19218183E+03</pdfrwt>
<totfact> 0.15843116E+03</totfact>
</mgrwt>
</event>
<event>
 6    1  0.5818426E-006  0.2981472E+03  0.7546771E-02  0.1086170E+00
         -1   -1    0    0    0  501 -0.00000000000E+00  0.00000000000E+00  0.15522161231E+03  0.15522161231E+03  0.00000000000E+00 0.  1.
          1   -1    0    0  501    0  0.00000000000E+00 -0.00000000000E+00 -0.14316912685E+03  0.14316912685E+03  0.00000000000E+00 0. -1.
          5    1    1    2  502    0  0.50749957952E+01  0.28193316391E+01 -0.31735674174E+02  0.32602871476E+02  0.47000000000E+01 0. -1.
         -5    1    1    2    0  502  0.38865688216E+02  0.40816385368E+02  0.11962723636E+03  0.13232265382E+03  0.47000000000E+01 0. -1.
        -11    1    1    2    0    0 -0.34424966493E+02 -0.66624287323E+02 -0.78353828489E+02  0.10845827040E+03  0.00000000000E+00 0. -1.
         11    1    1    2    0    0 -0.95157175180E+01  0.22988570316E+02  0.25147517581E+01  0.25006943465E+02  0.00000000000E+00 0.  1.
<mgrwt>
<rscale>  0 0.29814723E+03</rscale>
<asrwt>0</asrwt>
<pdfrwt beam="2">  1        1 0.22026020E-01 0.29814723E+03</pdfrwt>
<pdfrwt beam="1">  1       -1 0.23880248E-01 0.29814723E+03</pdfrwt>
<totfact> 0.33802898E+03</totfact>
</mgrwt>
</event>
<event>
 6    1  0.5818426E-006  0.1408348E+03  0.7546771E-02  0.1220813E+00
          2   -1    0    0  501    0  0.00000000000E+00  0.00000000000E+00  0.69376759713E+02  0.69376759713E+02  0.00000000000E+00 0. -1.
         -2   -1    0    0    0  501 -0.00000000000E+00 -0.00000000000E+00 -0.28930456111E+03  0.28930456111E+03  0.00000000000E+00 0.  1.
          5    1    1    2  502    0  0.45917131306E+02 -0.17610525744E+02 -0.24087293831E+02  0.54961816641E+02  0.47000000000E+01 0.  1.
         -5    1    1    2    0  502 -0.56435459486E+02 -0.46402543841E+02 -0.16766337644E+03  0.18295150987E+03  0.47000000000E+01 0.  1.
        -11    1    1    2    0    0 -0.15547435037E+02  0.80163034221E+01  0.30765466691E+02  0.35390645622E+02  0.00000000000E+00 0. -1.
         11    1    1    2    0    0  0.26065763217E+02  0.55996766163E+02 -0.58942597814E+02  0.85377348693E+02  0.00000000000E+00 0.  1.
<mgrwt>
<rscale>  0 0.13458037E+03</rscale>
<asrwt>0</asrwt>
<pdfrwt beam="1">  1        2 0.10673348E-01 0.14083477E+03</pdfrwt>
<pdfrwt beam="2">  1       -2 0.44508394E-01 0.14083477E+03</pdfrwt>
<totfact> 0.27548382E+03</totfact>
</mgrwt>
</event>
<event>
 6    1  0.5818426E-006  0.1292093E+03  0.7546771E-02  0.1240997E+00
          3   -1    0    0  501    0  0.00000000000E+00  0.00000000000E+00  0.10687998220E+03  0.10687998220E+03  0.00000000000E+00 0. -1.
         -3   -1    0    0    0  501 -0.00000000000E+00 -0.00000000000E+00 -0.12342408744E+03  0.12342408744E+03  0.00000000000E+00 0.  1.
          5    1    1    2  502    0 -0.58377909468E+02  0.49946865328E+02 -0.30652987214E+02  0.82851465256E+02  0.47000000000E+01 0.  1.
         -5    1    1    2    0  502  0.35429637253E+02 -0.25843266674E+02  0.16588247193E+02  0.47121052335E+02  0.47000000000E+01 0.  1.
        -11    1    1    2    0    0  0.12647647196E+02  0.14965639058E+02  0.38240143517E+02  0.42967917197E+02  0.00000000000E+00 0. -1.
         11    1    1    2    0    0  0.10300625020E+02 -0.39069237711E+02 -0.40719508734E+02  0.57363634845E+02  0.00000000000E+00 0.  1.
<mgrwt>
<rscale>  0 0.12128204E+03</rscale>
<asrwt>0</asrwt>
<pdfrwt beam="1">  1        3 0.16443074E-01 0.12920928E+03</pdfrwt>
<pdfrwt beam="2">  1       -3 0.18988321E-01 0.12920928E+03</pdfrwt>
<totfact> 0.17721313E+03</totfact>
</mgrwt>
</event>
<event>
 6    1  0.5818426E-006  0.1270974E+03  0.7546771E-02  0.1262368E+00
         -2   -1    0    0    0  501 -0.00000000000E+00  0.00000000000E+00  0.35057015094E+02  0.35057015094E+02  0.00000000000E+00 0.  1.
          2   -1    0    0  501    0  0.00000000000E+00 -0.00000000000E+00 -0.28982997822E+03  0.28982997822E+03  0.00000000000E+00 0. -1.
          5    1    1    2  502    0  0.29837098584E+02 -0.43505932851E+02 -0.60141347712E+02  0.80137945755E+02  0.47000000000E+01 0. -1.
         -5    1    1    2    0  502 -0.50495001685E+02  0.53502159202E+02 -0.66430015830E+02  0.99233377639E+02  0.47000000000E+01 0. -1.
        -11    1    1    2    0    0  0.22423581149E+02  0.98828202666E+01 -0.11409670635E+02  0.27030865912E+02  0.00000000000E+00 0.  1.
         11    1    1    2    0    0 -0.17656780476E+01 -0.19879046617E+02 -0.11679192894E+03  0.11848480400E+03  0.00000000000E+00 0. -1.
<mgrwt>
<rscale>  0 0.10903484E+03</rscale>
<asrwt>0</asrwt>
<pdfrwt beam="2">  1        2 0.44589228E-01 0.12709745E+03</pdfrwt>
<pdfrwt beam="1">  1       -2 0.53933869E-02 0.12709745E+03</pdfrwt>
<totfact> 0.18405868E+04</totfact>
</mgrwt>
</event>
<event>
 6    1  0.5818426E-006  0.1672893E+03  0.7546771E-02  0.1188679E+00
          1   -1    0    0  501    0  0.00000000000E+00  0.00000000000E+00  0.41601066688E+03  0.41601066688E+03  0.00000000000E+00 0. -1.
         -1   -1    0    0    0  501 -0.00000000000E+00 -0.00000000000E+00 -0.64863223009E+02  0.64863223009E+02  0.00000000000E+00 0.  1.
          5    1    1    2  502    0  0.15976779226E+02  0.84242561708E+02 -0.25447580330E+01  0.85910607442E+02  0.47000000000E+01 0.  1.
         -5    1    1    2    0  502  0.22691638892E+02  0.19988532113E+02  0.10704922431E+03  0.11133767699E+03  0.47000000000E+01 0.  1.
        -11    1    1    2    0    0  0.24825129374E+02 -0.35880353095E+02  0.10837766686E+03  0.11683067004E+03  0.00000000000E+00 0.  1.
         11    1    1    2    0    0 -0.63493547492E+02 -0.68350740726E+02  0.13826531073E+03  0.16679493542E+03  0.00000000000E+00 0. -1.
<mgrwt>
<rscale>  0 0.16001577E+03</rscale>
<asrwt>0</asrwt>
<pdfrwt beam="1">  1        1 0.64001639E-01 0.16728928E+03</pdfrwt>
<pdfrwt beam="2">  1       -1 0.99789577E-02 0.16728928E+03</pdfrwt>
<totfact> 0.34439163E+03</totfact>
</mgrwt>
</event>
<event>
 6    1  0.5818426E-006  0.2530041E+03  0.7546771E-02  0.1148210E+00
         -1   -1    0    0    0  501 -0.00000000000E+00  0.00000000000E+00  0.11286013606E+04  0.11286013606E+04  0.00000000000E+00 0.  1.
          1   -1    0    0  501    0  0.00000000000E+00 -0.00000000000E+00 -0.59960061857E+02  0.59960061857E+02  0.00000000000E+00 0. -1.
          5    1    1    2  502    0 -0.20713889003E+02  0.69509969114E+01 -0.47847623254E+01  0.22855316804E+02  0.47000000000E+01 0. -1.
         -5    1    1    2    0  502  0.66435529761E+02  0.19180291415E+02  0.10601361987E+04  0.10623993661E+04  0.47000000000E+01 0.  1.
        -11    1    1    2    0    0  0.12619497128E+02  0.22339312094E+02 -0.26728044093E+01  0.25796132578E+02  0.00000000000E+00 0.  1.
         11    1    1    2    0    0 -0.58341137886E+02 -0.48470600420E+02  0.15962666815E+02  0.77510607059E+02  0.00000000000E+00 0. -1.
<mgrwt>
<rscale>  0 0.20182357E+03</rscale>
<asrwt>0</asrwt>
<pdfrwt beam="2">  1        1 0.92246258E-02 0.25300410E+03</pdfrwt>
<pdfrwt beam="1">  1       -1 0.17363096E+00 0.25300410E+03</pdfrwt>
<totfact> 0.18205149E+02</totfact>
</mgrwt>
</event>
<event>
 6    1  0.5818426E-006  0.1362943E+03  0.7546771E-02  0.1230796E+00
          2   -1    0    0  501    0  0.00000000000E+00  0.00000000000E+00  0.10735004392E+04  0.10735004392E+04  0.00000000000E+00 0. -1.
         -2   -1    0    0    0  501 -0.00000000000E+00 -0.00000000000E+00 -0.13811296131E+02  0.13811296131E+02  0.00000000000E+00 0.  1.
          5    1    1    2  502    0 -0.73149485206E+02 -0.26184040589E+02  0.32751517645E+03  0.33663738944E+03  0.47000000000E+01 0. -1.
         -5    1    1    2    0  502  0.24646662951E+02  0.50653743430E+02  0.33745741406E+03  0.34215910922E+03  0.47000000000E+01 0. -1.
        -11    1    1    2    0    0 -0.60942886811E+01  0.13153859690E+02  0.88317876512E+01  0.16975419063E+02  0.00000000000E+00 0.  1.
         11    1    1    2    0    0  0.54597110935E+02 -0.37623562531E+02  0.38588476493E+03  0.39153981762E+03  0.00000000000E+00 0. -1.
<mgrwt>
<rscale>  0 0.12777419E+03</rscale>
<asrwt>0</asrwt>
<pdfrwt beam="1">  1        2 0.16515385E+00 0.13629432E+03</pdfrwt>
<pdfrwt beam="2">  1       -2 0.21248156E-02 0.13629432E+03</pdfrwt>
<totfact> 0.16061659E+04</totfact>
</mgrwt>
</event>
<event>
 6    1  0.5818426E-006  0.1315648E+03  0.7546771E-02  0.1238939E+00
          2   -1    0    0  501    0  0.00000000000E+00  0.00000000000E+00  0.30861704807E+03  0.30861704807E+03  0.00000000000E+00 0. -1.
         -2   -1    0    0    0  501 -0.00000000000E+00 -0.00000000000E+00 -0.44268439042E+02  0.44268439042E+02  0.00000000000E+00 0.  1.
          5    1    1    2  502    0  0.32179402976E+02 -0.38217966427E+02  0.30814320695E+01  0.50276357836E+02  0.47000000000E+01 0.  1.
         -5    1    1    2    0  502  0.72010918133E+01  0.49786168171E+02  0.11867914576E+03  0.12898584381E+03  0.47000000000E+01 0.  1.
        -11    1    1    2    0    0 -0.13869323841E+02 -0.96690930869E+00 -0.10901511873E+02  0.17667371580E+02  0.00000000000E+00 0.  1.
         11    1    1    2    0    0 -0.25511170948E+02 -0.10601292435E+02  0.15348954307E+03  0.15595591389E+03  0.00000000000E+00 0. -1.
<mgrwt>
<rscale>  0 0.12255581E+03</rscale>
<asrwt>0</asrwt>
<pdfrwt beam="1">  1        2 0.47479545E-01 0.13156481E+03</pdfrwt>
<pdfrwt beam="2">  1       -2 0.68105293E-02 0.13156481E+03</pdfrwt>
<totfact> 0.12130531E+04</totfact>
</mgrwt>
</event>
<event>
 6    1  0.5818426E-006  0.1369073E+03  0.7546771E-02  0.1228636E+00
         -2   -1    0    0    0  501 -0.00000000000E+00  0.00000000000E+00  0.35348629658E+03  0.35348629658E+03  0.00000000000E+00 0.  1.
          2   -1    0    0  501    0  0.00000000000E+00 -0.00000000000E+00 -0.43633956532E+02  0.43633956532E+02  0.00000000000E+00 0. -1.
          5    1    1    2  502    0  0.11961203420E+02  0.40577653990E+02  0.15923613791E+03  0.16482673936E+03  0.47000000000E+01 0. -1.
         -5    1    1    2    0  502 -0.63671560183E+02 -0.19476722788E+02  0.43028994802E+02  0.79416589579E+02  0.47000000000E+01 0. -1.
        -11    1    1    2    0    0  0.24070144093E+02  0.30772846760E+02  0.77626193095E+02  0.86903197805E+02  0.00000000000E+00 0.  1.
         11    1    1    2    0    0  0.27640212671E+02 -0.51873777962E+02  0.29961014236E+02  0.65973726366E+02  0.00000000000E+00 0. -1.
<mgrwt>
<rscale>  0 0.12920773E+03</rscale>
<asrwt>0</asrwt>
<pdfrwt beam="2">  1        2 0.67129166E-02 0.13690734E+03</pdfrwt>
<pdfrwt beam="1">  1       -2 0.54382505E-01 0.13690734E+03</pdfrwt>
<totfact> 0.33051328E+03</totfact>
</mgrwt>
</event>
<event>
 6    1  0.5818426E-006  0.1465756E+03  0.7546771E-02  0.1218320E+00
          1   -1    0    0  501    0  0.00000000000E+00  0.00000000000E+00  0.58896428791E+02  0.58896428791E+02  0.00000000000E+00 0. -1.
         -1   -1    0    0    0  501 -0.00000000000E+00 -0.00000000000E+00 -0.30222833750E+03  0.30222833750E+03  0.00000000000E+00 0.  1.
          5    1    1    2  502    0 -0.14558362942E+02  0.53551452694E+02 -0.42698077550E+02  0.70177773146E+02  0.47000000000E+01 0. -1.
         -5    1    1    2    0  502  0.74827341549E+02 -0.39685816039E+02 -0.14472890256E+03  0.16775768321E+03  0.47000000000E+01 0.  1.
        -11    1    1    2    0    0 -0.67318177437E+02 -0.27150366874E+02 -0.80561415041E+01  0.73032738213E+02  0.00000000000E+00 0. -1.
         11    1    1    2    0    0  0.70491988307E+01  0.13284730219E+02 -0.47848787096E+02  0.50156571730E+02  0.00000000000E+00 0.  1.
<mgrwt>
<rscale>  0 0.13635490E+03</rscale>
<asrwt>0</asrwt>
<pdfrwt beam="1">  1        1 0.90609889E-02 0.14657561E+03</pdfrwt>
<pdfrwt beam="2">  1       -1 0.46496668E-01 0.14657561E+03</pdfrwt>
<totfact> 0.33305736E+03</totfact>
</mgrwt>
</event>
<event>
 6    1  0.5818426E-006  0.3943621E+03  0.7546771E-02  0.1045750E+00
          1   -1    0    0  501    0  0.00000000000E+00  0.00000000000E+00  0.36869979710E+03  0.36869979710E+03  0.00000000000E+00 0. -1.
         -1   -1    0    0    0  501 -0.00000000000E+00 -0.00000000000E+00 -0.10545264751E+03  0.10545264751E+03  0.00000000000E+00 0.  1.
          5    1    1    2  502    0 -0.14457974113E+03  0.20839545247E+02  0.35258628001E+02  0.15034243926E+03  0.47000000000E+01 0. -1.
         -5    1    1    2    0  502  0.19389514730E+02  0.16712027570E+02 -0.17525118534E+02  0.31376184066E+02  0.47000000000E+01 0. -1.
        -11    1    1    2    0    0  0.67448546204E+02 -0.33571752168E+02  0.21325472571E+03  0.22617238330E+03  0.00000000000E+00 0. -1.
         11    1    1    2    0    0  0.57741680201E+02 -0.39798206495E+01  0.32258914414E+02  0.66261437986E+02  0.00000000000E+00 0.  1.
<mgrwt>
<rscale>  0 0.39436212E+03</rscale>
<asrwt>0</asrwt>
<pdfrwt beam="1">  1        1 0.56723045E-01 0.39436212E+03</pdfrwt>
<pdfrwt beam="2">  1       -1 0.16223484E-01 0.39436212E+03</pdfrwt>
<totfact> 0.19161757E+03</totfact>
</mgrwt>
</event>
<event>
 6    1  0.5818426E-006  0.1617693E+03  0.7546771E-02  0.1192584E+00
          3   -1    0    0  501    0  0.00000000000E+00  0.00000000000E+00  0.29678587129E+03  0.29678587129E+03  0.00000000000E+00 0. -1.
         -3   -1    0    0    0  501 -0.00000000000E+00 -0.00000000000E+00 -0.98952926625E+02  0.98952926625E+02  0.00000000000E+00 0.  1.
          5    1    1    2  502    0 -0.72449189747E+02  0.27164595521E+02  0.63582126545E+02  0.10025755413E+03  0.47000000000E+01 0. -1.
         -5    1    1    2    0  502 -0.30878833339E+02  0.16264356214E+02 -0.51026131802E+02  0.61998288349E+02  0.47000000000E+01 0.  1.
        -11    1    1    2    0    0  0.94696208887E+02 -0.66905545400E+02  0.14022188013E+03  0.18195026697E+03  0.00000000000E+00 0.  1.
         11    1    1    2    0    0  0.86318141993E+01  0.23476593665E+02  0.45055069792E+02  0.51532688465E+02  0.00000000000E+00 0. -1.
<mgrwt>
<rscale>  0 0.15660490E+03</rscale>
<asrwt>0</asrwt>
<pdfrwt beam="1">  1        3 0.45659364E-01 0.16176930E+03</pdfrwt>
<pdfrwt beam="2">  1       -3 0.15223527E-01 0.16176930E+03</pdfrwt>
<totfact> 0.41245740E+02</totfact>
</mgrwt>
</event>
<event>
 6    1  0.5818426E-006  0.1764149E+03  0.7546771E-02  0.1177560E+00
          1   -1    0    0  501    0  0.00000000000E+00  0.00000000000E+00  0.44053692298E+02  0.44053692298E+02  0.00000000000E+00 0. -1.
         -1   -1    0    0    0  501 -0.00000000000E+00 -0.00000000000E+00 -0.73311934482E+03  0.73311934482E+03  0.00000000000E+00 0.  1.
          5    1    1    2  502    0 -0.23876410082E+02  0.76975179341E+02 -0.31497943802E+03  0.32516057198E+03  0.47000000000E+01 0.  1.
         -5    1    1    2    0  502 -0.87431902612E+02 -0.21249479221E+02 -0.20487054828E+03  0.22380775124E+03  0.47000000000E+01 0.  1.
        -11    1    1    2    0    0  0.15508556991E+02  0.17553910703E+02 -0.63990397665E+02  0.68142689368E+02  0.00000000000E+00 0.  1.
         11    1    1    2    0    0  0.95799755703E+02 -0.73279610822E+02 -0.10522526855E+03  0.16006202453E+03  0.00000000000E+00 0. -1.
<mgrwt>
<rscale>  0 0.17027626E+03</rscale>
<asrwt>0</asrwt>
<pdfrwt beam="1">  1        1 0.67774917E-02 0.17641488E+03</pdfrwt>
<pdfrwt beam="2">  1       -1 0.11278758E+00 0.17641488E+03</pdfrwt>
<totfact> 0.82983305E+02</totfact>
</mgrwt>
</event>
<event>
 6    1  0.5818426E-006  0.1686854E+03  0.7546771E-02  0.1185772E+00
          2   -1    0    0  501    0  0.00000000000E+00  0.00000000000E+00  0.13159268078E+03  0.13159268078E+03  0.00000000000E+00 0. -1.
         -2   -1    0    0    0  501 -0.00000000000E+00 -0.00000000000E+00 -0.20862338920E+03  0.20862338920E+03  0.00000000000E+00 0.  1.
          5    1    1    2  502    0 -0.48569432862E+01  0.34583464549E+02  0.16757452368E+02  0.39019330186E+02  0.47000000000E+01 0.  1.
         -5    1    1    2    0  502 -0.10611651395E+03 -0.11944569055E+02 -0.11146522696E+03  0.15443436821E+03  0.47000000000E+01 0.  1.
        -11    1    1    2    0    0 -0.87704310768E+01 -0.20624768510E+02  0.15005805051E+02  0.26971757870E+02  0.00000000000E+00 0.  1.
         11    1    1    2    0    0  0.11974388831E+03 -0.20141269835E+01  0.26712611246E+01  0.11979061371E+03  0.00000000000E+00 0. -1.
<mgrwt>
<rscale>  0 0.16261796E+03</rscale>
<asrwt>0</asrwt>
<pdfrwt beam="1">  1        2 0.20245028E-01 0.16868542E+03</pdfrwt>
<pdfrwt beam="2">  1       -2 0.32095906E-01 0.16868542E+03</pdfrwt>
<totfact> 0.24168144E+03</totfact>
</mgrwt>
</event>
<event>
 6    1  0.5818426E-006  0.1355620E+03  0.7546771E-02  0.1231581E+00
         -3   -1    0    0    0  501 -0.00000000000E+00  0.00000000000E+00  0.53488014550E+02  0.53488014550E+02  0.00000000000E+00 0.  1.
          3   -1    0    0  501    0  0.00000000000E+00 -0.00000000000E+00 -0.28501749192E+03  0.28501749192E+03  0.00000000000E+00 0. -1.
          5    1    1    2  502    0 -0.62361016627E+02 -0.46786250232E+02 -0.91093119552E+02  0.11999123316E+03  0.47000000000E+01 0. -1.
         -5    1    1    2    0  502  0.43791222070E+02 -0.22737396098E+01 -0.14093710925E+01  0.44123886378E+02  0.47000000000E+01 0. -1.
        -11    1    1    2    0    0  0.44501358167E+01  0.65026541348E+02 -0.48117554302E+02  0.81015762790E+02  0.00000000000E+00 0.  1.
         11    1    1    2    0    0  0.14119658740E+02 -0.15966551507E+02 -0.90909432422E+02  0.93374624139E+02  0.00000000000E+00 0. -1.
<mgrwt>
<rscale>  0 0.12725890E+03</rscale>
<asrwt>0</asrwt>
<pdfrwt beam="2">  1        3 0.43848844E-01 0.13556202E+03</pdfrwt>
<pdfrwt beam="1">  1       -3 0.82289254E-02 0.13556202E+03</pdfrwt>
<totfact> 0.12170788E+03</totfact>
</mgrwt>
</event>
<event>
 6    1  0.5818426E-006  0.1408876E+03  0.7546771E-02  0.1222792E+00
          2   -1    0    0  501    0  0.00000000000E+00  0.00000000000E+00  0.83488873460E+02  0.83488873460E+02  0.00000000000E+00 0. -1.
         -2   -1    0    0    0  501 -0.00000000000E+00 -0.00000000000E+00 -0.20623964855E+03  0.20623964855E+03  0.00000000000E+00 0.  1.
          5    1    1    2  502    0  0.50900911564E+02 -0.96227745922E+00  0.35229923566E+01  0.51247734107E+02  0.47000000000E+01 0. -1.
         -5    1    1    2    0  502 -0.19022328484E+02  0.57594649640E+02 -0.10870953029E+03  0.12457465482E+03  0.47000000000E+01 0. -1.
        -11    1    1    2    0    0 -0.30861304429E+02  0.19329561809E+02 -0.85425898525E+01  0.37403581542E+02  0.00000000000E+00 0.  1.
         11    1    1    2    0    0 -0.10172786511E+01 -0.75961933990E+02 -0.90216473002E+01  0.76502551535E+02  0.00000000000E+00 0. -1.
<mgrwt>
<rscale>  0 0.13319406E+03</rscale>
<asrwt>0</asrwt>
<pdfrwt beam="1">  1        2 0.12844442E-01 0.14088756E+03</pdfrwt>
<pdfrwt beam="2">  1       -2 0.31729177E-01 0.14088756E+03</pdfrwt>
<totfact> 0.41527517E+03</totfact>
</mgrwt>
</event>
<event>
 6    1  0.5818426E-006  0.3065580E+03  0.7546771E-02  0.1082008E+00
          1   -1    0    0  501    0  0.00000000000E+00  0.00000000000E+00  0.90722539256E+02  0.90722539256E+02  0.00000000000E+00 0. -1.
         -1   -1    0    0    0  501 -0.00000000000E+00 -0.00000000000E+00 -0.25897042755E+03  0.25897042755E+03  0.00000000000E+00 0.  1.
          5    1    1    2  502    0 -0.90275078258E+02  0.65907192180E+02 -0.87050529915E+02  0.14175059962E+03  0.47000000000E+01 0. -1.
         -5    1    1    2    0  502  0.28824825349E+02 -0.22984481133E+02 -0.43870385186E+02  0.57496587949E+02  0.47000000000E+01 0.  1.
        -11    1    1    2    0    0  0.47287989966E+02  0.19476062683E+01  0.38632768021E+02  0.61093681590E+02  0.00000000000E+00 0. -1.
         11    1    1    2    0    0  0.14162262942E+02 -0.44870317315E+02 -0.75959741211E+02  0.89352097639E+02  0.00000000000E+00 0.  1.
<mgrwt>
<rscale>  0 0.30655802E+03</rscale>
<asrwt>0</asrwt>
<pdfrwt beam="1">  1        1 0.13957314E-01 0.30655802E+03</pdfrwt>
<pdfrwt beam="2">  1       -1 0.39841604E-01 0.30655802E+03</pdfrwt>
<totfact> 0.25494570E+03</totfact>
</mgrwt>
</event>
<event>
 6    1  0.5818426E-006  0.2209907E+03  0.7546771E-02  0.1135955E+00
          2   -1    0    0  501    0  0.00000000000E+00  0.00000000000E+00  0.42847453023E+03  0.42847453023E+03  0.00000000000E+00 0. -1.
         -2   -1    0    0    0  501 -0.00000000000E+00 -0.00000000000E+00 -0.11680700108E+03  0.11680700108E+03  0.00000000000E+00 0.  1.
          5    1    1    2  502    0  0.27995083204E+02 -0.95491069488E+02  0.78554397364E+02  0.12686667167E+03  0.47000000000E+01 0. -1.
         -5    1    1    2    0  502  0.10406737295E+03 -0.29064060792E+02  0.14545261880E+01  0.10816165397E+03  0.47000000000E+01 0.  1.
        -11    1    1    2    0    0 -0.34107910239E+02  0.72864948369E+02  0.42332796112E+02  0.90910482720E+02  0.00000000000E+00 0.  1.
         11    1    1    2    0    0 -0.97954545920E+02  0.51690181911E+02  0.18932580948E+03  0.21934272295E+03  0.00000000000E+00 0. -1.
<mgrwt>
<rscale>  0 0.21724293E+03</rscale>
<asrwt>0</asrwt>
<pdfrwt beam="1">  1        2 0.65919158E-01 0.22099069E+03</pdfrwt>
<pdfrwt beam="2">  1       -2 0.17970308E-01 0.22099069E+03</pdfrwt>
<totfact> 0.18575347E+03</totfact>
</mgrwt>
</event>
<event>
 6    1  0.5818426E-006  0.1381856E+03  0.7546771E-02  0.1230918E+00
          2   -1    0    0  501    0  0.00000000000E+00  0.00000000000E+00  0.61902620792E+03  0.61902620792E+03  0.00000000000E+00 0. -1.
         -2   -1    0    0    0  501 -0.00000000000E+00 -0.00000000000E+00 -0.23088972756E+02  0.23088972756E+02  0.00000000000E+00 0.  1.
          5    1    1    2  502    0 -0.67500817319E+02 -0.57175636656E+02  0.22325572508E+03  0.24018872277E+03  0.47000000000E+01 0. -1.
         -5    1    1    2    0  502  0.29903650118E+02  0.39025281978E+02  0.10984432904E+03  0.12043698579E+03  0.47000000000E+01 0.  1.
        -11    1    1    2    0    0  0.65579353420E+02  0.21680651212E+02  0.14931975212E+03  0.16452079080E+03  0.00000000000E+00 0.  1.
         11    1    1    2    0    0 -0.27982186218E+02 -0.35302965340E+01  0.11351742893E+03  0.11696868132E+03  0.00000000000E+00 0. -1.
<mgrwt>
<rscale>  0 0.12769416E+03</rscale>
<asrwt>0</asrwt>
<pdfrwt beam="1">  1        2 0.95234789E-01 0.13818558E+03</pdfrwt>
<pdfrwt beam="2">  1       -2 0.35521501E-02 0.13818558E+03</pdfrwt>
<totfact> 0.15187341E+04</totfact>
</mgrwt>
</event>
<event>
 6    1  0.5818426E-006  0.1317647E+03  0.7546771E-02  0.1268959E+00
         -2   -1    0    0    0  501 -0.00000000000E+00  0.00000000000E+00  0.45295690158E+02  0.45295690158E+02  0.00000000000E+00 0.  1.
          2   -1    0    0  501    0  0.00000000000E+00 -0.00000000000E+00 -0.22381547186E+03  0.22381547186E+03  0.00000000000E+00 0. -1.
          5    1    1    2  502    0 -0.22933848002E+01  0.91148757453E+01  0.31966338061E+02  0.33649329009E+02  0.47000000000E+01 0.  1.
         -5    1    1    2    0  502  0.19529654466E+02 -0.47043208280E+02 -0.10549602932E+03  0.11724322177E+03  0.47000000000E+01 0.  1.
        -11    1    1    2    0    0  0.80361704429E+01  0.21787907730E+02 -0.34200632150E+02  0.41339765337E+02  0.00000000000E+00 0.  1.
         11    1    1    2    0    0 -0.25272440108E+02  0.16140424804E+02 -0.70789458297E+02  0.76878845907E+02  0.00000000000E+00 0. -1.
<mgrwt>
<rscale>  0 0.10559107E+03</rscale>
<asrwt>0</asrwt>
<pdfrwt beam="2">  1        2 0.34433150E-01 0.13176474E+03</pdfrwt>
<pdfrwt beam="1">  1       -2 0.69685676E-02 0.13176474E+03</pdfrwt>
<totfact> 0.16480968E+04</totfact>
</mgrwt>
</event>
<event>
 6    1  0.5818426E-006  0.2480208E+03  0.7546771E-02  0.1114562E+00
         -3   -1    0    0    0  501 -0.00000000000E+00  0.00000000000E+00  0.39677743645E+02  0.39677743645E+02  0.00000000000E+00 0.  1.
          3   -1    0    0  501    0  0.00000000000E+00 -0.00000000000E+00 -0.38758704770E+03  0.38758704770E+03  0.00000000000E+00 0. -1.
          5    1    1    2  502    0 -0.24452899809E+01 -0.13014962680E+02  0.15079949564E+02  0.20612219083E+02  0.47000000000E+01 0.  1.
         -5    1    1    2    0  502  0.61586741868E+02  0.70991526058E+00 -0.20861518112E+03  0.21756795386E+03  0.47000000000E+01 0.  1.
        -11    1    1    2    0    0 -0.40690371893E+02  0.10586245263E+02 -0.16322159416E+03  0.16854988506E+03  0.00000000000E+00 0. -1.
         11    1    1    2    0    0 -0.18451079994E+02  0.17188021561E+01  0.88475216612E+01  0.20534733340E+02  0.00000000000E+00 0.  1.
<mgrwt>
<rscale>  0 0.24802080E+03</rscale>
<asrwt>0</asrwt>
<pdfrwt beam="2">  1        3 0.59628776E-01 0.24802080E+03</pdfrwt>
<pdfrwt beam="1">  1       -3 0.61042683E-02 0.24802080E+03</pdfrwt>
<totfact> 0.11614750E+03</totfact>
</mgrwt>
</event>
<event>
 6    1  0.5818426E-006  0.1125092E+03  0.7546771E-02  0.1287427E+00
         -1   -1    0    0    0  501 -0.00000000000E+00  0.00000000000E+00  0.57128368174E+02  0.57128368174E+02  0.00000000000E+00 0.  1.
          1   -1    0    0  501    0  0.00000000000E+00 -0.00000000000E+00 -0.21521529721E+03  0.21521529721E+03  0.00000000000E+00 0. -1.
          5    1    1    2  502    0 -0.46175395997E+02 -0.63947211968E+01 -0.24406094192E+02  0.52828089956E+02  0.47000000000E+01 0. -1.
         -5    1    1    2    0  502  0.58226153794E+02  0.61219913168E+01  0.13317181558E+02  0.60226249161E+02  0.47000000000E+01 0.  1.
        -11    1    1    2    0    0 -0.22450057352E+02  0.25472210657E+02 -0.76104676011E+02  0.83335228454E+02  0.00000000000E+00 0. -1.
         11    1    1    2    0    0  0.10399299555E+02 -0.25199480777E+02 -0.70893340388E+02  0.75954097809E+02  0.00000000000E+00 0.  1.
<mgrwt>
<rscale>  0 0.96684515E+02</rscale>
<asrwt>0</asrwt>
<pdfrwt beam="2">  1        1 0.33110045E-01 0.11250920E+03</pdfrwt>
<pdfrwt beam="1">  1       -1 0.87889800E-02 0.11250920E+03</pdfrwt>
<totfact> 0.92573097E+03</totfact>
</mgrwt>
</event>
<event>
 6    1  0.5818426E-006  0.1416393E+03  0.7546771E-02  0.1231417E+00
          2   -1    0    0  501    0  0.00000000000E+00  0.00000000000E+00  0.83888567761E+03  0.83888567761E+03  0.00000000000E+00 0. -1.
         -2   -1    0    0    0  501 -0.00000000000E+00 -0.00000000000E+00 -0.16452982734E+02  0.16452982734E+02  0.00000000000E+00 0.  1.
          5    1    1    2  502    0 -0.62837959098E+02  0.57888973764E+01  0.39527054000E+03  0.40030364754E+03  0.47000000000E+01 0. -1.
         -5    1    1    2    0  502  0.46215804890E+02 -0.17861811068E+02  0.68895360241E+02  0.84991797128E+02  0.47000000000E+01 0.  1.
        -11    1    1    2    0    0  0.22881002777E+02  0.45109103515E+02  0.28467943732E+03  0.28913794898E+03  0.00000000000E+00 0. -1.
         11    1    1    2    0    0 -0.62588485691E+01 -0.33036189823E+02  0.73587357305E+02  0.80905266693E+02  0.00000000000E+00 0.  1.
<mgrwt>
<rscale>  0 0.12736614E+03</rscale>
<asrwt>0</asrwt>
<pdfrwt beam="1">  1        2 0.12905930E+00 0.14163928E+03</pdfrwt>
<pdfrwt beam="2">  1       -2 0.25312288E-02 0.14163928E+03</pdfrwt>
<totfact> 0.17377654E+04</totfact>
</mgrwt>
</event>
<event>
 6    1  0.5818426E-006  0.4040236E+03  0.7546771E-02  0.1042395E+00
          3   -1    0    0  501    0  0.00000000000E+00  0.00000000000E+00  0.22269100059E+02  0.22269100059E+02  0.00000000000E+00 0. -1.
         -3   -1    0    0    0  501 -0.00000000000E+00 -0.00000000000E+00 -0.18325286833E+04  0.18325286833E+04  0.00000000000E+00 0.  1.
          5    1    1    2  502    0  0.14521510040E+03 -0.11475866705E+03 -0.10571566911E+04  0.10732470995E+04  0.47000000000E+01 0. -1.
         -5    1    1    2    0  502 -0.11091257998E+02  0.18274653551E+02 -0.11032714269E+03  0.11247731941E+03  0.47000000000E+01 0. -1.
        -11    1    1    2    0    0 -0.55682562630E+02  0.54192960184E+01 -0.31558238878E+03  0.32050298073E+03  0.00000000000E+00 0.  1.
         11    1    1    2    0    0 -0.78441279775E+02  0.91064717481E+02 -0.32719336073E+03  0.34857038378E+03  0.00000000000E+00 0. -1.
<mgrwt>
<rscale>  0 0.40402359E+03</rscale>
<asrwt>0</asrwt>
<pdfrwt beam="1">  1        3 0.34260147E-02 0.40402359E+03</pdfrwt>
<pdfrwt beam="2">  1       -3 0.28192755E+00 0.40402359E+03</pdfrwt>
<totfact> 0.57773403E+01</totfact>
</mgrwt>
</event>
<event>
 6    1  0.5818426E-006  0.3028913E+03  0.7546771E-02  0.1083804E+00
         -4   -1    0    0    0  501 -0.00000000000E+00  0.00000000000E+00  0.38330360087E+02  0.38330360087E+02  0.00000000000E+00 0.  1.
          4   -1    0    0  501    0  0.00000000000E+00 -0.00000000000E+00 -0.59837112329E+03  0.59837112329E+03  0.00000000000E+00 0. -1.
          5    1    1    2  502    0  0.72718320597E+02 -0.16220916195E+01 -0.22576126404E+03  0.23723579762E+03  0.47000000000E+01 0. -1.
         -5    1    1    2    0  502  0.44235180844E+00  0.26074162412E+02  0.59286171010E+01  0.27153197259E+02  0.47000000000E+01 0. -1.
        -11    1    1    2    0    0 -0.84250639639E+02  0.22668296718E+02 -0.12972716272E+03  0.15633668381E+03  0.00000000000E+00 0.  1.
         11    1    1    2    0    0  0.11089967234E+02 -0.47120367511E+02 -0.21048095354E+03  0.21597580469E+03  0.00000000000E+00 0. -1.
<mgrwt>
<rscale>  0 0.30289127E+03</rscale>
<asrwt>0</asrwt>
<pdfrwt beam="2">  1        4 0.92057091E-01 0.30289127E+03</pdfrwt>
<pdfrwt beam="1">  1       -4 0.58969788E-02 0.30289127E+03</pdfrwt>
<totfact> 0.35752790E+02</totfact>
</mgrwt>
</event>
<event>
 6    1  0.5818426E-006  0.1445076E+03  0.7546771E-02  0.1216488E+00
         -1   -1    0    0    0  501 -0.00000000000E+00  0.00000000000E+00  0.49178254645E+02  0.49178254645E+02  0.00000000000E+00 0.  1.
          1   -1    0    0  501    0  0.00000000000E+00 -0.00000000000E+00 -0.37747920670E+03  0.37747920670E+03  0.00000000000E+00 0. -1.
          5    1    1    2  502    0  0.11302277750E+02  0.42460919006E+01  0.24693028111E+02  0.27885595135E+02  0.47000000000E+01 0.  1.
         -5    1    1    2    0  502  0.53906060275E+02 -0.35887196178E+02 -0.14975194912E+03  0.16322221187E+03  0.47000000000E+01 0.  1.
        -11    1    1    2    0    0 -0.82900883984E+02  0.46095174952E+02 -0.14821899434E+03  0.17597213416E+03  0.00000000000E+00 0.  1.
         11    1    1    2    0    0  0.17692545958E+02 -0.14454070674E+02 -0.55023036709E+02  0.59577520175E+02  0.00000000000E+00 0. -1.
<mgrwt>
<rscale>  0 0.13767768E+03</rscale>
<asrwt>0</asrwt>
<pdfrwt beam="2">  1        1 0.58073725E-01 0.14450765E+03</pdfrwt>
<pdfrwt beam="1">  1       -1 0.75658852E-02 0.14450765E+03</pdfrwt>
<totfact> 0.58896314E+03</totfact>
</mgrwt>
</event>
<event>
 6    1  0.5818426E-006  0.1352440E+03  0.7546771E-02  0.1232371E+00
          2   -1    0    0  501    0  0.00000000000E+00  0.00000000000E+00  0.71568966700E+03  0.71568966700E+03  0.00000000000E+00 0.  1.
         -2   -1    0    0    0  501 -0.00000000000E+00 -0.00000000000E+00 -0.22916170338E+02  0.22916170338E+02  0.00000000000E+00 0. -1.
          5    1    1    2  502    0 -0.23960805616E+02 -0.51796269096E+01  0.22775904396E+03  0.22912272006E+03  0.47000000000E+01 0. -1.
         -5    1    1    2    0  502  0.25745748236E+02 -0.46420056933E+02  0.28010947528E+02  0.60202727674E+02  0.47000000000E+01 0. -1.
        -11    1    1    2    0    0 -0.25946924625E+02  0.69430242862E+02  0.29937187920E+03  0.30841096540E+03  0.00000000000E+00 0. -1.
         11    1    1    2    0    0  0.24161982005E+02 -0.17830559019E+02  0.13763162597E+03  0.14086942421E+03  0.00000000000E+00 0.  1.
<mgrwt>
<rscale>  0 0.12674213E+03</rscale>
<asrwt>0</asrwt>
<pdfrwt beam="1">  1        2 0.11010609E+00 0.13524395E+03</pdfrwt>
<pdfrwt beam="2">  1       -2 0.35255652E-02 0.13524395E+03</pdfrwt>
<totfact> 0.12938603E+04</totfact>
</mgrwt>
</event>
<event>
 6    1  0.5818426E-006  0.1298820E+03  0.7546771E-02  0.1236019E+00
         -1   -1    0    0    0  501 -0.00000000000E+00  0.00000000000E+00  0.41007592629E+03  0.41007592629E+03  0.00000000000E+00 0.  1.
          1   -1    0    0  501    0  0.00000000000E+00 -0.00000000000E+00 -0.53148750930E+02  0.53148750930E+02  0.00000000000E+00 0. -1.
          5    1    1    2  502    0 -0.14634084879E+02  0.22512148723E+02  0.19242428909E+03  0.19434544068E+03  0.47000000000E+01 0.  1.
         -5    1    1    2    0  502  0.77021085270E+02 -0.25925505851E+02  0.13161532740E+03  0.15475485077E+03  0.47000000000E+01 0. -1.
        -11    1    1    2    0    0 -0.72686996046E+02  0.13131105551E+02 -0.46448640257E+01  0.74009459456E+02  0.00000000000E+00 0.  1.
         11    1    1    2    0    0  0.10299995656E+02 -0.97177484232E+01  0.37532422893E+02  0.40114926314E+02  0.00000000000E+00 0. -1.
<mgrwt>
<rscale>  0 0.12439416E+03</rscale>
<asrwt>0</asrwt>
<pdfrwt beam="2">  1        1 0.81767312E-02 0.12988203E+03</pdfrwt>
<pdfrwt beam="1">  1       -1 0.63088602E-01 0.12988203E+03</pdfrwt>
<totfact> 0.21538751E+03</totfact>
</mgrwt>
</event>
<event>
 6    1  0.5818426E-006  0.1604800E+03  0.7546771E-02  0.1189605E+00
         -1   -1    0    0    0  501 -0.00000000000E+00  0.00000000000E+00  0.92491662013E+02  0.92491662013E+02  0.00000000000E+00 0.  1.
          1   -1    0    0  501    0  0.00000000000E+00 -0.00000000000E+00 -0.27003891274E+03  0.27003891274E+03  0.00000000000E+00 0. -1.
          5    1    1    2  502    0  0.57007938071E+02  0.40987220764E+02 -0.80538521015E+02  0.10695045879E+03  0.47000000000E+01 0. -1.
         -5    1    1    2    0  502  0.82391110537E+01 -0.67708043903E+02 -0.60819196190E+00  0.68371939110E+02  0.47000000000E+01 0.  1.
        -11    1    1    2    0    0 -0.36743234503E+02  0.84069018612E+02 -0.78407647453E+02  0.12068729988E+03  0.00000000000E+00 0.  1.
         11    1    1    2    0    0 -0.28503814621E+02 -0.57348195473E+02 -0.17992890297E+02  0.66520876973E+02  0.00000000000E+00 0. -1.
<mgrwt>
<rscale>  0 0.15919795E+03</rscale>
<asrwt>0</asrwt>
<pdfrwt beam="2">  1        1 0.41544448E-01 0.16048002E+03</pdfrwt>
<pdfrwt beam="1">  1       -1 0.14229487E-01 0.16048002E+03</pdfrwt>
<totfact> 0.34099396E+03</totfact>
</mgrwt>
</event>
<event>
 6    1  0.5818426E-006  0.1347991E+03  0.7546771E-02  0.1232334E+00
         -2   -1    0    0    0  501 -0.00000000000E+00  0.00000000000E+00  0.18366953733E+02  0.18366953733E+02  0.00000000000E+00 0.  1.
          2   -1    0    0  501    0  0.00000000000E+00 -0.00000000000E+00 -0.80918325170E+03  0.80918325170E+03  0.00000000000E+00 0. -1.
          5    1    1    2  502    0  0.35917383817E+02  0.32481261665E+01 -0.53790475479E+02  0.64931610454E+02  0.47000000000E+01 0.  1.
         -5    1    1    2    0  502 -0.58855783919E+02 -0.48187413865E+02 -0.45882344217E+03  0.46510974107E+03  0.47000000000E+01 0.  1.
        -11    1    1    2    0    0  0.57253178099E+02  0.37817304720E+02 -0.20835254712E+03  0.21936011221E+03  0.00000000000E+00 0.  1.
         11    1    1    2    0    0 -0.34314777996E+02  0.71219829793E+01 -0.69849833202E+02  0.78148741697E+02  0.00000000000E+00 0. -1.
<mgrwt>
<rscale>  0 0.12676629E+03</rscale>
<asrwt>0</asrwt>
<pdfrwt beam="2">  1        2 0.12448974E+00 0.13479913E+03</pdfrwt>
<pdfrwt beam="1">  1       -2 0.28256851E-02 0.13479913E+03</pdfrwt>
<totfact> 0.15423025E+04</totfact>
</mgrwt>
</event>
<event>
 6    1  0.5818426E-006  0.1267883E+03  0.7546771E-02  0.1247292E+00
          2   -1    0    0  501    0  0.00000000000E+00  0.00000000000E+00  0.84577049681E+02  0.84577049681E+02  0.00000000000E+00 0. -1.
         -2   -1    0    0    0  501 -0.00000000000E+00 -0.00000000000E+00 -0.15096527051E+03  0.15096527051E+03  0.00000000000E+00 0.  1.
          5    1    1    2  502    0  0.18704206047E+02  0.33679483012E+02  0.16298960031E+02  0.42093954411E+02  0.47000000000E+01 0. -1.
         -5    1    1    2    0  502 -0.23996700072E+02 -0.54243057408E+02 -0.80273143520E+02  0.99920060358E+02  0.47000000000E+01 0. -1.
        -11    1    1    2    0    0  0.98272876975E+01 -0.15693568654E+02 -0.38157741465E+02  0.42413169114E+02  0.00000000000E+00 0.  1.
         11    1    1    2    0    0 -0.45347936719E+01  0.36257143050E+02  0.35743704122E+02  0.51115136311E+02  0.00000000000E+00 0. -1.
<mgrwt>
<rscale>  0 0.11749221E+03</rscale>
<asrwt>0</asrwt>
<pdfrwt beam="1">  1        2 0.13011854E-01 0.12678834E+03</pdfrwt>
<pdfrwt beam="2">  1       -2 0.23225426E-01 0.12678834E+03</pdfrwt>
<totfact> 0.70491548E+03</totfact>
</mgrwt>
</event>
<event>
 6    1  0.5818426E-006  0.1293820E+03  0.7546771E-02  0.1242276E+00
         -1   -1    0    0    0  501 -0.00000000000E+00  0.00000000000E+00  0.41068521744E+03  0.41068521744E+03  0.00000000000E+00 0.  1.
          1   -1    0    0  501    0  0.00000000000E+00 -0.00000000000E+00 -0.36442764619E+02  0.36442764619E+02  0.00000000000E+00 0. -1.
          5    1    1    2  502    0 -0.34327938100E+02 -0.19041596924E+02  0.22317165171E+03  0.22664656599E+03  0.47000000000E+01 0. -1.
         -5    1    1    2    0  502  0.33410062809E+02  0.52538565934E+02  0.69975161939E+02  0.93782442363E+02  0.47000000000E+01 0. -1.
        -11    1    1    2    0    0 -0.10659363843E+02 -0.62916788763E+02  0.65499010903E+02  0.91445419650E+02  0.00000000000E+00 0.  1.
         11    1    1    2    0    0  0.11577239135E+02  0.29419819753E+02  0.15596628271E+02  0.35253554058E+02  0.00000000000E+00 0. -1.
<mgrwt>
<rscale>  0 0.12049921E+03</rscale>
<asrwt>0</asrwt>
<pdfrwt beam="2">  1        1 0.56065794E-02 0.12938197E+03</pdfrwt>
<pdfrwt beam="1">  1       -1 0.63182338E-01 0.12938197E+03</pdfrwt>
<totfact> 0.35726344E+03</totfact>
</mgrwt>
</event>
<event>
 6    1  0.5818426E-006  0.1164607E+03  0.7546771E-02  0.1261442E+00
          1   -1    0    0  501    0  0.00000000000E+00  0.00000000000E+00  0.25038287215E+03  0.25038287215E+03  0.00000000000E+00 0. -1.
         -1   -1    0    0    0  501 -0.00000000000E+00 -0.00000000000E+00 -0.51186624133E+02  0.51186624133E+02  0.00000000000E+00 0.  1.
          5    1    1    2  502    0  0.58841218927E+02 -0.10304609390E+02  0.27121111329E+02  0.65773236953E+02  0.47000000000E+01 0. -1.
         -5    1    1    2    0  502 -0.56295993265E+02 -0.14688105523E+01  0.22857104634E+02  0.60958457119E+02  0.47000000000E+01 0.  1.
        -11    1    1    2    0    0 -0.38514930666E+02  0.12741944940E+01  0.12354559184E+03  0.12941613778E+03  0.00000000000E+00 0.  1.
         11    1    1    2    0    0  0.35969705003E+02  0.10499225448E+02  0.25672440221E+02  0.45421664433E+02  0.00000000000E+00 0. -1.
<mgrwt>
<rscale>  0 0.10953023E+03</rscale>
<asrwt>0</asrwt>
<pdfrwt beam="1">  1        1 0.38520441E-01 0.11646072E+03</pdfrwt>
<pdfrwt beam="2">  1       -1 0.78748655E-02 0.11646072E+03</pdfrwt>
<totfact> 0.90882998E+03</totfact>
</mgrwt>
</event>
<event>
 6    1  0.5818426E-006  0.1283294E+03  0.7546771E-02  0.1306657E+00
         -2   -1    0    0    0  501 -0.00000000000E+00  0.00000000000E+00  0.11403386175E+03  0.11403386175E+03  0.00000000000E+00 0.  1.
          2   -1    0    0  501    0  0.00000000000E+00 -0.00000000000E+00 -0.59962478946E+02  0.59962478946E+02  0.00000000000E+00 0. -1.
          5    1    1    2  502    0  0.22852981828E+02  0.43244666276E+02 -0.11641261148E+02  0.50497216764E+02  0.47000000000E+01 0. -1.
         -5    1    1    2    0  502 -0.24707489657E+02 -0.47738746628E+02  0.75617241033E+02  0.92895129669E+02  0.47000000000E+01 0.  1.
        -11    1    1    2    0    0  0.99024282004E+01 -0.45664825036E+01  0.44851855375E+01  0.11791002333E+02  0.00000000000E+00 0.  1.
         11    1    1    2    0    0 -0.80479203720E+01  0.90605628561E+01 -0.14389782618E+02  0.18812991930E+02  0.00000000000E+00 0. -1.
<mgrwt>
<rscale>  0 0.88446931E+02</rscale>
<asrwt>0</asrwt>
<pdfrwt beam="2">  1        2 0.92249968E-02 0.12832942E+03</pdfrwt>
<pdfrwt beam="1">  1       -2 0.17543671E-01 0.12832942E+03</pdfrwt>
<totfact> 0.17213406E+04</totfact>
</mgrwt>
</event>
<event>
 6    1  0.5818426E-006  0.1268557E+03  0.7546771E-02  0.1240295E+00
          1   -1    0    0  501    0  0.00000000000E+00  0.00000000000E+00  0.15692181842E+02  0.15692181842E+02  0.00000000000E+00 0. -1.
         -1   -1    0    0    0  501 -0.00000000000E+00 -0.00000000000E+00 -0.18785823799E+04  0.18785823799E+04  0.00000000000E+00 0.  1.
          5    1    1    2  502    0  0.59184146582E+02 -0.90775570865E+01 -0.12775648395E+04  0.12789758303E+04  0.47000000000E+01 0. -1.
         -5    1    1    2    0  502 -0.49954242651E+02 -0.10473054872E+02 -0.38084804436E+03  0.38428171194E+03  0.47000000000E+01 0. -1.
        -11    1    1    2    0    0 -0.21575506807E+02 -0.29106625652E+02 -0.23448507685E+02  0.43157046511E+02  0.00000000000E+00 0.  1.
         11    1    1    2    0    0  0.12345602876E+02  0.48657237611E+02 -0.18102880650E+03  0.18785997302E+03  0.00000000000E+00 0. -1.
<mgrwt>
<rscale>  0 0.12171447E+03</rscale>
<asrwt>0</asrwt>
<pdfrwt beam="1">  1        1 0.24141814E-02 0.12685566E+03</pdfrwt>
<pdfrwt beam="2">  1       -1 0.28901272E+00 0.12685566E+03</pdfrwt>
<totfact> 0.21131164E+02</totfact>
</mgrwt>
</event>
<event>
 6    1  0.5818426E-006  0.2323254E+03  0.7546771E-02  0.1125014E+00
         -1   -1    0    0    0  501 -0.00000000000E+00  0.00000000000E+00  0.25999755319E+03  0.25999755319E+03  0.00000000000E+00 0.  1.
          1   -1    0    0  501    0  0.00000000000E+00 -0.00000000000E+00 -0.51899631721E+02  0.51899631721E+02  0.00000000000E+00 0. -1.
          5    1    1    2  502    0 -0.98841372163E+01  0.80705450723E+01  0.12312993783E+03  0.12387857546E+03  0.47000000000E+01 0. -1.
         -5    1    1    2    0  502  0.45233142905E+02 -0.30487858732E+02 -0.24977929484E+01  0.54807624622E+02  0.47000000000E+01 0. -1.
        -11    1    1    2    0    0  0.22685999399E+02  0.25761374226E+02  0.88708806331E+01  0.35454132255E+02  0.00000000000E+00 0. -1.
         11    1    1    2    0    0 -0.58035005087E+02 -0.33440605668E+01  0.78594895951E+02  0.97756852579E+02  0.00000000000E+00 0.  1.
<mgrwt>
<rscale>  0 0.23232544E+03</rscale>
<asrwt>0</asrwt>
<pdfrwt beam="2">  1        1 0.79845589E-02 0.23232544E+03</pdfrwt>
<pdfrwt beam="1">  1       -1 0.39999623E-01 0.23232544E+03</pdfrwt>
<totfact> 0.53035859E+03</totfact>
</mgrwt>
</event>
<event>
 6    1  0.5818426E-006  0.1554878E+03  0.7546771E-02  0.1205343E+00
          2   -1    0    0  501    0  0.00000000000E+00  0.00000000000E+00  0.88857802211E+02  0.88857802211E+02  0.00000000000E+00 0. -1.
         -2   -1    0    0    0  501 -0.00000000000E+00 -0.00000000000E+00 -0.21658341921E+03  0.21658341921E+03  0.00000000000E+00 0.  1.
          5    1    1    2  502    0 -0.49637416158E+01 -0.51858601218E+02  0.73117086934E+01  0.52815758398E+02  0.47000000000E+01 0.  1.
         -5    1    1    2    0  502  0.83987016811E+02  0.38188059283E+01 -0.90160947569E+02  0.12336729201E+03  0.47000000000E+01 0.  1.
        -11    1    1    2    0    0 -0.27811558822E+02  0.47047523236E+02  0.84664737253E+01  0.55304913200E+02  0.00000000000E+00 0. -1.
         11    1    1    2    0    0 -0.51211716373E+02  0.99227205398E+00 -0.53342851852E+02  0.73953257815E+02  0.00000000000E+00 0.  1.
<mgrwt>
<rscale>  0 0.14610465E+03</rscale>
<asrwt>0</asrwt>
<pdfrwt beam="1">  1        2 0.13670431E-01 0.15548785E+03</pdfrwt>
<pdfrwt beam="2">  1       -2 0.33320526E-01 0.15548785E+03</pdfrwt>
<totfact> 0.35470711E+03</totfact>
</mgrwt>
</event>
<event>
 6    1  0.5818426E-006  0.1508841E+03  0.7546771E-02  0.1208413E+00
          1   -1    0    0  501    0  0.00000000000E+00  0.00000000000E+00  0.91108867021E+02  0.91108867021E+02  0.00000000000E+00 0. -1.
         -1   -1    0    0    0  501 -0.00000000000E+00 -0.00000000000E+00 -0.21181991024E+03  0.21181991024E+03  0.00000000000E+00 0.  1.
          5    1    1    2  502    0 -0.36635837384E+02 -0.36466628565E+02 -0.10947879468E+03  0.12115979558E+03  0.47000000000E+01 0.  1.
         -5    1    1    2    0  502 -0.45344147302E+02  0.15962818243E+02  0.22189717173E+02  0.53154273666E+02  0.47000000000E+01 0.  1.
        -11    1    1    2    0    0  0.94749238508E+02 -0.57950092079E+01 -0.26843912840E+02  0.98648851925E+02  0.00000000000E+00 0.  1.
         11    1    1    2    0    0 -0.12769253822E+02  0.26298819530E+02 -0.65780528725E+01  0.29965856094E+02  0.00000000000E+00 0. -1.
<mgrwt>
<rscale>  0 0.14371753E+03</rscale>
<asrwt>0</asrwt>
<pdfrwt beam="1">  1        1 0.14016749E-01 0.15088410E+03</pdfrwt>
<pdfrwt beam="2">  1       -1 0.32587678E-01 0.15088410E+03</pdfrwt>
<totfact> 0.34934635E+03</totfact>
</mgrwt>
</event>
<event>
 6    1  0.5818426E-006  0.1305809E+03  0.7546771E-02  0.1240308E+00
         -2   -1    0    0    0  501 -0.00000000000E+00  0.00000000000E+00  0.40556197297E+02  0.40556197297E+02  0.00000000000E+00 0.  1.
          2   -1    0    0  501    0  0.00000000000E+00 -0.00000000000E+00 -0.32441331317E+03  0.32441331317E+03  0.00000000000E+00 0. -1.
          5    1    1    2  502    0 -0.54486797232E+02 -0.17539399965E+02 -0.21782792562E+02  0.61424927151E+02  0.47000000000E+01 0.  1.
         -5    1    1    2    0  502  0.24876720224E+02  0.40971470619E+02 -0.13091380538E+03  0.13949203222E+03  0.47000000000E+01 0.  1.
        -11    1    1    2    0    0  0.69074193131E+01 -0.43213216697E+02 -0.18628811438E+02  0.47561824550E+02  0.00000000000E+00 0.  1.
         11    1    1    2    0    0  0.22702657694E+02  0.19781146044E+02 -0.11253170649E+03  0.11649072655E+03  0.00000000000E+00 0. -1.
<mgrwt>
<rscale>  0 0.12170630E+03</rscale>
<asrwt>0</asrwt>
<pdfrwt beam="2">  1        2 0.49909740E-01 0.13058091E+03</pdfrwt>
<pdfrwt beam="1">  1       -2 0.62394150E-02 0.13058091E+03</pdfrwt>
<totfact> 0.13139414E+04</totfact>
</mgrwt>
</event>
<event>
 6    1  0.5818426E-006  0.1274472E+03  0.7546771E-02  0.1246998E+00
          1   -1    0    0  501    0  0.00000000000E+00  0.00000000000E+00  0.19110333661E+03  0.19110333661E+03  0.00000000000E+00 0. -1.
         -1   -1    0    0    0  501 -0.00000000000E+00 -0.00000000000E+00 -0.74040847254E+02  0.74040847254E+02  0.00000000000E+00 0.  1.
          5    1    1    2  502    0 -0.46159846941E+02  0.81974785443E+01  0.32388535202E+02  0.57175495946E+02  0.47000000000E+01 0.  1.
         -5    1    1    2    0  502  0.64972523007E+02 -0.24464739637E+02 -0.15773524286E+02  0.71350166782E+02  0.47000000000E+01 0.  1.
        -11    1    1    2    0    0  0.28651751218E+02 -0.15267366674E+02  0.54412582300E+02  0.63362011060E+02  0.00000000000E+00 0.  1.
         11    1    1    2    0    0 -0.47464427285E+02  0.31534627767E+02  0.46034896137E+02  0.73256510074E+02  0.00000000000E+00 0. -1.
<mgrwt>
<rscale>  0 0.11766614E+03</rscale>
<asrwt>0</asrwt>
<pdfrwt beam="1">  1        1 0.29400513E-01 0.12744719E+03</pdfrwt>
<pdfrwt beam="2">  1       -1 0.11390900E-01 0.12744719E+03</pdfrwt>
<totfact> 0.72965545E+03</totfact>
</mgrwt>
</event>
<event>
 6    1  0.5818426E-006  0.1627051E+03  0.7546771E-02  0.1194398E+00
         -1   -1    0    0    0  501 -0.00000000000E+00  0.00000000000E+00  0.14369086914E+03  0.14369086914E+03  0.00000000000E+00 0.  1.
          1   -1    0    0  501    0  0.00000000000E+00 -0.00000000000E+00 -0.20162017937E+03  0.20162017937E+03  0.00000000000E+00 0. -1.
          5    1    1    2  502    0  0.23783846587E+02  0.62534778599E+02  0.86257780161E+02  0.10926465362E+03  0.47000000000E+01 0. -1.
         -5    1    1    2    0  502  0.51081736454E+02  0.99185033703E+01 -0.33163797044E+02  0.61884149365E+02  0.47000000000E+01 0. -1.
        -11    1    1    2    0    0 -0.28940602106E+02 -0.26311767355E+02 -0.10098076460E+03  0.10829119249E+03  0.00000000000E+00 0.  1.
         11    1    1    2    0    0 -0.45924980935E+02 -0.46141514614E+02 -0.10042528747E+02  0.65871053038E+02  0.00000000000E+00 0. -1.
<mgrwt>
<rscale>  0 0.15505256E+03</rscale>
<asrwt>0</asrwt>
<pdfrwt beam="2">  1        1 0.31018489E-01 0.16270508E+03</pdfrwt>
<pdfrwt beam="1">  1       -1 0.22106288E-01 0.16270508E+03</pdfrwt>
<totfact> 0.24296102E+03</totfact>
</mgrwt>
</event>
<event>
 6    1  0.5818426E-006  0.1484926E+03  0.7546771E-02  0.1211758E+00
         -3   -1    0    0    0  501 -0.00000000000E+00  0.00000000000E+00  0.10387234939E+03  0.10387234939E+03  0.00000000000E+00 0.  1.
          3   -1    0    0  501    0  0.00000000000E+00 -0.00000000000E+00 -0.17556322165E+03  0.17556322165E+03  0.00000000000E+00 0. -1.
          5    1    1    2  502    0  0.31623911941E+02 -0.13702001968E+02  0.26090949335E+02  0.43481539780E+02  0.47000000000E+01 0. -1.
         -5    1    1    2    0  502 -0.72070083303E+02 -0.55530461563E+02 -0.59227791460E+02  0.10866347293E+03  0.47000000000E+01 0. -1.
        -11    1    1    2    0    0 -0.24000218649E+02  0.28822727384E+02 -0.34745912271E+02  0.51127668914E+02  0.00000000000E+00 0. -1.
         11    1    1    2    0    0  0.64446390011E+02  0.40409736147E+02 -0.38081178641E+01  0.76162889405E+02  0.00000000000E+00 0.  1.
<mgrwt>
<rscale>  0 0.14117380E+03</rscale>
<asrwt>0</asrwt>
<pdfrwt beam="2">  1        3 0.27009726E-01 0.14849261E+03</pdfrwt>
<pdfrwt beam="1">  1       -3 0.15980361E-01 0.14849261E+03</pdfrwt>
<totfact> 0.10144752E+03</totfact>
</mgrwt>
</event>
<event>
 6    1  0.5818426E-006  0.1415778E+03  0.7546771E-02  0.1227240E+00
         -1   -1    0    0    0  501 -0.00000000000E+00  0.00000000000E+00  0.13942510095E+03  0.13942510095E+03  0.00000000000E+00 0.  1.
          1   -1    0    0  501    0  0.00000000000E+00 -0.00000000000E+00 -0.11518065552E+03  0.11518065552E+03  0.00000000000E+00 0. -1.
          5    1    1    2  502    0  0.43793761218E+02 -0.34314334034E+02  0.87945617190E+02  0.10417239857E+03  0.47000000000E+01 0.  1.
         -5    1    1    2    0  502  0.20213104994E+02  0.16355804611E+02 -0.37716870360E+02  0.46051430681E+02  0.47000000000E+01 0.  1.
        -11    1    1    2    0    0 -0.68126271929E+02 -0.90187279971E+01 -0.31396531092E+01  0.68792323724E+02  0.00000000000E+00 0. -1.
         11    1    1    2    0    0  0.41194057165E+01  0.26977257420E+02 -0.22844648294E+02  0.35589603496E+02  0.00000000000E+00 0.  1.
<mgrwt>
<rscale>  0 0.13014571E+03</rscale>
<asrwt>0</asrwt>
<pdfrwt beam="2">  1        1 0.17720101E-01 0.14157779E+03</pdfrwt>
<pdfrwt beam="1">  1       -1 0.21450015E-01 0.14157779E+03</pdfrwt>
<totfact> 0.51417422E+03</totfact>
</mgrwt>
</event>
<event>
 6    1  0.5818426E-006  0.1414882E+03  0.7546771E-02  0.1223336E+00
          1   -1    0    0  501    0  0.00000000000E+00  0.00000000000E+00  0.11075054647E+03  0.11075054647E+03  0.00000000000E+00 0. -1.
         -1   -1    0    0    0  501 -0.00000000000E+00 -0.00000000000E+00 -0.17568324547E+03  0.17568324547E+03  0.00000000000E+00 0.  1.
          5    1    1    2  502    0 -0.61198843812E+02  0.33101437859E+02 -0.13980714883E+02  0.71123512715E+02  0.47000000000E+01 0.  1.
         -5    1    1    2    0  502 -0.99947745869E+00 -0.56051873002E+02 -0.83541883112E+02  0.10071815952E+03  0.47000000000E+01 0.  1.
        -11    1    1    2    0    0  0.31563164200E+02  0.30591703875E+02 -0.23784647791E+02  0.49977946645E+02  0.00000000000E+00 0. -1.
         11    1    1    2    0    0  0.30635157071E+02 -0.76412687329E+01  0.56374546781E+02  0.64614173068E+02  0.00000000000E+00 0.  1.
<mgrwt>
<rscale>  0 0.13281592E+03</rscale>
<asrwt>0</asrwt>
<pdfrwt beam="1">  1        1 0.17038546E-01 0.14148817E+03</pdfrwt>
<pdfrwt beam="2">  1       -1 0.27028192E-01 0.14148817E+03</pdfrwt>
<totfact> 0.37028168E+03</totfact>
</mgrwt>
</event>
<event>
 6    1  0.5818426E-006  0.2230490E+03  0.7546771E-02  0.1135088E+00
         -2   -1    0    0    0  501 -0.00000000000E+00  0.00000000000E+00  0.23997973745E+02  0.23997973745E+02  0.00000000000E+00 0. -1.
          2   -1    0    0  501    0  0.00000000000E+00 -0.00000000000E+00 -0.19109849197E+04  0.19109849197E+04  0.00000000000E+00 0.  1.
          5    1    1    2  502    0  0.14377643997E+03  0.38937633203E+02 -0.52324737720E+03  0.54405671737E+03  0.47000000000E+01 0. -1.
         -5    1    1    2    0  502  0.90067288722E+01  0.64892697286E+02 -0.42667849449E+03  0.43170454131E+03  0.47000000000E+01 0. -1.
        -11    1    1    2    0    0 -0.10553994802E+01 -0.25959329084E+02 -0.55037028898E+02  0.60861113895E+02  0.00000000000E+00 0. -1.
         11    1    1    2    0    0 -0.15172776936E+03 -0.77871001404E+02 -0.88202404534E+03  0.89836052084E+03  0.00000000000E+00 0.  1.
<mgrwt>
<rscale>  0 0.21839150E+03</rscale>
<asrwt>0</asrwt>
<pdfrwt beam="2">  1        2 0.29399775E+00 0.22304904E+03</pdfrwt>
<pdfrwt beam="1">  1       -2 0.36919950E-02 0.22304904E+03</pdfrwt>
<totfact> 0.25696913E+03</totfact>
</mgrwt>
</event>
<event>
 6    1  0.5818426E-006  0.1639505E+03  0.7546771E-02  0.1192253E+00
          2   -1    0    0  501    0  0.00000000000E+00  0.00000000000E+00  0.93973978263E+03  0.93973978263E+03  0.00000000000E+00 0.  1.
         -2   -1    0    0    0  501 -0.00000000000E+00 -0.00000000000E+00 -0.24196120747E+02  0.24196120747E+02  0.00000000000E+00 0. -1.
          5    1    1    2  502    0 -0.77920147582E+01  0.71548866958E+02  0.36228423012E+03  0.36939397566E+03  0.47000000000E+01 0. -1.
         -5    1    1    2    0  502  0.76095813850E+02  0.96165607628E+01  0.15084293681E+03  0.16928890309E+03  0.47000000000E+01 0. -1.
        -11    1    1    2    0    0 -0.45304491388E+02 -0.96824645649E+02  0.34927909489E+03  0.36527167297E+03  0.00000000000E+00 0.  1.
         11    1    1    2    0    0 -0.22999307704E+02  0.15659217928E+02  0.53137400057E+02  0.59981351650E+02  0.00000000000E+00 0. -1.
<mgrwt>
<rscale>  0 0.15689004E+03</rscale>
<asrwt>0</asrwt>
<pdfrwt beam="1">  1        2 0.14457532E+00 0.16395046E+03</pdfrwt>
<pdfrwt beam="2">  1       -2 0.37224808E-02 0.16395046E+03</pdfrwt>
<totfact> 0.85570092E+03</totfact>
</mgrwt>
</event>
<event>
 6    1  0.5818426E-006  0.1424194E+03  0.7546771E-02  0.1218446E+00
         -1   -1    0    0    0  501 -0.00000000000E+00  0.00000000000E+00  0.12589118322E+03  0.12589118322E+03  0.00000000000E+00 0.  1.
          1   -1    0    0  501    0  0.00000000000E+00 -0.00000000000E+00 -0.14289269568E+03  0.14289269568E+03  0.00000000000E+00 0. -1.
          5    1    1    2  502    0 -0.12534358540E+02  0.10361373035E+03 -0.33624850047E+02  0.10975261182E+03  0.47000000000E+01 0. -1.
         -5    1    1    2    0  502  0.24435974591E+02 -0.27997179393E+02 -0.48324707761E+01  0.37767733345E+02  0.47000000000E+01 0.  1.
        -11    1    1    2    0    0 -0.24828980625E+02 -0.83974981302E+02 -0.80963895673E+01  0.87942181503E+02  0.00000000000E+00 0.  1.
         11    1    1    2    0    0  0.12927364573E+02  0.83584303482E+01  0.29552197928E+02  0.33321352239E+02  0.00000000000E+00 0. -1.
<mgrwt>
<rscale>  0 0.13626451E+03</rscale>
<asrwt>0</asrwt>
<pdfrwt beam="2">  1        1 0.21983492E-01 0.14241940E+03</pdfrwt>
<pdfrwt beam="1">  1       -1 0.19367874E-01 0.14241940E+03</pdfrwt>
<totfact> 0.46068501E+03</totfact>
</mgrwt>
</event>
<event>
 6    1  0.5818426E-006  0.1297132E+03  0.7546771E-02  0.1242671E+00
         -1   -1    0    0    0  501 -0.00000000000E+00  0.00000000000E+00  0.40378176487E+02  0.40378176487E+02  0.00000000000E+00 0.  1.
          1   -1    0    0  501    0  0.00000000000E+00 -0.00000000000E+00 -0.32918302109E+03  0.32918302109E+03  0.00000000000E+00 0. -1.
          5    1    1    2  502    0 -0.15952350530E+02  0.18867318073E+02  0.17950054302E+02  0.30898990730E+02  0.47000000000E+01 0. -1.
         -5    1    1    2    0  502 -0.12520772654E+02 -0.38575334909E+02 -0.14511934615E+03  0.15075324487E+03  0.47000000000E+01 0. -1.
        -11    1    1    2    0    0  0.96797583899E+01  0.41627540056E+02 -0.27776555539E+02  0.50971431717E+02  0.00000000000E+00 0.  1.
         11    1    1    2    0    0  0.18793364794E+02 -0.21919523221E+02 -0.13385899721E+03  0.13693753026E+03  0.00000000000E+00 0. -1.
<mgrwt>
<rscale>  0 0.12025840E+03</rscale>
<asrwt>0</asrwt>
<pdfrwt beam="2">  1        1 0.50643544E-01 0.12971317E+03</pdfrwt>
<pdfrwt beam="1">  1       -1 0.62120269E-02 0.12971317E+03</pdfrwt>
<totfact> 0.93227079E+03</totfact>
</mgrwt>
</event>
<event>
 6    1  0.5818426E-006  0.1385422E+03  0.7546771E-02  0.1226280E+00
          3   -1    0    0  501    0  0.00000000000E+00  0.00000000000E+00  0.11456199020E+02  0.11456199020E+02  0.00000000000E+00 0. -1.
         -3   -1    0    0    0  501 -0.00000000000E+00 -0.00000000000E+00 -0.14749869359E+04  0.14749869359E+04  0.00000000000E+00 0.  1.
          5    1    1    2  502    0 -0.66335476652E+01 -0.31711696092E+02 -0.58154076000E+02  0.66735464179E+02  0.47000000000E+01 0.  1.
         -5    1    1    2    0  502  0.29325771313E+02 -0.23532158413E+02 -0.96646715578E+03  0.96720970660E+03  0.47000000000E+01 0.  1.
        -11    1    1    2    0    0  0.25333663056E+02 -0.61547455801E+01 -0.56502827778E+02  0.62227364751E+02  0.00000000000E+00 0. -1.
         11    1    1    2    0    0 -0.48025886705E+02  0.61398600085E+02 -0.38240667732E+03  0.39027059939E+03  0.00000000000E+00 0.  1.
<mgrwt>
<rscale>  0 0.13079539E+03</rscale>
<asrwt>0</asrwt>
<pdfrwt beam="1">  1        3 0.17624915E-02 0.13854222E+03</pdfrwt>
<pdfrwt beam="2">  1       -3 0.22692115E+00 0.13854222E+03</pdfrwt>
<totfact> 0.30288052E+02</totfact>
</mgrwt>
</event>
<event>
 6    1  0.5818426E-006  0.1252665E+03  0.7546771E-02  0.1250245E+00
         -1   -1    0    0    0  501 -0.00000000000E+00  0.00000000000E+00  0.84822813656E+02  0.84822813656E+02  0.00000000000E+00 0.  1.
          1   -1    0    0  501    0  0.00000000000E+00 -0.00000000000E+00 -0.13902994550E+03  0.13902994550E+03  0.00000000000E+00 0. -1.
          5    1    1    2  502    0  0.53654634162E+02 -0.16596544387E+02 -0.32815178332E+02  0.65216493171E+02  0.47000000000E+01 0.  1.
         -5    1    1    2    0  502 -0.56615352050E+02  0.23660871900E+02  0.92967157232E+01  0.62238684675E+02  0.47000000000E+01 0.  1.
        -11    1    1    2    0    0  0.22534720534E+02  0.12822982440E+02 -0.54087746268E+02  0.59981053713E+02  0.00000000000E+00 0. -1.
         11    1    1    2    0    0 -0.19574002646E+02 -0.19887309952E+02  0.23399077029E+02  0.36416527601E+02  0.00000000000E+00 0.  1.
<mgrwt>
<rscale>  0 0.11576883E+03</rscale>
<asrwt>0</asrwt>
<pdfrwt beam="2">  1        1 0.21389222E-01 0.12526653E+03</pdfrwt>
<pdfrwt beam="1">  1       -1 0.13049664E-01 0.12526653E+03</pdfrwt>
<totfact> 0.88012251E+03</totfact>
</mgrwt>
</event>
<event>
 6    1  0.5818426E-006  0.1391208E+03  0.7546771E-02  0.1225720E+00
         -3   -1    0    0    0  501 -0.00000000000E+00  0.00000000000E+00  0.38440733932E+03  0.38440733932E+03  0.00000000000E+00 0.  1.
          3   -1    0    0  501    0  0.00000000000E+00 -0.00000000000E+00 -0.40719446071E+02  0.40719446071E+02  0.00000000000E+00 0. -1.
          5    1    1    2  502    0  0.12591575204E+02 -0.25668786090E+02  0.14182366908E+03  0.14475316044E+03  0.47000000000E+01 0.  1.
         -5    1    1    2    0  502  0.10019124598E+02  0.82398964783E+02  0.70063520926E+02  0.10872423474E+03  0.47000000000E+01 0.  1.
        -11    1    1    2    0    0  0.44671757670E+01  0.19203114178E+02  0.61846156855E+02  0.64912728884E+02  0.00000000000E+00 0.  1.
         11    1    1    2    0    0 -0.27077875569E+02 -0.75933292870E+02  0.69954546385E+02  0.10673666133E+03  0.00000000000E+00 0. -1.
<mgrwt>
<rscale>  0 0.13117673E+03</rscale>
<asrwt>0</asrwt>
<pdfrwt beam="2">  1        3 0.62645304E-02 0.13912084E+03</pdfrwt>
<pdfrwt beam="1">  1       -3 0.59139588E-01 0.13912084E+03</pdfrwt>
<totfact> 0.10425224E+03</totfact>
</mgrwt>
</event>
<event>
 6    1  0.5818426E-006  0.1340189E+03  0.7546771E-02  0.1235023E+00
          1   -1    0    0  501    0  0.00000000000E+00  0.00000000000E+00  0.83518024031E+02  0.83518024031E+02  0.00000000000E+00 0. -1.
         -1   -1    0    0    0  501 -0.00000000000E+00 -0.00000000000E+00 -0.17301836044E+03  0.17301836044E+03  0.00000000000E+00 0.  1.
          5    1    1    2  502    0  0.35625408468E+02  0.15546768832E+02  0.49399643024E+01  0.39463464077E+02  0.47000000000E+01 0.  1.
         -5    1    1    2    0  502 -0.54086662728E+02 -0.60235668059E+02 -0.81087650284E+02  0.11467780875E+03  0.47000000000E+01 0.  1.
        -11    1    1    2    0    0  0.28088835736E+02  0.66213124644E+02  0.56010145939E+01  0.72142441965E+02  0.00000000000E+00 0.  1.
         11    1    1    2    0    0 -0.96275814759E+01 -0.21524225417E+02 -0.18953665024E+02  0.30252669679E+02  0.00000000000E+00 0. -1.
<mgrwt>
<rscale>  0 0.12502971E+03</rscale>
<asrwt>0</asrwt>
<pdfrwt beam="1">  1        1 0.12848927E-01 0.13401889E+03</pdfrwt>
<pdfrwt beam="2">  1       -1 0.26618209E-01 0.13401889E+03</pdfrwt>
<totfact> 0.54570991E+03</totfact>
</mgrwt>
</event>
<event>
 6    1  0.5818426E-006  0.2532858E+03  0.7546771E-02  0.1113539E+00
          2   -1    0    0  501    0  0.00000000000E+00  0.00000000000E+00  0.26476843927E+04  0.26476843927E+04  0.00000000000E+00 0. -1.
         -2   -1    0    0    0  501 -0.00000000000E+00 -0.00000000000E+00 -0.22930253998E+02  0.22930253998E+02  0.00000000000E+00 0.  1.
          5    1    1    2  502    0  0.13701189847E+02 -0.64213385325E+01  0.12996931475E+02  0.20493082236E+02  0.47000000000E+01 0.  1.
         -5    1    1    2    0  502  0.15782942112E+03 -0.13179954242E+03  0.13995975108E+04  0.14146294666E+04  0.47000000000E+01 0.  1.
        -11    1    1    2    0    0 -0.11819537590E+03  0.13373696743E+03  0.10400038942E+04  0.10552079526E+04  0.00000000000E+00 0. -1.
         11    1    1    2    0    0 -0.53335235060E+02  0.44839135230E+01  0.17215580222E+03  0.18028414522E+03  0.00000000000E+00 0.  1.
<mgrwt>
<rscale>  0 0.24962996E+03</rscale>
<asrwt>0</asrwt>
<pdfrwt beam="1">  1        2 0.40733582E+00 0.25328575E+03</pdfrwt>
<pdfrwt beam="2">  1       -2 0.35277335E-02 0.25328575E+03</pdfrwt>
<totfact> 0.11063983E+03</totfact>
</mgrwt>
</event>
<event>
 6    1  0.5818426E-006  0.1308255E+03  0.7546771E-02  0.1240940E+00
          1   -1    0    0  501    0  0.00000000000E+00  0.00000000000E+00  0.34306846513E+03  0.34306846513E+03  0.00000000000E+00 0. -1.
         -1   -1    0    0    0  501 -0.00000000000E+00 -0.00000000000E+00 -0.41449399289E+02  0.41449399289E+02  0.00000000000E+00 0.  1.
          5    1    1    2  502    0  0.21290199873E+02  0.46376815322E+02  0.10992431207E+02  0.52411879892E+02  0.47000000000E+01 0. -1.
         -5    1    1    2    0  502 -0.56047531586E+02 -0.29570075074E+02  0.10343960871E+03  0.12139834343E+03  0.47000000000E+01 0. -1.
        -11    1    1    2    0    0 -0.18112140119E+02  0.96960804348E+01  0.80573653644E+01  0.22067730561E+02  0.00000000000E+00 0.  1.
         11    1    1    2    0    0  0.52869471832E+02 -0.26502820682E+02  0.17912966055E+03  0.18863991053E+03  0.00000000000E+00 0. -1.
<mgrwt>
<rscale>  0 0.12131690E+03</rscale>
<asrwt>0</asrwt>
<pdfrwt beam="1">  1        1 0.52779762E-01 0.13082546E+03</pdfrwt>
<pdfrwt beam="2">  1       -1 0.63768309E-02 0.13082546E+03</pdfrwt>
<totfact> 0.85224976E+03</totfact>
</mgrwt>
</event>
<event>
 6    1  0.5818426E-006  0.1435438E+03  0.7546771E-02  0.1218765E+00
          1   -1    0    0  501    0  0.00000000000E+00  0.00000000000E+00  0.53562793412E+03  0.53562793412E+03  0.00000000000E+00 0. -1.
         -1   -1    0    0    0  501 -0.00000000000E+00 -0.00000000000E+00 -0.31468336673E+02  0.31468336673E+02  0.00000000000E+00 0.  1.
          5    1    1    2  502    0 -0.14400826681E+02  0.57107474733E+02  0.53206418331E+02  0.79508870141E+02  0.47000000000E+01 0.  1.
         -5    1    1    2    0  502  0.65443379338E+02 -0.83724858027E+01  0.21164989750E+03  0.22174468095E+03  0.47000000000E+01 0.  1.
        -11    1    1    2    0    0 -0.39309220098E+01 -0.27404594199E+02  0.79845180075E+01  0.28813477036E+02  0.00000000000E+00 0.  1.
         11    1    1    2    0    0 -0.47111630647E+02 -0.21330394731E+02  0.23131876361E+03  0.23702924266E+03  0.00000000000E+00 0. -1.
<mgrwt>
<rscale>  0 0.13603542E+03</rscale>
<asrwt>0</asrwt>
<pdfrwt beam="1">  1        1 0.82404291E-01 0.14354384E+03</pdfrwt>
<pdfrwt beam="2">  1       -1 0.48412830E-02 0.14354384E+03</pdfrwt>
<totfact> 0.73112052E+03</totfact>
</mgrwt>
</event>
<event>
 6    1  0.5818426E-006  0.1302769E+03  0.7546771E-02  0.1239128E+00
          1   -1    0    0  501    0  0.00000000000E+00  0.00000000000E+00  0.43964978200E+03  0.43964978200E+03  0.00000000000E+00 0. -1.
         -1   -1    0    0    0  501 -0.00000000000E+00 -0.00000000000E+00 -0.33808967451E+02  0.33808967451E+02  0.00000000000E+00 0.  1.
          5    1    1    2  502    0 -0.42491247847E+02 -0.19508480416E+02  0.14397838773E+03  0.15145280811E+03  0.47000000000E+01 0. -1.
         -5    1    1    2    0  502  0.45313702488E+02 -0.17095459790E+02  0.90050482465E+01  0.49485020689E+02  0.47000000000E+01 0. -1.
        -11    1    1    2    0    0  0.41769895612E+02  0.32274254741E+01  0.14765139001E+03  0.15347987955E+03  0.00000000000E+00 0. -1.
         11    1    1    2    0    0 -0.44592350254E+02  0.33376514732E+02  0.10520598856E+03  0.11904104110E+03  0.00000000000E+00 0.  1.
<mgrwt>
<rscale>  0 0.12243833E+03</rscale>
<asrwt>0</asrwt>
<pdfrwt beam="1">  1        1 0.67638424E-01 0.13027693E+03</pdfrwt>
<pdfrwt beam="2">  1       -1 0.52013799E-02 0.13027693E+03</pdfrwt>
<totfact> 0.84433919E+03</totfact>
</mgrwt>
</event>
<event>
 6    1  0.5818426E-006  0.2215293E+03  0.7546771E-02  0.1145565E+00
          1   -1    0    0  501    0  0.00000000000E+00  0.00000000000E+00  0.17392528324E+03  0.17392528324E+03  0.00000000000E+00 0. -1.
         -1   -1    0    0    0  501 -0.00000000000E+00 -0.00000000000E+00 -0.32784312310E+03  0.32784312310E+03  0.00000000000E+00 0.  1.
          5    1    1    2  502    0 -0.76216407317E+02  0.37523675510E+02 -0.56695646814E+02  0.10224213092E+03  0.47000000000E+01 0. -1.
         -5    1    1    2    0  502 -0.22963199049E+02 -0.12828666644E+03 -0.17588028863E+03  0.21895374677E+03  0.47000000000E+01 0.  1.
        -11    1    1    2    0    0  0.10842777860E+03  0.83913997203E+02  0.90324847411E+02  0.16418501807E+03  0.00000000000E+00 0. -1.
         11    1    1    2    0    0 -0.92481722351E+01  0.68489937253E+01 -0.11666751828E+02  0.16387510579E+02  0.00000000000E+00 0.  1.
<mgrwt>
<rscale>  0 0.20502821E+03</rscale>
<asrwt>0</asrwt>
<pdfrwt beam="1">  1        1 0.26757736E-01 0.22152929E+03</pdfrwt>
<pdfrwt beam="2">  1       -1 0.50437403E-01 0.22152929E+03</pdfrwt>
<totfact> 0.70963796E+02</totfact>
</mgrwt>
</event>
<event>
 6    1  0.5818426E-006  0.1632818E+03  0.7546771E-02  0.1192017E+00
         -2   -1    0    0    0  501 -0.00000000000E+00  0.00000000000E+00  0.29974367887E+02  0.29974367887E+02  0.00000000000E+00 0.  1.
          2   -1    0    0  501    0  0.00000000000E+00 -0.00000000000E+00 -0.98344851425E+03  0.98344851425E+03  0.00000000000E+00 0. -1.
          5    1    1    2  502    0 -0.23127709016E+02  0.24816206057E+02 -0.16964075719E+03  0.17306302755E+03  0.47000000000E+01 0. -1.
         -5    1    1    2    0  502 -0.71204869819E+02 -0.71053525764E+02 -0.98404347507E+02  0.14079858883E+03  0.47000000000E+01 0. -1.
        -11    1    1    2    0    0  0.36803253421E+02 -0.27485950285E+02 -0.20000890406E+03  0.20521578552E+03  0.00000000000E+00 0.  1.
         11    1    1    2    0    0  0.57529325414E+02  0.73723269991E+02 -0.48542013761E+03  0.49434548023E+03  0.00000000000E+00 0. -1.
<mgrwt>
<rscale>  0 0.15709430E+03</rscale>
<asrwt>0</asrwt>
<pdfrwt beam="2">  1        2 0.15129974E+00 0.16328177E+03</pdfrwt>
<pdfrwt beam="1">  1       -2 0.46114421E-02 0.16328177E+03</pdfrwt>
<totfact> 0.58389478E+03</totfact>
</mgrwt>
</event>
<event>
 6    1  0.5818426E-006  0.1260430E+03  0.7546771E-02  0.1248265E+00
         -1   -1    0    0    0  501 -0.00000000000E+00  0.00000000000E+00  0.35449383689E+03  0.35449383689E+03  0.00000000000E+00 0.  1.
          1   -1    0    0  501    0  0.00000000000E+00 -0.00000000000E+00 -0.34109269892E+02  0.34109269892E+02  0.00000000000E+00 0. -1.
          5    1    1    2  502    0  0.68794924445E+02  0.70169171477E+01  0.85738857456E+02  0.11025071625E+03  0.47000000000E+01 0. -1.
         -5    1    1    2    0  502 -0.53591570878E+02  0.87883099106E+00  0.11182711739E+03  0.12409763494E+03  0.47000000000E+01 0. -1.
        -11    1    1    2    0    0  0.15717687161E+02 -0.17656460074E+02  0.11932283901E+03  0.12164183565E+03  0.00000000000E+00 0.  1.
         11    1    1    2    0    0 -0.30921040728E+02  0.97607119352E+01  0.34957531435E+01  0.32612919943E+02  0.00000000000E+00 0. -1.
<mgrwt>
<rscale>  0 0.11692088E+03</rscale>
<asrwt>0</asrwt>
<pdfrwt beam="2">  1        1 0.52475802E-02 0.12604299E+03</pdfrwt>
<pdfrwt beam="1">  1       -1 0.54537511E-01 0.12604299E+03</pdfrwt>
<totfact> 0.51512637E+03</totfact>
</mgrwt>
</event>
<event>
 6    1  0.5818426E-006  0.1768203E+03  0.7546771E-02  0.1177734E+00
         -2   -1    0    0    0  501 -0.00000000000E+00  0.00000000000E+00  0.99992331555E+02  0.99992331555E+02  0.00000000000E+00 0.  1.
          2   -1    0    0  501    0  0.00000000000E+00 -0.00000000000E+00 -0.27182951368E+03  0.27182951368E+03  0.00000000000E+00 0. -1.
          5    1    1    2  502    0 -0.69761398923E+01  0.74418154754E+02 -0.55435340650E+02  0.93176688489E+02  0.47000000000E+01 0.  1.
         -5    1    1    2    0  502  0.95907306388E+02  0.13513079532E+02 -0.19723159929E+02  0.98954069015E+02  0.47000000000E+01 0.  1.
        -11    1    1    2    0    0 -0.86728298129E+02 -0.51808072368E+02 -0.32697578812E+02  0.10618382984E+03  0.00000000000E+00 0.  1.
         11    1    1    2    0    0 -0.22028683666E+01 -0.36123161918E+02 -0.63981102732E+02  0.73507257892E+02  0.00000000000E+00 0. -1.
<mgrwt>
<rscale>  0 0.17010941E+03</rscale>
<asrwt>0</asrwt>
<pdfrwt beam="2">  1        2 0.41819925E-01 0.17682033E+03</pdfrwt>
<pdfrwt beam="1">  1       -2 0.15383436E-01 0.17682033E+03</pdfrwt>
<totfact> 0.38986986E+03</totfact>
</mgrwt>
</event>
<event>
 6    1  0.5818426E-006  0.3289420E+03  0.7546771E-02  0.1073107E+00
         -2   -1    0    0    0  501 -0.00000000000E+00  0.00000000000E+00  0.18864445099E+03  0.18864445099E+03  0.00000000000E+00 0.  1.
          2   -1    0    0  501    0  0.00000000000E+00 -0.00000000000E+00 -0.62404670445E+03  0.62404670445E+03  0.00000000000E+00 0. -1.
          5    1    1    2  502    0 -0.40796143853E+02  0.91650904761E+02 -0.43646003127E+02  0.10950469070E+03  0.47000000000E+01 0. -1.
         -5    1    1    2    0  502  0.92806122001E+02  0.20634947548E+03 -0.38768432852E+02  0.22960436341E+03  0.47000000000E+01 0.  1.
        -11    1    1    2    0    0  0.24720445965E+02 -0.10463866673E+03 -0.12774814324E+03  0.16697286942E+03  0.00000000000E+00 0. -1.
         11    1    1    2    0    0 -0.76730424113E+02 -0.19336171351E+03 -0.22523967424E+03  0.30660923191E+03  0.00000000000E+00 0.  1.
<mgrwt>
<rscale>  0 0.32558564E+03</rscale>
<asrwt>0</asrwt>
<pdfrwt beam="2">  1        2 0.96007184E-01 0.32894196E+03</pdfrwt>
<pdfrwt beam="1">  1       -2 0.29022224E-01 0.32894196E+03</pdfrwt>
<totfact> 0.52485349E+02</totfact>
</mgrwt>
</event>
<event>
 6    1  0.5818426E-006  0.1848798E+03  0.7546771E-02  0.1167978E+00
         -2   -1    0    0    0  501 -0.00000000000E+00  0.00000000000E+00  0.41020131507E+02  0.41020131507E+02  0.00000000000E+00 0.  1.
          2   -1    0    0  501    0  0.00000000000E+00 -0.00000000000E+00 -0.77014005927E+03  0.77014005927E+03  0.00000000000E+00 0. -1.
          5    1    1    2  502    0 -0.11839519535E+03  0.72120312025E+02 -0.35314898896E+03  0.37941410108E+03  0.47000000000E+01 0. -1.
         -5    1    1    2    0  502 -0.14707367387E+02 -0.43129249538E+02 -0.99703165560E+02  0.10972351637E+03  0.47000000000E+01 0. -1.
        -11    1    1    2    0    0  0.38148324928E+02 -0.50605455864E+01 -0.18226083433E+03  0.18627913342E+03  0.00000000000E+00 0. -1.
         11    1    1    2    0    0  0.94954237810E+02 -0.23930516900E+02 -0.94006938911E+02  0.13574343992E+03  0.00000000000E+00 0.  1.
<mgrwt>
<rscale>  0 0.17981903E+03</rscale>
<asrwt>0</asrwt>
<pdfrwt beam="2">  1        2 0.11848307E+00 0.18487979E+03</pdfrwt>
<pdfrwt beam="1">  1       -2 0.63107904E-02 0.18487979E+03</pdfrwt>
<totfact> 0.50133253E+03</totfact>
</mgrwt>
</event>
<event>
 6    1  0.5818426E-006  0.3534280E+03  0.7546771E-02  0.1061217E+00
          1   -1    0    0  501    0  0.00000000000E+00  0.00000000000E+00  0.13020285994E+04  0.13020285994E+04  0.00000000000E+00 0. -1.
         -1   -1    0    0    0  501 -0.00000000000E+00 -0.00000000000E+00 -0.23983981064E+02  0.23983981064E+02  0.00000000000E+00 0.  1.
          5    1    1    2  502    0  0.13131240011E+03  0.33580424119E+02  0.37736269078E+03  0.40099286988E+03  0.47000000000E+01 0. -1.
         -5    1    1    2    0  502 -0.72671682197E+01  0.29291658288E+02  0.30500654055E+03  0.30653204198E+03  0.47000000000E+01 0. -1.
        -11    1    1    2    0    0 -0.92307829368E+02 -0.10735242691E+02  0.23541481021E+03  0.25309309288E+03  0.00000000000E+00 0.  1.
         11    1    1    2    0    0 -0.31737402518E+02 -0.52136839716E+02  0.36026057679E+03  0.36539457571E+03  0.00000000000E+00 0. -1.
<mgrwt>
<rscale>  0 0.35342795E+03</rscale>
<asrwt>0</asrwt>
<pdfrwt beam="1">  1        1 0.20031204E+00 0.35342795E+03</pdfrwt>
<pdfrwt beam="2">  1       -1 0.36898443E-02 0.35342795E+03</pdfrwt>
<totfact> 0.27019868E+03</totfact>
</mgrwt>
</event>
<event>
 6    1  0.5818426E-006  0.1503399E+03  0.7546771E-02  0.1209247E+00
         -1   -1    0    0    0  501 -0.00000000000E+00  0.00000000000E+00  0.64151266651E+02  0.64151266651E+02  0.00000000000E+00 0.  1.
          1   -1    0    0  501    0  0.00000000000E+00 -0.00000000000E+00 -0.35411933102E+03  0.35411933102E+03  0.00000000000E+00 0. -1.
          5    1    1    2  502    0  0.61920762652E+02 -0.36258034373E+02 -0.48603639260E+02  0.86794179835E+02  0.47000000000E+01 0.  1.
         -5    1    1    2    0  502  0.12137894459E+02  0.74881398821E+02 -0.20841971422E+02  0.78810089100E+02  0.47000000000E+01 0.  1.
        -11    1    1    2    0    0 -0.15814281655E+02 -0.59078239582E+02 -0.12040408185E+03  0.13504618774E+03  0.00000000000E+00 0.  1.
         11    1    1    2    0    0 -0.58244375455E+02  0.20454875135E+02 -0.10011837184E+03  0.11762014100E+03  0.00000000000E+00 0. -1.
<mgrwt>
<rscale>  0 0.14307780E+03</rscale>
<asrwt>0</asrwt>
<pdfrwt beam="2">  1        1 0.54479897E-01 0.15033989E+03</pdfrwt>
<pdfrwt beam="1">  1       -1 0.98694257E-02 0.15033989E+03</pdfrwt>
<totfact> 0.42720771E+03</totfact>
</mgrwt>
</event>
<event>
 6    1  0.5818426E-006  0.1661477E+03  0.7546771E-02  0.1188597E+00
         -1   -1    0    0    0  501 -0.00000000000E+00  0.00000000000E+00  0.46351045069E+03  0.46351045069E+03  0.00000000000E+00 0.  1.
          1   -1    0    0  501    0  0.00000000000E+00 -0.00000000000E+00 -0.51704673416E+02  0.51704673416E+02  0.00000000000E+00 0. -1.
          5    1    1    2  502    0  0.35840362691E+02 -0.35726656257E+02  0.59622269517E+02  0.78344307946E+02  0.47000000000E+01 0.  1.
         -5    1    1    2    0  502  0.50731658039E+02  0.10269679407E+03  0.17214070614E+03  0.20682080493E+03  0.47000000000E+01 0.  1.
        -11    1    1    2    0    0  0.19631149593E+02 -0.14891529153E+02  0.36706144187E+02  0.44209509112E+02  0.00000000000E+00 0. -1.
         11    1    1    2    0    0 -0.10620317032E+03 -0.52078608659E+02  0.14333665743E+03  0.18584050212E+03  0.00000000000E+00 0.  1.
<mgrwt>
<rscale>  0 0.16008850E+03</rscale>
<asrwt>0</asrwt>
<pdfrwt beam="2">  1        1 0.79545654E-02 0.16614772E+03</pdfrwt>
<pdfrwt beam="1">  1       -1 0.71309297E-01 0.16614772E+03</pdfrwt>
<totfact> 0.17771176E+03</totfact>
</mgrwt>
</event>
<event>
 6    1  0.5818426E-006  0.2743935E+03  0.7546771E-02  0.1100876E+00
         -2   -1    0    0    0  501 -0.00000000000E+00  0.00000000000E+00  0.22609167200E+04  0.22609167200E+04  0.00000000000E+00 0.  1.
          2   -1    0    0  501    0  0.00000000000E+00 -0.00000000000E+00 -0.36494274703E+02  0.36494274703E+02  0.00000000000E+00 0. -1.
          5    1    1    2  502    0  0.18812423637E+03  0.14241739348E+03  0.15528934398E+04  0.15707238992E+04  0.47000000000E+01 0. -1.
         -5    1    1    2    0  502  0.30028107890E+01  0.96905965347E+01  0.71603345360E+01  0.13277233315E+02  0.47000000000E+01 0. -1.
        -11    1    1    2    0    0 -0.73202751110E+02 -0.11497935707E+03  0.34677529400E+03  0.37260166378E+03  0.00000000000E+00 0.  1.
         11    1    1    2    0    0 -0.11792429605E+03 -0.37128632947E+02  0.31759337698E+03  0.34080819838E+03  0.00000000000E+00 0. -1.
<mgrwt>
<rscale>  0 0.27070604E+03</rscale>
<asrwt>0</asrwt>
<pdfrwt beam="2">  1        2 0.56145056E-02 0.27439353E+03</pdfrwt>
<pdfrwt beam="1">  1       -2 0.34783323E+00 0.27439353E+03</pdfrwt>
<totfact> 0.25562764E+01</totfact>
</mgrwt>
</event>
<event>
 6    1  0.5818426E-006  0.1631209E+03  0.7546771E-02  0.1192427E+00
          1   -1    0    0  501    0  0.00000000000E+00  0.00000000000E+00  0.28424377911E+02  0.28424377911E+02  0.00000000000E+00 0. -1.
         -1   -1    0    0    0  501 -0.00000000000E+00 -0.00000000000E+00 -0.86694653849E+03  0.86694653849E+03  0.00000000000E+00 0.  1.
          5    1    1    2  502    0 -0.78720070313E+02 -0.26950126841E+02 -0.23048510109E+03  0.24508902593E+03  0.47000000000E+01 0.  1.
         -5    1    1    2    0  502 -0.15089034926E+02  0.73660329193E+02 -0.34083183540E+03  0.34905866713E+03  0.47000000000E+01 0.  1.
        -11    1    1    2    0    0  0.35225677959E+02 -0.50066893362E+02 -0.21198361859E+03  0.22064586275E+03  0.00000000000E+00 0.  1.
         11    1    1    2    0    0  0.58583427280E+02  0.33566910099E+01 -0.55221605493E+02  0.80577360590E+02  0.00000000000E+00 0. -1.
<mgrwt>
<rscale>  0 0.15674018E+03</rscale>
<asrwt>0</asrwt>
<pdfrwt beam="1">  1        1 0.43729803E-02 0.16312093E+03</pdfrwt>
<pdfrwt beam="2">  1       -1 0.13337642E+00 0.16312093E+03</pdfrwt>
<totfact> 0.10127034E+03</totfact>
</mgrwt>
</event>
<event>
 6    1  0.5818426E-006  0.1411922E+03  0.7546771E-02  0.1222439E+00
          1   -1    0    0  501    0  0.00000000000E+00  0.00000000000E+00  0.33758969661E+02  0.33758969661E+02  0.00000000000E+00 0. -1.
         -1   -1    0    0    0  501 -0.00000000000E+00 -0.00000000000E+00 -0.47873479387E+03  0.47873479387E+03  0.00000000000E+00 0.  1.
          5    1    1    2  502    0 -0.24503929071E+02  0.26515298074E+02 -0.91121574209E+01  0.37531653104E+02  0.47000000000E+01 0.  1.
         -5    1    1    2    0  502  0.67008278989E+02  0.23517126209E+02 -0.22370266270E+03  0.23475122146E+03  0.47000000000E+01 0.  1.
        -11    1    1    2    0    0 -0.11268549822E+02 -0.29986685632E+02 -0.84271645157E+01  0.33123988770E+02  0.00000000000E+00 0. -1.
         11    1    1    2    0    0 -0.31235800096E+02 -0.20045738652E+02 -0.20373383957E+03  0.20708690020E+03  0.00000000000E+00 0.  1.
<mgrwt>
<rscale>  0 0.13344007E+03</rscale>
<asrwt>0</asrwt>
<pdfrwt beam="1">  1        1 0.51936878E-02 0.14119215E+03</pdfrwt>
<pdfrwt beam="2">  1       -1 0.73651505E-01 0.14119215E+03</pdfrwt>
<totfact> 0.29508314E+03</totfact>
</mgrwt>
</event>
<event>
 6    1  0.5818426E-006  0.1904077E+03  0.7546771E-02  0.1163958E+00
          2   -1    0    0  501    0  0.00000000000E+00  0.00000000000E+00  0.66460844550E+03  0.66460844550E+03  0.00000000000E+00 0. -1.
         -2   -1    0    0    0  501 -0.00000000000E+00 -0.00000000000E+00 -0.55940906217E+02  0.55940906217E+02  0.00000000000E+00 0.  1.
          5    1    1    2  502    0  0.44408933175E+02  0.76741223266E+01  0.15261748735E+03  0.15920186225E+03  0.47000000000E+01 0.  1.
         -5    1    1    2    0  502  0.84699030170E+02  0.55278964509E+02  0.32444695519E+02  0.10632233019E+03  0.47000000000E+01 0.  1.
        -11    1    1    2    0    0 -0.52834951174E+02 -0.71745763892E+02  0.21449428363E+03  0.23226447083E+03  0.00000000000E+00 0. -1.
         11    1    1    2    0    0 -0.76273012171E+02  0.87926770570E+01  0.20911107279E+03  0.22276068845E+03  0.00000000000E+00 0.  1.
<mgrwt>
<rscale>  0 0.18403040E+03</rscale>
<asrwt>0</asrwt>
<pdfrwt beam="1">  1        2 0.10224745E+00 0.19040768E+03</pdfrwt>
<pdfrwt beam="2">  1       -2 0.86062937E-02 0.19040768E+03</pdfrwt>
<totfact> 0.37117976E+03</totfact>
</mgrwt>
</event>
<event>
 6    1  0.5818426E-006  0.1169951E+03  0.7546771E-02  0.1256364E+00
         -1   -1    0    0    0  501 -0.00000000000E+00  0.00000000000E+00  0.34753340160E+02  0.34753340160E+02  0.00000000000E+00 0.  1.
          1   -1    0    0  501    0  0.00000000000E+00 -0.00000000000E+00 -0.33835254705E+03  0.33835254705E+03  0.00000000000E+00 0. -1.
          5    1    1    2  502    0  0.54874183086E+02 -0.14693346139E+02 -0.13609271677E+03  0.14754791746E+03  0.47000000000E+01 0. -1.
         -5    1    1    2    0  502 -0.23181462746E+02  0.33185519673E+02 -0.14730291459E+02  0.43332786865E+02  0.47000000000E+01 0.  1.
        -11    1    1    2    0    0  0.22060864210E+02  0.55711777151E+01 -0.52122803873E+01  0.23342827970E+02  0.00000000000E+00 0.  1.
         11    1    1    2    0    0 -0.53753584550E+02 -0.24063351249E+02 -0.14756391828E+03  0.15888235491E+03  0.00000000000E+00 0. -1.
<mgrwt>
<rscale>  0 0.11230278E+03</rscale>
<asrwt>0</asrwt>
<pdfrwt beam="2">  1        1 0.52054236E-01 0.11699514E+03</pdfrwt>
<pdfrwt beam="1">  1       -1 0.53466679E-02 0.11699514E+03</pdfrwt>
<totfact> 0.11166033E+04</totfact>
</mgrwt>
</event>
<event>
 6    1  0.5818426E-006  0.1473872E+03  0.7546771E-02  0.1213333E+00
         -1   -1    0    0    0  501 -0.00000000000E+00  0.00000000000E+00  0.52625004621E+02  0.52625004621E+02  0.00000000000E+00 0.  1.
          1   -1    0    0  501    0  0.00000000000E+00 -0.00000000000E+00 -0.40371322648E+03  0.40371322648E+03  0.00000000000E+00 0. -1.
          5    1    1    2  502    0  0.31202728682E+02  0.95005580171E+02 -0.55707639842E+02  0.11456483613E+03  0.47000000000E+01 0. -1.
         -5    1    1    2    0  502 -0.41727287274E+02 -0.17613539016E+02 -0.44443667025E+02  0.63629653453E+02  0.47000000000E+01 0. -1.
        -11    1    1    2    0    0 -0.12661256421E+02 -0.53820117953E+01  0.22106399927E+01  0.13934144908E+02  0.00000000000E+00 0.  1.
         11    1    1    2    0    0  0.23185815013E+02 -0.72010029359E+02 -0.25314755498E+03  0.26420959661E+03  0.00000000000E+00 0. -1.
<mgrwt>
<rscale>  0 0.13999736E+03</rscale>
<asrwt>0</asrwt>
<pdfrwt beam="2">  1        1 0.62109727E-01 0.14738722E+03</pdfrwt>
<pdfrwt beam="1">  1       -1 0.80961545E-02 0.14738722E+03</pdfrwt>
<totfact> 0.48905861E+03</totfact>
</mgrwt>
</event>
<event>
 6    1  0.5818426E-006  0.1533970E+03  0.7546771E-02  0.1204877E+00
          1   -1    0    0  501    0  0.00000000000E+00  0.00000000000E+00  0.11690591720E+03  0.11690591720E+03  0.00000000000E+00 0. -1.
         -1   -1    0    0    0  501 -0.00000000000E+00 -0.00000000000E+00 -0.18676908000E+03  0.18676908000E+03  0.00000000000E+00 0.  1.
          5    1    1    2  502    0 -0.55766718711E+02 -0.14976310688E+02 -0.11400031076E+03  0.12787641554E+03  0.47000000000E+01 0. -1.
         -5    1    1    2    0  502 -0.20351375331E+02 -0.30982532383E+02  0.29179967950E+02  0.47409453913E+02  0.47000000000E+01 0. -1.
        -11    1    1    2    0    0  0.74158505107E+02 -0.61442972265E+01  0.16525738459E+02  0.76225561984E+02  0.00000000000E+00 0. -1.
         11    1    1    2    0    0  0.19595889346E+01  0.52103140298E+02 -0.15685584602E+01  0.52163565765E+02  0.00000000000E+00 0.  1.
<mgrwt>
<rscale>  0 0.14647143E+03</rscale>
<asrwt>0</asrwt>
<pdfrwt beam="1">  1        1 0.17985526E-01 0.15339702E+03</pdfrwt>
<pdfrwt beam="2">  1       -1 0.28733704E-01 0.15339702E+03</pdfrwt>
<totfact> 0.31321617E+03</totfact>
</mgrwt>
</event>
<event>
 6    1  0.5818426E-006  0.2511230E+03  0.7546771E-02  0.1112597E+00
          1   -1    0    0  501    0  0.00000000000E+00  0.00000000000E+00  0.56478109207E+02  0.56478109207E+02  0.00000000000E+00 0. -1.
         -1   -1    0    0    0  501 -0.00000000000E+00 -0.00000000000E+00 -0.27914689062E+03  0.27914689062E+03  0.00000000000E+00 0.  1.
          5    1    1    2  502    0 -0.46491651392E+02  0.24406509773E+02  0.10876939658E+02  0.53828888014E+02  0.47000000000E+01 0.  1.
         -5    1    1    2    0  502  0.19467050256E+01  0.21124374614E+02 -0.12537862416E+03  0.12724746858E+03  0.47000000000E+01 0.  1.
        -11    1    1    2    0    0 -0.21458963888E+01 -0.61105052815E+02 -0.61522181225E+02  0.86737599307E+02  0.00000000000E+00 0.  1.
         11    1    1    2    0    0  0.46690842756E+02  0.15574168428E+02 -0.46644915691E+02  0.67811043933E+02  0.00000000000E+00 0. -1.
<mgrwt>
<rscale>  0 0.25112299E+03</rscale>
<asrwt>0</asrwt>
<pdfrwt beam="1">  1        1 0.86889398E-02 0.25112299E+03</pdfrwt>
<pdfrwt beam="2">  1       -1 0.42945676E-01 0.25112299E+03</pdfrwt>
<totfact> 0.41801229E+03</totfact>
</mgrwt>
</event>
<event>
 6    1  0.5818426E-006  0.1371150E+03  0.7546771E-02  0.1229414E+00
         -1   -1    0    0    0  501 -0.00000000000E+00  0.00000000000E+00  0.12787601575E+04  0.12787601575E+04  0.00000000000E+00 0.  1.
          1   -1    0    0  501    0  0.00000000000E+00 -0.00000000000E+00 -0.11878260967E+02  0.11878260967E+02  0.00000000000E+00 0. -1.
          5    1    1    2  502    0 -0.25335801390E+01  0.37844990926E+02  0.69420074381E+02  0.79245814360E+02  0.47000000000E+01 0. -1.
         -5    1    1    2    0  502  0.49390280104E+02 -0.65443580473E+01  0.74132107687E+03  0.74300824855E+03  0.47000000000E+01 0. -1.
        -11    1    1    2    0    0 -0.68220984215E+02 -0.42109215542E+02  0.38695928289E+03  0.39517689120E+03  0.00000000000E+00 0.  1.
         11    1    1    2    0    0  0.21364284251E+02  0.10808582663E+02  0.69181462404E+02  0.73207464381E+02  0.00000000000E+00 0. -1.
<mgrwt>
<rscale>  0 0.12868926E+03</rscale>
<asrwt>0</asrwt>
<pdfrwt beam="2">  1        1 0.18274258E-02 0.13711502E+03</pdfrwt>
<pdfrwt beam="1">  1       -1 0.19673222E+00 0.13711502E+03</pdfrwt>
<totfact> 0.11816961E+03</totfact>
</mgrwt>
</event>
<event>
 6    1  0.5818426E-006  0.1464754E+03  0.7546771E-02  0.1214818E+00
         -2   -1    0    0    0  501 -0.00000000000E+00  0.00000000000E+00  0.76024704024E+02  0.76024704024E+02  0.00000000000E+00 0.  1.
          2   -1    0    0  501    0  0.00000000000E+00 -0.00000000000E+00 -0.32943612249E+03  0.32943612249E+03  0.00000000000E+00 0. -1.
          5    1    1    2  502    0  0.44103334976E+02 -0.54246739532E+02  0.29838461653E+02  0.76159285052E+02  0.47000000000E+01 0. -1.
         -5    1    1    2    0  502 -0.40991441802E+02 -0.22050426025E+02 -0.55432592122E+02  0.72535383491E+02  0.47000000000E+01 0. -1.
        -11    1    1    2    0    0 -0.31586201171E+02  0.71816895183E+02 -0.10774761545E+03  0.13328504482E+03  0.00000000000E+00 0.  1.
         11    1    1    2    0    0  0.28474307997E+02  0.44802703742E+01 -0.12006967254E+03  0.12348111314E+03  0.00000000000E+00 0. -1.
<mgrwt>
<rscale>  0 0.13889882E+03</rscale>
<asrwt>0</asrwt>
<pdfrwt beam="2">  1        2 0.50682479E-01 0.14647541E+03</pdfrwt>
<pdfrwt beam="1">  1       -2 0.11696109E-01 0.14647541E+03</pdfrwt>
<totfact> 0.49065989E+03</totfact>
</mgrwt>
</event>
<event>
 6    1  0.5818426E-006  0.1887105E+03  0.7546771E-02  0.1164545E+00
          2   -1    0    0  501    0  0.00000000000E+00  0.00000000000E+00  0.98576178387E+02  0.98576178387E+02  0.00000000000E+00 0.  1.
         -2   -1    0    0    0  501 -0.00000000000E+00 -0.00000000000E+00 -0.73995862674E+03  0.73995862674E+03  0.00000000000E+00 0. -1.
          5    1    1    2  502    0  0.33838518285E+02  0.13651676079E+03 -0.42704001410E+03  0.44962999782E+03  0.47000000000E+01 0. -1.
         -5    1    1    2    0  502 -0.43983944402E+02  0.44867646112E+01 -0.21598939556E+03  0.22051808863E+03  0.47000000000E+01 0. -1.
        -11    1    1    2    0    0 -0.24592193150E+02 -0.38431822696E+01  0.95872654888E+01  0.26673238900E+02  0.00000000000E+00 0.  1.
         11    1    1    2    0    0  0.34737619267E+02 -0.13716034313E+03 -0.79403041893E+01  0.14171347978E+03  0.00000000000E+00 0. -1.
<mgrwt>
<rscale>  0 0.18340820E+03</rscale>
<asrwt>0</asrwt>
<pdfrwt beam="1">  1        2 0.15165566E-01 0.18871046E+03</pdfrwt>
<pdfrwt beam="2">  1       -2 0.11383979E+00 0.18871046E+03</pdfrwt>
<totfact> 0.24311183E+02</totfact>
</mgrwt>
</event>
<event>
 6    1  0.5818426E-006  0.2552936E+03  0.7546771E-02  0.1110004E+00
         -4   -1    0    0    0  501 -0.00000000000E+00  0.00000000000E+00  0.52371268920E+03  0.52371268920E+03  0.00000000000E+00 0.  1.
          4   -1    0    0  501    0  0.00000000000E+00 -0.00000000000E+00 -0.31111916161E+02  0.31111916161E+02  0.00000000000E+00 0. -1.
          5    1    1    2  502    0  0.20851267952E+02  0.17166653048E+02  0.20688162635E+02  0.34344714663E+02  0.47000000000E+01 0. -1.
         -5    1    1    2    0  502 -0.17375882221E+02 -0.77131262510E+02  0.30562192854E+03  0.31571823854E+03  0.47000000000E+01 0.  1.
        -11    1    1    2    0    0  0.33506842668E+02 -0.14361668333E+02  0.50029381422E+02  0.61902383059E+02  0.00000000000E+00 0.  1.
         11    1    1    2    0    0 -0.36982228400E+02  0.74326277796E+02  0.11626130044E+03  0.14285926910E+03  0.00000000000E+00 0. -1.
<mgrwt>
<rscale>  0 0.25529360E+03</rscale>
<asrwt>0</asrwt>
<pdfrwt beam="2">  1        4 0.47864490E-02 0.25529360E+03</pdfrwt>
<pdfrwt beam="1">  1       -4 0.80571176E-01 0.25529360E+03</pdfrwt>
<totfact> 0.66463753E+02</totfact>
</mgrwt>
</event>
<event>
 6    1  0.5818426E-006  0.4255376E+03  0.7546771E-02  0.1072857E+00
          1   -1    0    0  501    0  0.00000000000E+00  0.00000000000E+00  0.23953287004E+03  0.23953287004E+03  0.00000000000E+00 0. -1.
         -1   -1    0    0    0  501 -0.00000000000E+00 -0.00000000000E+00 -0.35032097128E+03  0.35032097128E+03  0.00000000000E+00 0.  1.
          5    1    1    2  502    0  0.16602381224E+03  0.50703743858E+02  0.18027536073E+02  0.17459054364E+03  0.47000000000E+01 0. -1.
         -5    1    1    2    0  502 -0.17003098559E+03 -0.15284848865E+03 -0.13979574177E+03  0.26802637176E+03  0.47000000000E+01 0.  1.
        -11    1    1    2    0    0 -0.49980743012E+02  0.60215362125E+02  0.98194432306E+01  0.78869423563E+02  0.00000000000E+00 0.  1.
         11    1    1    2    0    0  0.53987916362E+02  0.41929382670E+02  0.11606612267E+01  0.68367502358E+02  0.00000000000E+00 0. -1.
<mgrwt>
<rscale>  0 0.32614061E+03</rscale>
<asrwt>0</asrwt>
<pdfrwt beam="1">  1        1 0.36851211E-01 0.42553759E+03</pdfrwt>
<pdfrwt beam="2">  1       -1 0.53895534E-01 0.42553759E+03</pdfrwt>
<totfact> 0.41582069E+02</totfact>
</mgrwt>
</event>
<event>
 6    1  0.5818426E-006  0.1707037E+03  0.7546771E-02  0.1183861E+00
         -2   -1    0    0    0  501 -0.00000000000E+00  0.00000000000E+00  0.61517468820E+02  0.61517468820E+02  0.00000000000E+00 0. -1.
          2   -1    0    0  501    0  0.00000000000E+00 -0.00000000000E+00 -0.50017486562E+03  0.50017486562E+03  0.00000000000E+00 0.  1.
          5    1    1    2  502    0  0.66512849127E+02  0.70125239410E+01 -0.13157628265E+03  0.14767377135E+03  0.47000000000E+01 0.  1.
         -5    1    1    2    0  502  0.42373113921E+02  0.33868290750E+02  0.18016814453E+02  0.57351874466E+02  0.47000000000E+01 0.  1.
        -11    1    1    2    0    0 -0.45856824989E+02  0.19413292310E+02 -0.18542815564E+03  0.19199824276E+03  0.00000000000E+00 0.  1.
         11    1    1    2    0    0 -0.63029138059E+02 -0.60294107001E+02 -0.13966977297E+03  0.16466844587E+03  0.00000000000E+00 0. -1.
<mgrwt>
<rscale>  0 0.16435910E+03</rscale>
<asrwt>0</asrwt>
<pdfrwt beam="2">  1        2 0.76949977E-01 0.17070373E+03</pdfrwt>
<pdfrwt beam="1">  1       -2 0.94642262E-02 0.17070373E+03</pdfrwt>
<totfact> 0.44052810E+03</totfact>
</mgrwt>
</event>
<event>
 6    1  0.5818426E-006  0.1292854E+03  0.7546771E-02  0.1241602E+00
         -2   -1    0    0    0  501 -0.00000000000E+00  0.00000000000E+00  0.38385803960E+02  0.38385803960E+02  0.00000000000E+00 0.  1.
          2   -1    0    0  501    0  0.00000000000E+00 -0.00000000000E+00 -0.36897840426E+03  0.36897840426E+03  0.00000000000E+00 0. -1.
          5    1    1    2  502    0  0.54214894954E+02 -0.20753296065E+02 -0.59970899780E+02  0.83597565472E+02  0.47000000000E+01 0. -1.
         -5    1    1    2    0  502 -0.47042168216E+02  0.52976333603E+02 -0.68088620947E+02  0.98374833240E+02  0.47000000000E+01 0. -1.
        -11    1    1    2    0    0 -0.27752521023E+02 -0.57940163207E+02 -0.11290417767E+03  0.12990234129E+03  0.00000000000E+00 0.  1.
         11    1    1    2    0    0  0.20579794286E+02  0.25717125669E+02 -0.89628901899E+02  0.95489468221E+02  0.00000000000E+00 0. -1.
<mgrwt>
<rscale>  0 0.12091065E+03</rscale>
<asrwt>0</asrwt>
<pdfrwt beam="2">  1        2 0.56765906E-01 0.12928539E+03</pdfrwt>
<pdfrwt beam="1">  1       -2 0.59055085E-02 0.12928539E+03</pdfrwt>
<totfact> 0.12448905E+04</totfact>
</mgrwt>
</event>
<event>
 6    1  0.5818426E-006  0.1317599E+03  0.7546771E-02  0.1238378E+00
         -1   -1    0    0    0  501 -0.00000000000E+00  0.00000000000E+00  0.23587773967E+02  0.23587773967E+02  0.00000000000E+00 0.  1.
          1   -1    0    0  501    0  0.00000000000E+00 -0.00000000000E+00 -0.56815386246E+03  0.56815386246E+03  0.00000000000E+00 0. -1.
          5    1    1    2  502    0  0.39333665323E+01  0.40947251748E+02 -0.55156318949E+02  0.68967081409E+02  0.47000000000E+01 0. -1.
         -5    1    1    2    0  502 -0.55466420887E+01 -0.82506522544E+02 -0.25181980641E+03  0.26509129823E+03  0.47000000000E+01 0. -1.
        -11    1    1    2    0    0 -0.43958441091E+02  0.17431380961E+02 -0.96451667036E+02  0.10742030376E+03  0.00000000000E+00 0. -1.
         11    1    1    2    0    0  0.45571716647E+02  0.24127889834E+02 -0.14113829610E+03  0.15026295303E+03  0.00000000000E+00 0.  1.
<mgrwt>
<rscale>  0 0.12290635E+03</rscale>
<asrwt>0</asrwt>
<pdfrwt beam="2">  1        1 0.87408278E-01 0.13175986E+03</pdfrwt>
<pdfrwt beam="1">  1       -1 0.36288887E-02 0.13175986E+03</pdfrwt>
<totfact> 0.10271551E+04</totfact>
</mgrwt>
</event>
<event>
 6    1  0.5818426E-006  0.2106221E+03  0.7546771E-02  0.1162894E+00
          1   -1    0    0  501    0  0.00000000000E+00  0.00000000000E+00  0.27991803439E+03  0.27991803439E+03  0.00000000000E+00 0. -1.
         -1   -1    0    0    0  501 -0.00000000000E+00 -0.00000000000E+00 -0.10155555332E+03  0.10155555332E+03  0.00000000000E+00 0.  1.
          5    1    1    2  502    0 -0.10170394988E+02 -0.12032496586E+03  0.61058654529E+02  0.13539491732E+03  0.47000000000E+01 0. -1.
         -5    1    1    2    0  502 -0.58797980645E+02  0.67496744382E+02  0.38053802834E+02  0.97381697153E+02  0.47000000000E+01 0.  1.
        -11    1    1    2    0    0  0.85145978997E+02  0.46284325760E+02  0.38341258754E+02  0.10422153651E+03  0.00000000000E+00 0.  1.
         11    1    1    2    0    0 -0.16177603363E+02  0.65438957176E+01  0.40908764948E+02  0.44475436719E+02  0.00000000000E+00 0. -1.
<mgrwt>
<rscale>  0 0.18516711E+03</rscale>
<asrwt>0</asrwt>
<pdfrwt beam="1">  1        1 0.43064313E-01 0.21062211E+03</pdfrwt>
<pdfrwt beam="2">  1       -1 0.15623931E-01 0.21062211E+03</pdfrwt>
<totfact> 0.28438730E+03</totfact>
</mgrwt>
</event>
<event>
 6    1  0.5818426E-006  0.2694226E+03  0.7546771E-02  0.1101611E+00
         -2   -1    0    0    0  501 -0.00000000000E+00  0.00000000000E+00  0.48734598326E+02  0.48734598326E+02  0.00000000000E+00 0.  1.
          2   -1    0    0  501    0  0.00000000000E+00 -0.00000000000E+00 -0.37236646977E+03  0.37236646977E+03  0.00000000000E+00 0. -1.
          5    1    1    2  502    0 -0.97906494869E+01  0.16982197238E+02 -0.13007735991E+03  0.13163001709E+03  0.47000000000E+01 0. -1.
         -5    1    1    2    0  502  0.76706359401E+02  0.23533069291E+02 -0.29448729557E+02  0.85597830553E+02  0.47000000000E+01 0. -1.
        -11    1    1    2    0    0  0.77834601996E+01 -0.41590758148E+02 -0.85689163766E+02  0.95566763066E+02  0.00000000000E+00 0.  1.
         11    1    1    2    0    0 -0.74699170114E+02  0.10754916197E+01 -0.78416618213E+02  0.10830645738E+03  0.00000000000E+00 0. -1.
<mgrwt>
<rscale>  0 0.26942257E+03</rscale>
<asrwt>0</asrwt>
<pdfrwt beam="2">  1        2 0.57287152E-01 0.26942257E+03</pdfrwt>
<pdfrwt beam="1">  1       -2 0.74976302E-02 0.26942257E+03</pdfrwt>
<totfact> 0.89662754E+03</totfact>
</mgrwt>
</event>
<event>
 6    1  0.5818426E-006  0.1592756E+03  0.7546771E-02  0.1196882E+00
          3   -1    0    0  501    0  0.00000000000E+00  0.00000000000E+00  0.56918988635E+03  0.56918988635E+03  0.00000000000E+00 0. -1.
         -3   -1    0    0    0  501 -0.00000000000E+00 -0.00000000000E+00 -0.39919367208E+02  0.39919367208E+02  0.00000000000E+00 0.  1.
          5    1    1    2  502    0 -0.11851618213E+02  0.48855495860E+02  0.19934555535E+03  0.20564061070E+03  0.47000000000E+01 0. -1.
         -5    1    1    2    0  502 -0.60417108862E+02  0.18375977054E+02  0.21964579818E+02  0.67025639442E+02  0.47000000000E+01 0. -1.
        -11    1    1    2    0    0  0.31534191774E+02 -0.43179449764E+02  0.27150650236E+03  0.27672125136E+03  0.00000000000E+00 0. -1.
         11    1    1    2    0    0  0.40734535301E+02 -0.24052023150E+02  0.36453881613E+02  0.59721752055E+02  0.00000000000E+00 0.  1.
<mgrwt>
<rscale>  0 0.15296043E+03</rscale>
<asrwt>0</asrwt>
<pdfrwt beam="1">  1        3 0.87567669E-01 0.15927557E+03</pdfrwt>
<pdfrwt beam="2">  1       -3 0.61414415E-02 0.15927557E+03</pdfrwt>
<totfact> 0.47594312E+02</totfact>
</mgrwt>
</event>
<event>
 6    1  0.5818426E-006  0.1654580E+03  0.7546771E-02  0.1189496E+00
          1   -1    0    0  501    0  0.00000000000E+00  0.00000000000E+00  0.16453340299E+03  0.16453340299E+03  0.00000000000E+00 0. -1.
         -1   -1    0    0    0  501 -0.00000000000E+00 -0.00000000000E+00 -0.15226104086E+03  0.15226104086E+03  0.00000000000E+00 0.  1.
          5    1    1    2  502    0 -0.23550390988E+02 -0.51568386974E+02  0.33583963796E+02  0.66059761390E+02  0.47000000000E+01 0. -1.
         -5    1    1    2    0  502  0.10184933803E+03 -0.23414107972E+02  0.10290736421E+02  0.10511658939E+03  0.47000000000E+01 0. -1.
        -11    1    1    2    0    0 -0.23529698841E+01  0.33742762854E+02 -0.46929573099E+02  0.57848900971E+02  0.00000000000E+00 0.  1.
         11    1    1    2    0    0 -0.75945977155E+02  0.41239732091E+02  0.15327235012E+02  0.87769192101E+02  0.00000000000E+00 0. -1.
<mgrwt>
<rscale>  0 0.15929446E+03</rscale>
<asrwt>0</asrwt>
<pdfrwt beam="1">  1        1 0.25312831E-01 0.16545801E+03</pdfrwt>
<pdfrwt beam="2">  1       -1 0.23424775E-01 0.16545801E+03</pdfrwt>
<totfact> 0.28542391E+03</totfact>
</mgrwt>
</event>
<event>
 6    1  0.5818426E-006  0.1315903E+03  0.7546771E-02  0.1238850E+00
          1   -1    0    0  501    0  0.00000000000E+00  0.00000000000E+00  0.10506748753E+03  0.10506748753E+03  0.00000000000E+00 0. -1.
         -1   -1    0    0    0  501 -0.00000000000E+00 -0.00000000000E+00 -0.12675259750E+03  0.12675259750E+03  0.00000000000E+00 0.  1.
          5    1    1    2  502    0 -0.53820816938E+02 -0.26556830981E+02  0.10185050937E+02  0.61055473712E+02  0.47000000000E+01 0. -1.
         -5    1    1    2    0  502  0.66514026838E+02 -0.12548582990E+02 -0.20777753241E+02  0.70960465972E+02  0.47000000000E+01 0. -1.
        -11    1    1    2    0    0 -0.22808275491E+02 -0.25256466449E+02 -0.41733839221E+01  0.34285910542E+02  0.00000000000E+00 0. -1.
         11    1    1    2    0    0  0.10115065591E+02  0.64361880419E+02 -0.69190237415E+01  0.65518234809E+02  0.00000000000E+00 0.  1.
<mgrwt>
<rscale>  0 0.12261123E+03</rscale>
<asrwt>0</asrwt>
<pdfrwt beam="1">  1        1 0.16164229E-01 0.13159028E+03</pdfrwt>
<pdfrwt beam="2">  1       -1 0.19500400E-01 0.13159028E+03</pdfrwt>
<totfact> 0.67124906E+03</totfact>
</mgrwt>
</event>
<event>
 6    1  0.5818426E-006  0.3107119E+03  0.7546771E-02  0.1081400E+00
          2   -1    0    0  501    0  0.00000000000E+00  0.00000000000E+00  0.23227980181E+04  0.23227980181E+04  0.00000000000E+00 0. -1.
         -2   -1    0    0    0  501 -0.00000000000E+00 -0.00000000000E+00 -0.59127729631E+02  0.59127729631E+02  0.00000000000E+00 0.  1.
          5    1    1    2  502    0  0.20933345723E+03  0.14674794137E+03  0.31547199858E+03  0.40607896584E+03  0.47000000000E+01 0.  1.
         -5    1    1    2    0  502  0.19815193894E+02  0.21797088046E+02  0.15425700001E+03  0.15711482110E+03  0.47000000000E+01 0.  1.
        -11    1    1    2    0    0 -0.16530004718E+03 -0.65033913674E+02  0.10736758471E+04  0.10882708028E+04  0.00000000000E+00 0.  1.
         11    1    1    2    0    0 -0.63848603942E+02 -0.10351111575E+03  0.72026544281E+03  0.73046115804E+03  0.00000000000E+00 0. -1.
<mgrwt>
<rscale>  0 0.30781025E+03</rscale>
<asrwt>0</asrwt>
<pdfrwt beam="1">  1        2 0.35735347E+00 0.31071194E+03</pdfrwt>
<pdfrwt beam="2">  1       -2 0.90965756E-02 0.31071194E+03</pdfrwt>
<totfact> 0.38376999E+02</totfact>
</mgrwt>
</event>
<event>
 6    1  0.5818426E-006  0.1253598E+03  0.7546771E-02  0.1249834E+00
         -1   -1    0    0    0  501 -0.00000000000E+00  0.00000000000E+00  0.58410327395E+02  0.58410327395E+02  0.00000000000E+00 0.  1.
          1   -1    0    0  501    0  0.00000000000E+00 -0.00000000000E+00 -0.20281749578E+03  0.20281749578E+03  0.00000000000E+00 0. -1.
          5    1    1    2  502    0  0.52634668762E+01 -0.36716662534E+02  0.17560276388E+02  0.41307029644E+02  0.47000000000E+01 0. -1.
         -5    1    1    2    0  502 -0.12533027674E+02  0.30610314027E+02 -0.10860073337E+03  0.11362340163E+03  0.47000000000E+01 0. -1.
        -11    1    1    2    0    0  0.45286027397E+02 -0.26390396450E+01 -0.49429232119E+02  0.67089774151E+02  0.00000000000E+00 0.  1.
         11    1    1    2    0    0 -0.38016466599E+02  0.87453881521E+01 -0.39374792756E+01  0.39207617750E+02  0.00000000000E+00 0. -1.
<mgrwt>
<rscale>  0 0.11600668E+03</rscale>
<asrwt>0</asrwt>
<pdfrwt beam="2">  1        1 0.31202691E-01 0.12535978E+03</pdfrwt>
<pdfrwt beam="1">  1       -1 0.89862044E-02 0.12535978E+03</pdfrwt>
<totfact> 0.97165571E+03</totfact>
</mgrwt>
</event>
<event>
 6    1  0.5818426E-006  0.2006513E+03  0.7546771E-02  0.1151638E+00
         -1   -1    0    0    0  501 -0.00000000000E+00  0.00000000000E+00  0.10234501511E+03  0.10234501511E+03  0.00000000000E+00 0.  1.
          1   -1    0    0  501    0  0.00000000000E+00 -0.00000000000E+00 -0.44491047294E+03  0.44491047294E+03  0.00000000000E+00 0. -1.
          5    1    1    2  502    0  0.74480587315E+01  0.56761794227E+02 -0.64076219116E+02  0.86053626995E+02  0.47000000000E+01 0. -1.
         -5    1    1    2    0  502 -0.83367187116E+02  0.92568891817E+02 -0.27617921666E+00  0.12466456551E+03  0.47000000000E+01 0.  1.
        -11    1    1    2    0    0  0.61898726573E+02 -0.14581704208E+03 -0.28026776386E+03  0.32193800889E+03  0.00000000000E+00 0. -1.
         11    1    1    2    0    0  0.14020401812E+02 -0.35136439607E+01  0.20547043555E+01  0.14599286655E+02  0.00000000000E+00 0.  1.
<mgrwt>
<rscale>  0 0.19776521E+03</rscale>
<asrwt>0</asrwt>
<pdfrwt beam="2">  1        1 0.68447766E-01 0.20065125E+03</pdfrwt>
<pdfrwt beam="1">  1       -1 0.15745387E-01 0.20065125E+03</pdfrwt>
<totfact> 0.15593678E+03</totfact>
</mgrwt>
</event>
<event>
 6    1  0.5818426E-006  0.2075457E+03  0.7546771E-02  0.1160670E+00
          2   -1    0    0  501    0  0.00000000000E+00  0.00000000000E+00  0.23636248065E+03  0.23636248065E+03  0.00000000000E+00 0. -1.
         -2   -1    0    0    0  501 -0.00000000000E+00 -0.00000000000E+00 -0.12694393410E+03  0.12694393410E+03  0.00000000000E+00 0.  1.
          5    1    1    2  502    0  0.41116798225E+02  0.54941794342E+02  0.11250675523E+03  0.13186755414E+03  0.47000000000E+01 0. -1.
         -5    1    1    2    0  502 -0.36302536301E+02  0.49835875531E+02 -0.55795289310E+02  0.83286811327E+02  0.47000000000E+01 0.  1.
        -11    1    1    2    0    0 -0.45251172013E+02 -0.56140026722E+02  0.43559215583E+02  0.84242367198E+02  0.00000000000E+00 0.  1.
         11    1    1    2    0    0  0.40436910089E+02 -0.48637643150E+02  0.91478650477E+01  0.63909682081E+02  0.00000000000E+00 0. -1.
<mgrwt>
<rscale>  0 0.18757107E+03</rscale>
<asrwt>0</asrwt>
<pdfrwt beam="1">  1        2 0.36363458E-01 0.20754568E+03</pdfrwt>
<pdfrwt beam="2">  1       -2 0.19529836E-01 0.20754568E+03</pdfrwt>
<totfact> 0.30599554E+03</totfact>
</mgrwt>
</event>
<event>
 6    1  0.5818426E-006  0.1427130E+03  0.7546771E-02  0.1219674E+00
         -2   -1    0    0    0  501 -0.00000000000E+00  0.00000000000E+00  0.22325243852E+02  0.22325243852E+02  0.00000000000E+00 0.  1.
          2   -1    0    0  501    0  0.00000000000E+00 -0.00000000000E+00 -0.75626308622E+03  0.75626308622E+03  0.00000000000E+00 0. -1.
          5    1    1    2  502    0 -0.29444346594E+01 -0.94134262499E+02 -0.21441968368E+03  0.23423880938E+03  0.47000000000E+01 0.  1.
         -5    1    1    2    0  502  0.33576055922E+02  0.32461096747E+02 -0.14811026547E+03  0.15536992975E+03  0.47000000000E+01 0.  1.
        -11    1    1    2    0    0 -0.32722974373E+01  0.61821764708E+02 -0.34647782841E+03  0.35196523139E+03  0.00000000000E+00 0. -1.
         11    1    1    2    0    0 -0.27359323826E+02 -0.14859895533E+00 -0.24930064801E+02  0.37014359549E+02  0.00000000000E+00 0.  1.
<mgrwt>
<rscale>  0 0.13538757E+03</rscale>
<asrwt>0</asrwt>
<pdfrwt beam="2">  1        2 0.11634815E+00 0.14271302E+03</pdfrwt>
<pdfrwt beam="1">  1       -2 0.34346533E-02 0.14271302E+03</pdfrwt>
<totfact> 0.12627302E+04</totfact>
</mgrwt>
</event>
<event>
 6    1  0.5818426E-006  0.1112240E+03  0.7546771E-02  0.1266618E+00
         -1   -1    0    0    0  501 -0.00000000000E+00  0.00000000000E+00  0.14199785363E+03  0.14199785363E+03  0.00000000000E+00 0.  1.
          1   -1    0    0  501    0  0.00000000000E+00 -0.00000000000E+00 -0.77137876048E+02  0.77137876048E+02  0.00000000000E+00 0. -1.
          5    1    1    2  502    0 -0.56389531898E+02  0.18976053861E+02  0.45746569915E+02  0.75197796422E+02  0.47000000000E+01 0. -1.
         -5    1    1    2    0  502  0.46959964250E+02 -0.87311650207E+01  0.92432295624E+01  0.48877385136E+02  0.47000000000E+01 0.  1.
        -11    1    1    2    0    0  0.22341665054E+02  0.66392309795E+01  0.46895336471E+02  0.52367947908E+02  0.00000000000E+00 0.  1.
         11    1    1    2    0    0 -0.12912097406E+02 -0.16884119819E+02 -0.37025158362E+02  0.42692600216E+02  0.00000000000E+00 0. -1.
<mgrwt>
<rscale>  0 0.10679735E+03</rscale>
<asrwt>0</asrwt>
<pdfrwt beam="2">  1        1 0.11867366E-01 0.11122398E+03</pdfrwt>
<pdfrwt beam="1">  1       -1 0.21845824E-01 0.11122398E+03</pdfrwt>
<totfact> 0.82409527E+03</totfact>
</mgrwt>
</event>
<event>
 6    1  0.5818426E-006  0.1360288E+03  0.7546771E-02  0.1229335E+00
          2   -1    0    0  501    0  0.00000000000E+00  0.00000000000E+00  0.12115458471E+03  0.12115458471E+03  0.00000000000E+00 0. -1.
         -2   -1    0    0    0  501 -0.00000000000E+00 -0.00000000000E+00 -0.13248637803E+03  0.13248637803E+03  0.00000000000E+00 0.  1.
          5    1    1    2  502    0  0.55236479218E+02  0.86327763089E+01 -0.49030388436E+02  0.74509478950E+02  0.47000000000E+01 0.  1.
         -5    1    1    2    0  502 -0.32346745177E+02 -0.57170938579E+02  0.10925914954E+02  0.66755477371E+02  0.47000000000E+01 0.  1.
        -11    1    1    2    0    0  0.15396640046E+02  0.65170192122E+02  0.21332689007E+02  0.70280111598E+02  0.00000000000E+00 0.  1.
         11    1    1    2    0    0 -0.38286374087E+02 -0.16632029852E+02  0.54399911554E+01  0.42095894829E+02  0.00000000000E+00 0. -1.
<mgrwt>
<rscale>  0 0.12874175E+03</rscale>
<asrwt>0</asrwt>
<pdfrwt beam="1">  1        2 0.18639167E-01 0.13602881E+03</pdfrwt>
<pdfrwt beam="2">  1       -2 0.20382520E-01 0.13602881E+03</pdfrwt>
<totfact> 0.58294239E+03</totfact>
</mgrwt>
</event>
<event>
 6    1  0.5818426E-006  0.1762056E+03  0.7546771E-02  0.1175233E+00
          1   -1    0    0  501    0  0.00000000000E+00  0.00000000000E+00  0.52457330385E+03  0.52457330385E+03  0.00000000000E+00 0. -1.
         -1   -1    0    0    0  501 -0.00000000000E+00 -0.00000000000E+00 -0.54542408702E+02  0.54542408702E+02  0.00000000000E+00 0.  1.
          5    1    1    2  502    0  0.11450398366E+02  0.83730764173E+02  0.15274982092E+03  0.17463261518E+03  0.47000000000E+01 0. -1.
         -5    1    1    2    0  502  0.87979004388E+02  0.74535750726E+01  0.10011230053E+03  0.13356804899E+03  0.47000000000E+01 0.  1.
        -11    1    1    2    0    0  0.12989755118E+02 -0.32761907338E+02  0.49380815802E+02  0.60667464755E+02  0.00000000000E+00 0.  1.
         11    1    1    2    0    0 -0.11241915787E+03 -0.58422431908E+02  0.16778795790E+03  0.21024758363E+03  0.00000000000E+00 0. -1.
<mgrwt>
<rscale>  0 0.17253215E+03</rscale>
<asrwt>0</asrwt>
<pdfrwt beam="1">  1        1 0.80703582E-01 0.17620555E+03</pdfrwt>
<pdfrwt beam="2">  1       -1 0.83911402E-02 0.17620555E+03</pdfrwt>
<totfact> 0.33266653E+03</totfact>
</mgrwt>
</event>
<event>
 6    1  0.5818426E-006  0.4077760E+03  0.7546771E-02  0.1041120E+00
          2   -1    0    0  501    0  0.00000000000E+00  0.00000000000E+00  0.52278185060E+03  0.52278185060E+03  0.00000000000E+00 0.  1.
         -2   -1    0    0    0  501 -0.00000000000E+00 -0.00000000000E+00 -0.79517501167E+02  0.79517501167E+02  0.00000000000E+00 0. -1.
          5    1    1    2  502    0 -0.33113968547E+02 -0.26345308191E+02 -0.15671857595E+02  0.45368571689E+02  0.47000000000E+01 0. -1.
         -5    1    1    2    0  502  0.62312682615E+02  0.61683510909E+02  0.67621856506E+01  0.88065561303E+02  0.47000000000E+01 0. -1.
        -11    1    1    2    0    0  0.18085036851E+02 -0.59830551306E+02  0.15806631453E+03  0.16997565477E+03  0.00000000000E+00 0. -1.
         11    1    1    2    0    0 -0.47283750919E+02  0.24492348588E+02  0.29410770685E+03  0.29888956400E+03  0.00000000000E+00 0.  1.
<mgrwt>
<rscale>  0 0.40777595E+03</rscale>
<asrwt>0</asrwt>
<pdfrwt beam="1">  1        2 0.80427975E-01 0.40777595E+03</pdfrwt>
<pdfrwt beam="2">  1       -2 0.12233462E-01 0.40777595E+03</pdfrwt>
<totfact> 0.28521847E+03</totfact>
</mgrwt>
</event>
<event>
 6    1  0.5818426E-006  0.1336655E+03  0.7546771E-02  0.1235289E+00
         -1   -1    0    0    0  501 -0.00000000000E+00  0.00000000000E+00  0.45279343080E+02  0.45279343080E+02  0.00000000000E+00 0.  1.
          1   -1    0    0  501    0  0.00000000000E+00 -0.00000000000E+00 -0.32141611327E+03  0.32141611327E+03  0.00000000000E+00 0. -1.
          5    1    1    2  502    0 -0.38553503441E+02  0.12059580676E+02 -0.14357826104E+01  0.40693458754E+02  0.47000000000E+01 0.  1.
         -5    1    1    2    0  502  0.43825192014E+02 -0.59157244639E+02 -0.11470623870E+03  0.13638122395E+03  0.47000000000E+01 0.  1.
        -11    1    1    2    0    0 -0.20986986569E+02 -0.12084179585E+02 -0.10354028241E+03  0.10633471250E+03  0.00000000000E+00 0. -1.
         11    1    1    2    0    0  0.15715297996E+02  0.59181843548E+02 -0.56454466466E+02  0.83286061144E+02  0.00000000000E+00 0.  1.
<mgrwt>
<rscale>  0 0.12485978E+03</rscale>
<asrwt>0</asrwt>
<pdfrwt beam="2">  1        1 0.49448635E-01 0.13366553E+03</pdfrwt>
<pdfrwt beam="1">  1       -1 0.69660525E-02 0.13366553E+03</pdfrwt>
<totfact> 0.81098572E+03</totfact>
</mgrwt>
</event>
<event>
 6    1  0.5818426E-006  0.1273536E+03  0.7546771E-02  0.1243834E+00
         -3   -1    0    0    0  501 -0.00000000000E+00  0.00000000000E+00  0.67959450180E+02  0.67959450180E+02  0.00000000000E+00 0.  1.
          3   -1    0    0  501    0  0.00000000000E+00 -0.00000000000E+00 -0.20118583535E+03  0.20118583535E+03  0.00000000000E+00 0. -1.
          5    1    1    2  502    0  0.30997944992E+02  0.41400222788E+02 -0.55975849618E+02  0.76355987199E+02  0.47000000000E+01 0. -1.
         -5    1    1    2    0  502 -0.49062520233E+02 -0.24990830304E+02  0.15292871403E+02  0.57337896776E+02  0.47000000000E+01 0. -1.
        -11    1    1    2    0    0  0.10300772780E+02  0.14650415423E+02 -0.10080795766E+03  0.10238644890E+03  0.00000000000E+00 0. -1.
         11    1    1    2    0    0  0.77638024612E+01 -0.31059807907E+02  0.82645506985E+01  0.33064952656E+02  0.00000000000E+00 0.  1.
<mgrwt>
<rscale>  0 0.11955464E+03</rscale>
<asrwt>0</asrwt>
<pdfrwt beam="2">  1        3 0.30951667E-01 0.12735364E+03</pdfrwt>
<pdfrwt beam="1">  1       -3 0.10455300E-01 0.12735364E+03</pdfrwt>
<totfact> 0.15763162E+03</totfact>
</mgrwt>
</event>
<event>
 6    1  0.5818426E-006  0.2296991E+03  0.7546771E-02  0.1129804E+00
          3   -1    0    0  501    0  0.00000000000E+00  0.00000000000E+00  0.44403732546E+03  0.44403732546E+03  0.00000000000E+00 0.  1.
         -3   -1    0    0    0  501 -0.00000000000E+00 -0.00000000000E+00 -0.11850979637E+03  0.11850979637E+03  0.00000000000E+00 0. -1.
          5    1    1    2  502    0 -0.69960416766E+02 -0.15637421347E+03  0.12130234596E+03  0.20996119567E+03  0.47000000000E+01 0. -1.
         -5    1    1    2    0  502  0.10688444729E+02 -0.27003145774E+02 -0.25483785802E+02  0.38922051221E+02  0.47000000000E+01 0. -1.
        -11    1    1    2    0    0  0.57708329925E+02  0.40037257817E+02  0.75579016940E+02  0.10317665025E+03  0.00000000000E+00 0.  1.
         11    1    1    2    0    0  0.15636421120E+01  0.14334010142E+03  0.15412995199E+03  0.21048722468E+03  0.00000000000E+00 0. -1.
<mgrwt>
<rscale>  0 0.22556020E+03</rscale>
<asrwt>0</asrwt>
<pdfrwt beam="1">  1        3 0.68313434E-01 0.22969909E+03</pdfrwt>
<pdfrwt beam="2">  1       -3 0.18232277E-01 0.22969909E+03</pdfrwt>
<totfact> 0.13715632E+02</totfact>
</mgrwt>
</event>
<event>
 6    1  0.5818426E-006  0.1265221E+03  0.7546771E-02  0.1255861E+00
         -2   -1    0    0    0  501 -0.00000000000E+00  0.00000000000E+00  0.71987441573E+02  0.71987441573E+02  0.00000000000E+00 0. -1.
          2   -1    0    0  501    0  0.00000000000E+00 -0.00000000000E+00 -0.14753510107E+03  0.14753510107E+03  0.00000000000E+00 0.  1.
          5    1    1    2  502    0  0.52595929969E+02  0.25802868301E+01 -0.59485487177E+01  0.53202114256E+02  0.47000000000E+01 0. -1.
         -5    1    1    2    0  502 -0.70995220698E+02 -0.88354724158E+01 -0.34980823317E+02  0.79775528420E+02  0.47000000000E+01 0. -1.
        -11    1    1    2    0    0  0.42886491582E+02  0.55654699107E+01 -0.42675381265E+02  0.60757006029E+02  0.00000000000E+00 0.  1.
         11    1    1    2    0    0 -0.24487200852E+02  0.68971567502E+00  0.80570938015E+01  0.25787893939E+02  0.00000000000E+00 0. -1.
<mgrwt>
<rscale>  0 0.11258223E+03</rscale>
<asrwt>0</asrwt>
<pdfrwt beam="2">  1        2 0.22697708E-01 0.12652209E+03</pdfrwt>
<pdfrwt beam="1">  1       -2 0.11074991E-01 0.12652209E+03</pdfrwt>
<totfact> 0.12588228E+04</totfact>
</mgrwt>
</event>
<event>
 6    1  0.5818426E-006  0.1564976E+03  0.7546771E-02  0.1200858E+00
         -1   -1    0    0    0  501 -0.00000000000E+00  0.00000000000E+00  0.54452723473E+02  0.54452723473E+02  0.00000000000E+00 0.  1.
          1   -1    0    0  501    0  0.00000000000E+00 -0.00000000000E+00 -0.37995590824E+03  0.37995590824E+03  0.00000000000E+00 0. -1.
          5    1    1    2  502    0  0.20809673885E+02 -0.38301169056E+02  0.93418588187E+01  0.44826135284E+02  0.47000000000E+01 0. -1.
         -5    1    1    2    0  502  0.28466836217E+02 -0.41936919386E+02 -0.17852167693E+03  0.18563713288E+03  0.47000000000E+01 0. -1.
        -11    1    1    2    0    0 -0.15676186456E+02  0.48860355708E+02 -0.14875062241E+03  0.15735254955E+03  0.00000000000E+00 0. -1.
         11    1    1    2    0    0 -0.33600323645E+02  0.31377732734E+02 -0.75727442431E+01  0.46592813995E+02  0.00000000000E+00 0.  1.
<mgrwt>
<rscale>  0 0.14968735E+03</rscale>
<asrwt>0</asrwt>
<pdfrwt beam="2">  1        1 0.58454757E-01 0.15649763E+03</pdfrwt>
<pdfrwt beam="1">  1       -1 0.83773418E-02 0.15649763E+03</pdfrwt>
<totfact> 0.50296329E+03</totfact>
</mgrwt>
</event>
<event>
 6    1  0.5818426E-006  0.2619715E+03  0.7546771E-02  0.1108151E+00
          3   -1    0    0  501    0  0.00000000000E+00  0.00000000000E+00  0.88159894952E+03  0.88159894952E+03  0.00000000000E+00 0. -1.
         -3   -1    0    0    0  501 -0.00000000000E+00 -0.00000000000E+00 -0.75348157863E+02  0.75348157863E+02  0.00000000000E+00 0.  1.
          5    1    1    2  502    0  0.10421683273E+03 -0.10070864657E+03  0.28412778107E+03  0.31898913099E+03  0.47000000000E+01 0.  1.
         -5    1    1    2    0  502  0.18776713025E+02 -0.93918470803E+02  0.58549325366E+02  0.11235371650E+03  0.47000000000E+01 0.  1.
        -11    1    1    2    0    0 -0.21896011362E+02  0.66680727346E+02  0.23195753506E+03  0.24234284142E+03  0.00000000000E+00 0. -1.
         11    1    1    2    0    0 -0.10109753439E+03  0.12794639002E+03  0.23161615016E+03  0.28326141847E+03  0.00000000000E+00 0.  1.
<mgrwt>
<rscale>  0 0.25833041E+03</rscale>
<asrwt>0</asrwt>
<pdfrwt beam="1">  1        3 0.13563060E+00 0.26197147E+03</pdfrwt>
<pdfrwt beam="2">  1       -3 0.11592025E-01 0.26197147E+03</pdfrwt>
<totfact> 0.63316795E+01</totfact>
</mgrwt>
</event>
<event>
 6    1  0.5818426E-006  0.1393440E+03  0.7546771E-02  0.1225345E+00
          3   -1    0    0  501    0  0.00000000000E+00  0.00000000000E+00  0.58513830428E+02  0.58513830428E+02  0.00000000000E+00 0. -1.
         -3   -1    0    0    0  501 -0.00000000000E+00 -0.00000000000E+00 -0.30865800533E+03  0.30865800533E+03  0.00000000000E+00 0.  1.
          5    1    1    2  502    0 -0.29653825745E+00 -0.38596414270E+02 -0.87476136757E+02  0.95728447347E+02  0.47000000000E+01 0.  1.
         -5    1    1    2    0  502  0.33254834478E+02  0.90626183866E+02 -0.11779674779E+03  0.15237175922E+03  0.47000000000E+01 0.  1.
        -11    1    1    2    0    0 -0.30880549658E+02 -0.28842397218E+02 -0.71901198619E+02  0.83398288875E+02  0.00000000000E+00 0.  1.
         11    1    1    2    0    0 -0.20777465621E+01 -0.23187372378E+02  0.27029908263E+02  0.35673340316E+02  0.00000000000E+00 0. -1.
<mgrwt>
<rscale>  0 0.13143274E+03</rscale>
<asrwt>0</asrwt>
<pdfrwt beam="1">  1        3 0.90021278E-02 0.13934402E+03</pdfrwt>
<pdfrwt beam="2">  1       -3 0.47485847E-01 0.13934402E+03</pdfrwt>
<totfact> 0.90193890E+02</totfact>
</mgrwt>
</event>
<event>
 6    1  0.5818426E-006  0.2685236E+03  0.7546771E-02  0.1102128E+00
          1   -1    0    0  501    0  0.00000000000E+00  0.00000000000E+00  0.12182326277E+03  0.12182326277E+03  0.00000000000E+00 0. -1.
         -1   -1    0    0    0  501 -0.00000000000E+00 -0.00000000000E+00 -0.14797032703E+03  0.14797032703E+03  0.00000000000E+00 0.  1.
          5    1    1    2  502    0  0.39708282482E+02  0.12396767282E+02 -0.63959197302E+01  0.42348852711E+02  0.47000000000E+01 0. -1.
         -5    1    1    2    0  502 -0.68753803266E+02 -0.71590802308E+02 -0.23265858358E+02  0.10205742797E+03  0.47000000000E+01 0. -1.
        -11    1    1    2    0    0 -0.17892548152E+02  0.65698398610E+02  0.26063879473E+02  0.72909180989E+02  0.00000000000E+00 0. -1.
         11    1    1    2    0    0  0.46938068936E+02 -0.65043635845E+01 -0.22549165648E+02  0.52478128134E+02  0.00000000000E+00 0.  1.
<mgrwt>
<rscale>  0 0.26852358E+03</rscale>
<asrwt>0</asrwt>
<pdfrwt beam="1">  1        1 0.18742041E-01 0.26852358E+03</pdfrwt>
<pdfrwt beam="2">  1       -1 0.22764666E-01 0.26852358E+03</pdfrwt>
<totfact> 0.44915687E+03</totfact>
</mgrwt>
</event>
<event>
 6    1  0.5818426E-006  0.5940041E+03  0.7546771E-02  0.1026520E+00
          2   -1    0    0  501    0  0.00000000000E+00  0.00000000000E+00  0.96504868995E+02  0.96504868995E+02  0.00000000000E+00 0. -1.
         -2   -1    0    0    0  501 -0.00000000000E+00 -0.00000000000E+00 -0.16538577181E+04  0.16538577181E+04  0.00000000000E+00 0.  1.
          5    1    1    2  502    0  0.32001440705E+01  0.36571676977E+03 -0.62046982260E+03  0.72025265524E+03  0.47000000000E+01 0. -1.
         -5    1    1    2    0  502 -0.77102738458E+02 -0.20045171227E+03 -0.59516448828E+03  0.63274685250E+03  0.47000000000E+01 0.  1.
        -11    1    1    2    0    0  0.92938530208E+02 -0.11636165269E+03 -0.27202743687E+03  0.31012341257E+03  0.00000000000E+00 0.  1.
         11    1    1    2    0    0 -0.19035935820E+02 -0.48903404805E+02 -0.69691101350E+02  0.87239666789E+02  0.00000000000E+00 0. -1.
<mgrwt>
<rscale>  0 0.45405291E+03</rscale>
<asrwt>0</asrwt>
<pdfrwt beam="1">  1        2 0.14846904E-01 0.59400412E+03</pdfrwt>
<pdfrwt beam="2">  1       -2 0.25443963E+00 0.59400412E+03</pdfrwt>
<totfact> 0.25539897E+01</totfact>
</mgrwt>
</event>
<event>
 6    1  0.5818426E-006  0.1343998E+03  0.7546771E-02  0.1234938E+00
          4   -1    0    0  501    0  0.00000000000E+00  0.00000000000E+00  0.18543168673E+03  0.18543168673E+03  0.00000000000E+00 0. -1.
         -4   -1    0    0    0  501 -0.00000000000E+00 -0.00000000000E+00 -0.85437236667E+02  0.85437236667E+02  0.00000000000E+00 0.  1.
          5    1    1    2  502    0 -0.27413009676E+02 -0.13641911608E+02 -0.32923469413E+02  0.45206412045E+02  0.47000000000E+01 0.  1.
         -5    1    1    2    0  502  0.75996956580E+02  0.22246059771E+02  0.41353776662E+02  0.89457528632E+02  0.47000000000E+01 0.  1.
        -11    1    1    2    0    0  0.21211032027E+02 -0.48568312453E+01  0.50863986454E+02  0.55323067588E+02  0.00000000000E+00 0. -1.
         11    1    1    2    0    0 -0.69794978930E+02 -0.37473169171E+01  0.40700156363E+02  0.80881915135E+02  0.00000000000E+00 0.  1.
<mgrwt>
<rscale>  0 0.12508418E+03</rscale>
<asrwt>0</asrwt>
<pdfrwt beam="1">  1        4 0.28527952E-01 0.13439980E+03</pdfrwt>
<pdfrwt beam="2">  1       -4 0.13144190E-01 0.13439980E+03</pdfrwt>
<totfact> 0.91551392E+02</totfact>
</mgrwt>
</event>
<event>
 6    1  0.5818426E-006  0.1361096E+03  0.7546771E-02  0.1229803E+00
         -1   -1    0    0    0  501 -0.00000000000E+00  0.00000000000E+00  0.31682631224E+03  0.31682631224E+03  0.00000000000E+00 0.  1.
          1   -1    0    0  501    0  0.00000000000E+00 -0.00000000000E+00 -0.49104590192E+02  0.49104590192E+02  0.00000000000E+00 0. -1.
          5    1    1    2  502    0  0.57596482490E+02  0.25002821716E+02  0.19884715718E+03  0.20857798975E+03  0.47000000000E+01 0.  1.
         -5    1    1    2    0  502  0.26292694094E+01 -0.17731444563E+02 -0.12376142526E+02  0.22283987249E+02  0.47000000000E+01 0. -1.
        -11    1    1    2    0    0  0.19646613021E+02  0.86115418880E+01  0.35996608092E+02  0.41903506429E+02  0.00000000000E+00 0.  1.
         11    1    1    2    0    0 -0.79872364920E+02 -0.15882919041E+02  0.45254099306E+02  0.93165419010E+02  0.00000000000E+00 0. -1.
<mgrwt>
<rscale>  0 0.12843093E+03</rscale>
<asrwt>0</asrwt>
<pdfrwt beam="2">  1        1 0.75545525E-02 0.13610956E+03</pdfrwt>
<pdfrwt beam="1">  1       -1 0.48742508E-01 0.13610956E+03</pdfrwt>
<totfact> 0.38855383E+03</totfact>
</mgrwt>
</event>
<event>
 6    1  0.5818426E-006  0.1425530E+03  0.7546771E-02  0.1220120E+00
          2   -1    0    0  501    0  0.00000000000E+00  0.00000000000E+00  0.19121729942E+03  0.19121729942E+03  0.00000000000E+00 0. -1.
         -2   -1    0    0    0  501 -0.00000000000E+00 -0.00000000000E+00 -0.90244776756E+02  0.90244776756E+02  0.00000000000E+00 0.  1.
          5    1    1    2  502    0  0.51934726397E+02 -0.25105874109E+02  0.64974376287E+02  0.87013104155E+02  0.47000000000E+01 0. -1.
         -5    1    1    2    0  502 -0.24060931047E+02 -0.37499892785E+02 -0.37184620362E+02  0.58223331691E+02  0.47000000000E+01 0. -1.
        -11    1    1    2    0    0 -0.58917883604E+02  0.44755837799E+02  0.67137065459E+02  0.99908896420E+02  0.00000000000E+00 0. -1.
         11    1    1    2    0    0  0.31044088254E+02  0.17849929096E+02  0.60457012794E+01  0.36316743910E+02  0.00000000000E+00 0.  1.
<mgrwt>
<rscale>  0 0.13507065E+03</rscale>
<asrwt>0</asrwt>
<pdfrwt beam="1">  1        2 0.29418046E-01 0.14255298E+03</pdfrwt>
<pdfrwt beam="2">  1       -2 0.13883812E-01 0.14255298E+03</pdfrwt>
<totfact> 0.66518153E+03</totfact>
</mgrwt>
</event>
<event>
 6    1  0.5818426E-006  0.1693710E+03  0.7546771E-02  0.1185068E+00
          2   -1    0    0  501    0  0.00000000000E+00  0.00000000000E+00  0.23717944038E+03  0.23717944038E+03  0.00000000000E+00 0.  1.
         -2   -1    0    0    0  501 -0.00000000000E+00 -0.00000000000E+00 -0.11591726847E+03  0.11591726847E+03  0.00000000000E+00 0. -1.
          5    1    1    2  502    0 -0.98057587270E+02 -0.87903283126E+01 -0.30707856127E+02  0.10323576280E+03  0.47000000000E+01 0.  1.
         -5    1    1    2    0  502  0.12112575958E+01 -0.51882308894E+02  0.41255824718E+02  0.66463329696E+02  0.47000000000E+01 0.  1.
        -11    1    1    2    0    0  0.61047639245E+02  0.51683885558E+02  0.12102981018E+03  0.14507326851E+03  0.00000000000E+00 0.  1.
         11    1    1    2    0    0  0.35798690429E+02  0.89887516490E+01 -0.10315606870E+02  0.38324347845E+02  0.00000000000E+00 0. -1.
<mgrwt>
<rscale>  0 0.16325733E+03</rscale>
<asrwt>0</asrwt>
<pdfrwt beam="1">  1        2 0.36489145E-01 0.16937096E+03</pdfrwt>
<pdfrwt beam="2">  1       -2 0.17833426E-01 0.16937096E+03</pdfrwt>
<totfact> 0.35230740E+03</totfact>
</mgrwt>
</event>
<event>
 6    1  0.5818426E-006  0.4346395E+03  0.7546771E-02  0.1032404E+00
          1   -1    0    0  501    0  0.00000000000E+00  0.00000000000E+00  0.37709798448E+03  0.37709798448E+03  0.00000000000E+00 0. -1.
         -1   -1    0    0    0  501 -0.00000000000E+00 -0.00000000000E+00 -0.12524035152E+03  0.12524035152E+03  0.00000000000E+00 0.  1.
          5    1    1    2  502    0  0.19216578254E+02 -0.67945189719E+02 -0.21689082181E+02  0.74015754888E+02  0.47000000000E+01 0. -1.
         -5    1    1    2    0  502  0.77170077707E+02 -0.51356243660E+02  0.10645981580E+03  0.14123904218E+03  0.47000000000E+01 0. -1.
        -11    1    1    2    0    0 -0.82088897880E+02  0.49040993904E+02 -0.98915232826E+01  0.96132452746E+02  0.00000000000E+00 0.  1.
         11    1    1    2    0    0 -0.14297758082E+02  0.70260439475E+02  0.17697842262E+03  0.19095108618E+03  0.00000000000E+00 0. -1.
<mgrwt>
<rscale>  0 0.43463955E+03</rscale>
<asrwt>0</asrwt>
<pdfrwt beam="1">  1        1 0.58015074E-01 0.43463955E+03</pdfrwt>
<pdfrwt beam="2">  1       -1 0.19267747E-01 0.43463955E+03</pdfrwt>
<totfact> 0.14078468E+03</totfact>
</mgrwt>
</event>
<event>
 6    1  0.5818426E-006  0.1795642E+03  0.7546771E-02  0.1173716E+00
          1   -1    0    0  501    0  0.00000000000E+00  0.00000000000E+00  0.19307656935E+03  0.19307656935E+03  0.00000000000E+00 0.  1.
         -1   -1    0    0    0  501 -0.00000000000E+00 -0.00000000000E+00 -0.59861868947E+03  0.59861868947E+03  0.00000000000E+00 0. -1.
          5    1    1    2  502    0 -0.41802808919E+02  0.14418127731E+03 -0.45208636436E+03  0.47638208027E+03  0.47000000000E+01 0.  1.
         -5    1    1    2    0  502 -0.11150359060E+02 -0.26646337460E+02 -0.97138972140E+02  0.10145160282E+03  0.47000000000E+01 0.  1.
        -11    1    1    2    0    0  0.63450602389E+02 -0.11302451585E+03  0.15197670367E+03  0.19974343189E+03  0.00000000000E+00 0. -1.
         11    1    1    2    0    0 -0.10497434410E+02 -0.45104240038E+01 -0.82934872881E+01  0.14118143833E+02  0.00000000000E+00 0.  1.
<mgrwt>
<rscale>  0 0.17402294E+03</rscale>
<asrwt>0</asrwt>
<pdfrwt beam="1">  1        1 0.29704088E-01 0.17956418E+03</pdfrwt>
<pdfrwt beam="2">  1       -1 0.92095182E-01 0.17956418E+03</pdfrwt>
<totfact> 0.18862095E+02</totfact>
</mgrwt>
</event>
<event>
 6    1  0.5818426E-006  0.2393870E+03  0.7546771E-02  0.1120202E+00
          1   -1    0    0  501    0  0.00000000000E+00  0.00000000000E+00  0.31832550653E+03  0.31832550653E+03  0.00000000000E+00 0. -1.
         -1   -1    0    0    0  501 -0.00000000000E+00 -0.00000000000E+00 -0.45005928166E+02  0.45005928166E+02  0.00000000000E+00 0.  1.
          5    1    1    2  502    0  0.62060548451E+01 -0.12481850196E+00  0.13675422874E+03  0.13697569046E+03  0.47000000000E+01 0.  1.
         -5    1    1    2    0  502  0.38720630931E+02 -0.26427674667E+02 -0.10418167013E+02  0.48252849159E+02  0.47000000000E+01 0.  1.
        -11    1    1    2    0    0  0.75788508565E+01  0.37327392369E+02  0.26989889399E+02  0.46682195012E+02  0.00000000000E+00 0.  1.
         11    1    1    2    0    0 -0.52505536633E+02 -0.10774899200E+02  0.11999362723E+03  0.13142070007E+03  0.00000000000E+00 0. -1.
<mgrwt>
<rscale>  0 0.23938701E+03</rscale>
<asrwt>0</asrwt>
<pdfrwt beam="1">  1        1 0.48973153E-01 0.23938701E+03</pdfrwt>
<pdfrwt beam="2">  1       -1 0.69239892E-02 0.23938701E+03</pdfrwt>
<totfact> 0.85957318E+03</totfact>
</mgrwt>
</event>
<event>
 6    1  0.5818426E-006  0.1150282E+03  0.7546771E-02  0.1261923E+00
         -3   -1    0    0    0  501 -0.00000000000E+00  0.00000000000E+00  0.64689589669E+03  0.64689589669E+03  0.00000000000E+00 0.  1.
          3   -1    0    0  501    0  0.00000000000E+00 -0.00000000000E+00 -0.22247289943E+03  0.22247289943E+03  0.00000000000E+00 0. -1.
          5    1    1    2  502    0  0.53136334600E+02  0.28993311929E+02  0.21476324271E+03  0.22318024691E+03  0.47000000000E+01 0. -1.
         -5    1    1    2    0  502 -0.36625048417E+02 -0.16866073875E+02  0.41684143738E+03  0.41881348180E+03  0.47000000000E+01 0.  1.
        -11    1    1    2    0    0  0.11418119032E+02  0.20703188676E+02 -0.10229026366E+02  0.25760986860E+02  0.00000000000E+00 0.  1.
         11    1    1    2    0    0 -0.27929405216E+02 -0.32830426730E+02 -0.19695265645E+03  0.20161408056E+03  0.00000000000E+00 0. -1.
<mgrwt>
<rscale>  0 0.10927229E+03</rscale>
<asrwt>0</asrwt>
<pdfrwt beam="2">  1        3 0.34226600E-01 0.11502815E+03</pdfrwt>
<pdfrwt beam="1">  1       -3 0.99522445E-01 0.11502815E+03</pdfrwt>
<totfact> 0.18065279E+01</totfact>
</mgrwt>
</event>
<event>
 6    1  0.5818426E-006  0.2493090E+03  0.7546771E-02  0.1123266E+00
         -2   -1    0    0    0  501 -0.00000000000E+00  0.00000000000E+00  0.14137948044E+03  0.14137948044E+03  0.00000000000E+00 0. -1.
          2   -1    0    0  501    0  0.00000000000E+00 -0.00000000000E+00 -0.37858502756E+03  0.37858502756E+03  0.00000000000E+00 0.  1.
          5    1    1    2  502    0  0.45363722686E+02  0.94051733060E+02  0.20028440528E+02  0.10642755403E+03  0.47000000000E+01 0.  1.
         -5    1    1    2    0  502  0.74276475362E+02 -0.12539161984E+01 -0.56081777437E+02  0.93197762089E+02  0.47000000000E+01 0.  1.
        -11    1    1    2    0    0 -0.10092655102E+03 -0.10921141261E+03 -0.23513705423E+03  0.27821347131E+03  0.00000000000E+00 0.  1.
         11    1    1    2    0    0 -0.18713647029E+02  0.16413595753E+02  0.33984844018E+02  0.42125720570E+02  0.00000000000E+00 0. -1.
<mgrwt>
<rscale>  0 0.23485896E+03</rscale>
<asrwt>0</asrwt>
<pdfrwt beam="2">  1        2 0.58243850E-01 0.24930902E+03</pdfrwt>
<pdfrwt beam="1">  1       -2 0.21750689E-01 0.24930902E+03</pdfrwt>
<totfact> 0.15373848E+03</totfact>
</mgrwt>
</event>
<event>
 6    1  0.5818426E-006  0.1312967E+03  0.7546771E-02  0.1240866E+00
          1   -1    0    0  501    0  0.00000000000E+00  0.00000000000E+00  0.60563631222E+03  0.60563631222E+03  0.00000000000E+00 0. -1.
         -1   -1    0    0    0  501 -0.00000000000E+00 -0.00000000000E+00 -0.22120286419E+02  0.22120286419E+02  0.00000000000E+00 0.  1.
          5    1    1    2  502    0  0.51252377257E+02  0.14500980068E+02  0.14147513363E+03  0.15124281151E+03  0.47000000000E+01 0.  1.
         -5    1    1    2    0  502 -0.51931520921E+02 -0.54953391052E+02  0.13430016189E+03  0.15419267667E+03  0.47000000000E+01 0.  1.
        -11    1    1    2    0    0  0.35597494266E+02  0.22647974964E+02  0.24303292445E+03  0.24666802536E+03  0.00000000000E+00 0. -1.
         11    1    1    2    0    0 -0.34918350603E+02  0.17804436020E+02  0.64707805826E+02  0.75653085103E+02  0.00000000000E+00 0.  1.
<mgrwt>
<rscale>  0 0.12136246E+03</rscale>
<asrwt>0</asrwt>
<pdfrwt beam="1">  1        1 0.93174805E-01 0.13129670E+03</pdfrwt>
<pdfrwt beam="2">  1       -1 0.34031215E-02 0.13129670E+03</pdfrwt>
<totfact> 0.10346577E+04</totfact>
</mgrwt>
</event>
<event>
 6    1  0.5818426E-006  0.4257275E+03  0.7546771E-02  0.1035218E+00
         -1   -1    0    0    0  501 -0.00000000000E+00  0.00000000000E+00  0.90535002270E+03  0.90535002270E+03  0.00000000000E+00 0.  1.
          1   -1    0    0  501    0  0.00000000000E+00 -0.00000000000E+00 -0.50048020840E+02  0.50048020840E+02  0.00000000000E+00 0. -1.
          5    1    1    2  502    0  0.13679363509E+03  0.12694281242E+03  0.37259724026E+03  0.41674664927E+03  0.47000000000E+01 0.  1.
         -5    1    1    2    0  502  0.11649296791E+02 -0.22578008573E+02  0.12208683796E+03  0.12479085940E+03  0.47000000000E+01 0.  1.
        -11    1    1    2    0    0 -0.45546506168E+02 -0.15533181649E+01  0.35772886458E+02  0.57936140939E+02  0.00000000000E+00 0.  1.
         11    1    1    2    0    0 -0.10289642571E+03 -0.10281148569E+03  0.32484503718E+03  0.35592439393E+03  0.00000000000E+00 0. -1.
<mgrwt>
<rscale>  0 0.42572750E+03</rscale>
<asrwt>0</asrwt>
<pdfrwt beam="2">  1        1 0.76996962E-02 0.42572750E+03</pdfrwt>
<pdfrwt beam="1">  1       -1 0.13928461E+00 0.42572750E+03</pdfrwt>
<totfact> 0.41881167E+02</totfact>
</mgrwt>
</event>
<event>
 6    1  0.5818426E-006  0.1328698E+03  0.7546771E-02  0.1236785E+00
         -1   -1    0    0    0  501 -0.00000000000E+00  0.00000000000E+00  0.28471569791E+02  0.28471569791E+02  0.00000000000E+00 0.  1.
          1   -1    0    0  501    0  0.00000000000E+00 -0.00000000000E+00 -0.49435400753E+03  0.49435400753E+03  0.00000000000E+00 0. -1.
          5    1    1    2  502    0  0.76788110360E+02 -0.32035475043E+02 -0.11635094457E+03  0.14311644859E+03  0.47000000000E+01 0. -1.
         -5    1    1    2    0  502 -0.47269530962E+02 -0.19565166059E+01 -0.10099600237E+03  0.11162669488E+03  0.47000000000E+01 0. -1.
        -11    1    1    2    0    0  0.17399809984E+02  0.48348960162E+02 -0.12335954579E+03  0.13363365173E+03  0.00000000000E+00 0.  1.
         11    1    1    2    0    0 -0.46918389382E+02 -0.14356968513E+02 -0.12517594501E+03  0.13444878213E+03  0.00000000000E+00 0. -1.
<mgrwt>
<rscale>  0 0.12390837E+03</rscale>
<asrwt>0</asrwt>
<pdfrwt beam="2">  1        1 0.76054462E-01 0.13286976E+03</pdfrwt>
<pdfrwt beam="1">  1       -1 0.43802416E-02 0.13286976E+03</pdfrwt>
<totfact> 0.93693793E+03</totfact>
</mgrwt>
</event>
<event>
 6    1  0.5818426E-006  0.1404324E+03  0.7546771E-02  0.1224755E+00
         -2   -1    0    0    0  501 -0.00000000000E+00  0.00000000000E+00  0.19301296697E+03  0.19301296697E+03  0.00000000000E+00 0.  1.
          2   -1    0    0  501    0  0.00000000000E+00 -0.00000000000E+00 -0.85121036547E+02  0.85121036547E+02  0.00000000000E+00 0. -1.
          5    1    1    2  502    0 -0.38181964328E+02  0.32585483591E+02  0.30189258767E+02  0.58763572779E+02  0.47000000000E+01 0. -1.
         -5    1    1    2    0  502  0.89635194161E+02  0.54870232438E+01  0.61853871304E+02  0.10914470602E+03  0.47000000000E+01 0. -1.
        -11    1    1    2    0    0 -0.36188132825E+02 -0.51159942235E+02  0.43320780314E+02  0.76181432475E+02  0.00000000000E+00 0.  1.
         11    1    1    2    0    0 -0.15265097007E+02  0.13087435400E+02 -0.27471979958E+02  0.34044292250E+02  0.00000000000E+00 0. -1.
<mgrwt>
<rscale>  0 0.13183693E+03</rscale>
<asrwt>0</asrwt>
<pdfrwt beam="2">  1        2 0.13095544E-01 0.14043238E+03</pdfrwt>
<pdfrwt beam="1">  1       -2 0.29694303E-01 0.14043238E+03</pdfrwt>
<totfact> 0.45732122E+03</totfact>
</mgrwt>
</event>
<event>
 6    1  0.5818426E-006  0.1144818E+03  0.7546771E-02  0.1264209E+00
          2   -1    0    0  501    0  0.00000000000E+00  0.00000000000E+00  0.48444172794E+03  0.48444172794E+03  0.00000000000E+00 0. -1.
         -2   -1    0    0    0  501 -0.00000000000E+00 -0.00000000000E+00 -0.48145732288E+02  0.48145732288E+02  0.00000000000E+00 0.  1.
          5    1    1    2  502    0 -0.41157085911E+02 -0.46158916897E+02  0.26165687615E+02  0.67314816632E+02  0.47000000000E+01 0. -1.
         -5    1    1    2    0  502  0.11610936956E+02  0.49817127338E+02  0.67802344682E+01  0.51813334313E+02  0.47000000000E+01 0.  1.
        -11    1    1    2    0    0  0.56438635345E+02  0.59269359028E+01  0.32817678899E+03  0.33304722332E+03  0.00000000000E+00 0. -1.
         11    1    1    2    0    0 -0.26892486389E+02 -0.95851463433E+01  0.75173284580E+02  0.80412085965E+02  0.00000000000E+00 0.  1.
<mgrwt>
<rscale>  0 0.10805807E+03</rscale>
<asrwt>0</asrwt>
<pdfrwt beam="1">  1        2 0.74529493E-01 0.11448180E+03</pdfrwt>
<pdfrwt beam="2">  1       -2 0.74070361E-02 0.11448180E+03</pdfrwt>
<totfact> 0.65323487E+03</totfact>
</mgrwt>
</event>
<event>
 6    1  0.5818426E-006  0.3264283E+03  0.7546771E-02  0.1074067E+00
          2   -1    0    0  501    0  0.00000000000E+00  0.00000000000E+00  0.31709324282E+03  0.31709324282E+03  0.00000000000E+00 0.  1.
         -2   -1    0    0    0  501 -0.00000000000E+00 -0.00000000000E+00 -0.36350943640E+03  0.36350943640E+03  0.00000000000E+00 0. -1.
          5    1    1    2  502    0  0.77593838802E+01  0.96134725911E+02 -0.68600952655E+02  0.11844945871E+03  0.47000000000E+01 0. -1.
         -5    1    1    2    0  502 -0.14491241517E+03  0.17241314694E+03 -0.67021996580E+02  0.23503178367E+03  0.47000000000E+01 0. -1.
        -11    1    1    2    0    0  0.16207377708E+02 -0.75813944961E+00 -0.73717769160E+01  0.17821250307E+02  0.00000000000E+00 0.  1.
         11    1    1    2    0    0  0.12094565358E+03 -0.26778973340E+03  0.96578532577E+02  0.30930018653E+03  0.00000000000E+00 0. -1.
<mgrwt>
<rscale>  0 0.32346175E+03</rscale>
<asrwt>0</asrwt>
<pdfrwt beam="1">  1        2 0.48783576E-01 0.32642825E+03</pdfrwt>
<pdfrwt beam="2">  1       -2 0.55924529E-01 0.32642825E+03</pdfrwt>
<totfact> 0.31619102E+02</totfact>
</mgrwt>
</event>
<event>
 6    1  0.5818426E-006  0.1355577E+03  0.7546771E-02  0.1231553E+00
         -1   -1    0    0    0  501 -0.00000000000E+00  0.00000000000E+00  0.20891413152E+03  0.20891413152E+03  0.00000000000E+00 0.  1.
          1   -1    0    0  501    0  0.00000000000E+00 -0.00000000000E+00 -0.76151413417E+02  0.76151413417E+02  0.00000000000E+00 0. -1.
          5    1    1    2  502    0 -0.40937979936E+02 -0.19863921223E+02  0.13925441313E+03  0.14657549298E+03  0.47000000000E+01 0.  1.
         -5    1    1    2    0  502 -0.11501714599E+02  0.17735195483E+02 -0.23300677255E+02  0.31809403611E+02  0.47000000000E+01 0.  1.
        -11    1    1    2    0    0  0.12362548397E+02  0.42489540609E+02  0.22272134396E+02  0.49540303134E+02  0.00000000000E+00 0.  1.
         11    1    1    2    0    0  0.40077146138E+02 -0.40360814870E+02 -0.54631521619E+01  0.57140345213E+02  0.00000000000E+00 0. -1.
<mgrwt>
<rscale>  0 0.12727700E+03</rscale>
<asrwt>0</asrwt>
<pdfrwt beam="2">  1        1 0.11715602E-01 0.13555775E+03</pdfrwt>
<pdfrwt beam="1">  1       -1 0.32140635E-01 0.13555775E+03</pdfrwt>
<totfact> 0.44950339E+03</totfact>
</mgrwt>
</event>
<event>
 6    1  0.5818426E-006  0.1440781E+03  0.7546771E-02  0.1218193E+00
         -2   -1    0    0    0  501 -0.00000000000E+00  0.00000000000E+00  0.11003225774E+03  0.11003225774E+03  0.00000000000E+00 0.  1.
          2   -1    0    0  501    0  0.00000000000E+00 -0.00000000000E+00 -0.15590479796E+03  0.15590479796E+03  0.00000000000E+00 0. -1.
          5    1    1    2  502    0  0.34470574691E+02  0.73474745385E+02  0.18858294166E+02  0.83453483976E+02  0.47000000000E+01 0.  1.
         -5    1    1    2    0  502 -0.53702336328E+02 -0.44584545713E+01 -0.28013526446E+02  0.60915239540E+02  0.47000000000E+01 0.  1.
        -11    1    1    2    0    0  0.31583503604E+02 -0.82706026915E+02 -0.99833201038E+01  0.89092487159E+02  0.00000000000E+00 0.  1.
         11    1    1    2    0    0 -0.12351741967E+02  0.13689736101E+02 -0.26733987844E+02  0.32475845026E+02  0.00000000000E+00 0. -1.
<mgrwt>
<rscale>  0 0.13644603E+03</rscale>
<asrwt>0</asrwt>
<pdfrwt beam="2">  1        2 0.23985353E-01 0.14407814E+03</pdfrwt>
<pdfrwt beam="1">  1       -2 0.16928040E-01 0.14407814E+03</pdfrwt>
<totfact> 0.60170410E+03</totfact>
</mgrwt>
</event>
<event>
 6    1  0.5818426E-006  0.2199079E+03  0.7546771E-02  0.1149699E+00
          1   -1    0    0  501    0  0.00000000000E+00  0.00000000000E+00  0.44365630561E+03  0.44365630561E+03  0.00000000000E+00 0. -1.
         -1   -1    0    0    0  501 -0.00000000000E+00 -0.00000000000E+00 -0.13821475935E+03  0.13821475935E+03  0.00000000000E+00 0.  1.
          5    1    1    2  502    0  0.38163033645E+02  0.20062049038E+02 -0.57256872863E+02  0.71828562833E+02  0.47000000000E+01 0. -1.
         -5    1    1    2    0  502 -0.13735986716E+03  0.46538816091E+02  0.34807729455E+02  0.14922219184E+03  0.47000000000E+01 0.  1.
        -11    1    1    2    0    0  0.13770258027E+02  0.18866974067E+02  0.22675328377E+02  0.32553851286E+02  0.00000000000E+00 0.  1.
         11    1    1    2    0    0  0.85426575486E+02 -0.85467839196E+02  0.30521536129E+03  0.32826645900E+03  0.00000000000E+00 0. -1.
<mgrwt>
<rscale>  0 0.20004769E+03</rscale>
<asrwt>0</asrwt>
<pdfrwt beam="1">  1        1 0.68254815E-01 0.21990787E+03</pdfrwt>
<pdfrwt beam="2">  1       -1 0.21263809E-01 0.21990787E+03</pdfrwt>
<totfact> 0.96578935E+02</totfact>
</mgrwt>
</event>
<event>
 6    1  0.5818426E-006  0.1522483E+03  0.7546771E-02  0.1207114E+00
         -2   -1    0    0    0  501 -0.00000000000E+00  0.00000000000E+00  0.13844597406E+03  0.13844597406E+03  0.00000000000E+00 0.  1.
          2   -1    0    0  501    0  0.00000000000E+00 -0.00000000000E+00 -0.15593983018E+03  0.15593983018E+03  0.00000000000E+00 0. -1.
          5    1    1    2  502    0 -0.24194590712E+02  0.52301678155E+01 -0.30166980651E+02  0.39304829177E+02  0.47000000000E+01 0. -1.
         -5    1    1    2    0  502  0.22687112855E+02 -0.92128285495E+02  0.70194969101E+02  0.11811752522E+03  0.47000000000E+01 0. -1.
        -11    1    1    2    0    0 -0.15434244537E+02  0.80411441620E+02 -0.57221727012E+01  0.82078980916E+02  0.00000000000E+00 0.  1.
         11    1    1    2    0    0  0.16941722393E+02  0.64866760602E+01 -0.51799671866E+02  0.54884468926E+02  0.00000000000E+00 0. -1.
<mgrwt>
<rscale>  0 0.14472091E+03</rscale>
<asrwt>0</asrwt>
<pdfrwt beam="2">  1        2 0.23990743E-01 0.15224834E+03</pdfrwt>
<pdfrwt beam="1">  1       -2 0.21299381E-01 0.15224834E+03</pdfrwt>
<totfact> 0.40993800E+03</totfact>
</mgrwt>
</event>
<event>
 6    1  0.5818426E-006  0.1292763E+03  0.7546771E-02  0.1242977E+00
          2   -1    0    0  501    0  0.00000000000E+00  0.00000000000E+00  0.70870427568E+03  0.70870427568E+03  0.00000000000E+00 0. -1.
         -2   -1    0    0    0  501 -0.00000000000E+00 -0.00000000000E+00 -0.19752316506E+02  0.19752316506E+02  0.00000000000E+00 0.  1.
          5    1    1    2  502    0  0.17720435706E+02  0.44733699012E+02  0.10525163887E+03  0.11582363815E+03  0.47000000000E+01 0.  1.
         -5    1    1    2    0  502 -0.34089048427E+02 -0.73251331164E+02  0.17571867316E+03  0.19346049426E+03  0.47000000000E+01 0.  1.
        -11    1    1    2    0    0 -0.32319742754E+02  0.34252895120E+02  0.19073599582E+03  0.19646385595E+03  0.00000000000E+00 0.  1.
         11    1    1    2    0    0  0.48688355475E+02 -0.57352629678E+01  0.21724565132E+03  0.22270860383E+03  0.00000000000E+00 0. -1.
<mgrwt>
<rscale>  0 0.12007294E+03</rscale>
<asrwt>0</asrwt>
<pdfrwt beam="1">  1        2 0.10903141E+00 0.12927629E+03</pdfrwt>
<pdfrwt beam="2">  1       -2 0.30388185E-02 0.12927629E+03</pdfrwt>
<totfact> 0.16240548E+04</totfact>
</mgrwt>
</event>
<event>
 6    1  0.5818426E-006  0.1837702E+03  0.7546771E-02  0.1169462E+00
          2   -1    0    0  501    0  0.00000000000E+00  0.00000000000E+00  0.31336015459E+03  0.31336015459E+03  0.00000000000E+00 0. -1.
         -2   -1    0    0    0  501 -0.00000000000E+00 -0.00000000000E+00 -0.12641129820E+03  0.12641129820E+03  0.00000000000E+00 0.  1.
          5    1    1    2  502    0  0.56583263497E+02 -0.94211243135E+02  0.48441315447E+02  0.12019182619E+03  0.47000000000E+01 0. -1.
         -5    1    1    2    0  502  0.12129875650E+02 -0.21631886476E+02 -0.58662066000E+02  0.63862354977E+02  0.47000000000E+01 0. -1.
        -11    1    1    2    0    0 -0.25785611796E+02  0.13092140921E+02 -0.40489570205E+00  0.28921719695E+02  0.00000000000E+00 0.  1.
         11    1    1    2    0    0 -0.42927527350E+02  0.10275098869E+03  0.19757450264E+03  0.22679555193E+03  0.00000000000E+00 0. -1.
<mgrwt>
<rscale>  0 0.17829686E+03</rscale>
<asrwt>0</asrwt>
<pdfrwt beam="1">  1        2 0.48209254E-01 0.18377018E+03</pdfrwt>
<pdfrwt beam="2">  1       -2 0.19447892E-01 0.18377018E+03</pdfrwt>
<totfact> 0.22663526E+03</totfact>
</mgrwt>
</event>
<event>
 6    1  0.5818426E-006  0.2251959E+03  0.7546771E-02  0.1133171E+00
         -1   -1    0    0    0  501 -0.00000000000E+00  0.00000000000E+00  0.53940296681E+02  0.53940296681E+02  0.00000000000E+00 0.  1.
          1   -1    0    0  501    0  0.00000000000E+00 -0.00000000000E+00 -0.87727781435E+03  0.87727781435E+03  0.00000000000E+00 0. -1.
          5    1    1    2  502    0  0.15032215870E+03 -0.12384823373E+03 -0.43847363548E+03  0.47980866541E+03  0.47000000000E+01 0.  1.
         -5    1    1    2    0  502 -0.21005008285E+02 -0.11678723004E+02 -0.22610936147E+02  0.33330877239E+02  0.47000000000E+01 0.  1.
        -11    1    1    2    0    0 -0.86379870834E+02  0.68500769578E+02 -0.29123613462E+03  0.31140379514E+03  0.00000000000E+00 0. -1.
         11    1    1    2    0    0 -0.42937279577E+02  0.67026187153E+02 -0.71016811422E+02  0.10667477324E+03  0.00000000000E+00 0.  1.
<mgrwt>
<rscale>  0 0.22095788E+03</rscale>
<asrwt>0</asrwt>
<pdfrwt beam="2">  1        1 0.13496583E+00 0.22519593E+03</pdfrwt>
<pdfrwt beam="1">  1       -1 0.82985063E-02 0.22519593E+03</pdfrwt>
<totfact> 0.16184373E+03</totfact>
</mgrwt>
</event>
<event>
 6    1  0.5818426E-006  0.1316603E+03  0.7546771E-02  0.1243781E+00
         -2   -1    0    0    0  501 -0.00000000000E+00  0.00000000000E+00  0.74574210047E+02  0.74574210047E+02  0.00000000000E+00 0.  1.
          2   -1    0    0  501    0  0.00000000000E+00 -0.00000000000E+00 -0.16586865380E+03  0.16586865380E+03  0.00000000000E+00 0. -1.
          5    1    1    2  502    0  0.23908769474E+02 -0.76694871188E+01 -0.64192268326E+02  0.69088259518E+02  0.47000000000E+01 0. -1.
         -5    1    1    2    0  502 -0.65177286226E+02  0.52445247870E+01  0.22028435863E+02  0.69158699139E+02  0.47000000000E+01 0. -1.
        -11    1    1    2    0    0  0.11810255316E+02 -0.42655470534E+01  0.21767892272E+02  0.25130024996E+02  0.00000000000E+00 0.  1.
         11    1    1    2    0    0  0.29458261436E+02  0.66905093852E+01 -0.70898503564E+02  0.77065880195E+02  0.00000000000E+00 0. -1.
<mgrwt>
<rscale>  0 0.11958641E+03</rscale>
<asrwt>0</asrwt>
<pdfrwt beam="2">  1        2 0.25518254E-01 0.13166029E+03</pdfrwt>
<pdfrwt beam="1">  1       -2 0.11472955E-01 0.13166029E+03</pdfrwt>
<totfact> 0.10492504E+04</totfact>
</mgrwt>
</event>
<event>
 6    1  0.5818426E-006  0.1612010E+03  0.7546771E-02  0.1195406E+00
         -2   -1    0    0    0  501 -0.00000000000E+00  0.00000000000E+00  0.37440023334E+03  0.37440023334E+03  0.00000000000E+00 0.  1.
          2   -1    0    0  501    0  0.00000000000E+00 -0.00000000000E+00 -0.58663687550E+02  0.58663687550E+02  0.00000000000E+00 0. -1.
          5    1    1    2  502    0  0.34707344088E+02 -0.54345013453E+02  0.70165074807E+02  0.95410732853E+02  0.47000000000E+01 0. -1.
         -5    1    1    2    0  502  0.65715874242E+02  0.70388033233E+02  0.93047467398E+02  0.13398870303E+03  0.47000000000E+01 0. -1.
        -11    1    1    2    0    0 -0.49272013324E+02 -0.43251959430E+02  0.39197496241E+02  0.76386562975E+02  0.00000000000E+00 0. -1.
         11    1    1    2    0    0 -0.51151205006E+02  0.27208939650E+02  0.11332650734E+03  0.12727792203E+03  0.00000000000E+00 0.  1.
<mgrwt>
<rscale>  0 0.15419895E+03</rscale>
<asrwt>0</asrwt>
<pdfrwt beam="2">  1        2 0.90251829E-02 0.16120102E+03</pdfrwt>
<pdfrwt beam="1">  1       -2 0.57600034E-01 0.16120102E+03</pdfrwt>
<totfact> 0.20442247E+03</totfact>
</mgrwt>
</event>
<event>
 6    1  0.5818426E-006  0.1647068E+03  0.7546771E-02  0.1190480E+00
         -2   -1    0    0    0  501 -0.00000000000E+00  0.00000000000E+00  0.78986249566E+02  0.78986249566E+02  0.00000000000E+00 0.  1.
          2   -1    0    0  501    0  0.00000000000E+00 -0.00000000000E+00 -0.30823544449E+03  0.30823544449E+03  0.00000000000E+00 0. -1.
          5    1    1    2  502    0  0.52259515614E+01  0.70714467596E+02  0.19168342025E+02  0.73602729793E+02  0.47000000000E+01 0. -1.
         -5    1    1    2    0  502 -0.20679628198E+02  0.35367200513E+02 -0.10355356838E+03  0.11146262791E+03  0.47000000000E+01 0. -1.
        -11    1    1    2    0    0  0.30570248929E+02 -0.26830518120E+02 -0.53924457661E+01  0.41030419124E+02  0.00000000000E+00 0.  1.
         11    1    1    2    0    0 -0.15116572292E+02 -0.79251149989E+02 -0.13947152280E+03  0.16112591723E+03  0.00000000000E+00 0. -1.
<mgrwt>
<rscale>  0 0.15843096E+03</rscale>
<asrwt>0</asrwt>
<pdfrwt beam="2">  1        2 0.47420837E-01 0.16470677E+03</pdfrwt>
<pdfrwt beam="1">  1       -2 0.12151731E-01 0.16470677E+03</pdfrwt>
<totfact> 0.49856207E+03</totfact>
</mgrwt>
</event>
<event>
 6    1  0.5818426E-006  0.1562151E+03  0.7546771E-02  0.1201201E+00
          2   -1    0    0  501    0  0.00000000000E+00  0.00000000000E+00  0.35792169879E+02  0.35792169879E+02  0.00000000000E+00 0. -1.
         -2   -1    0    0    0  501 -0.00000000000E+00 -0.00000000000E+00 -0.60373222487E+03  0.60373222487E+03  0.00000000000E+00 0.  1.
          5    1    1    2  502    0  0.95883070087E+02  0.63871599660E+02 -0.34486606548E+03  0.36363145834E+03  0.47000000000E+01 0. -1.
         -5    1    1    2    0  502 -0.88433545062E+01 -0.29163975124E+02 -0.32551478509E+02  0.44837831315E+02  0.47000000000E+01 0. -1.
        -11    1    1    2    0    0 -0.97625203672E+02 -0.42430947475E+02 -0.19018391223E+03  0.21794720959E+03  0.00000000000E+00 0.  1.
         11    1    1    2    0    0  0.10585488091E+02  0.77233229398E+01 -0.33859876367E+00  0.13107895501E+02  0.00000000000E+00 0. -1.
<mgrwt>
<rscale>  0 0.14940926E+03</rscale>
<asrwt>0</asrwt>
<pdfrwt beam="1">  1        2 0.55064877E-02 0.15621510E+03</pdfrwt>
<pdfrwt beam="2">  1       -2 0.92881880E-01 0.15621510E+03</pdfrwt>
<totfact> 0.13708057E+03</totfact>
</mgrwt>
</event>
<event>
 6    1  0.5818426E-006  0.1426204E+03  0.7546771E-02  0.1220406E+00
         -2   -1    0    0    0  501 -0.00000000000E+00  0.00000000000E+00  0.18488314619E+03  0.18488314619E+03  0.00000000000E+00 0.  1.
          2   -1    0    0  501    0  0.00000000000E+00 -0.00000000000E+00 -0.98157661470E+02  0.98157661470E+02  0.00000000000E+00 0. -1.
          5    1    1    2  502    0  0.39678432945E+02  0.27391526159E+02  0.87681438338E+02  0.10017384077E+03  0.47000000000E+01 0.  1.
         -5    1    1    2    0  502  0.16816699399E+02 -0.66438145396E+02  0.28495925146E+01  0.68753463330E+02  0.47000000000E+01 0.  1.
        -11    1    1    2    0    0 -0.22554207040E+02 -0.16801260012E+02  0.29504516233E+02  0.40761391922E+02  0.00000000000E+00 0.  1.
         11    1    1    2    0    0 -0.33940925304E+02  0.55847879249E+02 -0.33310062363E+02  0.73352111638E+02  0.00000000000E+00 0. -1.
<mgrwt>
<rscale>  0 0.13486833E+03</rscale>
<asrwt>0</asrwt>
<pdfrwt beam="2">  1        2 0.15101179E-01 0.14262036E+03</pdfrwt>
<pdfrwt beam="1">  1       -2 0.28443561E-01 0.14262036E+03</pdfrwt>
<totfact> 0.41784011E+03</totfact>
</mgrwt>
</event>
<event>
 6    1  0.5818426E-006  0.1355745E+03  0.7546771E-02  0.1232020E+00
         -2   -1    0    0    0  501 -0.00000000000E+00  0.00000000000E+00  0.27261101533E+02  0.27261101533E+02  0.00000000000E+00 0.  1.
          2   -1    0    0  501    0  0.00000000000E+00 -0.00000000000E+00 -0.52967670991E+03  0.52967670991E+03  0.00000000000E+00 0. -1.
          5    1    1    2  502    0 -0.30310664109E+02  0.73397085398E+02 -0.16642701525E+03  0.18446113387E+03  0.47000000000E+01 0.  1.
         -5    1    1    2    0  502 -0.17853559739E+02 -0.52591043605E+02 -0.10043760872E+03  0.11486675197E+03  0.47000000000E+01 0.  1.
        -11    1    1    2    0    0  0.14901885844E+02 -0.54708658961E+02 -0.13388217773E+03  0.14539443277E+03  0.00000000000E+00 0.  1.
         11    1    1    2    0    0  0.33262338003E+02  0.33902617168E+02 -0.10166880668E+03  0.11221549283E+03  0.00000000000E+00 0. -1.
<mgrwt>
<rscale>  0 0.12697121E+03</rscale>
<asrwt>0</asrwt>
<pdfrwt beam="2">  1        2 0.81488719E-01 0.13557454E+03</pdfrwt>
<pdfrwt beam="1">  1       -2 0.41940159E-02 0.13557454E+03</pdfrwt>
<totfact> 0.14127833E+04</totfact>
</mgrwt>
</event>
<event>
 6    1  0.5818426E-006  0.1331975E+03  0.7546771E-02  0.1235309E+00
         -2   -1    0    0    0  501 -0.00000000000E+00  0.00000000000E+00  0.53368594927E+03  0.53368594927E+03  0.00000000000E+00 0. -1.
          2   -1    0    0  501    0  0.00000000000E+00 -0.00000000000E+00 -0.41858212669E+02  0.41858212669E+02  0.00000000000E+00 0.  1.
          5    1    1    2  502    0  0.33991484145E+02 -0.43765865818E+02  0.77965578811E+02  0.95768436787E+02  0.47000000000E+01 0. -1.
         -5    1    1    2    0  502  0.11121449158E+02  0.34758273491E+02  0.36339061159E+03  0.36524875195E+03  0.47000000000E+01 0. -1.
        -11    1    1    2    0    0 -0.45665136121E+02  0.46203223275E+02  0.25844646961E+02  0.69914149315E+02  0.00000000000E+00 0.  1.
         11    1    1    2    0    0  0.55220281719E+00 -0.37195630947E+02  0.24626899243E+02  0.44612823894E+02  0.00000000000E+00 0. -1.
<mgrwt>
<rscale>  0 0.12484652E+03</rscale>
<asrwt>0</asrwt>
<pdfrwt beam="2">  1        2 0.64397254E-02 0.13319745E+03</pdfrwt>
<pdfrwt beam="1">  1       -2 0.82105526E-01 0.13319745E+03</pdfrwt>
<totfact> 0.14628671E+03</totfact>
</mgrwt>
</event>
<event>
 6    1  0.5818426E-006  0.1516410E+03  0.7546771E-02  0.1207317E+00
          1   -1    0    0  501    0  0.00000000000E+00  0.00000000000E+00  0.40722654927E+03  0.40722654927E+03  0.00000000000E+00 0. -1.
         -1   -1    0    0    0  501 -0.00000000000E+00 -0.00000000000E+00 -0.57807661328E+02  0.57807661328E+02  0.00000000000E+00 0.  1.
          5    1    1    2  502    0  0.80556357543E+02  0.49511485357E+02  0.70709217902E+02  0.11816343520E+03  0.47000000000E+01 0. -1.
         -5    1    1    2    0  502 -0.45952278569E+02  0.29056738662E+02  0.17710379083E+02  0.57372933467E+02  0.47000000000E+01 0. -1.
        -11    1    1    2    0    0 -0.53283324280E+02 -0.76086283735E+02  0.25208116385E+03  0.26865060653E+03  0.00000000000E+00 0. -1.
         11    1    1    2    0    0  0.18679245306E+02 -0.24819402839E+01  0.89181271071E+01  0.20847235401E+02  0.00000000000E+00 0.  1.
<mgrwt>
<rscale>  0 0.14456385E+03</rscale>
<asrwt>0</asrwt>
<pdfrwt beam="1">  1        1 0.62650236E-01 0.15164100E+03</pdfrwt>
<pdfrwt beam="2">  1       -1 0.88934866E-02 0.15164100E+03</pdfrwt>
<totfact> 0.42009700E+03</totfact>
</mgrwt>
</event>
<event>
 6    1  0.5818426E-006  0.1379338E+03  0.7546771E-02  0.1228822E+00
          1   -1    0    0  501    0  0.00000000000E+00  0.00000000000E+00  0.31477224997E+03  0.31477224997E+03  0.00000000000E+00 0. -1.
         -1   -1    0    0    0  501 -0.00000000000E+00 -0.00000000000E+00 -0.54981446968E+02  0.54981446968E+02  0.00000000000E+00 0.  1.
          5    1    1    2  502    0  0.19319521817E+02 -0.27120229773E+02  0.10367487923E+03  0.10899229959E+03  0.47000000000E+01 0. -1.
         -5    1    1    2    0  502 -0.23456033899E+02 -0.30977690716E+02 -0.28200219406E+02  0.48240493601E+02  0.47000000000E+01 0. -1.
        -11    1    1    2    0    0 -0.61929352131E+00  0.16952227616E+02 -0.58134131744E+01  0.17932019361E+02  0.00000000000E+00 0.  1.
         11    1    1    2    0    0  0.47558056032E+01  0.41145692872E+02  0.19012955635E+03  0.19458888439E+03  0.00000000000E+00 0. -1.
<mgrwt>
<rscale>  0 0.12908322E+03</rscale>
<asrwt>0</asrwt>
<pdfrwt beam="1">  1        1 0.48426499E-01 0.13793378E+03</pdfrwt>
<pdfrwt beam="2">  1       -1 0.84586844E-02 0.13793378E+03</pdfrwt>
<totfact> 0.62258662E+03</totfact>
</mgrwt>
</event>
<event>
 6    1  0.5818426E-006  0.2485667E+03  0.7546771E-02  0.1152952E+00
         -1   -1    0    0    0  501 -0.00000000000E+00  0.00000000000E+00  0.22759828046E+03  0.22759828046E+03  0.00000000000E+00 0.  1.
          1   -1    0    0  501    0  0.00000000000E+00 -0.00000000000E+00 -0.14363454719E+03  0.14363454719E+03  0.00000000000E+00 0. -1.
          5    1    1    2  502    0  0.11301086054E+03 -0.27049603350E+02  0.54469112631E+02  0.12842160984E+03  0.47000000000E+01 0. -1.
         -5    1    1    2    0  502 -0.11812257706E+03  0.59153594691E+02  0.54624366390E+02  0.14303147339E+03  0.47000000000E+01 0.  1.
        -11    1    1    2    0    0  0.12284526633E+02 -0.67296347731E+01 -0.56838834760E+02  0.58539309150E+02  0.00000000000E+00 0. -1.
         11    1    1    2    0    0 -0.71728101160E+01 -0.25374356568E+02  0.31709089007E+02  0.41240435278E+02  0.00000000000E+00 0.  1.
<mgrwt>
<rscale>  0 0.19623900E+03</rscale>
<asrwt>0</asrwt>
<pdfrwt beam="2">  1        1 0.22097623E-01 0.24856667E+03</pdfrwt>
<pdfrwt beam="1">  1       -1 0.35015120E-01 0.24856667E+03</pdfrwt>
<totfact> 0.17457362E+03</totfact>
</mgrwt>
</event>
<event>
 6    1  0.5818426E-006  0.1508596E+03  0.7546771E-02  0.1209168E+00
          1   -1    0    0  501    0  0.00000000000E+00  0.00000000000E+00  0.40076612733E+02  0.40076612733E+02  0.00000000000E+00 0. -1.
         -1   -1    0    0    0  501 -0.00000000000E+00 -0.00000000000E+00 -0.49436781640E+03  0.49436781640E+03  0.00000000000E+00 0.  1.
          5    1    1    2  502    0 -0.39117266148E+02  0.20277620401E+02 -0.16958010168E+03  0.17527362405E+03  0.47000000000E+01 0.  1.
         -5    1    1    2    0  502  0.78023848142E+02  0.54687346220E+02 -0.14436698553E+03  0.17303855994E+03  0.47000000000E+01 0.  1.
        -11    1    1    2    0    0 -0.61071614590E+01 -0.75780395364E+02 -0.52583359443E+02  0.92439036305E+02  0.00000000000E+00 0.  1.
         11    1    1    2    0    0 -0.32799420534E+02  0.81542874317E+00 -0.87760757017E+02  0.93693208845E+02  0.00000000000E+00 0. -1.
<mgrwt>
<rscale>  0 0.14313808E+03</rscale>
<asrwt>0</asrwt>
<pdfrwt beam="1">  1        1 0.61656324E-02 0.15085955E+03</pdfrwt>
<pdfrwt beam="2">  1       -1 0.76056591E-01 0.15085955E+03</pdfrwt>
<totfact> 0.21964336E+03</totfact>
</mgrwt>
</event>
<event>
 6    1  0.5818426E-006  0.1342789E+03  0.7546771E-02  0.1233425E+00
          2   -1    0    0  501    0  0.00000000000E+00  0.00000000000E+00  0.57225543869E+03  0.57225543869E+03  0.00000000000E+00 0. -1.
         -2   -1    0    0    0  501 -0.00000000000E+00 -0.00000000000E+00 -0.25104340565E+02  0.25104340565E+02  0.00000000000E+00 0.  1.
          5    1    1    2  502    0 -0.63436042335E+02 -0.56452336651E+02  0.12609448283E+03  0.15209505706E+03  0.47000000000E+01 0. -1.
         -5    1    1    2    0  502  0.21522432582E+02  0.30963477793E+02  0.15261648838E+03  0.15727630015E+03  0.47000000000E+01 0. -1.
        -11    1    1    2    0    0 -0.11808679523E+02 -0.26589873193E+02  0.64573288602E+02  0.70824966427E+02  0.00000000000E+00 0. -1.
         11    1    1    2    0    0  0.53722289276E+02  0.52078732051E+02  0.20386683831E+03  0.21716345563E+03  0.00000000000E+00 0.  1.
<mgrwt>
<rscale>  0 0.12605808E+03</rscale>
<asrwt>0</asrwt>
<pdfrwt beam="1">  1        2 0.88039289E-01 0.13427893E+03</pdfrwt>
<pdfrwt beam="2">  1       -2 0.38622067E-02 0.13427893E+03</pdfrwt>
<totfact> 0.14637387E+04</totfact>
</mgrwt>
</event>
<event>
 6    1  0.5818426E-006  0.2514577E+03  0.7546771E-02  0.1112387E+00
         -2   -1    0    0    0  501 -0.00000000000E+00  0.00000000000E+00  0.19540134934E+02  0.19540134934E+02  0.00000000000E+00 0.  1.
          2   -1    0    0  501    0  0.00000000000E+00 -0.00000000000E+00 -0.80898873646E+03  0.80898873646E+03  0.00000000000E+00 0. -1.
          5    1    1    2  502    0 -0.50526434305E+02 -0.75320141992E+02 -0.17573504869E+03  0.19781542329E+03  0.47000000000E+01 0. -1.
         -5    1    1    2    0  502 -0.25293288622E+01  0.33669514438E+02 -0.22024253358E+03  0.22286519985E+03  0.47000000000E+01 0. -1.
        -11    1    1    2    0    0  0.56281616594E+02 -0.79575205534E+01 -0.18521361571E+03  0.19373958280E+03  0.00000000000E+00 0.  1.
         11    1    1    2    0    0 -0.32258534272E+01  0.49608148108E+02 -0.20825740354E+03  0.21410866545E+03  0.00000000000E+00 0. -1.
<mgrwt>
<rscale>  0 0.25145774E+03</rscale>
<asrwt>0</asrwt>
<pdfrwt beam="2">  1        2 0.12445983E+00 0.25145774E+03</pdfrwt>
<pdfrwt beam="1">  1       -2 0.30061740E-02 0.25145774E+03</pdfrwt>
<totfact> 0.14642088E+04</totfact>
</mgrwt>
</event>
<event>
 6    1  0.6015371E-006  0.1801527E+03  0.7546771E-02  0.1172902E+00
         -1   -1    0    0    0  501 -0.00000000000E+00  0.00000000000E+00  0.41169748527E+02  0.41169748527E+02  0.00000000000E+00 0.  1.
          1   -1    0    0  501    0  0.00000000000E+00 -0.00000000000E+00 -0.70246196065E+03  0.70246196065E+03  0.00000000000E+00 0. -1.
          5    1    1    2  502    0 -0.40339108399E+02 -0.12434258329E+03 -0.18502239227E+03  0.22659147673E+03  0.47000000000E+01 0. -1.
         -5    1    1    2    0  502  0.31708995226E+02 -0.50974560572E+01 -0.15337914417E+03  0.15677594300E+03  0.47000000000E+01 0. -1.
        -11    1    1    2    0    0  0.43043684798E+02  0.10181982066E+03 -0.26752950249E+03  0.28946859827E+03  0.00000000000E+00 0. -1.
         11    1    1    2    0    0 -0.34413571625E+02  0.27620218693E+02 -0.55361173187E+02  0.70795691177E+02  0.00000000000E+00 0.  1.
<mgrwt>
<rscale>  0 0.17483003E+03</rscale>
<asrwt>0</asrwt>
<pdfrwt beam="2">  1        1 0.10807107E+00 0.18015265E+03</pdfrwt>
<pdfrwt beam="1">  1       -1 0.63338076E-02 0.18015265E+03</pdfrwt>
<totfact> 0.34025844E+03</totfact>
</mgrwt>
</event>
<event>
 6    1  0.5818426E-006  0.1599277E+03  0.7546771E-02  0.1197892E+00
         -1   -1    0    0    0  501 -0.00000000000E+00  0.00000000000E+00  0.22742665845E+03  0.22742665845E+03  0.00000000000E+00 0.  1.
          1   -1    0    0  501    0  0.00000000000E+00 -0.00000000000E+00 -0.98325874800E+02  0.98325874800E+02  0.00000000000E+00 0. -1.
          5    1    1    2  502    0  0.38072712751E+02 -0.89759553655E+02  0.50119669335E+02  0.10972866619E+03  0.47000000000E+01 0. -1.
         -5    1    1    2    0  502  0.41418788535E+02  0.42813651817E+02  0.58313734889E+02  0.83493152428E+02  0.47000000000E+01 0. -1.
        -11    1    1    2    0    0 -0.31159100255E+02 -0.18477436774E+02 -0.20225773065E+02  0.41489602246E+02  0.00000000000E+00 0. -1.
         11    1    1    2    0    0 -0.48332401031E+02  0.65423338612E+02  0.40893152489E+02  0.91041112389E+02  0.00000000000E+00 0.  1.
<mgrwt>
<rscale>  0 0.15211968E+03</rscale>
<asrwt>0</asrwt>
<pdfrwt beam="2">  1        1 0.15127058E-01 0.15992770E+03</pdfrwt>
<pdfrwt beam="1">  1       -1 0.34988716E-01 0.15992770E+03</pdfrwt>
<totfact> 0.28089729E+03</totfact>
</mgrwt>
</event>
<event>
 6    1  0.5818426E-006  0.3490288E+03  0.7546771E-02  0.1063014E+00
         -1   -1    0    0    0  501 -0.00000000000E+00  0.00000000000E+00  0.69798854569E+02  0.69798854569E+02  0.00000000000E+00 0.  1.
          1   -1    0    0  501    0  0.00000000000E+00 -0.00000000000E+00 -0.43632922808E+03  0.43632922808E+03  0.00000000000E+00 0. -1.
          5    1    1    2  502    0  0.15725864925E+02 -0.95527571782E+01  0.13530075855E+02  0.23317610297E+02  0.47000000000E+01 0.  1.
         -5    1    1    2    0  502 -0.13507954389E+03 -0.12092038215E+02 -0.11771576392E+03  0.17964351266E+03  0.47000000000E+01 0.  1.
        -11    1    1    2    0    0  0.66287687798E+02 -0.22583467406E+02 -0.70960092241E+02  0.99696565861E+02  0.00000000000E+00 0.  1.
         11    1    1    2    0    0  0.53065991168E+02  0.44228262799E+02 -0.19138459321E+03  0.20347039383E+03  0.00000000000E+00 0. -1.
<mgrwt>
<rscale>  0 0.34902883E+03</rscale>
<asrwt>0</asrwt>
<pdfrwt beam="2">  1        1 0.67127575E-01 0.34902883E+03</pdfrwt>
<pdfrwt beam="1">  1       -1 0.10738285E-01 0.34902883E+03</pdfrwt>
<totfact> 0.29587889E+03</totfact>
</mgrwt>
</event>
<event>
 6    1  0.5818426E-006  0.1232617E+03  0.7546771E-02  0.1248658E+00
         -3   -1    0    0    0  501 -0.00000000000E+00  0.00000000000E+00  0.10208397226E+03  0.10208397226E+03  0.00000000000E+00 0.  1.
          3   -1    0    0  501    0  0.00000000000E+00 -0.00000000000E+00 -0.12477560035E+03  0.12477560035E+03  0.00000000000E+00 0. -1.
          5    1    1    2  502    0  0.78722058643E+01 -0.75139581802E+02  0.13561908805E+02  0.76902169989E+02  0.47000000000E+01 0. -1.
         -5    1    1    2    0  502 -0.22371815965E+02  0.40049788503E+02 -0.64543502146E+01  0.46564281863E+02  0.47000000000E+01 0.  1.
        -11    1    1    2    0    0  0.43632010624E+02  0.47163170849E+02 -0.73197755423E+01  0.64666035518E+02  0.00000000000E+00 0.  1.
         11    1    1    2    0    0 -0.29132400524E+02 -0.12073377551E+02 -0.22479411135E+02  0.38727085234E+02  0.00000000000E+00 0. -1.
<mgrwt>
<rscale>  0 0.11669071E+03</rscale>
<asrwt>0</asrwt>
<pdfrwt beam="2">  1        3 0.19196246E-01 0.12326170E+03</pdfrwt>
<pdfrwt beam="1">  1       -3 0.15705226E-01 0.12326170E+03</pdfrwt>
<totfact> 0.18657504E+03</totfact>
</mgrwt>
</event>
<event>
 6    1  0.6787232E-006  0.1274611E+03  0.7546771E-02  0.1245715E+00
          3   -1    0    0  501    0  0.00000000000E+00  0.00000000000E+00  0.35986089890E+02  0.35986089890E+02  0.00000000000E+00 0. -1.
         -3   -1    0    0    0  501 -0.00000000000E+00 -0.00000000000E+00 -0.45654676171E+03  0.45654676171E+03  0.00000000000E+00 0.  1.
          5    1    1    2  502    0 -0.31205910579E+02 -0.60621858481E+02 -0.17759353707E+03  0.19029023356E+03  0.47000000000E+01 0. -1.
         -5    1    1    2    0  502  0.63854025395E+01  0.58272656099E+02 -0.17721416314E+03  0.18671750168E+03  0.47000000000E+01 0. -1.
        -11    1    1    2    0    0  0.76059346219E+01 -0.13191553836E+02  0.20879431853E+02  0.25842174997E+02  0.00000000000E+00 0. -1.
         11    1    1    2    0    0  0.17214573417E+02  0.15540756219E+02 -0.86632403461E+02  0.89682941361E+02  0.00000000000E+00 0.  1.
<mgrwt>
<rscale>  0 0.11842671E+03</rscale>
<asrwt>0</asrwt>
<pdfrwt beam="1">  1        3 0.55363219E-02 0.12746109E+03</pdfrwt>
<pdfrwt beam="2">  1       -3 0.70237958E-01 0.12746109E+03</pdfrwt>
<totfact> 0.87486124E+02</totfact>
</mgrwt>
</event>
<event>
 6    1  0.5818426E-006  0.3223275E+03  0.7546771E-02  0.1146611E+00
          4   -1    0    0  501    0  0.00000000000E+00  0.00000000000E+00  0.30504289284E+02  0.30504289284E+02  0.00000000000E+00 0. -1.
         -4   -1    0    0    0  501 -0.00000000000E+00 -0.00000000000E+00 -0.11451158247E+04  0.11451158247E+04  0.00000000000E+00 0.  1.
          5    1    1    2  502    0  0.90299752749E+02 -0.27326255779E+01 -0.54611254424E+02  0.10566925617E+03  0.47000000000E+01 0. -1.
         -5    1    1    2    0  502 -0.49549374301E+02 -0.22165848894E+02 -0.90481874324E+03  0.90645767329E+03  0.47000000000E+01 0.  1.
        -11    1    1    2    0    0 -0.34414066975E+02  0.12938559915E+02 -0.96389341168E+02  0.10316316896E+03  0.00000000000E+00 0. -1.
         11    1    1    2    0    0 -0.63363114726E+01  0.11959914557E+02 -0.58792196591E+02  0.60330015575E+02  0.00000000000E+00 0.  1.
<mgrwt>
<rscale>  0 0.20375221E+03</rscale>
<asrwt>0</asrwt>
<pdfrwt beam="1">  1        4 0.46929685E-02 0.32232747E+03</pdfrwt>
<pdfrwt beam="2">  1       -4 0.17617163E+00 0.32232747E+03</pdfrwt>
<totfact> 0.10283051E+02</totfact>
</mgrwt>
</event>
<event>
 6    1  0.5818426E-006  0.2381807E+03  0.7546771E-02  0.1124043E+00
          2   -1    0    0  501    0  0.00000000000E+00  0.00000000000E+00  0.32718218286E+03  0.32718218286E+03  0.00000000000E+00 0. -1.
         -2   -1    0    0    0  501 -0.00000000000E+00 -0.00000000000E+00 -0.16691320083E+03  0.16691320083E+03  0.00000000000E+00 0.  1.
          5    1    1    2  502    0 -0.11366037321E+02  0.99039649639E+01 -0.12497345565E+02  0.20138246512E+02  0.47000000000E+01 0.  1.
         -5    1    1    2    0  502  0.59164874807E+02 -0.20696757114E+03  0.49122719278E+02  0.22084200113E+03  0.47000000000E+01 0.  1.
        -11    1    1    2    0    0  0.50546937451E+01  0.12955041625E+03  0.46372540803E+02  0.13769267525E+03  0.00000000000E+00 0.  1.
         11    1    1    2    0    0 -0.52853531231E+02  0.67513189932E+02  0.77271067516E+02  0.11542246078E+03  0.00000000000E+00 0. -1.
<mgrwt>
<rscale>  0 0.23372742E+03</rscale>
<asrwt>0</asrwt>
<pdfrwt beam="1">  1        2 0.50335720E-01 0.23818073E+03</pdfrwt>
<pdfrwt beam="2">  1       -2 0.25678954E-01 0.23818073E+03</pdfrwt>
<totfact> 0.13447580E+03</totfact>
</mgrwt>
</event>
<event>
 6    1  0.5818426E-006  0.1257619E+03  0.7546771E-02  0.1249747E+00
         -2   -1    0    0    0  501 -0.00000000000E+00  0.00000000000E+00  0.56157903971E+02  0.56157903971E+02  0.00000000000E+00 0.  1.
          2   -1    0    0  501    0  0.00000000000E+00 -0.00000000000E+00 -0.21418859562E+03  0.21418859562E+03  0.00000000000E+00 0. -1.
          5    1    1    2  502    0 -0.79739706624E+01 -0.53299951695E+02 -0.73779688462E+02  0.91487712226E+02  0.47000000000E+01 0.  1.
         -5    1    1    2    0  502  0.21044433069E+02  0.48692205273E+02  0.20492633298E+01  0.53292480686E+02  0.47000000000E+01 0.  1.
        -11    1    1    2    0    0 -0.30334283770E+02  0.35561272036E+02 -0.20945931438E+02  0.51220160918E+02  0.00000000000E+00 0.  1.
         11    1    1    2    0    0  0.17263821363E+02 -0.30953525613E+02 -0.65354335074E+02  0.74346145757E+02  0.00000000000E+00 0. -1.
<mgrwt>
<rscale>  0 0.11605710E+03</rscale>
<asrwt>0</asrwt>
<pdfrwt beam="2">  1        2 0.32952091E-01 0.12576188E+03</pdfrwt>
<pdfrwt beam="1">  1       -2 0.86396776E-02 0.12576188E+03</pdfrwt>
<totfact> 0.12358620E+04</totfact>
</mgrwt>
</event>
<event>
 6    1  0.5818426E-006  0.1368166E+03  0.7546771E-02  0.1229601E+00
         -1   -1    0    0    0  501 -0.00000000000E+00  0.00000000000E+00  0.38118135197E+02  0.38118135197E+02  0.00000000000E+00 0.  1.
          1   -1    0    0  501    0  0.00000000000E+00 -0.00000000000E+00 -0.42848597974E+03  0.42848597974E+03  0.00000000000E+00 0. -1.
          5    1    1    2  502    0 -0.35322715696E+02 -0.15678422197E+02 -0.74138748922E+02  0.83738588826E+02  0.47000000000E+01 0. -1.
         -5    1    1    2    0  502  0.69299772886E+02  0.59709397586E+02 -0.72511116943E+02  0.11682304037E+03  0.47000000000E+01 0. -1.
        -11    1    1    2    0    0 -0.16346906824E+02  0.10004122987E+02 -0.38702821741E+01  0.19552056761E+02  0.00000000000E+00 0.  1.
         11    1    1    2    0    0 -0.17630150365E+02 -0.54035098376E+02 -0.23984769650E+03  0.24649042897E+03  0.00000000000E+00 0. -1.
<mgrwt>
<rscale>  0 0.12856496E+03</rscale>
<asrwt>0</asrwt>
<pdfrwt beam="2">  1        1 0.65920919E-01 0.13681661E+03</pdfrwt>
<pdfrwt beam="1">  1       -1 0.58643285E-02 0.13681661E+03</pdfrwt>
<totfact> 0.73250518E+03</totfact>
</mgrwt>
</event>
<event>
 6    1  0.5818426E-006  0.2726005E+03  0.7546771E-02  0.1099800E+00
          1   -1    0    0  501    0  0.00000000000E+00  0.00000000000E+00  0.34493670324E+02  0.34493670324E+02  0.00000000000E+00 0. -1.
         -1   -1    0    0    0  501 -0.00000000000E+00 -0.00000000000E+00 -0.53858445968E+03  0.53858445968E+03  0.00000000000E+00 0.  1.
          5    1    1    2  502    0  0.43343441080E+02 -0.12074221847E+02 -0.73034652821E+02  0.85910367422E+02  0.47000000000E+01 0. -1.
         -5    1    1    2    0  502 -0.74463042156E+02 -0.18150841480E+01 -0.29383612593E+03  0.30316628783E+03  0.47000000000E+01 0. -1.
        -11    1    1    2    0    0  0.47609714850E+02 -0.42495151821E+02 -0.69671247242E+02  0.94480715327E+02  0.00000000000E+00 0. -1.
         11    1    1    2    0    0 -0.16490113774E+02  0.56384457816E+02 -0.67548763360E+02  0.89520759419E+02  0.00000000000E+00 0.  1.
<mgrwt>
<rscale>  0 0.27260048E+03</rscale>
<asrwt>0</asrwt>
<pdfrwt beam="1">  1        1 0.53067190E-02 0.27260048E+03</pdfrwt>
<pdfrwt beam="2">  1       -1 0.82859139E-01 0.27260048E+03</pdfrwt>
<totfact> 0.23173280E+03</totfact>
</mgrwt>
</event>
<event>
 6    1  0.5818426E-006  0.2103497E+03  0.7546771E-02  0.1174211E+00
          1   -1    0    0  501    0  0.00000000000E+00  0.00000000000E+00  0.56487895751E+03  0.56487895751E+03  0.00000000000E+00 0. -1.
         -1   -1    0    0    0  501 -0.00000000000E+00 -0.00000000000E+00 -0.42891830233E+02  0.42891830233E+02  0.00000000000E+00 0.  1.
          5    1    1    2  502    0  0.11624854187E+03  0.20402190412E+02  0.17554196070E+03  0.21158223655E+03  0.47000000000E+01 0. -1.
         -5    1    1    2    0  502 -0.83681275812E+02 -0.38494684355E+02  0.13653969689E+03  0.16477128230E+03  0.47000000000E+01 0.  1.
        -11    1    1    2    0    0 -0.48862355057E+02 -0.22400740477E+02  0.11279376432E+03  0.12494701351E+03  0.00000000000E+00 0.  1.
         11    1    1    2    0    0  0.16295089000E+02  0.40493234421E+02  0.97111705371E+02  0.10647025537E+03  0.00000000000E+00 0. -1.
<mgrwt>
<rscale>  0 0.17353441E+03</rscale>
<asrwt>0</asrwt>
<pdfrwt beam="1">  1        1 0.86904450E-01 0.21034973E+03</pdfrwt>
<pdfrwt beam="2">  1       -1 0.65987435E-02 0.21034973E+03</pdfrwt>
<totfact> 0.43642306E+03</totfact>
</mgrwt>
</event>
<event>
 6    1  0.5818426E-006  0.4135453E+03  0.7546771E-02  0.1039923E+00
         -2   -1    0    0    0  501 -0.00000000000E+00  0.00000000000E+00  0.29394452557E+03  0.29394452557E+03  0.00000000000E+00 0.  1.
          2   -1    0    0  501    0  0.00000000000E+00 -0.00000000000E+00 -0.57719981557E+03  0.57719981557E+03  0.00000000000E+00 0. -1.
          5    1    1    2  502    0  0.19449540455E+03  0.32425581461E+03 -0.19493126736E+03  0.42542988223E+03  0.47000000000E+01 0. -1.
         -5    1    1    2    0  502  0.30636700829E+02 -0.66620710998E+00  0.16660443167E+01  0.31047012309E+02  0.47000000000E+01 0. -1.
        -11    1    1    2    0    0 -0.99866495682E+02 -0.16593289639E+03  0.10737287353E+01  0.19367032803E+03  0.00000000000E+00 0.  1.
         11    1    1    2    0    0 -0.12526560970E+03 -0.15765671111E+03 -0.91063795695E+02  0.22099711857E+03  0.00000000000E+00 0. -1.
<mgrwt>
<rscale>  0 0.41133760E+03</rscale>
<asrwt>0</asrwt>
<pdfrwt beam="2">  1        2 0.88799971E-01 0.41354529E+03</pdfrwt>
<pdfrwt beam="1">  1       -2 0.45222235E-01 0.41354529E+03</pdfrwt>
<totfact> 0.24717279E+02</totfact>
</mgrwt>
</event>
<event>
 6    1  0.5818426E-006  0.1521342E+03  0.7546771E-02  0.1206210E+00
          2   -1    0    0  501    0  0.00000000000E+00  0.00000000000E+00  0.93301024039E+02  0.93301024039E+02  0.00000000000E+00 0. -1.
         -2   -1    0    0    0  501 -0.00000000000E+00 -0.00000000000E+00 -0.21828324155E+03  0.21828324155E+03  0.00000000000E+00 0.  1.
          5    1    1    2  502    0 -0.21809396237E+02 -0.99858707626E+02 -0.58326614815E+02  0.11777731211E+03  0.47000000000E+01 0.  1.
         -5    1    1    2    0  502  0.45807701925E+02  0.16499630532E+02 -0.41872480222E+02  0.64389269007E+02  0.47000000000E+01 0.  1.
        -11    1    1    2    0    0 -0.21077538954E+02 -0.16051124713E+02 -0.12214495260E+02  0.29173535051E+02  0.00000000000E+00 0.  1.
         11    1    1    2    0    0 -0.29207667334E+01  0.99410201807E+02 -0.12568627210E+02  0.10024414941E+03  0.00000000000E+00 0. -1.
<mgrwt>
<rscale>  0 0.14542541E+03</rscale>
<asrwt>0</asrwt>
<pdfrwt beam="1">  1        2 0.14354004E-01 0.15213417E+03</pdfrwt>
<pdfrwt beam="2">  1       -2 0.33582037E-01 0.15213417E+03</pdfrwt>
<totfact> 0.32960529E+03</totfact>
</mgrwt>
</event>
<event>
 6    1  0.5818426E-006  0.1417377E+03  0.7546771E-02  0.1221610E+00
         -4   -1    0    0    0  501 -0.00000000000E+00  0.00000000000E+00  0.12566691781E+03  0.12566691781E+03  0.00000000000E+00 0.  1.
          4   -1    0    0  501    0  0.00000000000E+00 -0.00000000000E+00 -0.19048406728E+03  0.19048406728E+03  0.00000000000E+00 0. -1.
          5    1    1    2  502    0 -0.39321508737E+02 -0.29319425457E+02  0.79738225648E+02  0.93734115391E+02  0.47000000000E+01 0. -1.
         -5    1    1    2    0  502  0.36031036987E+02 -0.37416465811E+02 -0.25462498325E+02  0.58040127163E+02  0.47000000000E+01 0. -1.
        -11    1    1    2    0    0 -0.41040873979E+02  0.24502554187E+02 -0.30557294049E+02  0.56731620092E+02  0.00000000000E+00 0.  1.
         11    1    1    2    0    0  0.44331345729E+02  0.42233337081E+02 -0.88535582746E+02  0.10764512245E+03  0.00000000000E+00 0. -1.
<mgrwt>
<rscale>  0 0.13402018E+03</rscale>
<asrwt>0</asrwt>
<pdfrwt beam="2">  1        4 0.29305241E-01 0.14173767E+03</pdfrwt>
<pdfrwt beam="1">  1       -4 0.19333372E-01 0.14173767E+03</pdfrwt>
<totfact> 0.44634778E+02</totfact>
</mgrwt>
</event>
<event>
 6    1  0.5818426E-006  0.2620818E+03  0.7546771E-02  0.1105899E+00
         -4   -1    0    0    0  501 -0.00000000000E+00  0.00000000000E+00  0.61164185380E+02  0.61164185380E+02  0.00000000000E+00 0.  1.
          4   -1    0    0  501    0  0.00000000000E+00 -0.00000000000E+00 -0.28074794098E+03  0.28074794098E+03  0.00000000000E+00 0. -1.
          5    1    1    2  502    0 -0.10469894200E+02 -0.71196599496E+02 -0.98814569012E+01  0.72789474891E+02  0.47000000000E+01 0. -1.
         -5    1    1    2    0  502 -0.10493087316E+01 -0.32835474374E+01 -0.12757833951E+03  0.12771141471E+03  0.47000000000E+01 0. -1.
        -11    1    1    2    0    0  0.19181016595E+02  0.10837593132E+02 -0.73501020924E+02  0.76731772424E+02  0.00000000000E+00 0. -1.
         11    1    1    2    0    0 -0.76618136634E+01  0.63642553801E+02 -0.86229382593E+01  0.64679464339E+02  0.00000000000E+00 0.  1.
<mgrwt>
<rscale>  0 0.26208181E+03</rscale>
<asrwt>0</asrwt>
<pdfrwt beam="2">  1        4 0.43191991E-01 0.26208181E+03</pdfrwt>
<pdfrwt beam="1">  1       -4 0.94098747E-02 0.26208181E+03</pdfrwt>
<totfact> 0.81767152E+02</totfact>
</mgrwt>
</event>
<event>
 6    1  0.5818426E-006  0.2344905E+03  0.7546771E-02  0.1126357E+00
          1   -1    0    0  501    0  0.00000000000E+00  0.00000000000E+00  0.21415754975E+03  0.21415754975E+03  0.00000000000E+00 0. -1.
         -1   -1    0    0    0  501 -0.00000000000E+00 -0.00000000000E+00 -0.28764733744E+03  0.28764733744E+03  0.00000000000E+00 0.  1.
          5    1    1    2  502    0 -0.55593253006E+02  0.11055124558E+03 -0.16054154151E+02  0.12486798447E+03  0.47000000000E+01 0.  1.
         -5    1    1    2    0  502  0.36176955772E+01  0.80912890350E+02 -0.12425080988E+03  0.14839251093E+03  0.47000000000E+01 0.  1.
        -11    1    1    2    0    0  0.27655166371E+02 -0.11445607856E+03 -0.85813194160E+01  0.11806202264E+03  0.00000000000E+00 0.  1.
         11    1    1    2    0    0  0.24320391058E+02 -0.77008057367E+02  0.75396495760E+02  0.11048236915E+03  0.00000000000E+00 0. -1.
<mgrwt>
<rscale>  0 0.23040210E+03</rscale>
<asrwt>0</asrwt>
<pdfrwt beam="1">  1        1 0.32947315E-01 0.23449054E+03</pdfrwt>
<pdfrwt beam="2">  1       -1 0.44253436E-01 0.23449054E+03</pdfrwt>
<totfact> 0.69317800E+02</totfact>
</mgrwt>
</event>
<event>
 6    1  0.5818426E-006  0.1397214E+03  0.7546771E-02  0.1225019E+00
          2   -1    0    0  501    0  0.00000000000E+00  0.00000000000E+00  0.91897052141E+02  0.91897052141E+02  0.00000000000E+00 0. -1.
         -2   -1    0    0    0  501 -0.00000000000E+00 -0.00000000000E+00 -0.18618978375E+03  0.18618978375E+03  0.00000000000E+00 0.  1.
          5    1    1    2  502    0 -0.23036212778E+01 -0.62240172306E+02 -0.97488831321E+02  0.11578129362E+03  0.47000000000E+01 0. -1.
         -5    1    1    2    0  502 -0.46314408657E+02  0.23112658384E+02  0.43220965310E+01  0.52153522846E+02  0.47000000000E+01 0. -1.
        -11    1    1    2    0    0  0.23031888629E+02  0.24359332908E+02 -0.45699637692E+02  0.56677172466E+02  0.00000000000E+00 0.  1.
         11    1    1    2    0    0  0.25586141306E+02  0.14768181014E+02  0.44573640869E+02  0.53474846963E+02  0.00000000000E+00 0. -1.
<mgrwt>
<rscale>  0 0.13165567E+03</rscale>
<asrwt>0</asrwt>
<pdfrwt beam="1">  1        2 0.14138008E-01 0.13972137E+03</pdfrwt>
<pdfrwt beam="2">  1       -2 0.28644582E-01 0.13972137E+03</pdfrwt>
<totfact> 0.44529410E+03</totfact>
</mgrwt>
</event>
<event>
 6    1  0.5818426E-006  0.1514629E+03  0.7546771E-02  0.1207204E+00
          2   -1    0    0  501    0  0.00000000000E+00  0.00000000000E+00  0.19069033632E+03  0.19069033632E+03  0.00000000000E+00 0.  1.
         -2   -1    0    0    0  501 -0.00000000000E+00 -0.00000000000E+00 -0.10276902609E+03  0.10276902609E+03  0.00000000000E+00 0. -1.
          5    1    1    2  502    0 -0.17245569991E+02  0.47967675431E+02  0.44205401693E+02  0.67635161783E+02  0.47000000000E+01 0.  1.
         -5    1    1    2    0  502 -0.68263894898E+02 -0.50432388540E+02 -0.15825886294E+02  0.86463482682E+02  0.47000000000E+01 0.  1.
        -11    1    1    2    0    0  0.27250807748E+02  0.16677107883E+02  0.71409264446E+02  0.78230527922E+02  0.00000000000E+00 0.  1.
         11    1    1    2    0    0  0.58258657141E+02 -0.14212394774E+02 -0.11867469613E+02  0.61130190022E+02  0.00000000000E+00 0. -1.
<mgrwt>
<rscale>  0 0.14465147E+03</rscale>
<asrwt>0</asrwt>
<pdfrwt beam="1">  1        2 0.29336975E-01 0.15146285E+03</pdfrwt>
<pdfrwt beam="2">  1       -2 0.15810619E-01 0.15146285E+03</pdfrwt>
<totfact> 0.54157328E+03</totfact>
</mgrwt>
</event>
<event>
 6    1  0.5818426E-006  0.3317949E+03  0.7546771E-02  0.1070345E+00
          1   -1    0    0  501    0  0.00000000000E+00  0.00000000000E+00  0.56676713226E+02  0.56676713226E+02  0.00000000000E+00 0. -1.
         -1   -1    0    0    0  501 -0.00000000000E+00 -0.00000000000E+00 -0.48559574565E+03  0.48559574565E+03  0.00000000000E+00 0.  1.
          5    1    1    2  502    0 -0.13014289749E+03 -0.39397684004E+02 -0.24618072181E+03  0.28127635710E+03  0.47000000000E+01 0.  1.
         -5    1    1    2    0  502  0.15925788978E+02 -0.11419986157E+02  0.19177425121E+01  0.20243877463E+02  0.47000000000E+01 0.  1.
        -11    1    1    2    0    0  0.15926412482E+02  0.41508809464E+02 -0.19969463341E+02  0.48738191839E+02  0.00000000000E+00 0. -1.
         11    1    1    2    0    0  0.98290696026E+02  0.93088606967E+01 -0.16468658979E+03  0.19201403248E+03  0.00000000000E+00 0.  1.
<mgrwt>
<rscale>  0 0.33179494E+03</rscale>
<asrwt>0</asrwt>
<pdfrwt beam="1">  1        1 0.87194942E-02 0.33179494E+03</pdfrwt>
<pdfrwt beam="2">  1       -1 0.74707039E-01 0.33179494E+03</pdfrwt>
<totfact> 0.14562510E+03</totfact>
</mgrwt>
</event>
<event>
 6    1  0.5818426E-006  0.1256433E+03  0.7546771E-02  0.1250702E+00
         -1   -1    0    0    0  501 -0.00000000000E+00  0.00000000000E+00  0.19747394558E+03  0.19747394558E+03  0.00000000000E+00 0.  1.
          1   -1    0    0  501    0  0.00000000000E+00 -0.00000000000E+00 -0.66698960985E+02  0.66698960985E+02  0.00000000000E+00 0. -1.
          5    1    1    2  502    0  0.83742800172E+01  0.37213495802E+02 -0.60520914617E+01  0.38906177487E+02  0.47000000000E+01 0.  1.
         -5    1    1    2    0  502 -0.12078043716E+01 -0.47568335205E+02  0.12613170221E+03  0.13489070245E+03  0.47000000000E+01 0.  1.
        -11    1    1    2    0    0  0.25211979383E+02  0.15739961172E+02  0.37604663970E+02  0.47932254636E+02  0.00000000000E+00 0.  1.
         11    1    1    2    0    0 -0.32378455029E+02 -0.53851217692E+01 -0.26909290118E+02  0.42443771996E+02  0.00000000000E+00 0. -1.
<mgrwt>
<rscale>  0 0.11550537E+03</rscale>
<asrwt>0</asrwt>
<pdfrwt beam="2">  1        1 0.10261379E-01 0.12564331E+03</pdfrwt>
<pdfrwt beam="1">  1       -1 0.30380607E-01 0.12564331E+03</pdfrwt>
<totfact> 0.58560363E+03</totfact>
</mgrwt>
</event>
<event>
 6    1  0.5818426E-006  0.3394538E+03  0.7546771E-02  0.1067029E+00
          2   -1    0    0  501    0  0.00000000000E+00  0.00000000000E+00  0.10756510937E+04  0.10756510937E+04  0.00000000000E+00 0.  1.
         -2   -1    0    0    0  501 -0.00000000000E+00 -0.00000000000E+00 -0.26781196151E+02  0.26781196151E+02  0.00000000000E+00 0. -1.
          5    1    1    2  502    0  0.25818644311E+02  0.31291861388E+01  0.86039806971E+02  0.90007402938E+02  0.47000000000E+01 0. -1.
         -5    1    1    2    0  502 -0.14688935441E+03  0.36733746982E+02  0.38539064761E+03  0.41409406163E+03  0.47000000000E+01 0. -1.
        -11    1    1    2    0    0  0.30210600506E+02 -0.14734400716E+02  0.38069525043E+02  0.50784561477E+02  0.00000000000E+00 0. -1.
         11    1    1    2    0    0  0.90860109589E+02 -0.25128532405E+02  0.53936991794E+03  0.54754626383E+03  0.00000000000E+00 0.  1.
<mgrwt>
<rscale>  0 0.33945381E+03</rscale>
<asrwt>0</asrwt>
<pdfrwt beam="1">  1        2 0.16548475E+00 0.33945381E+03</pdfrwt>
<pdfrwt beam="2">  1       -2 0.41201849E-02 0.33945381E+03</pdfrwt>
<totfact> 0.62306301E+03</totfact>
</mgrwt>
</event>
<event>
 6    1  0.5818426E-006  0.1890237E+03  0.7546771E-02  0.1165500E+00
         -2   -1    0    0    0  501 -0.00000000000E+00  0.00000000000E+00  0.22709877547E+02  0.22709877547E+02  0.00000000000E+00 0.  1.
          2   -1    0    0  501    0  0.00000000000E+00 -0.00000000000E+00 -0.14612024104E+04  0.14612024104E+04  0.00000000000E+00 0. -1.
          5    1    1    2  502    0  0.40554616522E+02  0.10309735315E+02 -0.47604289206E+03  0.47790155120E+03  0.47000000000E+01 0.  1.
         -5    1    1    2    0  502  0.55992405957E+02 -0.11415322413E+03 -0.47506974053E+03  0.49181242001E+03  0.47000000000E+01 0.  1.
        -11    1    1    2    0    0 -0.53082659764E+02  0.92955836179E+02 -0.23995328116E+03  0.26274728045E+03  0.00000000000E+00 0.  1.
         11    1    1    2    0    0 -0.43464362715E+02  0.10887652636E+02 -0.24742661915E+03  0.25145103633E+03  0.00000000000E+00 0. -1.
<mgrwt>
<rscale>  0 0.18240086E+03</rscale>
<asrwt>0</asrwt>
<pdfrwt beam="2">  1        2 0.22480036E+00 0.18902367E+03</pdfrwt>
<pdfrwt beam="1">  1       -2 0.34938274E-02 0.18902367E+03</pdfrwt>
<totfact> 0.47939379E+03</totfact>
</mgrwt>
</event>
<event>
 6    1  0.5818426E-006  0.1806164E+03  0.7546771E-02  0.1176555E+00
         -1   -1    0    0    0  501 -0.00000000000E+00  0.00000000000E+00  0.27735651702E+02  0.27735651702E+02  0.00000000000E+00 0.  1.
          1   -1    0    0  501    0  0.00000000000E+00 -0.00000000000E+00 -0.96427670149E+03  0.96427670149E+03  0.00000000000E+00 0. -1.
          5    1    1    2  502    0  0.20243702758E+01 -0.42720618346E+02 -0.40227968761E+03  0.40457408020E+03  0.47000000000E+01 0. -1.
         -5    1    1    2    0  502 -0.52708220362E+02 -0.57983427923E+02 -0.88044468573E+02  0.11795826742E+03  0.47000000000E+01 0.  1.
        -11    1    1    2    0    0  0.33619513088E+02  0.11149527350E+03 -0.42287879978E+03  0.43862050451E+03  0.00000000000E+00 0. -1.
         11    1    1    2    0    0  0.17064336998E+02 -0.10791227228E+02 -0.23338093829E+02  0.30859501062E+02  0.00000000000E+00 0.  1.
<mgrwt>
<rscale>  0 0.17124594E+03</rscale>
<asrwt>0</asrwt>
<pdfrwt beam="2">  1        1 0.14835027E+00 0.18061638E+03</pdfrwt>
<pdfrwt beam="1">  1       -1 0.42670231E-02 0.18061638E+03</pdfrwt>
<totfact> 0.37579687E+03</totfact>
</mgrwt>
</event>
<event>
 6    1  0.5818426E-006  0.2420207E+03  0.7546771E-02  0.1121154E+00
          2   -1    0    0  501    0  0.00000000000E+00  0.00000000000E+00  0.90947269201E+03  0.90947269201E+03  0.00000000000E+00 0. -1.
         -2   -1    0    0    0  501 -0.00000000000E+00 -0.00000000000E+00 -0.68100691954E+02  0.68100691954E+02  0.00000000000E+00 0.  1.
          5    1    1    2  502    0 -0.77780132609E+02 -0.34474552582E+02  0.39822154115E+03  0.40723547198E+03  0.47000000000E+01 0.  1.
         -5    1    1    2    0  502 -0.12844844281E+03  0.13991847371E+02  0.20074305293E+03  0.23877738073E+03  0.47000000000E+01 0.  1.
        -11    1    1    2    0    0  0.66062771643E+02  0.34296384820E+02  0.13600703859E+03  0.15504336927E+03  0.00000000000E+00 0. -1.
         11    1    1    2    0    0  0.14016580377E+03 -0.13813679609E+02  0.10640036739E+03  0.17651716197E+03  0.00000000000E+00 0.  1.
<mgrwt>
<rscale>  0 0.23796737E+03</rscale>
<asrwt>0</asrwt>
<pdfrwt beam="1">  1        2 0.13991887E+00 0.24202070E+03</pdfrwt>
<pdfrwt beam="2">  1       -2 0.10477030E-01 0.24202070E+03</pdfrwt>
<totfact> 0.18419548E+03</totfact>
</mgrwt>
</event>
<event>
 6    1  0.5818426E-006  0.1256184E+03  0.7546771E-02  0.1248724E+00
         -2   -1    0    0    0  501 -0.00000000000E+00  0.00000000000E+00  0.12372812718E+03  0.12372812718E+03  0.00000000000E+00 0.  1.
          2   -1    0    0  501    0  0.00000000000E+00 -0.00000000000E+00 -0.10005022103E+03  0.10005022103E+03  0.00000000000E+00 0. -1.
          5    1    1    2  502    0  0.37193960905E+02 -0.13417686557E+02  0.71772448412E+02  0.82078007964E+02  0.47000000000E+01 0. -1.
         -5    1    1    2    0  502 -0.24807454693E+02  0.12238800266E+02 -0.38718399872E+02  0.47816341651E+02  0.47000000000E+01 0. -1.
        -11    1    1    2    0    0  0.93101511505E+01  0.35797561971E+02 -0.30453219073E+02  0.47911824318E+02  0.00000000000E+00 0. -1.
         11    1    1    2    0    0 -0.21696657362E+02 -0.34618675680E+02  0.21077076674E+02  0.45972174276E+02  0.00000000000E+00 0.  1.
<mgrwt>
<rscale>  0 0.11665237E+03</rscale>
<asrwt>0</asrwt>
<pdfrwt beam="2">  1        2 0.15392342E-01 0.12561836E+03</pdfrwt>
<pdfrwt beam="1">  1       -2 0.19035096E-01 0.12561836E+03</pdfrwt>
<totfact> 0.81092356E+03</totfact>
</mgrwt>
</event>
<event>
 6    1  0.5818426E-006  0.1394199E+03  0.7546771E-02  0.1231109E+00
          2   -1    0    0  501    0  0.00000000000E+00  0.00000000000E+00  0.10713281961E+04  0.10713281961E+04  0.00000000000E+00 0. -1.
         -2   -1    0    0    0  501 -0.00000000000E+00 -0.00000000000E+00 -0.13673264046E+02  0.13673264046E+02  0.00000000000E+00 0.  1.
          5    1    1    2  502    0 -0.42733251086E+01  0.37342252237E+02  0.31788070329E+03  0.32012956226E+03  0.47000000000E+01 0.  1.
         -5    1    1    2    0  502  0.64968309633E+02 -0.48687638467E+02  0.19300425641E+03  0.20943758113E+03  0.47000000000E+01 0.  1.
        -11    1    1    2    0    0 -0.74075482569E+02 -0.75215476594E+01  0.42928319457E+03  0.43569233633E+03  0.00000000000E+00 0. -1.
         11    1    1    2    0    0  0.13380498044E+02  0.18866933890E+02  0.11748677781E+03  0.11974198045E+03  0.00000000000E+00 0.  1.
<mgrwt>
<rscale>  0 0.12756848E+03</rscale>
<asrwt>0</asrwt>
<pdfrwt beam="1">  1        2 0.16481966E+00 0.13941993E+03</pdfrwt>
<pdfrwt beam="2">  1       -2 0.21035799E-02 0.13941993E+03</pdfrwt>
<totfact> 0.16369351E+04</totfact>
</mgrwt>
</event>
<event>
 6    1  0.5818426E-006  0.6930130E+03  0.7546771E-02  0.9729256E-01
         -3   -1    0    0    0  501 -0.00000000000E+00  0.00000000000E+00  0.11847634366E+04  0.11847634366E+04  0.00000000000E+00 0.  1.
          3   -1    0    0  501    0  0.00000000000E+00 -0.00000000000E+00 -0.10134238346E+03  0.10134238346E+03  0.00000000000E+00 0. -1.
          5    1    1    2  502    0 -0.21715407025E+01 -0.14371810526E+02  0.51493045643E+02  0.53711155977E+02  0.47000000000E+01 0. -1.
         -5    1    1    2    0  502  0.50301809511E+02  0.19761475216E+03  0.97225858369E+03  0.99342372927E+03  0.47000000000E+01 0.  1.
        -11    1    1    2    0    0  0.21388407420E+02 -0.13992390301E+03  0.72742067887E+01  0.14173594001E+03  0.00000000000E+00 0.  1.
         11    1    1    2    0    0 -0.69518676229E+02 -0.43319038628E+02  0.52395217041E+02  0.97234994837E+02  0.00000000000E+00 0. -1.
<mgrwt>
<rscale>  0 0.69301299E+03</rscale>
<asrwt>0</asrwt>
<pdfrwt beam="2">  1        3 0.15591137E-01 0.69301299E+03</pdfrwt>
<pdfrwt beam="1">  1       -3 0.18227129E+00 0.69301299E+03</pdfrwt>
<totfact> 0.18116989E+01</totfact>
</mgrwt>
</event>
<event>
 6    1  0.5818426E-006  0.1280102E+03  0.7546771E-02  0.1244625E+00
         -3   -1    0    0    0  501 -0.00000000000E+00  0.00000000000E+00  0.23658853346E+03  0.23658853346E+03  0.00000000000E+00 0.  1.
          3   -1    0    0  501    0  0.00000000000E+00 -0.00000000000E+00 -0.53941866829E+02  0.53941866829E+02  0.00000000000E+00 0. -1.
          5    1    1    2  502    0  0.55417872173E+02  0.52824005185E+02  0.64597604244E+02  0.10028188547E+03  0.47000000000E+01 0. -1.
         -5    1    1    2    0  502 -0.40743649585E+02 -0.29448357184E+02  0.59058072118E+02  0.77699398998E+02  0.47000000000E+01 0. -1.
        -11    1    1    2    0    0  0.10363052519E+02  0.24952668449E+02  0.50757816048E+02  0.57501168773E+02  0.00000000000E+00 0.  1.
         11    1    1    2    0    0 -0.25037275107E+02 -0.48328316451E+02  0.82331742168E+01  0.55047947041E+02  0.00000000000E+00 0. -1.
<mgrwt>
<rscale>  0 0.11907821E+03</rscale>
<asrwt>0</asrwt>
<pdfrwt beam="2">  1        3 0.82987489E-02 0.12801020E+03</pdfrwt>
<pdfrwt beam="1">  1       -3 0.36398235E-01 0.12801020E+03</pdfrwt>
<totfact> 0.17008190E+03</totfact>
</mgrwt>
</event>
<event>
 6    1  0.5818426E-006  0.2089841E+03  0.7546771E-02  0.1146313E+00
         -2   -1    0    0    0  501 -0.00000000000E+00  0.00000000000E+00  0.13979093681E+03  0.13979093681E+03  0.00000000000E+00 0.  1.
          2   -1    0    0  501    0  0.00000000000E+00 -0.00000000000E+00 -0.55465815045E+03  0.55465815045E+03  0.00000000000E+00 0. -1.
          5    1    1    2  502    0  0.56238241182E+02 -0.32940576162E+02 -0.25614768163E+02  0.70185665753E+02  0.47000000000E+01 0. -1.
         -5    1    1    2    0  502  0.10601374119E+03  0.74451977079E+02  0.55152829513E+02  0.14087560049E+03  0.47000000000E+01 0. -1.
        -11    1    1    2    0    0 -0.13239712898E+03  0.75051348139E+01 -0.30046433376E+03  0.32842676911E+03  0.00000000000E+00 0.  1.
         11    1    1    2    0    0 -0.29854853390E+02 -0.49016535731E+02 -0.14394094123E+03  0.15496105191E+03  0.00000000000E+00 0. -1.
<mgrwt>
<rscale>  0 0.20411510E+03</rscale>
<asrwt>0</asrwt>
<pdfrwt beam="2">  1        2 0.85332024E-01 0.20898412E+03</pdfrwt>
<pdfrwt beam="1">  1       -2 0.21506298E-01 0.20898412E+03</pdfrwt>
<totfact> 0.10250498E+03</totfact>
</mgrwt>
</event>
<event>
 6    1  0.5818426E-006  0.3147567E+03  0.7546771E-02  0.1078088E+00
          3   -1    0    0  501    0  0.00000000000E+00  0.00000000000E+00  0.24668329121E+03  0.24668329121E+03  0.00000000000E+00 0. -1.
         -3   -1    0    0    0  501 -0.00000000000E+00 -0.00000000000E+00 -0.10040384661E+03  0.10040384661E+03  0.00000000000E+00 0.  1.
          5    1    1    2  502    0 -0.90951988674E+01 -0.20359546145E+01 -0.35660822637E+02  0.37157126164E+02  0.47000000000E+01 0.  1.
         -5    1    1    2    0  502 -0.87471321131E+02  0.55260013411E+02  0.92755547849E+02  0.13903446608E+03  0.47000000000E+01 0.  1.
        -11    1    1    2    0    0  0.12799564056E+02 -0.52290258129E+02  0.63554447412E+02  0.83290261862E+02  0.00000000000E+00 0. -1.
         11    1    1    2    0    0  0.83766955942E+02 -0.93380066726E+00  0.25630271984E+02  0.87605283708E+02  0.00000000000E+00 0.  1.
<mgrwt>
<rscale>  0 0.31475674E+03</rscale>
<asrwt>0</asrwt>
<pdfrwt beam="1">  1        3 0.37951275E-01 0.31475674E+03</pdfrwt>
<pdfrwt beam="2">  1       -3 0.15446746E-01 0.31475674E+03</pdfrwt>
<totfact> 0.62427095E+02</totfact>
</mgrwt>
</event>
<event>
 6    1  0.5818426E-006  0.1397815E+03  0.7546771E-02  0.1224759E+00
         -2   -1    0    0    0  501 -0.00000000000E+00  0.00000000000E+00  0.71300982085E+02  0.71300982085E+02  0.00000000000E+00 0. -1.
          2   -1    0    0  501    0  0.00000000000E+00 -0.00000000000E+00 -0.23311044602E+03  0.23311044602E+03  0.00000000000E+00 0.  1.
          5    1    1    2  502    0 -0.16082406056E+02  0.84104312316E+02  0.64993433519E+00  0.85759498304E+02  0.47000000000E+01 0.  1.
         -5    1    1    2    0  502  0.25018890858E+02 -0.22205450150E+02 -0.54328881400E+02  0.63974559555E+02  0.47000000000E+01 0.  1.
        -11    1    1    2    0    0  0.23777875690E+01 -0.13023833350E+02  0.16014919925E+02  0.20778637325E+02  0.00000000000E+00 0. -1.
         11    1    1    2    0    0 -0.11314272371E+02 -0.48875028816E+02 -0.12414543679E+03  0.13389873292E+03  0.00000000000E+00 0.  1.
<mgrwt>
<rscale>  0 0.13183426E+03</rscale>
<asrwt>0</asrwt>
<pdfrwt beam="2">  1        2 0.35863145E-01 0.13978147E+03</pdfrwt>
<pdfrwt beam="1">  1       -2 0.10969382E-01 0.13978147E+03</pdfrwt>
<totfact> 0.78277452E+03</totfact>
</mgrwt>
</event>
<event>
 6    1  0.5818426E-006  0.3407998E+03  0.7546771E-02  0.1066456E+00
          2   -1    0    0  501    0  0.00000000000E+00  0.00000000000E+00  0.37225487709E+03  0.37225487709E+03  0.00000000000E+00 0. -1.
         -2   -1    0    0    0  501 -0.00000000000E+00 -0.00000000000E+00 -0.78000676843E+02  0.78000676843E+02  0.00000000000E+00 0.  1.
          5    1    1    2  502    0  0.56774419614E+02  0.10437912539E+03  0.63991837397E+02  0.13503844561E+03  0.47000000000E+01 0. -1.
         -5    1    1    2    0  502 -0.29897352018E+01 -0.19019631792E+02 -0.21264947079E+02  0.29068417301E+02  0.47000000000E+01 0.  1.
        -11    1    1    2    0    0 -0.29844271666E+02 -0.82432031792E+01  0.11709589445E+02  0.33102045781E+02  0.00000000000E+00 0.  1.
         11    1    1    2    0    0 -0.23940412746E+02 -0.77116290417E+02  0.23981772048E+03  0.25304664524E+03  0.00000000000E+00 0. -1.
<mgrwt>
<rscale>  0 0.34079984E+03</rscale>
<asrwt>0</asrwt>
<pdfrwt beam="1">  1        2 0.57269980E-01 0.34079984E+03</pdfrwt>
<pdfrwt beam="2">  1       -2 0.12000104E-01 0.34079984E+03</pdfrwt>
<totfact> 0.42822525E+03</totfact>
</mgrwt>
</event>
<event>
 6    1  0.5818426E-006  0.1370077E+03  0.7546771E-02  0.1229974E+00
          1   -1    0    0  501    0  0.00000000000E+00  0.00000000000E+00  0.12652405479E+03  0.12652405479E+03  0.00000000000E+00 0. -1.
         -1   -1    0    0    0  501 -0.00000000000E+00 -0.00000000000E+00 -0.13075848616E+03  0.13075848616E+03  0.00000000000E+00 0.  1.
          5    1    1    2  502    0 -0.54566720958E+02  0.40945598535E+02 -0.37880599721E+02  0.78173517963E+02  0.47000000000E+01 0. -1.
         -5    1    1    2    0  502  0.29442662652E+02 -0.58506173853E+02 -0.71935051738E+01  0.66058150743E+02  0.47000000000E+01 0.  1.
        -11    1    1    2    0    0 -0.37181953442E+02  0.21288045569E+02  0.13631076019E+02  0.44960925028E+02  0.00000000000E+00 0. -1.
         11    1    1    2    0    0  0.62306011748E+02 -0.37274702509E+01  0.27208597503E+02  0.68089947220E+02  0.00000000000E+00 0.  1.
<mgrwt>
<rscale>  0 0.12831744E+03</rscale>
<asrwt>0</asrwt>
<pdfrwt beam="1">  1        1 0.19465239E-01 0.13700766E+03</pdfrwt>
<pdfrwt beam="2">  1       -1 0.20116690E-01 0.13700766E+03</pdfrwt>
<totfact> 0.50470254E+03</totfact>
</mgrwt>
</event>
<event>
 6    1  0.5818426E-006  0.1505036E+03  0.7546771E-02  0.1209467E+00
          2   -1    0    0  501    0  0.00000000000E+00  0.00000000000E+00  0.33215677324E+03  0.33215677324E+03  0.00000000000E+00 0. -1.
         -2   -1    0    0    0  501 -0.00000000000E+00 -0.00000000000E+00 -0.56296449546E+02  0.56296449546E+02  0.00000000000E+00 0.  1.
          5    1    1    2  502    0  0.26731576610E+02 -0.10161377647E+03  0.16823728059E+03  0.19840818869E+03  0.47000000000E+01 0. -1.
         -5    1    1    2    0  502 -0.16091873080E+02  0.18466439111E+02 -0.29727146457E+01  0.25117419952E+02  0.47000000000E+01 0. -1.
        -11    1    1    2    0    0  0.16913052173E+02  0.10836277650E+02 -0.93739592321E+01  0.22166356462E+02  0.00000000000E+00 0.  1.
         11    1    1    2    0    0 -0.27552755704E+02  0.72311059712E+02  0.11996971698E+03  0.14276125769E+03  0.00000000000E+00 0. -1.
<mgrwt>
<rscale>  0 0.14290970E+03</rscale>
<asrwt>0</asrwt>
<pdfrwt beam="1">  1        2 0.51101041E-01 0.15050356E+03</pdfrwt>
<pdfrwt beam="2">  1       -2 0.86609924E-02 0.15050356E+03</pdfrwt>
<totfact> 0.78215885E+03</totfact>
</mgrwt>
</event>
<event>
 6    1  0.5818426E-006  0.1407466E+03  0.7546771E-02  0.1223300E+00
         -1   -1    0    0    0  501 -0.00000000000E+00  0.00000000000E+00  0.21234359672E+02  0.21234359672E+02  0.00000000000E+00 0.  1.
          1   -1    0    0  501    0  0.00000000000E+00 -0.00000000000E+00 -0.75072746594E+03  0.75072746594E+03  0.00000000000E+00 0. -1.
          5    1    1    2  502    0 -0.81727513664E+02 -0.11013777725E+02 -0.19804329601E+03  0.21457848654E+03  0.47000000000E+01 0.  1.
         -5    1    1    2    0  502  0.28682559771E+02  0.47617524331E+02 -0.19907107410E+03  0.20674017607E+03  0.47000000000E+01 0.  1.
        -11    1    1    2    0    0  0.22290390723E+02 -0.65645846640E+02 -0.20059786321E+03  0.21223982054E+03  0.00000000000E+00 0.  1.
         11    1    1    2    0    0  0.30754563171E+02  0.29042100033E+02 -0.13178087294E+03  0.13840334246E+03  0.00000000000E+00 0. -1.
<mgrwt>
<rscale>  0 0.13284139E+03</rscale>
<asrwt>0</asrwt>
<pdfrwt beam="2">  1        1 0.11549652E+00 0.14074655E+03</pdfrwt>
<pdfrwt beam="1">  1       -1 0.32668250E-02 0.14074655E+03</pdfrwt>
<totfact> 0.81443810E+03</totfact>
</mgrwt>
</event>
<event>
 6    1  0.5818426E-006  0.1416232E+03  0.7546771E-02  0.1221625E+00
          1   -1    0    0  501    0  0.00000000000E+00  0.00000000000E+00  0.34788958846E+02  0.34788958846E+02  0.00000000000E+00 0. -1.
         -1   -1    0    0    0  501 -0.00000000000E+00 -0.00000000000E+00 -0.51846096987E+03  0.51846096987E+03  0.00000000000E+00 0.  1.
          5    1    1    2  502    0 -0.64099732280E+02 -0.52016898602E+02 -0.19477765748E+03  0.21160094345E+03  0.47000000000E+01 0. -1.
         -5    1    1    2    0  502  0.56773981208E+02 -0.14153593147E+02 -0.15701664886E+03  0.16763032888E+03  0.47000000000E+01 0. -1.
        -11    1    1    2    0    0  0.38784596199E+02  0.15922126917E+02 -0.17984908486E+02  0.45620345912E+02  0.00000000000E+00 0. -1.
         11    1    1    2    0    0 -0.31458845127E+02  0.50248364831E+02 -0.11389279621E+03  0.12839831048E+03  0.00000000000E+00 0.  1.
<mgrwt>
<rscale>  0 0.13400950E+03</rscale>
<asrwt>0</asrwt>
<pdfrwt beam="1">  1        1 0.53521477E-02 0.14162318E+03</pdfrwt>
<pdfrwt beam="2">  1       -1 0.79763223E-01 0.14162318E+03</pdfrwt>
<totfact> 0.24105479E+03</totfact>
</mgrwt>
</event>
<event>
 6    1  0.5818426E-006  0.3135386E+03  0.7546771E-02  0.1078662E+00
         -1   -1    0    0    0  501 -0.00000000000E+00  0.00000000000E+00  0.23248824309E+03  0.23248824309E+03  0.00000000000E+00 0.  1.
          1   -1    0    0  501    0  0.00000000000E+00 -0.00000000000E+00 -0.10571119287E+03  0.10571119287E+03  0.00000000000E+00 0. -1.
          5    1    1    2  502    0  0.46108195444E+02 -0.10235236416E+03  0.25291047592E+02  0.11516813459E+03  0.47000000000E+01 0.  1.
         -5    1    1    2    0  502  0.24151227755E+02  0.16472028889E+02  0.72898037074E+02  0.78681785357E+02  0.47000000000E+01 0.  1.
        -11    1    1    2    0    0 -0.46998493055E+02  0.39591383130E+02 -0.28086212614E+02  0.67566051436E+02  0.00000000000E+00 0. -1.
         11    1    1    2    0    0 -0.23260930144E+02  0.46288952143E+02  0.56674178172E+02  0.76783464581E+02  0.00000000000E+00 0.  1.
<mgrwt>
<rscale>  0 0.31353858E+03</rscale>
<asrwt>0</asrwt>
<pdfrwt beam="2">  1        1 0.16263261E-01 0.31353858E+03</pdfrwt>
<pdfrwt beam="1">  1       -1 0.35767422E-01 0.31353858E+03</pdfrwt>
<totfact> 0.25224943E+03</totfact>
</mgrwt>
</event>
<event>
 6    1  0.5818426E-006  0.1439982E+03  0.7546771E-02  0.1218283E+00
         -1   -1    0    0    0  501 -0.00000000000E+00  0.00000000000E+00  0.37989822346E+02  0.37989822346E+02  0.00000000000E+00 0.  1.
          1   -1    0    0  501    0  0.00000000000E+00 -0.00000000000E+00 -0.44898970721E+03  0.44898970721E+03  0.00000000000E+00 0. -1.
          5    1    1    2  502    0  0.49701296041E+02  0.73776686575E+02 -0.15048201584E+03  0.17487179704E+03  0.47000000000E+01 0.  1.
         -5    1    1    2    0  502  0.17345896274E+02 -0.48958679902E+02 -0.52510621437E+02  0.74008700968E+02  0.47000000000E+01 0.  1.
        -11    1    1    2    0    0 -0.85959810520E+02 -0.15935386106E+02 -0.12524176171E+03  0.15273678153E+03  0.00000000000E+00 0.  1.
         11    1    1    2    0    0  0.18912618205E+02 -0.88826205663E+01 -0.82765485874E+02  0.85362250014E+02  0.00000000000E+00 0. -1.
<mgrwt>
<rscale>  0 0.13638093E+03</rscale>
<asrwt>0</asrwt>
<pdfrwt beam="2">  1        1 0.69075338E-01 0.14399823E+03</pdfrwt>
<pdfrwt beam="1">  1       -1 0.58445882E-02 0.14399823E+03</pdfrwt>
<totfact> 0.69571864E+03</totfact>
</mgrwt>
</event>
<event>
 6    1  0.5818426E-006  0.1279471E+03  0.7546771E-02  0.1244901E+00
          1   -1    0    0  501    0  0.00000000000E+00  0.00000000000E+00  0.51599433225E+02  0.51599433225E+02  0.00000000000E+00 0. -1.
         -1   -1    0    0    0  501 -0.00000000000E+00 -0.00000000000E+00 -0.24222763905E+03  0.24222763905E+03  0.00000000000E+00 0.  1.
          5    1    1    2  502    0  0.40950032387E+02  0.65060995199E+02 -0.60514963546E+02  0.97948910468E+02  0.47000000000E+01 0. -1.
         -5    1    1    2    0  502 -0.29545102168E+02 -0.40298128268E+02 -0.54579207440E+02  0.74147367376E+02  0.47000000000E+01 0. -1.
        -11    1    1    2    0    0 -0.29756692152E+02  0.22016500253E+01 -0.83059903360E+02  0.88256759157E+02  0.00000000000E+00 0.  1.
         11    1    1    2    0    0  0.18351761933E+02 -0.26964516956E+02  0.75258685192E+01  0.33474035277E+02  0.00000000000E+00 0. -1.
<mgrwt>
<rscale>  0 0.11891331E+03</rscale>
<asrwt>0</asrwt>
<pdfrwt beam="1">  1        1 0.79383745E-02 0.12794710E+03</pdfrwt>
<pdfrwt beam="2">  1       -1 0.37265790E-01 0.12794710E+03</pdfrwt>
<totfact> 0.58254854E+03</totfact>
</mgrwt>
</event>
<event>
 6    1  0.7390122E-006  0.2378735E+03  0.7546771E-02  0.1123972E+00
          1   -1    0    0  501    0  0.00000000000E+00  0.00000000000E+00  0.11271786659E+03  0.11271786659E+03  0.00000000000E+00 0. -1.
         -1   -1    0    0    0  501 -0.00000000000E+00 -0.00000000000E+00 -0.49539346621E+03  0.49539346621E+03  0.00000000000E+00 0.  1.
          5    1    1    2  502    0 -0.78943318786E+02  0.58449945930E+00 -0.49270233308E+02  0.93177438851E+02  0.47000000000E+01 0. -1.
         -5    1    1    2    0  502 -0.78541335133E+02 -0.12769328508E+03 -0.21804848673E+03  0.26465363959E+03  0.47000000000E+01 0. -1.
        -11    1    1    2    0    0  0.10749913273E+03  0.60586034231E+02 -0.22209772553E+02  0.12537944440E+03  0.00000000000E+00 0.  1.
         11    1    1    2    0    0  0.49985521189E+02  0.66522751392E+02 -0.93147107026E+02  0.12490080996E+03  0.00000000000E+00 0. -1.
<mgrwt>
<rscale>  0 0.23383078E+03</rscale>
<asrwt>0</asrwt>
<pdfrwt beam="1">  1        1 0.17341211E-01 0.23787346E+03</pdfrwt>
<pdfrwt beam="2">  1       -1 0.76214376E-01 0.23787346E+03</pdfrwt>
<totfact> 0.55605049E+02</totfact>
</mgrwt>
</event>
<event>
 6    1  0.5818426E-006  0.3700799E+03  0.7546771E-02  0.1054662E+00
          2   -1    0    0  501    0  0.00000000000E+00  0.00000000000E+00  0.70217240616E+02  0.70217240616E+02  0.00000000000E+00 0. -1.
         -2   -1    0    0    0  501 -0.00000000000E+00 -0.00000000000E+00 -0.48762634661E+03  0.48762634661E+03  0.00000000000E+00 0.  1.
          5    1    1    2  502    0  0.26525519785E+02 -0.96835125941E+01  0.40803420426E+01  0.28915615283E+02  0.47000000000E+01 0.  1.
         -5    1    1    2    0  502  0.87225244423E+02 -0.69149438177E+02 -0.30948077230E+03  0.32892297957E+03  0.47000000000E+01 0.  1.
        -11    1    1    2    0    0 -0.55775303737E+02  0.28123755399E+02  0.19069514156E+01  0.62493732393E+02  0.00000000000E+00 0. -1.
         11    1    1    2    0    0 -0.57975460471E+02  0.50709195372E+02 -0.11391562715E+03  0.13751125998E+03  0.00000000000E+00 0.  1.
<mgrwt>
<rscale>  0 0.37007986E+03</rscale>
<asrwt>0</asrwt>
<pdfrwt beam="1">  1        2 0.10802652E-01 0.37007986E+03</pdfrwt>
<pdfrwt beam="2">  1       -2 0.75019437E-01 0.37007986E+03</pdfrwt>
<totfact> 0.96081812E+02</totfact>
</mgrwt>
</event>
<event>
 6    1  0.5818426E-006  0.1575049E+03  0.7546771E-02  0.1199739E+00
         -2   -1    0    0    0  501 -0.00000000000E+00  0.00000000000E+00  0.40566257290E+02  0.40566257290E+02  0.00000000000E+00 0. -1.
          2   -1    0    0  501    0  0.00000000000E+00 -0.00000000000E+00 -0.52621862047E+03  0.52621862047E+03  0.00000000000E+00 0.  1.
          5    1    1    2  502    0  0.26285965812E+02 -0.27221014855E+02 -0.17377626761E+03  0.17791069904E+03  0.47000000000E+01 0. -1.
         -5    1    1    2    0  502 -0.47143882253E+02 -0.66305882806E+02 -0.49564882615E+02  0.95382300859E+02  0.47000000000E+01 0. -1.
        -11    1    1    2    0    0 -0.29468913434E+02  0.36787777840E+02 -0.15554146725E+03  0.16252663010E+03  0.00000000000E+00 0.  1.
         11    1    1    2    0    0  0.50326829874E+02  0.56739119821E+02 -0.10676974570E+03  0.13096524776E+03  0.00000000000E+00 0. -1.
<mgrwt>
<rscale>  0 0.15059874E+03</rscale>
<asrwt>0</asrwt>
<pdfrwt beam="2">  1        2 0.80956711E-01 0.15750490E+03</pdfrwt>
<pdfrwt beam="1">  1       -2 0.62409627E-02 0.15750490E+03</pdfrwt>
<totfact> 0.78997076E+03</totfact>
</mgrwt>
</event>
<event>
 6    1  0.5818426E-006  0.1562962E+03  0.7546771E-02  0.1199501E+00
         -1   -1    0    0    0  501 -0.00000000000E+00  0.00000000000E+00  0.80303422382E+02  0.80303422382E+02  0.00000000000E+00 0.  1.
          1   -1    0    0  501    0  0.00000000000E+00 -0.00000000000E+00 -0.27366426295E+03  0.27366426295E+03  0.00000000000E+00 0. -1.
          5    1    1    2  502    0  0.44410729453E+02 -0.58384966766E+02  0.10101914440E+02  0.74197411748E+02  0.47000000000E+01 0. -1.
         -5    1    1    2    0  502  0.44670362824E+02  0.28920859137E+02 -0.81942431276E+02  0.97818758178E+02  0.47000000000E+01 0. -1.
        -11    1    1    2    0    0 -0.33633218975E+02  0.27834988030E+02  0.48656564109E+01  0.43927833882E+02  0.00000000000E+00 0.  1.
         11    1    1    2    0    0 -0.55447873302E+02  0.16291195987E+01 -0.12638598014E+03  0.13802368152E+03  0.00000000000E+00 0. -1.
<mgrwt>
<rscale>  0 0.15079390E+03</rscale>
<asrwt>0</asrwt>
<pdfrwt beam="2">  1        1 0.42102194E-01 0.15629620E+03</pdfrwt>
<pdfrwt beam="1">  1       -1 0.12354373E-01 0.15629620E+03</pdfrwt>
<totfact> 0.41753312E+03</totfact>
</mgrwt>
</event>
<event>
 6    1  0.5818426E-006  0.1428862E+03  0.7546771E-02  0.1220196E+00
         -2   -1    0    0    0  501 -0.00000000000E+00  0.00000000000E+00  0.41212642347E+03  0.41212642347E+03  0.00000000000E+00 0.  1.
          2   -1    0    0  501    0  0.00000000000E+00 -0.00000000000E+00 -0.42189941769E+02  0.42189941769E+02  0.00000000000E+00 0. -1.
          5    1    1    2  502    0 -0.41971661823E+02  0.34045443010E+02  0.10997949886E+03  0.12263071701E+03  0.47000000000E+01 0. -1.
         -5    1    1    2    0  502  0.85796607833E+02  0.19534338390E+02  0.14616784608E+03  0.17067447823E+03  0.47000000000E+01 0. -1.
        -11    1    1    2    0    0  0.31330109521E+01  0.22265575062E+02  0.11388757998E+02  0.25204670187E+02  0.00000000000E+00 0.  1.
         11    1    1    2    0    0 -0.46957956963E+02 -0.75845356462E+02  0.10240037876E+03  0.13580649981E+03  0.00000000000E+00 0. -1.
<mgrwt>
<rscale>  0 0.13501687E+03</rscale>
<asrwt>0</asrwt>
<pdfrwt beam="2">  1        2 0.64907605E-02 0.14288623E+03</pdfrwt>
<pdfrwt beam="1">  1       -2 0.63404063E-01 0.14288623E+03</pdfrwt>
<totfact> 0.25273829E+03</totfact>
</mgrwt>
</event>
<event>
 6    1  0.5818426E-006  0.1518300E+03  0.7546771E-02  0.1207343E+00
         -2   -1    0    0    0  501 -0.00000000000E+00  0.00000000000E+00  0.36906087616E+02  0.36906087616E+02  0.00000000000E+00 0. -1.
          2   -1    0    0  501    0  0.00000000000E+00 -0.00000000000E+00 -0.56531081118E+03  0.56531081118E+03  0.00000000000E+00 0.  1.
          5    1    1    2  502    0  0.70685988559E+02 -0.10573011520E+02 -0.26739679346E+02  0.76455202587E+02  0.47000000000E+01 0.  1.
         -5    1    1    2    0  502  0.15459796964E+02  0.11610491649E+02 -0.17452491818E+03  0.17565547502E+03  0.47000000000E+01 0.  1.
        -11    1    1    2    0    0 -0.23405906950E+02 -0.56163876291E+01 -0.88287943992E+01  0.25638406751E+02  0.00000000000E+00 0. -1.
         11    1    1    2    0    0 -0.62739878573E+02  0.45789075006E+01 -0.31831133164E+03  0.32446781444E+03  0.00000000000E+00 0.  1.
<mgrwt>
<rscale>  0 0.14454313E+03</rscale>
<asrwt>0</asrwt>
<pdfrwt beam="2">  1        2 0.86970891E-01 0.15183002E+03</pdfrwt>
<pdfrwt beam="1">  1       -2 0.56778598E-02 0.15183002E+03</pdfrwt>
<totfact> 0.83988823E+03</totfact>
</mgrwt>
</event>
<event>
 6    1  0.5818426E-006  0.6999907E+03  0.7546771E-02  0.9717248E-01
         -2   -1    0    0    0  501 -0.00000000000E+00  0.00000000000E+00  0.75530900211E+02  0.75530900211E+02  0.00000000000E+00 0.  1.
          2   -1    0    0  501    0  0.00000000000E+00 -0.00000000000E+00 -0.16218094744E+04  0.16218094744E+04  0.00000000000E+00 0. -1.
          5    1    1    2  502    0 -0.12476096876E+03 -0.19728114525E+03 -0.15094206007E+03  0.27801213120E+03  0.47000000000E+01 0. -1.
         -5    1    1    2    0  502  0.13092617637E+01 -0.30002873742E+01 -0.64653026752E+02  0.64906238212E+02  0.47000000000E+01 0. -1.
        -11    1    1    2    0    0 -0.31087247464E+01  0.40459382042E+02 -0.11951056183E+03  0.12621172748E+03  0.00000000000E+00 0.  1.
         11    1    1    2    0    0  0.12656043174E+03  0.15982205058E+03 -0.12111729255E+04  0.12282102777E+04  0.00000000000E+00 0. -1.
<mgrwt>
<rscale>  0 0.69999066E+03</rscale>
<asrwt>0</asrwt>
<pdfrwt beam="2">  1        2 0.24950914E+00 0.69999066E+03</pdfrwt>
<pdfrwt beam="1">  1       -2 0.11620139E-01 0.69999066E+03</pdfrwt>
<totfact> 0.59218266E+02</totfact>
</mgrwt>
</event>
<event>
 6    1  0.5818426E-006  0.1302818E+03  0.7546771E-02  0.1240754E+00
         -2   -1    0    0    0  501 -0.00000000000E+00  0.00000000000E+00  0.19781801239E+02  0.19781801239E+02  0.00000000000E+00 0.  1.
          2   -1    0    0  501    0  0.00000000000E+00 -0.00000000000E+00 -0.66257513147E+03  0.66257513147E+03  0.00000000000E+00 0. -1.
          5    1    1    2  502    0 -0.62751377033E+02  0.25821510615E+02 -0.19747006246E+03  0.20885641311E+03  0.47000000000E+01 0.  1.
         -5    1    1    2    0  502  0.60658906080E+02  0.10836743849E+02 -0.14970037808E+03  0.16195441057E+03  0.47000000000E+01 0.  1.
        -11    1    1    2    0    0 -0.32451234221E+02  0.15082735902E+02 -0.12047721619E+03  0.12567947782E+03  0.00000000000E+00 0.  1.
         11    1    1    2    0    0  0.34543705175E+02 -0.51740990365E+02 -0.17514567350E+03  0.18586663121E+03  0.00000000000E+00 0. -1.
<mgrwt>
<rscale>  0 0.12143124E+03</rscale>
<asrwt>0</asrwt>
<pdfrwt beam="2">  1        2 0.10193463E+00 0.13028182E+03</pdfrwt>
<pdfrwt beam="1">  1       -2 0.30433542E-02 0.13028182E+03</pdfrwt>
<totfact> 0.17552171E+04</totfact>
</mgrwt>
</event>
<event>
 6    1  0.5818426E-006  0.1406131E+03  0.7546771E-02  0.1223618E+00
          1   -1    0    0  501    0  0.00000000000E+00  0.00000000000E+00  0.38917183633E+02  0.38917183633E+02  0.00000000000E+00 0. -1.
         -1   -1    0    0    0  501 -0.00000000000E+00 -0.00000000000E+00 -0.57420497383E+03  0.57420497383E+03  0.00000000000E+00 0.  1.
          5    1    1    2  502    0  0.59491140625E+02 -0.60730032184E+02 -0.20818295180E+03  0.22492123964E+03  0.47000000000E+01 0.  1.
         -5    1    1    2    0  502 -0.47137002899E+02 -0.24883870972E+01 -0.24594483859E+03  0.25047762922E+03  0.47000000000E+01 0.  1.
        -11    1    1    2    0    0 -0.51385598713E+02  0.41978361685E+02 -0.54801805290E+02  0.86057541610E+02  0.00000000000E+00 0.  1.
         11    1    1    2    0    0  0.39031460987E+02  0.21240057596E+02 -0.26358194515E+02  0.51665746985E+02  0.00000000000E+00 0. -1.
<mgrwt>
<rscale>  0 0.13262111E+03</rscale>
<asrwt>0</asrwt>
<pdfrwt beam="1">  1        1 0.59872589E-02 0.14061307E+03</pdfrwt>
<pdfrwt beam="2">  1       -1 0.88339229E-01 0.14061307E+03</pdfrwt>
<totfact> 0.16728507E+03</totfact>
</mgrwt>
</event>
<event>
 6    1  0.5818426E-006  0.1266301E+03  0.7546771E-02  0.1247574E+00
         -1   -1    0    0    0  501 -0.00000000000E+00  0.00000000000E+00  0.99343277783E+02  0.99343277783E+02  0.00000000000E+00 0.  1.
          1   -1    0    0  501    0  0.00000000000E+00 -0.00000000000E+00 -0.12305988775E+03  0.12305988775E+03  0.00000000000E+00 0. -1.
          5    1    1    2  502    0  0.61427382064E+01  0.23872159277E+02 -0.61548147534E+02  0.66467117329E+02  0.47000000000E+01 0. -1.
         -5    1    1    2    0  502 -0.84518043231E+01 -0.37670951787E+01  0.59281606743E+02  0.60183244350E+02  0.47000000000E+01 0. -1.
        -11    1    1    2    0    0 -0.15402443596E+01 -0.49239342205E+02  0.12525733567E+02  0.50830888000E+02  0.00000000000E+00 0.  1.
         11    1    1    2    0    0  0.38493104763E+01  0.29134278106E+02 -0.33975802740E+02  0.44921915852E+02  0.00000000000E+00 0. -1.
<mgrwt>
<rscale>  0 0.11732634E+03</rscale>
<asrwt>0</asrwt>
<pdfrwt beam="2">  1        1 0.18932290E-01 0.12663008E+03</pdfrwt>
<pdfrwt beam="1">  1       -1 0.15283581E-01 0.12663008E+03</pdfrwt>
<totfact> 0.80394803E+03</totfact>
</mgrwt>
</event>
<event>
 6    1  0.5818426E-006  0.1312857E+03  0.7546771E-02  0.1238594E+00
         -2   -1    0    0    0  501 -0.00000000000E+00  0.00000000000E+00  0.65628582621E+03  0.65628582621E+03  0.00000000000E+00 0.  1.
          2   -1    0    0  501    0  0.00000000000E+00 -0.00000000000E+00 -0.32497740798E+02  0.32497740798E+02  0.00000000000E+00 0. -1.
          5    1    1    2  502    0 -0.66983982663E+02 -0.43419128263E+02  0.26800964119E+03  0.27968434422E+03  0.47000000000E+01 0.  1.
         -5    1    1    2    0  502  0.27306742182E+02  0.37470124361E+02  0.27858050113E+03  0.28245150733E+03  0.47000000000E+01 0.  1.
        -11    1    1    2    0    0  0.30710948747E+02 -0.12777270115E+02  0.94144207642E+02  0.99847648130E+02  0.00000000000E+00 0.  1.
         11    1    1    2    0    0  0.89662917334E+01  0.18726274018E+02 -0.16946264550E+02  0.26800067317E+02  0.00000000000E+00 0. -1.
<mgrwt>
<rscale>  0 0.12277113E+03</rscale>
<asrwt>0</asrwt>
<pdfrwt beam="2">  1        2 0.49996529E-02 0.13128569E+03</pdfrwt>
<pdfrwt beam="1">  1       -2 0.10096704E+00 0.13128569E+03</pdfrwt>
<totfact> 0.12729349E+03</totfact>
</mgrwt>
</event>
<event>
 6    1  0.5818426E-006  0.1321137E+03  0.7546771E-02  0.1237687E+00
          1   -1    0    0  501    0  0.00000000000E+00  0.00000000000E+00  0.32765132165E+02  0.32765132165E+02  0.00000000000E+00 0. -1.
         -1   -1    0    0    0  501 -0.00000000000E+00 -0.00000000000E+00 -0.45134817606E+03  0.45134817606E+03  0.00000000000E+00 0.  1.
          5    1    1    2  502    0 -0.19686362620E+02 -0.41870569987E+02 -0.65708728648E+02  0.80501083998E+02  0.47000000000E+01 0.  1.
         -5    1    1    2    0  502  0.62047461346E+02  0.47930852299E+02 -0.24022461614E+03  0.25273941177E+03  0.47000000000E+01 0.  1.
        -11    1    1    2    0    0 -0.33708579650E+02 -0.32651592552E+02 -0.14955160476E+02  0.49254965872E+02  0.00000000000E+00 0. -1.
         11    1    1    2    0    0 -0.86525190764E+01  0.26591310240E+02 -0.97694538623E+02  0.10161784658E+03  0.00000000000E+00 0.  1.
<mgrwt>
<rscale>  0 0.12333994E+03</rscale>
<asrwt>0</asrwt>
<pdfrwt beam="1">  1        1 0.50407897E-02 0.13211365E+03</pdfrwt>
<pdfrwt beam="2">  1       -1 0.69438179E-01 0.13211365E+03</pdfrwt>
<totfact> 0.34419004E+03</totfact>
</mgrwt>
</event>
<event>
 6    1  0.5818426E-006  0.2595920E+03  0.7546771E-02  0.1107389E+00
          1   -1    0    0  501    0  0.00000000000E+00  0.00000000000E+00  0.66729236239E+02  0.66729236239E+02  0.00000000000E+00 0. -1.
         -1   -1    0    0    0  501 -0.00000000000E+00 -0.00000000000E+00 -0.25246799570E+03  0.25246799570E+03  0.00000000000E+00 0.  1.
          5    1    1    2  502    0 -0.63721068361E+02  0.14257434937E+01 -0.25537593698E+02  0.68823440698E+02  0.47000000000E+01 0. -1.
         -5    1    1    2    0  502  0.22233350949E+02  0.13247692052E+02 -0.14387723396E+03  0.14626199674E+03  0.47000000000E+01 0. -1.
        -11    1    1    2    0    0  0.22046322315E+02 -0.11961383957E+02  0.38460669576E+02  0.45916643366E+02  0.00000000000E+00 0. -1.
         11    1    1    2    0    0  0.19441395097E+02 -0.27120515881E+01 -0.54784601377E+02  0.58195151131E+02  0.00000000000E+00 0.  1.
<mgrwt>
<rscale>  0 0.25959196E+03</rscale>
<asrwt>0</asrwt>
<pdfrwt beam="1">  1        1 0.10266036E-01 0.25959196E+03</pdfrwt>
<pdfrwt beam="2">  1       -1 0.38841230E-01 0.25959196E+03</pdfrwt>
<totfact> 0.39975696E+03</totfact>
</mgrwt>
</event>
<event>
 6    1  0.5818426E-006  0.1451846E+03  0.7546771E-02  0.1216912E+00
          2   -1    0    0  501    0  0.00000000000E+00  0.00000000000E+00  0.56216557793E+02  0.56216557793E+02  0.00000000000E+00 0. -1.
         -2   -1    0    0    0  501 -0.00000000000E+00 -0.00000000000E+00 -0.32103833016E+03  0.32103833016E+03  0.00000000000E+00 0.  1.
          5    1    1    2  502    0 -0.76147885850E+00  0.89404651919E+02 -0.86568308040E+02  0.12453888385E+03  0.47000000000E+01 0.  1.
         -5    1    1    2    0  502  0.40938006510E+02 -0.27442570023E+02 -0.10260733765E+03  0.11392704142E+03  0.47000000000E+01 0.  1.
        -11    1    1    2    0    0 -0.48887264385E+02 -0.53024166120E+02 -0.92828176355E+02  0.11755252927E+03  0.00000000000E+00 0.  1.
         11    1    1    2    0    0  0.87107367329E+01 -0.89379157759E+01  0.17182049681E+02  0.21236433412E+02  0.00000000000E+00 0. -1.
<mgrwt>
<rscale>  0 0.13737033E+03</rscale>
<asrwt>0</asrwt>
<pdfrwt beam="1">  1        2 0.86487012E-02 0.14518462E+03</pdfrwt>
<pdfrwt beam="2">  1       -2 0.49390512E-01 0.14518462E+03</pdfrwt>
<totfact> 0.29190568E+03</totfact>
</mgrwt>
</event>
<event>
 6    1  0.5818426E-006  0.1403706E+03  0.7546771E-02  0.1223230E+00
          1   -1    0    0  501    0  0.00000000000E+00  0.00000000000E+00  0.60101827768E+03  0.60101827768E+03  0.00000000000E+00 0. -1.
         -1   -1    0    0    0  501 -0.00000000000E+00 -0.00000000000E+00 -0.26955004244E+02  0.26955004244E+02  0.00000000000E+00 0.  1.
          5    1    1    2  502    0 -0.30596048574E+02 -0.13447660324E+02  0.13384411678E+03  0.13803367471E+03  0.47000000000E+01 0.  1.
         -5    1    1    2    0  502  0.83878256177E+02  0.48674749468E+02  0.15102975024E+03  0.17954628527E+03  0.47000000000E+01 0.  1.
        -11    1    1    2    0    0 -0.75118326737E+02 -0.10091850625E+02  0.16096679691E+03  0.17791829071E+03  0.00000000000E+00 0.  1.
         11    1    1    2    0    0  0.21836119133E+02 -0.25135238520E+02  0.12822260950E+03  0.13247503124E+03  0.00000000000E+00 0. -1.
<mgrwt>
<rscale>  0 0.13288939E+03</rscale>
<asrwt>0</asrwt>
<pdfrwt beam="1">  1        1 0.92464341E-01 0.14037062E+03</pdfrwt>
<pdfrwt beam="2">  1       -1 0.41469242E-02 0.14037062E+03</pdfrwt>
<totfact> 0.78592991E+03</totfact>
</mgrwt>
</event>
<event>
 6    1  0.5818426E-006  0.1369842E+03  0.7546771E-02  0.1235100E+00
         -2   -1    0    0    0  501 -0.00000000000E+00  0.00000000000E+00  0.48300156052E+02  0.48300156052E+02  0.00000000000E+00 0.  1.
          2   -1    0    0  501    0  0.00000000000E+00 -0.00000000000E+00 -0.36555712803E+03  0.36555712803E+03  0.00000000000E+00 0. -1.
          5    1    1    2  502    0  0.14821142378E+02 -0.33626205572E+02 -0.96075417512E+02  0.10297069395E+03  0.47000000000E+01 0. -1.
         -5    1    1    2    0  502  0.20615579950E+01  0.53660523416E+02  0.15326719968E+02  0.56041949820E+02  0.47000000000E+01 0.  1.
        -11    1    1    2    0    0 -0.10473482123E+02  0.36076672323E+02 -0.11184832276E+03  0.11798842069E+03  0.00000000000E+00 0.  1.
         11    1    1    2    0    0 -0.64092182497E+01 -0.56110990168E+02 -0.12465995167E+03  0.13685621961E+03  0.00000000000E+00 0. -1.
<mgrwt>
<rscale>  0 0.12498019E+03</rscale>
<asrwt>0</asrwt>
<pdfrwt beam="2">  1        2 0.56239559E-01 0.13698419E+03</pdfrwt>
<pdfrwt beam="1">  1       -2 0.74307931E-02 0.13698419E+03</pdfrwt>
<totfact> 0.88956208E+03</totfact>
</mgrwt>
</event>
<event>
 6    1  0.5818426E-006  0.2341267E+03  0.7546771E-02  0.1123768E+00
         -2   -1    0    0    0  501 -0.00000000000E+00  0.00000000000E+00  0.82853621890E+02  0.82853621890E+02  0.00000000000E+00 0.  1.
          2   -1    0    0  501    0  0.00000000000E+00 -0.00000000000E+00 -0.16539798481E+03  0.16539798481E+03  0.00000000000E+00 0. -1.
          5    1    1    2  502    0 -0.34766155760E+02  0.42601399940E+02 -0.70707143451E+02  0.89694788021E+02  0.47000000000E+01 0.  1.
         -5    1    1    2    0  502  0.10647072279E+02 -0.15404307593E+02  0.39693402323E+02  0.44139653697E+02  0.47000000000E+01 0.  1.
        -11    1    1    2    0    0  0.36288115668E+01 -0.37119029238E+02  0.17885724422E+02  0.41362902981E+02  0.00000000000E+00 0.  1.
         11    1    1    2    0    0  0.20490271914E+02  0.99219368909E+01 -0.69416346216E+02  0.73054262003E+02  0.00000000000E+00 0. -1.
<mgrwt>
<rscale>  0 0.23412665E+03</rscale>
<asrwt>0</asrwt>
<pdfrwt beam="2">  1        2 0.25445844E-01 0.23412665E+03</pdfrwt>
<pdfrwt beam="1">  1       -2 0.12746711E-01 0.23412665E+03</pdfrwt>
<totfact> 0.92635342E+03</totfact>
</mgrwt>
</event>
<event>
 6    1  0.5818426E-006  0.1508996E+03  0.7546771E-02  0.1208575E+00
         -2   -1    0    0    0  501 -0.00000000000E+00  0.00000000000E+00  0.89162399766E+02  0.89162399766E+02  0.00000000000E+00 0.  1.
          2   -1    0    0  501    0  0.00000000000E+00 -0.00000000000E+00 -0.22144413191E+03  0.22144413191E+03  0.00000000000E+00 0. -1.
          5    1    1    2  502    0 -0.32822525005E+02 -0.15166226811E+02  0.15333540137E+02  0.39554266982E+02  0.47000000000E+01 0. -1.
         -5    1    1    2    0  502  0.92167794408E+02 -0.45034766113E+02 -0.54912060434E+02  0.11644937469E+03  0.47000000000E+01 0. -1.
        -11    1    1    2    0    0 -0.75369362659E+02  0.66598518911E+02 -0.93507600453E+02  0.13733016745E+03  0.00000000000E+00 0. -1.
         11    1    1    2    0    0  0.16024093255E+02 -0.63975259878E+01  0.80438860718E+00  0.17272722555E+02  0.00000000000E+00 0.  1.
<mgrwt>
<rscale>  0 0.14359238E+03</rscale>
<asrwt>0</asrwt>
<pdfrwt beam="2">  1        2 0.34068328E-01 0.15089956E+03</pdfrwt>
<pdfrwt beam="1">  1       -2 0.13717292E-01 0.15089956E+03</pdfrwt>
<totfact> 0.58092717E+03</totfact>
</mgrwt>
</event>
<event>
 6    1  0.5818426E-006  0.1280643E+03  0.7546771E-02  0.1244762E+00
         -4   -1    0    0    0  501 -0.00000000000E+00  0.00000000000E+00  0.12705001702E+04  0.12705001702E+04  0.00000000000E+00 0.  1.
          4   -1    0    0  501    0  0.00000000000E+00 -0.00000000000E+00 -0.10335252895E+02  0.10335252895E+02  0.00000000000E+00 0. -1.
          5    1    1    2  502    0  0.36977872091E+02  0.24356832185E+02  0.11879331018E+03  0.12686433242E+03  0.47000000000E+01 0.  1.
         -5    1    1    2    0  502 -0.45858846165E+02  0.21795332826E+01  0.73859247248E+03  0.74003291450E+03  0.47000000000E+01 0.  1.
        -11    1    1    2    0    0 -0.40736349219E+02 -0.16554834391E+02  0.21552997039E+03  0.21996972707E+03  0.00000000000E+00 0. -1.
         11    1    1    2    0    0  0.49617323293E+02 -0.99815310762E+01  0.18724916425E+03  0.19396844910E+03  0.00000000000E+00 0.  1.
<mgrwt>
<rscale>  0 0.11899626E+03</rscale>
<asrwt>0</asrwt>
<pdfrwt beam="2">  1        4 0.15900399E-02 0.12806427E+03</pdfrwt>
<pdfrwt beam="1">  1       -4 0.19546144E+00 0.12806427E+03</pdfrwt>
<totfact> 0.37343534E+02</totfact>
</mgrwt>
</event>
<event>
 6    1  0.5818426E-006  0.1533088E+03  0.7546771E-02  0.1205239E+00
         -2   -1    0    0    0  501 -0.00000000000E+00  0.00000000000E+00  0.14075244740E+03  0.14075244740E+03  0.00000000000E+00 0.  1.
          2   -1    0    0  501    0  0.00000000000E+00 -0.00000000000E+00 -0.14391162056E+03  0.14391162056E+03  0.00000000000E+00 0. -1.
          5    1    1    2  502    0  0.49567518857E+02 -0.10114315083E+03 -0.17280000091E+01  0.11274729207E+03  0.47000000000E+01 0.  1.
         -5    1    1    2    0  502  0.71313212900E+01  0.32851902344E+02  0.25362252898E+02  0.42372598492E+02  0.47000000000E+01 0.  1.
        -11    1    1    2    0    0  0.14483811448E+02  0.18530114344E+02 -0.35149109442E+02  0.42291912066E+02  0.00000000000E+00 0. -1.
         11    1    1    2    0    0 -0.71182651595E+02  0.49761134141E+02  0.83556833961E+01  0.87252265324E+02  0.00000000000E+00 0.  1.
<mgrwt>
<rscale>  0 0.14618623E+03</rscale>
<asrwt>0</asrwt>
<pdfrwt beam="2">  1        2 0.22140249E-01 0.15330885E+03</pdfrwt>
<pdfrwt beam="1">  1       -2 0.21654223E-01 0.15330885E+03</pdfrwt>
<totfact> 0.43603680E+03</totfact>
</mgrwt>
</event>
<event>
 6    1  0.5818426E-006  0.1790963E+03  0.7546771E-02  0.1170014E+00
         -2   -1    0    0    0  501 -0.00000000000E+00  0.00000000000E+00  0.56183319305E+02  0.56183319305E+02  0.00000000000E+00 0.  1.
          2   -1    0    0  501    0  0.00000000000E+00 -0.00000000000E+00 -0.11639070534E+04  0.11639070534E+04  0.00000000000E+00 0. -1.
          5    1    1    2  502    0 -0.41498419012E+02  0.57516193809E+02 -0.10562511879E+02  0.71860197523E+02  0.47000000000E+01 0. -1.
         -5    1    1    2    0  502  0.43941871037E+02  0.83327863737E+02 -0.10569322401E+03  0.14166004556E+03  0.47000000000E+01 0.  1.
        -11    1    1    2    0    0 -0.46143283470E+02 -0.32467695091E+02 -0.29043226465E+03  0.29586188362E+03  0.00000000000E+00 0.  1.
         11    1    1    2    0    0  0.43699831446E+02 -0.10837636246E+03 -0.70103573360E+03  0.71070824604E+03  0.00000000000E+00 0. -1.
<mgrwt>
<rscale>  0 0.17773390E+03</rscale>
<asrwt>0</asrwt>
<pdfrwt beam="2">  1        2 0.17906262E+00 0.17909634E+03</pdfrwt>
<pdfrwt beam="1">  1       -2 0.86435877E-02 0.17909634E+03</pdfrwt>
<totfact> 0.17536684E+03</totfact>
</mgrwt>
</event>
<event>
 6    1  0.5818426E-006  0.2372901E+03  0.7546771E-02  0.1121611E+00
         -2   -1    0    0    0  501 -0.00000000000E+00  0.00000000000E+00  0.13554295430E+04  0.13554295430E+04  0.00000000000E+00 0.  1.
          2   -1    0    0  501    0  0.00000000000E+00 -0.00000000000E+00 -0.10385376758E+02  0.10385376758E+02  0.00000000000E+00 0. -1.
          5    1    1    2  502    0  0.44871832106E+01 -0.10987650493E+02  0.86689163423E+01  0.15430599051E+02  0.47000000000E+01 0. -1.
         -5    1    1    2    0  502 -0.46249471305E+02 -0.16855476071E+02  0.91581996585E+03  0.91715397863E+03  0.47000000000E+01 0.  1.
        -11    1    1    2    0    0  0.54551063980E+02  0.52581266787E+02  0.32386274772E+03  0.33260740755E+03  0.00000000000E+00 0. -1.
         11    1    1    2    0    0 -0.12788775885E+02 -0.24738140223E+02  0.96692536356E+02  0.10062293455E+03  0.00000000000E+00 0.  1.
<mgrwt>
<rscale>  0 0.23729009E+03</rscale>
<asrwt>0</asrwt>
<pdfrwt beam="2">  1        2 0.15977513E-02 0.23729009E+03</pdfrwt>
<pdfrwt beam="1">  1       -2 0.20852748E+00 0.23729009E+03</pdfrwt>
<totfact> 0.94980803E+02</totfact>
</mgrwt>
</event>
<event>
 6    1  0.5818426E-006  0.1489978E+03  0.7546771E-02  0.1210799E+00
         -2   -1    0    0    0  501 -0.00000000000E+00  0.00000000000E+00  0.20243132496E+02  0.20243132496E+02  0.00000000000E+00 0. -1.
          2   -1    0    0  501    0  0.00000000000E+00 -0.00000000000E+00 -0.97875511146E+03  0.97875511146E+03  0.00000000000E+00 0.  1.
          5    1    1    2  502    0  0.64035475653E+02  0.47214132036E+02 -0.22237583577E+03  0.23622620249E+03  0.47000000000E+01 0.  1.
         -5    1    1    2    0  502  0.17048509155E+02 -0.47003085848E+02 -0.43140174114E+03  0.43431497096E+03  0.47000000000E+01 0.  1.
        -11    1    1    2    0    0 -0.93542088359E+02  0.21804050832E+02 -0.25829109100E+03  0.27557181753E+03  0.00000000000E+00 0.  1.
         11    1    1    2    0    0  0.12458103551E+02 -0.22015097020E+02 -0.46443311060E+02  0.52885252983E+02  0.00000000000E+00 0. -1.
<mgrwt>
<rscale>  0 0.14189668E+03</rscale>
<asrwt>0</asrwt>
<pdfrwt beam="2">  1        2 0.15057767E+00 0.14899780E+03</pdfrwt>
<pdfrwt beam="1">  1       -2 0.31143290E-02 0.14899780E+03</pdfrwt>
<totfact> 0.10495969E+04</totfact>
</mgrwt>
</event>
<event>
 6    1  0.5818426E-006  0.3189274E+03  0.7546771E-02  0.1076144E+00
         -2   -1    0    0    0  501 -0.00000000000E+00  0.00000000000E+00  0.43137366565E+03  0.43137366565E+03  0.00000000000E+00 0.  1.
          2   -1    0    0  501    0  0.00000000000E+00 -0.00000000000E+00 -0.58948118008E+02  0.58948118008E+02  0.00000000000E+00 0. -1.
          5    1    1    2  502    0 -0.54153637112E+00  0.48758316948E+00 -0.15478474517E+02  0.16192719733E+02  0.47000000000E+01 0.  1.
         -5    1    1    2    0  502  0.12183261113E+02  0.11585148918E+03  0.23355966471E+03  0.26104062208E+03  0.47000000000E+01 0.  1.
        -11    1    1    2    0    0 -0.28628048531E+02 -0.12334313892E+03  0.14490037954E+03  0.19242976659E+03  0.00000000000E+00 0.  1.
         11    1    1    2    0    0  0.16986323788E+02  0.70040665696E+01  0.94439779091E+01  0.20658675250E+02  0.00000000000E+00 0. -1.
<mgrwt>
<rscale>  0 0.31892736E+03</rscale>
<asrwt>0</asrwt>
<pdfrwt beam="2">  1        2 0.90689415E-02 0.31892736E+03</pdfrwt>
<pdfrwt beam="1">  1       -2 0.66365177E-01 0.31892736E+03</pdfrwt>
<totfact> 0.15546001E+03</totfact>
</mgrwt>
</event>
<event>
 6    1  0.5818426E-006  0.1391663E+03  0.7546771E-02  0.1224305E+00
         -1   -1    0    0    0  501 -0.00000000000E+00  0.00000000000E+00  0.55866168856E+03  0.55866168856E+03  0.00000000000E+00 0.  1.
          1   -1    0    0  501    0  0.00000000000E+00 -0.00000000000E+00 -0.35095403096E+02  0.35095403096E+02  0.00000000000E+00 0. -1.
          5    1    1    2  502    0  0.45690771258E+02 -0.49197211397E+02  0.10874560476E+03  0.12788943952E+03  0.47000000000E+01 0. -1.
         -5    1    1    2    0  502  0.15334753224E+02  0.44909905484E+02  0.30322362144E+03  0.30695066194E+03  0.47000000000E+01 0. -1.
        -11    1    1    2    0    0 -0.66547412643E+02 -0.13793273368E+02  0.28498592597E+02  0.73695198620E+02  0.00000000000E+00 0. -1.
         11    1    1    2    0    0  0.55218881611E+01  0.18080579281E+02  0.83098466666E+02  0.85221791569E+02  0.00000000000E+00 0.  1.
<mgrwt>
<rscale>  0 0.13214627E+03</rscale>
<asrwt>0</asrwt>
<pdfrwt beam="2">  1        1 0.53992932E-02 0.13916634E+03</pdfrwt>
<pdfrwt beam="1">  1       -1 0.85947945E-01 0.13916634E+03</pdfrwt>
<totfact> 0.20391207E+03</totfact>
</mgrwt>
</event>
<event>
 6    1  0.5818426E-006  0.1309678E+03  0.7546771E-02  0.1239860E+00
         -2   -1    0    0    0  501 -0.00000000000E+00  0.00000000000E+00  0.43008032514E+02  0.43008032514E+02  0.00000000000E+00 0.  1.
          2   -1    0    0  501    0  0.00000000000E+00 -0.00000000000E+00 -0.37639267224E+03  0.37639267224E+03  0.00000000000E+00 0. -1.
          5    1    1    2  502    0 -0.35803924873E+02 -0.41928138021E+02 -0.86595959222E+02  0.10276594741E+03  0.47000000000E+01 0. -1.
         -5    1    1    2    0  502  0.70023179443E+00  0.58701202768E+02 -0.94531804908E+01  0.59647079999E+02  0.47000000000E+01 0.  1.
        -11    1    1    2    0    0 -0.14607420384E+02  0.19230461214E+02 -0.20643002894E+02  0.31769811728E+02  0.00000000000E+00 0.  1.
         11    1    1    2    0    0  0.49711113463E+02 -0.36003525962E+02 -0.21669249712E+03  0.22521786561E+03  0.00000000000E+00 0. -1.
<mgrwt>
<rscale>  0 0.12198348E+03</rscale>
<asrwt>0</asrwt>
<pdfrwt beam="2">  1        2 0.57906566E-01 0.13096776E+03</pdfrwt>
<pdfrwt beam="1">  1       -2 0.66166203E-02 0.13096776E+03</pdfrwt>
<totfact> 0.10266299E+04</totfact>
</mgrwt>
</event>
<event>
 6    1  0.5818426E-006  0.1323564E+03  0.7546771E-02  0.1237202E+00
          2   -1    0    0  501    0  0.00000000000E+00  0.00000000000E+00  0.19649616377E+03  0.19649616377E+03  0.00000000000E+00 0. -1.
         -2   -1    0    0    0  501 -0.00000000000E+00 -0.00000000000E+00 -0.69869732958E+02  0.69869732958E+02  0.00000000000E+00 0.  1.
          5    1    1    2  502    0  0.53605521185E+02  0.50746171867E+02  0.65160545181E+02  0.98573386414E+02  0.47000000000E+01 0.  1.
         -5    1    1    2    0  502 -0.10604315936E+02 -0.44180577279E+02 -0.66130028450E+01  0.46154054338E+02  0.47000000000E+01 0.  1.
        -11    1    1    2    0    0 -0.64830610431E+02 -0.26347618721E+02  0.38409605962E+02  0.79827958080E+02  0.00000000000E+00 0.  1.
         11    1    1    2    0    0  0.21829405182E+02  0.19782024133E+02  0.29669282508E+02  0.41810497892E+02  0.00000000000E+00 0. -1.
<mgrwt>
<rscale>  0 0.12364505E+03</rscale>
<asrwt>0</asrwt>
<pdfrwt beam="1">  1        2 0.30230179E-01 0.13235640E+03</pdfrwt>
<pdfrwt beam="2">  1       -2 0.10749190E-01 0.13235640E+03</pdfrwt>
<totfact> 0.96755285E+03</totfact>
</mgrwt>
</event>
<event>
 6    1  0.5818426E-006  0.1370910E+03  0.7546771E-02  0.1228756E+00
         -2   -1    0    0    0  501 -0.00000000000E+00  0.00000000000E+00  0.20394267693E+02  0.20394267693E+02  0.00000000000E+00 0.  1.
          2   -1    0    0  501    0  0.00000000000E+00 -0.00000000000E+00 -0.77403610395E+03  0.77403610395E+03  0.00000000000E+00 0. -1.
          5    1    1    2  502    0  0.44138301786E+02  0.42562475486E+02 -0.59924987338E+02  0.85865290494E+02  0.47000000000E+01 0.  1.
         -5    1    1    2    0  502 -0.23847999172E+02  0.99606354910E+01 -0.27186722211E+03  0.27313333334E+03  0.47000000000E+01 0.  1.
        -11    1    1    2    0    0  0.16944699127E+01  0.14004592420E+02 -0.91222416118E+01  0.16799259780E+02  0.00000000000E+00 0.  1.
         11    1    1    2    0    0 -0.21984772526E+02 -0.66527703397E+02 -0.41272738520E+03  0.41863248803E+03  0.00000000000E+00 0. -1.
<mgrwt>
<rscale>  0 0.12912730E+03</rscale>
<asrwt>0</asrwt>
<pdfrwt beam="2">  1        2 0.11908246E+00 0.13709100E+03</pdfrwt>
<pdfrwt beam="1">  1       -2 0.31375801E-02 0.13709100E+03</pdfrwt>
<totfact> 0.13987944E+04</totfact>
</mgrwt>
</event>
<event>
 6    1  0.5818426E-006  0.2341211E+03  0.7546771E-02  0.1123772E+00
         -4   -1    0    0    0  501 -0.00000000000E+00  0.00000000000E+00  0.33588308587E+03  0.33588308587E+03  0.00000000000E+00 0.  1.
          4   -1    0    0  501    0  0.00000000000E+00 -0.00000000000E+00 -0.40797456967E+02  0.40797456967E+02  0.00000000000E+00 0. -1.
          5    1    1    2  502    0 -0.13343724944E+02 -0.39890737311E+01  0.20189896905E+03  0.20243332584E+03  0.47000000000E+01 0.  1.
         -5    1    1    2    0  502  0.45670484700E+02 -0.18356898917E+02  0.16255680831E+02  0.52049073670E+02  0.47000000000E+01 0.  1.
        -11    1    1    2    0    0 -0.13817905542E+02  0.49166978010E+02  0.73400283237E+02  0.89419952021E+02  0.00000000000E+00 0.  1.
         11    1    1    2    0    0 -0.18508854214E+02 -0.26821005361E+02  0.35306957829E+01  0.32778191311E+02  0.00000000000E+00 0. -1.
<mgrwt>
<rscale>  0 0.23412113E+03</rscale>
<asrwt>0</asrwt>
<pdfrwt beam="2">  1        4 0.62765321E-02 0.23412113E+03</pdfrwt>
<pdfrwt beam="1">  1       -4 0.51674319E-01 0.23412113E+03</pdfrwt>
<totfact> 0.10953461E+03</totfact>
</mgrwt>
</event>
<event>
 6    1  0.5818426E-006  0.2488106E+03  0.7546771E-02  0.1114059E+00
          1   -1    0    0  501    0  0.00000000000E+00  0.00000000000E+00  0.47983760654E+03  0.47983760654E+03  0.00000000000E+00 0. -1.
         -1   -1    0    0    0  501 -0.00000000000E+00 -0.00000000000E+00 -0.32253992422E+02  0.32253992422E+02  0.00000000000E+00 0.  1.
          5    1    1    2  502    0 -0.10394196142E+02  0.47151523952E+01 -0.19868230936E+02  0.23390352201E+02  0.47000000000E+01 0.  1.
         -5    1    1    2    0  502  0.16080209972E+02 -0.41749592294E+02  0.16848844358E+03  0.17439050212E+03  0.47000000000E+01 0.  1.
        -11    1    1    2    0    0  0.34464295052E+02  0.19507091045E+02  0.22408976995E+03  0.22756216564E+03  0.00000000000E+00 0. -1.
         11    1    1    2    0    0 -0.40150308883E+02  0.17527348853E+02  0.74873631524E+02  0.86748579002E+02  0.00000000000E+00 0.  1.
<mgrwt>
<rscale>  0 0.24881060E+03</rscale>
<asrwt>0</asrwt>
<pdfrwt beam="1">  1        1 0.73821165E-01 0.24881060E+03</pdfrwt>
<pdfrwt beam="2">  1       -1 0.49621530E-02 0.24881060E+03</pdfrwt>
<totfact> 0.84055760E+03</totfact>
</mgrwt>
</event>
<event>
 6    1  0.5818426E-006  0.3727508E+03  0.7546771E-02  0.1053646E+00
          2   -1    0    0  501    0  0.00000000000E+00  0.00000000000E+00  0.30087883355E+03  0.30087883355E+03  0.00000000000E+00 0. -1.
         -2   -1    0    0    0  501 -0.00000000000E+00 -0.00000000000E+00 -0.11544779489E+03  0.11544779489E+03  0.00000000000E+00 0.  1.
          5    1    1    2  502    0  0.51301687659E+01  0.43925645670E+02 -0.37695853566E+02  0.58299642839E+02  0.47000000000E+01 0. -1.
         -5    1    1    2    0  502 -0.56976599886E+02  0.92102294694E+02  0.89157706794E+02  0.14035794350E+03  0.47000000000E+01 0. -1.
        -11    1    1    2    0    0  0.10489224663E+01 -0.71807515797E+02  0.11173221981E+03  0.13282134056E+03  0.00000000000E+00 0. -1.
         11    1    1    2    0    0  0.50797508654E+02 -0.64220424567E+02  0.22236965620E+02  0.84847701542E+02  0.00000000000E+00 0.  1.
<mgrwt>
<rscale>  0 0.37275084E+03</rscale>
<asrwt>0</asrwt>
<pdfrwt beam="1">  1        2 0.46289051E-01 0.37275084E+03</pdfrwt>
<pdfrwt beam="2">  1       -2 0.17761199E-01 0.37275084E+03</pdfrwt>
<totfact> 0.28219379E+03</totfact>
</mgrwt>
</event>
<event>
 6    1  0.5818426E-006  0.1353610E+03  0.7546771E-02  0.1232415E+00
         -2   -1    0    0    0  501 -0.00000000000E+00  0.00000000000E+00  0.10886468899E+03  0.10886468899E+03  0.00000000000E+00 0. -1.
          2   -1    0    0  501    0  0.00000000000E+00 -0.00000000000E+00 -0.13964586524E+03  0.13964586524E+03  0.00000000000E+00 0.  1.
          5    1    1    2  502    0 -0.28877653062E+02 -0.30471977253E+02  0.67496471133E+02  0.79626150600E+02  0.47000000000E+01 0.  1.
         -5    1    1    2    0  502 -0.31374609690E+01 -0.10406108978E+02 -0.55046946331E+02  0.56306190297E+02  0.47000000000E+01 0.  1.
        -11    1    1    2    0    0  0.58089490475E+02  0.37763462007E+02 -0.96577846536E+01  0.69955276933E+02  0.00000000000E+00 0. -1.
         11    1    1    2    0    0 -0.26074376445E+02  0.31146242243E+01 -0.33572916399E+02  0.42622936391E+02  0.00000000000E+00 0.  1.
<mgrwt>
<rscale>  0 0.12671358E+03</rscale>
<asrwt>0</asrwt>
<pdfrwt beam="2">  1        2 0.21483979E-01 0.13536104E+03</pdfrwt>
<pdfrwt beam="1">  1       -2 0.16748414E-01 0.13536104E+03</pdfrwt>
<totfact> 0.68957140E+03</totfact>
</mgrwt>
</event>
<event>
 6    1  0.5818426E-006  0.1588897E+03  0.7546771E-02  0.1200557E+00
          1   -1    0    0  501    0  0.00000000000E+00  0.00000000000E+00  0.44565636622E+03  0.44565636622E+03  0.00000000000E+00 0. -1.
         -1   -1    0    0    0  501 -0.00000000000E+00 -0.00000000000E+00 -0.46738897918E+02  0.46738897918E+02  0.00000000000E+00 0.  1.
          5    1    1    2  502    0  0.86078389866E+02 -0.14505610519E+02  0.44815516833E+02  0.98236563903E+02  0.47000000000E+01 0.  1.
         -5    1    1    2    0  502  0.85952076246E+01  0.40144705072E+02  0.13762177860E+03  0.14369174953E+03  0.47000000000E+01 0.  1.
        -11    1    1    2    0    0 -0.80534511451E+02 -0.46712981279E+02  0.19885109596E+03  0.21956700235E+03  0.00000000000E+00 0. -1.
         11    1    1    2    0    0 -0.14139086040E+02  0.21073886726E+02  0.17629076913E+02  0.30899948359E+02  0.00000000000E+00 0.  1.
<mgrwt>
<rscale>  0 0.14993190E+03</rscale>
<asrwt>0</asrwt>
<pdfrwt beam="1">  1        1 0.68562515E-01 0.15888972E+03</pdfrwt>
<pdfrwt beam="2">  1       -1 0.71906000E-02 0.15888972E+03</pdfrwt>
<totfact> 0.51773251E+03</totfact>
</mgrwt>
</event>
<event>
 6    1  0.5818426E-006  0.1401248E+03  0.7546771E-02  0.1223887E+00
          1   -1    0    0  501    0  0.00000000000E+00  0.00000000000E+00  0.60584792108E+02  0.60584792108E+02  0.00000000000E+00 0. -1.
         -1   -1    0    0    0  501 -0.00000000000E+00 -0.00000000000E+00 -0.27567051755E+03  0.27567051755E+03  0.00000000000E+00 0.  1.
          5    1    1    2  502    0  0.36262087414E+02  0.91061565998E+02 -0.82624161299E+02  0.12828090199E+03  0.47000000000E+01 0. -1.
         -5    1    1    2    0  502 -0.10613708205E+02 -0.33156721905E+02 -0.73754353065E+02  0.81693412252E+02  0.47000000000E+01 0. -1.
        -11    1    1    2    0    0 -0.53541036152E+02 -0.63781499345E+02 -0.44893682263E+02  0.94605311257E+02  0.00000000000E+00 0.  1.
         11    1    1    2    0    0  0.27892656943E+02  0.58766552516E+01 -0.13813528812E+02  0.31675684152E+02  0.00000000000E+00 0. -1.
<mgrwt>
<rscale>  0 0.13243466E+03</rscale>
<asrwt>0</asrwt>
<pdfrwt beam="1">  1        1 0.93207372E-02 0.14012485E+03</pdfrwt>
<pdfrwt beam="2">  1       -1 0.42410849E-01 0.14012485E+03</pdfrwt>
<totfact> 0.37710227E+03</totfact>
</mgrwt>
</event>
