<event>
 6    1  0.9240440E-006  0.3508605E+03  0.7546771E-02  0.1062262E+00
         -1   -1    0    0    0  501 -0.00000000000E+00  0.00000000000E+00  0.59750775989E+02  0.59750775989E+02  0.00000000000E+00 0.  1.
          1   -1    0    0  501    0  0.00000000000E+00 -0.00000000000E+00 -0.51506886775E+03  0.51506886775E+03  0.00000000000E+00 0. -1.
          5    1    1    2  502    0  0.49687741166E+02 -0.13248830326E+03 -0.22599755694E+03  0.26668147267E+03  0.47000000000E+01 0. -1.
         -5    1    1    2    0  502  0.31935092677E+02  0.20614634106E+02 -0.23733615202E+02  0.45057605065E+02  0.47000000000E+01 0. -1.
        -11    1    1    2    0    0 -0.70203764803E+02  0.37415506558E+02 -0.61724437552E+02  0.10068959685E+03  0.00000000000E+00 0.  1.
         11    1    1    2    0    0 -0.11419069040E+02  0.74458162596E+02 -0.14386248206E+03  0.16239096915E+03  0.00000000000E+00 0. -1.
<mgrwt>
<rscale>  0 0.35086045E+03</rscale>
<asrwt>0</asrwt>
<pdfrwt beam="2">  1        1 0.79241362E-01 0.35086045E+03</pdfrwt>
<pdfrwt beam="1">  1       -1 0.91924273E-02 0.35086045E+03</pdfrwt>
<totfact> 0.30232550E+03</totfact>
</mgrwt>
</event>
<event>
 6    1  0.9240440E-006  0.1311057E+03  0.7546771E-02  0.1240264E+00
         -1   -1    0    0    0  501 -0.00000000000E+00  0.00000000000E+00  0.15380671566E+02  0.15380671566E+02  0.00000000000E+00 0.  1.
          1   -1    0    0  501    0  0.00000000000E+00 -0.00000000000E+00 -0.87006789388E+03  0.87006789388E+03  0.00000000000E+00 0. -1.
          5    1    1    2  502    0  0.23492895300E+02  0.39256574973E+02 -0.20038791168E+03  0.20559766525E+03  0.47000000000E+01 0. -1.
         -5    1    1    2    0  502 -0.48954483722E+02 -0.69442574040E+02 -0.35639884937E+03  0.36641648762E+03  0.47000000000E+01 0. -1.
        -11    1    1    2    0    0 -0.21163475110E+02  0.39465447502E+02 -0.94807577523E+02  0.10485175717E+03  0.00000000000E+00 0.  1.
         11    1    1    2    0    0  0.46625063532E+02 -0.92794484351E+01 -0.20309288374E+03  0.20858265541E+03  0.00000000000E+00 0. -1.
<mgrwt>
<rscale>  0 0.12173381E+03</rscale>
<asrwt>0</asrwt>
<pdfrwt beam="2">  1        1 0.13385660E+00 0.13110566E+03</pdfrwt>
<pdfrwt beam="1">  1       -1 0.23662571E-02 0.13110566E+03</pdfrwt>
<totfact> 0.10364790E+04</totfact>
</mgrwt>
</event>
<event>
 6    1  0.9240440E-006  0.1447295E+03  0.7546771E-02  0.1217272E+00
         -1   -1    0    0    0  501 -0.00000000000E+00  0.00000000000E+00  0.28643398439E+02  0.28643398439E+02  0.00000000000E+00 0.  1.
          1   -1    0    0  501    0  0.00000000000E+00 -0.00000000000E+00 -0.59620494326E+03  0.59620494326E+03  0.00000000000E+00 0. -1.
          5    1    1    2  502    0 -0.61912067680E+01  0.26401241885E+02 -0.51255820807E+00  0.27526520489E+02  0.47000000000E+01 0.  1.
         -5    1    1    2    0  502 -0.56008363433E+02  0.11661280558E+02 -0.30727650065E+03  0.31259216256E+03  0.47000000000E+01 0.  1.
        -11    1    1    2    0    0  0.34956951840E+02  0.23124920261E+02 -0.54165287790E+02  0.68488165550E+02  0.00000000000E+00 0. -1.
         11    1    1    2    0    0  0.27242618361E+02 -0.61187442704E+02 -0.20560719816E+03  0.21624149310E+03  0.00000000000E+00 0.  1.
<mgrwt>
<rscale>  0 0.13710935E+03</rscale>
<asrwt>0</asrwt>
<pdfrwt beam="2">  1        1 0.91723837E-01 0.14472945E+03</pdfrwt>
<pdfrwt beam="1">  1       -1 0.44066767E-02 0.14472945E+03</pdfrwt>
<totfact> 0.72786340E+03</totfact>
</mgrwt>
</event>
<event>
 6    1  0.9240440E-006  0.3477246E+03  0.7546771E-02  0.1063553E+00
          2   -1    0    0  501    0  0.00000000000E+00  0.00000000000E+00  0.18710788100E+04  0.18710788100E+04  0.00000000000E+00 0.  1.
         -2   -1    0    0    0  501 -0.00000000000E+00 -0.00000000000E+00 -0.16155435859E+02  0.16155435859E+02  0.00000000000E+00 0. -1.
          5    1    1    2  502    0  0.11549940388E+03 -0.15800147004E+01  0.13058828572E+04  0.13109899829E+04  0.47000000000E+01 0. -1.
         -5    1    1    2    0  502 -0.32701303065E+02 -0.33191745237E+00  0.27089921639E+03  0.27290650566E+03  0.47000000000E+01 0. -1.
        -11    1    1    2    0    0 -0.48619944675E+02 -0.24232645383E+02  0.23923667215E+03  0.24532693579E+03  0.00000000000E+00 0.  1.
         11    1    1    2    0    0 -0.34178156139E+02  0.26144577536E+02  0.38904628397E+02  0.58010821424E+02  0.00000000000E+00 0. -1.
<mgrwt>
<rscale>  0 0.34772457E+03</rscale>
<asrwt>0</asrwt>
<pdfrwt beam="1">  1        2 0.28785811E+00 0.34772457E+03</pdfrwt>
<pdfrwt beam="2">  1       -2 0.24854532E-02 0.34772457E+03</pdfrwt>
<totfact> 0.48678478E+03</totfact>
</mgrwt>
</event>
<event>
 6    1  0.9240440E-006  0.1608689E+03  0.7546771E-02  0.1194362E+00
         -2   -1    0    0    0  501 -0.00000000000E+00  0.00000000000E+00  0.40719596329E+02  0.40719596329E+02  0.00000000000E+00 0. -1.
          2   -1    0    0  501    0  0.00000000000E+00 -0.00000000000E+00 -0.66684174676E+03  0.66684174676E+03  0.00000000000E+00 0.  1.
          5    1    1    2  502    0  0.38551911299E+02 -0.37220292176E+02 -0.52361484661E+02  0.75069401825E+02  0.47000000000E+01 0.  1.
         -5    1    1    2    0  502  0.25927045361E+01 -0.55300353070E+02 -0.42621132228E+03  0.42981744079E+03  0.47000000000E+01 0.  1.
        -11    1    1    2    0    0  0.27193569420E+02  0.46958093425E+01 -0.31935601388E+02  0.42206912695E+02  0.00000000000E+00 0.  1.
         11    1    1    2    0    0 -0.68338185255E+02  0.87824835904E+02 -0.11561374210E+03  0.16046758778E+03  0.00000000000E+00 0. -1.
<mgrwt>
<rscale>  0 0.15508363E+03</rscale>
<asrwt>0</asrwt>
<pdfrwt beam="2">  1        2 0.10259103E+00 0.16086887E+03</pdfrwt>
<pdfrwt beam="1">  1       -2 0.62645536E-02 0.16086887E+03</pdfrwt>
<totfact> 0.59983986E+03</totfact>
</mgrwt>
</event>
<event>
 6    1  0.9240440E-006  0.1601580E+03  0.7546771E-02  0.1195882E+00
          3   -1    0    0  501    0  0.00000000000E+00  0.00000000000E+00  0.41800888551E+03  0.41800888551E+03  0.00000000000E+00 0. -1.
         -3   -1    0    0    0  501 -0.00000000000E+00 -0.00000000000E+00 -0.89467193067E+02  0.89467193067E+02  0.00000000000E+00 0.  1.
          5    1    1    2  502    0  0.45190462669E+02 -0.35430365204E+01  0.46483578351E+02  0.65096421410E+02  0.47000000000E+01 0. -1.
         -5    1    1    2    0  502 -0.35646741029E+02 -0.96128891705E+02  0.28831971813E+03  0.30604216022E+03  0.47000000000E+01 0. -1.
        -11    1    1    2    0    0 -0.28099748704E+02  0.29388899772E+02 -0.39247052271E+02  0.56512250167E+02  0.00000000000E+00 0.  1.
         11    1    1    2    0    0  0.18556027064E+02  0.70283028454E+02  0.32985448230E+02  0.79825246783E+02  0.00000000000E+00 0. -1.
<mgrwt>
<rscale>  0 0.15379803E+03</rscale>
<asrwt>0</asrwt>
<pdfrwt beam="1">  1        3 0.64309058E-01 0.16015805E+03</pdfrwt>
<pdfrwt beam="2">  1       -3 0.13764184E-01 0.16015805E+03</pdfrwt>
<totfact> 0.24424438E+02</totfact>
</mgrwt>
</event>
<event>
 6    1  0.9240440E-006  0.1410749E+03  0.7546771E-02  0.1225109E+00
          1   -1    0    0  501    0  0.00000000000E+00  0.00000000000E+00  0.19205448561E+03  0.19205448561E+03  0.00000000000E+00 0. -1.
         -1   -1    0    0    0  501 -0.00000000000E+00 -0.00000000000E+00 -0.90676909742E+02  0.90676909742E+02  0.00000000000E+00 0.  1.
          5    1    1    2  502    0 -0.33449476009E+01 -0.67887168402E+02  0.41624087673E+02  0.79840534709E+02  0.47000000000E+01 0. -1.
         -5    1    1    2    0  502  0.61340277379E+02  0.37665418091E+02  0.63378938227E+02  0.96022357603E+02  0.47000000000E+01 0. -1.
        -11    1    1    2    0    0 -0.38861668284E+02 -0.41026188261E+01 -0.38111456549E+02  0.54585198207E+02  0.00000000000E+00 0.  1.
         11    1    1    2    0    0 -0.19133661494E+02  0.34324369137E+02  0.34486006519E+02  0.52283304835E+02  0.00000000000E+00 0. -1.
<mgrwt>
<rscale>  0 0.13159433E+03</rscale>
<asrwt>0</asrwt>
<pdfrwt beam="1">  1        1 0.29546844E-01 0.14107488E+03</pdfrwt>
<pdfrwt beam="2">  1       -1 0.13950294E-01 0.14107488E+03</pdfrwt>
<totfact> 0.53351007E+03</totfact>
</mgrwt>
</event>
<event>
 6    1  0.9240440E-006  0.1904087E+03  0.7546771E-02  0.1161127E+00
         -3   -1    0    0    0  501 -0.00000000000E+00  0.00000000000E+00  0.43586707759E+03  0.43586707759E+03  0.00000000000E+00 0.  1.
          3   -1    0    0  501    0  0.00000000000E+00 -0.00000000000E+00 -0.83392393132E+02  0.83392393132E+02  0.00000000000E+00 0. -1.
          5    1    1    2  502    0  0.70229157239E+02  0.36356542190E+02  0.11886413774E+03  0.14284504166E+03  0.47000000000E+01 0. -1.
         -5    1    1    2    0  502  0.18880494715E+02  0.76288733979E+02 -0.52121340003E+01  0.78903107376E+02  0.47000000000E+01 0. -1.
        -11    1    1    2    0    0 -0.63851744298E+02 -0.54762091092E+01  0.61731752049E+02  0.88982264116E+02  0.00000000000E+00 0. -1.
         11    1    1    2    0    0 -0.25257907656E+02 -0.10716906706E+03  0.17709092867E+03  0.20852905757E+03  0.00000000000E+00 0.  1.
<mgrwt>
<rscale>  0 0.18707412E+03</rscale>
<asrwt>0</asrwt>
<pdfrwt beam="2">  1        3 0.12829599E-01 0.19040868E+03</pdfrwt>
<pdfrwt beam="1">  1       -3 0.67056472E-01 0.19040868E+03</pdfrwt>
<totfact> 0.25688214E+02</totfact>
</mgrwt>
</event>
<event>
 6    1  0.9240440E-006  0.1295056E+03  0.7546771E-02  0.1242922E+00
          2   -1    0    0  501    0  0.00000000000E+00  0.00000000000E+00  0.72291900085E+03  0.72291900085E+03  0.00000000000E+00 0. -1.
         -2   -1    0    0    0  501 -0.00000000000E+00 -0.00000000000E+00 -0.17676767707E+02  0.17676767707E+02  0.00000000000E+00 0.  1.
          5    1    1    2  502    0  0.38563839167E+02  0.60908758791E+02  0.23016294022E+03  0.24123456560E+03  0.47000000000E+01 0.  1.
         -5    1    1    2    0  502 -0.50631746191E+01 -0.56627078659E+02  0.20514941158E+03  0.21293340002E+03  0.47000000000E+01 0.  1.
        -11    1    1    2    0    0  0.20454047621E+02  0.26663262614E+02  0.93831181278E+02  0.99667387933E+02  0.00000000000E+00 0. -1.
         11    1    1    2    0    0 -0.53954712169E+02 -0.30944942747E+02  0.17609870007E+03  0.18676041500E+03  0.00000000000E+00 0.  1.
<mgrwt>
<rscale>  0 0.12010589E+03</rscale>
<asrwt>0</asrwt>
<pdfrwt beam="1">  1        2 0.11121829E+00 0.12950559E+03</pdfrwt>
<pdfrwt beam="2">  1       -2 0.27195033E-02 0.12950559E+03</pdfrwt>
<totfact> 0.18665614E+04</totfact>
</mgrwt>
</event>
<event>
 6    1  0.9240440E-006  0.2520186E+03  0.7546771E-02  0.1112036E+00
          3   -1    0    0  501    0  0.00000000000E+00  0.00000000000E+00  0.11912466267E+03  0.11912466267E+03  0.00000000000E+00 0. -1.
         -3   -1    0    0    0  501 -0.00000000000E+00 -0.00000000000E+00 -0.13329182505E+03  0.13329182505E+03  0.00000000000E+00 0.  1.
          5    1    1    2  502    0  0.37568182017E+02 -0.43533517391E+02  0.73217461555E+02  0.93217069859E+02  0.47000000000E+01 0.  1.
         -5    1    1    2    0  502 -0.55429752063E+01  0.48885074271E+00 -0.45103028806E+02  0.45687380715E+02  0.47000000000E+01 0.  1.
        -11    1    1    2    0    0  0.11276811181E+02 -0.10959409507E+02  0.16432243043E+02  0.22744092389E+02  0.00000000000E+00 0. -1.
         11    1    1    2    0    0 -0.43302017992E+02  0.54004076155E+02 -0.58713838165E+02  0.90767944758E+02  0.00000000000E+00 0.  1.
<mgrwt>
<rscale>  0 0.25201860E+03</rscale>
<asrwt>0</asrwt>
<pdfrwt beam="1">  1        3 0.18326871E-01 0.25201860E+03</pdfrwt>
<pdfrwt beam="2">  1       -3 0.20506435E-01 0.25201860E+03</pdfrwt>
<totfact> 0.14162934E+03</totfact>
</mgrwt>
</event>
<event>
 6    1  0.9240440E-006  0.1256041E+03  0.7546771E-02  0.1249934E+00
         -2   -1    0    0    0  501 -0.00000000000E+00  0.00000000000E+00  0.45856860354E+02  0.45856860354E+02  0.00000000000E+00 0.  1.
          2   -1    0    0  501    0  0.00000000000E+00 -0.00000000000E+00 -0.32262294335E+03  0.32262294335E+03  0.00000000000E+00 0. -1.
          5    1    1    2  502    0 -0.30799717861E+02  0.40290894602E+02 -0.18108549682E+03  0.18811173798E+03  0.47000000000E+01 0.  1.
         -5    1    1    2    0  502  0.25738616194E+02 -0.51501742436E+02 -0.57441700142E+02  0.81464990964E+02  0.47000000000E+01 0.  1.
        -11    1    1    2    0    0 -0.23806363494E+01  0.50697214744E+02 -0.25155825735E+02  0.56645305019E+02  0.00000000000E+00 0.  1.
         11    1    1    2    0    0  0.74417380165E+01 -0.39486366911E+02 -0.13083060298E+02  0.42257769738E+02  0.00000000000E+00 0. -1.
<mgrwt>
<rscale>  0 0.11594865E+03</rscale>
<asrwt>0</asrwt>
<pdfrwt beam="2">  1        2 0.49634299E-01 0.12560410E+03</pdfrwt>
<pdfrwt beam="1">  1       -2 0.70549015E-02 0.12560410E+03</pdfrwt>
<totfact> 0.10926668E+04</totfact>
</mgrwt>
</event>
<event>
 6    1  0.9240440E-006  0.1923628E+03  0.7546771E-02  0.1160904E+00
         -2   -1    0    0    0  501 -0.00000000000E+00  0.00000000000E+00  0.25579242811E+03  0.25579242811E+03  0.00000000000E+00 0. -1.
          2   -1    0    0  501    0  0.00000000000E+00 -0.00000000000E+00 -0.22084177559E+03  0.22084177559E+03  0.00000000000E+00 0.  1.
          5    1    1    2  502    0 -0.10159116630E+03  0.36155704239E+01 -0.67269951389E+02  0.12198841658E+03  0.47000000000E+01 0.  1.
         -5    1    1    2    0  502 -0.10960881736E+02  0.89706669703E+02 -0.67058822449E+02  0.11263393443E+03  0.47000000000E+01 0.  1.
        -11    1    1    2    0    0 -0.44600531685E+01 -0.38922747373E+02  0.17828821291E+02  0.43043457179E+02  0.00000000000E+00 0.  1.
         11    1    1    2    0    0  0.11701210120E+03 -0.54399492754E+02  0.15145060507E+03  0.19896839552E+03  0.00000000000E+00 0. -1.
<mgrwt>
<rscale>  0 0.18731624E+03</rscale>
<asrwt>0</asrwt>
<pdfrwt beam="2">  1        2 0.33975658E-01 0.19236275E+03</pdfrwt>
<pdfrwt beam="1">  1       -2 0.39352681E-01 0.19236275E+03</pdfrwt>
<totfact> 0.93561203E+02</totfact>
</mgrwt>
</event>
<event>
 6    1  0.9240440E-006  0.1264978E+03  0.7546771E-02  0.1248137E+00
         -2   -1    0    0    0  501 -0.00000000000E+00  0.00000000000E+00  0.11668193521E+03  0.11668193521E+03  0.00000000000E+00 0.  1.
          2   -1    0    0  501    0  0.00000000000E+00 -0.00000000000E+00 -0.10485217045E+03  0.10485217045E+03  0.00000000000E+00 0. -1.
          5    1    1    2  502    0 -0.20498762707E+02  0.29164130439E+02  0.43431348372E+02  0.56383666059E+02  0.47000000000E+01 0. -1.
         -5    1    1    2    0  502  0.10990339601E+02 -0.46068652015E+02 -0.51867915851E+02  0.70395162886E+02  0.47000000000E+01 0. -1.
        -11    1    1    2    0    0  0.24230351781E+02  0.48643830071E+02  0.24311672335E+02  0.59534776083E+02  0.00000000000E+00 0.  1.
         11    1    1    2    0    0 -0.14721928675E+02 -0.31739308496E+02 -0.40453400956E+01  0.35220500624E+02  0.00000000000E+00 0. -1.
<mgrwt>
<rscale>  0 0.11699604E+03</rscale>
<asrwt>0</asrwt>
<pdfrwt beam="2">  1        2 0.16131103E-01 0.12649781E+03</pdfrwt>
<pdfrwt beam="1">  1       -2 0.17951067E-01 0.12649781E+03</pdfrwt>
<totfact> 0.84752294E+03</totfact>
</mgrwt>
</event>
<event>
 6    1  0.9240440E-006  0.1314783E+03  0.7546771E-02  0.1238640E+00
          1   -1    0    0  501    0  0.00000000000E+00  0.00000000000E+00  0.39083816336E+03  0.39083816336E+03  0.00000000000E+00 0. -1.
         -1   -1    0    0    0  501 -0.00000000000E+00 -0.00000000000E+00 -0.38188595166E+02  0.38188595166E+02  0.00000000000E+00 0.  1.
          5    1    1    2  502    0 -0.21983404307E+02  0.63341979947E+02  0.75304168940E+02  0.10093703160E+03  0.47000000000E+01 0. -1.
         -5    1    1    2    0  502 -0.12784322105E+02 -0.42061333934E+02  0.19106569487E+03  0.19611421279E+03  0.47000000000E+01 0. -1.
        -11    1    1    2    0    0  0.13780810380E+02 -0.12426465634E+02 -0.17631611267E+02  0.25596904085E+02  0.00000000000E+00 0.  1.
         11    1    1    2    0    0  0.20986916033E+02 -0.88541803787E+01  0.10391131566E+03  0.10637861005E+03  0.00000000000E+00 0. -1.
<mgrwt>
<rscale>  0 0.12274269E+03</rscale>
<asrwt>0</asrwt>
<pdfrwt beam="1">  1        1 0.60128945E-01 0.13147828E+03</pdfrwt>
<pdfrwt beam="2">  1       -1 0.58751688E-02 0.13147828E+03</pdfrwt>
<totfact> 0.81838438E+03</totfact>
</mgrwt>
</event>
<event>
 6    1  0.9240440E-006  0.1284860E+03  0.7546771E-02  0.1244664E+00
          1   -1    0    0  501    0  0.00000000000E+00  0.00000000000E+00  0.12545702195E+03  0.12545702195E+03  0.00000000000E+00 0. -1.
         -1   -1    0    0    0  501 -0.00000000000E+00 -0.00000000000E+00 -0.10823665827E+03  0.10823665827E+03  0.00000000000E+00 0.  1.
          5    1    1    2  502    0 -0.28596029740E+02 -0.18668456523E+02 -0.29156334983E+02  0.45148931942E+02  0.47000000000E+01 0.  1.
         -5    1    1    2    0  502  0.24704590570E+02  0.48130156030E+02  0.72226716174E+02  0.90363804945E+02  0.47000000000E+01 0.  1.
        -11    1    1    2    0    0  0.44179990369E+02 -0.13149803289E+02 -0.29233901962E+02  0.54583971085E+02  0.00000000000E+00 0.  1.
         11    1    1    2    0    0 -0.40288551198E+02 -0.16311896218E+02  0.33838844527E+01  0.43596972256E+02  0.00000000000E+00 0. -1.
<mgrwt>
<rscale>  0 0.11905525E+03</rscale>
<asrwt>0</asrwt>
<pdfrwt beam="1">  1        1 0.19301080E-01 0.12848597E+03</pdfrwt>
<pdfrwt beam="2">  1       -1 0.16651794E-01 0.12848597E+03</pdfrwt>
<totfact> 0.68630279E+03</totfact>
</mgrwt>
</event>
<event>
 6    1  0.9240440E-006  0.1577395E+03  0.7546771E-02  0.1199540E+00
         -2   -1    0    0    0  501 -0.00000000000E+00  0.00000000000E+00  0.29350613853E+03  0.29350613853E+03  0.00000000000E+00 0.  1.
          2   -1    0    0  501    0  0.00000000000E+00 -0.00000000000E+00 -0.12478576524E+03  0.12478576524E+03  0.00000000000E+00 0. -1.
          5    1    1    2  502    0 -0.82820715179E+02  0.44608025852E+02 -0.19829107376E+02  0.96251910799E+02  0.47000000000E+01 0. -1.
         -5    1    1    2    0  502 -0.11936402474E+02 -0.61269370338E+02 -0.28039477885E+02  0.68590930637E+02  0.47000000000E+01 0. -1.
        -11    1    1    2    0    0  0.59668946836E+02 -0.14158450602E+02  0.19012456259E+03  0.19977035376E+03  0.00000000000E+00 0.  1.
         11    1    1    2    0    0  0.35088170817E+02  0.30819795088E+02  0.26464395959E+02  0.53678708572E+02  0.00000000000E+00 0. -1.
<mgrwt>
<rscale>  0 0.15076190E+03</rscale>
<asrwt>0</asrwt>
<pdfrwt beam="2">  1        2 0.19197810E-01 0.15773954E+03</pdfrwt>
<pdfrwt beam="1">  1       -2 0.45154790E-01 0.15773954E+03</pdfrwt>
<totfact> 0.13466187E+03</totfact>
</mgrwt>
</event>
<event>
 6    1  0.9240440E-006  0.1253363E+03  0.7546771E-02  0.1245295E+00
          1   -1    0    0  501    0  0.00000000000E+00  0.00000000000E+00  0.59814338106E+02  0.59814338106E+02  0.00000000000E+00 0.  1.
         -1   -1    0    0    0  501 -0.00000000000E+00 -0.00000000000E+00 -0.25647260169E+03  0.25647260169E+03  0.00000000000E+00 0. -1.
          5    1    1    2  502    0  0.22327980002E+02 -0.44999343056E+02 -0.53120112125E+02  0.73261967477E+02  0.47000000000E+01 0.  1.
         -5    1    1    2    0  502 -0.21080966456E+02  0.54192612431E+02  0.10192633839E+02  0.59221838653E+02  0.47000000000E+01 0.  1.
        -11    1    1    2    0    0 -0.37840576082E+01  0.36203959974E+02 -0.17899727341E+02  0.40564098026E+02  0.00000000000E+00 0.  1.
         11    1    1    2    0    0  0.25370440616E+01 -0.45397229349E+02 -0.13583105796E+03  0.14323903564E+03  0.00000000000E+00 0. -1.
<mgrwt>
<rscale>  0 0.11867747E+03</rscale>
<asrwt>0</asrwt>
<pdfrwt beam="1">  1        1 0.92022056E-02 0.12533631E+03</pdfrwt>
<pdfrwt beam="2">  1       -1 0.39457324E-01 0.12533631E+03</pdfrwt>
<totfact> 0.43253007E+03</totfact>
</mgrwt>
</event>
<event>
 6    1  0.9240440E-006  0.1279328E+03  0.7546771E-02  0.1245677E+00
         -1   -1    0    0    0  501 -0.00000000000E+00  0.00000000000E+00  0.10632363620E+03  0.10632363620E+03  0.00000000000E+00 0.  1.
          1   -1    0    0  501    0  0.00000000000E+00 -0.00000000000E+00 -0.13719656534E+03  0.13719656534E+03  0.00000000000E+00 0. -1.
          5    1    1    2  502    0 -0.27216386949E+02 -0.42136461733E+02 -0.29457476016E+02  0.58361340108E+02  0.47000000000E+01 0. -1.
         -5    1    1    2    0  502  0.38645625811E+02  0.66854524502E+02 -0.35550248982E+02  0.85140601615E+02  0.47000000000E+01 0. -1.
        -11    1    1    2    0    0  0.15747489502E+02  0.26845379636E+02  0.27174581634E+02  0.41317256932E+02  0.00000000000E+00 0.  1.
         11    1    1    2    0    0 -0.27176728365E+02 -0.51563442405E+02  0.69602142311E+01  0.58701002882E+02  0.00000000000E+00 0. -1.
<mgrwt>
<rscale>  0 0.11844959E+03</rscale>
<asrwt>0</asrwt>
<pdfrwt beam="2">  1        1 0.21107164E-01 0.12793281E+03</pdfrwt>
<pdfrwt beam="1">  1       -1 0.16357483E-01 0.12793281E+03</pdfrwt>
<totfact> 0.62997405E+03</totfact>
</mgrwt>
</event>
<event>
 6    1  0.9240440E-006  0.3543229E+03  0.7546771E-02  0.1109516E+00
          1   -1    0    0  501    0  0.00000000000E+00  0.00000000000E+00  0.36322326375E+03  0.36322326375E+03  0.00000000000E+00 0. -1.
         -1   -1    0    0    0  501 -0.00000000000E+00 -0.00000000000E+00 -0.27556203939E+03  0.27556203939E+03  0.00000000000E+00 0.  1.
          5    1    1    2  502    0  0.38384564680E+02 -0.15851596583E+03  0.17721023265E+03  0.24088636903E+03  0.47000000000E+01 0. -1.
         -5    1    1    2    0  502 -0.65821103877E+02  0.16826017130E+03  0.83946344855E+02  0.19928116262E+03  0.47000000000E+01 0.  1.
        -11    1    1    2    0    0  0.45272115217E+02  0.27763821872E+02 -0.11709325465E+03  0.12857380956E+03  0.00000000000E+00 0.  1.
         11    1    1    2    0    0 -0.17835576021E+02 -0.37508027343E+02 -0.56402098505E+02  0.70043961931E+02  0.00000000000E+00 0. -1.
<mgrwt>
<rscale>  0 0.25608931E+03</rscale>
<asrwt>0</asrwt>
<pdfrwt beam="1">  1        1 0.55880502E-01 0.35432287E+03</pdfrwt>
<pdfrwt beam="2">  1       -1 0.42394160E-01 0.35432287E+03</pdfrwt>
<totfact> 0.38229236E+02</totfact>
</mgrwt>
</event>
<event>
 6    1  0.9240440E-006  0.2578173E+03  0.7546771E-02  0.1110710E+00
          1   -1    0    0  501    0  0.00000000000E+00  0.00000000000E+00  0.76882483021E+03  0.76882483021E+03  0.00000000000E+00 0. -1.
         -1   -1    0    0    0  501 -0.00000000000E+00 -0.00000000000E+00 -0.14349952832E+03  0.14349952832E+03  0.00000000000E+00 0.  1.
          5    1    1    2  502    0  0.35137597546E+02  0.16910909312E+03  0.31616054553E+03  0.36029448606E+03  0.47000000000E+01 0. -1.
         -5    1    1    2    0  502  0.56876308148E+02  0.36759676911E+02  0.30086610547E+03  0.30842939499E+03  0.47000000000E+01 0. -1.
        -11    1    1    2    0    0 -0.54397202837E+02 -0.11042631273E+03 -0.41048082606E+02  0.12976120878E+03  0.00000000000E+00 0.  1.
         11    1    1    2    0    0 -0.37616702857E+02 -0.95442457299E+02  0.49346733500E+02  0.11383926869E+03  0.00000000000E+00 0. -1.
<mgrwt>
<rscale>  0 0.25415022E+03</rscale>
<asrwt>0</asrwt>
<pdfrwt beam="1">  1        1 0.11828074E+00 0.25781726E+03</pdfrwt>
<pdfrwt beam="2">  1       -1 0.22076851E-01 0.25781726E+03</pdfrwt>
<totfact> 0.42279768E+02</totfact>
</mgrwt>
</event>
<event>
 6    1  0.9240440E-006  0.1526489E+03  0.7546771E-02  0.1205844E+00
          2   -1    0    0  501    0  0.00000000000E+00  0.00000000000E+00  0.20759485975E+03  0.20759485975E+03  0.00000000000E+00 0. -1.
         -2   -1    0    0    0  501 -0.00000000000E+00 -0.00000000000E+00 -0.14453738217E+03  0.14453738217E+03  0.00000000000E+00 0.  1.
          5    1    1    2  502    0  0.16358906969E+02  0.16461297742E+02 -0.15314911643E+02  0.28199728354E+02  0.47000000000E+01 0. -1.
         -5    1    1    2    0  502  0.48123433330E+02 -0.75781586043E+02  0.15256528704E+03  0.17707899488E+03  0.47000000000E+01 0. -1.
        -11    1    1    2    0    0 -0.55942543973E+02  0.73140971855E+02 -0.86603491674E+02  0.12640939348E+03  0.00000000000E+00 0.  1.
         11    1    1    2    0    0 -0.85397963266E+01 -0.13820683555E+02  0.12410593859E+02  0.20444125199E+02  0.00000000000E+00 0. -1.
<mgrwt>
<rscale>  0 0.14571125E+03</rscale>
<asrwt>0</asrwt>
<pdfrwt beam="1">  1        2 0.31937671E-01 0.15264891E+03</pdfrwt>
<pdfrwt beam="2">  1       -2 0.22236520E-01 0.15264891E+03</pdfrwt>
<totfact> 0.27831881E+03</totfact>
</mgrwt>
</event>
<event>
 6    1  0.9240440E-006  0.2041624E+03  0.7546771E-02  0.1151292E+00
         -2   -1    0    0    0  501 -0.00000000000E+00  0.00000000000E+00  0.75567800402E+02  0.75567800402E+02  0.00000000000E+00 0.  1.
          2   -1    0    0  501    0  0.00000000000E+00 -0.00000000000E+00 -0.64244712321E+03  0.64244712321E+03  0.00000000000E+00 0. -1.
          5    1    1    2  502    0  0.90364458100E+02  0.83642457264E+02 -0.18330690102E+03  0.22087395932E+03  0.47000000000E+01 0. -1.
         -5    1    1    2    0  502 -0.37152547384E+01  0.52604555525E+02 -0.28689032135E+03  0.29173479200E+03  0.47000000000E+01 0. -1.
        -11    1    1    2    0    0 -0.70865887894E+01 -0.87092396511E+02 -0.40537511093E+02  0.96325464319E+02  0.00000000000E+00 0. -1.
         11    1    1    2    0    0 -0.79562614572E+02 -0.49154616278E+02 -0.56144589351E+02  0.10908070798E+03  0.00000000000E+00 0.  1.
<mgrwt>
<rscale>  0 0.19817065E+03</rscale>
<asrwt>0</asrwt>
<pdfrwt beam="2">  1        2 0.98838023E-01 0.20416245E+03</pdfrwt>
<pdfrwt beam="1">  1       -2 0.11625815E-01 0.20416245E+03</pdfrwt>
<totfact> 0.24028265E+03</totfact>
</mgrwt>
</event>
<event>
 6    1  0.9240440E-006  0.1293785E+03  0.7546771E-02  0.1242325E+00
         -2   -1    0    0    0  501 -0.00000000000E+00  0.00000000000E+00  0.68384460365E+02  0.68384460365E+02  0.00000000000E+00 0.  1.
          2   -1    0    0  501    0  0.00000000000E+00 -0.00000000000E+00 -0.18829889788E+03  0.18829889788E+03  0.00000000000E+00 0. -1.
          5    1    1    2  502    0  0.30315678513E+02 -0.33456590486E+02 -0.57936842808E+02  0.73601301383E+02  0.47000000000E+01 0.  1.
         -5    1    1    2    0  502 -0.63399640517E+02  0.37950900087E+02 -0.17195051621E+02  0.76010164027E+02  0.47000000000E+01 0.  1.
        -11    1    1    2    0    0  0.70798140075E+00 -0.14071504766E+02  0.25481358878E+02  0.29117145023E+02  0.00000000000E+00 0.  1.
         11    1    1    2    0    0  0.32375980604E+02  0.95771951655E+01 -0.70263901962E+02  0.77954747811E+02  0.00000000000E+00 0. -1.
<mgrwt>
<rscale>  0 0.12046938E+03</rscale>
<asrwt>0</asrwt>
<pdfrwt beam="2">  1        2 0.28969061E-01 0.12937847E+03</pdfrwt>
<pdfrwt beam="1">  1       -2 0.10520686E-01 0.12937847E+03</pdfrwt>
<totfact> 0.10462720E+04</totfact>
</mgrwt>
</event>
<event>
 6    1  0.9240440E-006  0.1305137E+03  0.7546771E-02  0.1235470E+00
         -2   -1    0    0    0  501 -0.00000000000E+00  0.00000000000E+00  0.51980904558E+02  0.51980904558E+02  0.00000000000E+00 0. -1.
          2   -1    0    0  501    0  0.00000000000E+00 -0.00000000000E+00 -0.30037352170E+03  0.30037352170E+03  0.00000000000E+00 0.  1.
          5    1    1    2  502    0 -0.75023025375E+02  0.25010628838E+02 -0.11198789818E+03  0.13717640187E+03  0.47000000000E+01 0. -1.
         -5    1    1    2    0  502  0.50936290724E+02  0.37757157124E+01 -0.72773730178E+02  0.89032957638E+02  0.47000000000E+01 0. -1.
        -11    1    1    2    0    0  0.45904835269E+02 -0.56899702803E+02 -0.46563372874E+02  0.86677435205E+02  0.00000000000E+00 0.  1.
         11    1    1    2    0    0 -0.21818100618E+02  0.28113358254E+02 -0.17067615909E+02  0.39467631544E+02  0.00000000000E+00 0. -1.
<mgrwt>
<rscale>  0 0.12474392E+03</rscale>
<asrwt>0</asrwt>
<pdfrwt beam="2">  1        2 0.46211312E-01 0.13051366E+03</pdfrwt>
<pdfrwt beam="1">  1       -2 0.79970621E-02 0.13051366E+03</pdfrwt>
<totfact> 0.97501716E+03</totfact>
</mgrwt>
</event>
<event>
 6    1  0.1409095E-005  0.1565999E+03  0.7546771E-02  0.1200507E+00
         -1   -1    0    0    0  501 -0.00000000000E+00  0.00000000000E+00  0.13295657556E+03  0.13295657556E+03  0.00000000000E+00 0.  1.
          1   -1    0    0  501    0  0.00000000000E+00 -0.00000000000E+00 -0.18066547974E+03  0.18066547974E+03  0.00000000000E+00 0. -1.
          5    1    1    2  502    0  0.67905940634E+01 -0.78485328493E+02  0.74601949943E+01  0.79270445096E+02  0.47000000000E+01 0.  1.
         -5    1    1    2    0  502 -0.35509139775E+02 -0.11371873792E+02 -0.90481096270E+02  0.97975187182E+02  0.47000000000E+01 0.  1.
        -11    1    1    2    0    0  0.59505203748E+01  0.93510837001E+02 -0.59601588341E+00  0.93701870655E+02  0.00000000000E+00 0. -1.
         11    1    1    2    0    0  0.22768025337E+02 -0.36536347164E+01  0.35908012979E+02  0.42674552376E+02  0.00000000000E+00 0.  1.
<mgrwt>
<rscale>  0 0.14997233E+03</rscale>
<asrwt>0</asrwt>
<pdfrwt beam="2">  1        1 0.27794689E-01 0.15659995E+03</pdfrwt>
<pdfrwt beam="1">  1       -1 0.20454858E-01 0.15659995E+03</pdfrwt>
<totfact> 0.31559764E+03</totfact>
</mgrwt>
</event>
<event>
 6    1  0.9240440E-006  0.1389665E+03  0.7546771E-02  0.1224439E+00
         -1   -1    0    0    0  501 -0.00000000000E+00  0.00000000000E+00  0.16281360255E+02  0.16281360255E+02  0.00000000000E+00 0.  1.
          1   -1    0    0  501    0  0.00000000000E+00 -0.00000000000E+00 -0.13145476532E+04  0.13145476532E+04  0.00000000000E+00 0. -1.
          5    1    1    2  502    0  0.20461932112E+02  0.49310632841E+02 -0.97800943898E+03  0.97947678988E+03  0.47000000000E+01 0.  1.
         -5    1    1    2    0  502  0.27656075737E+02 -0.12266444315E+02 -0.55948992904E+02  0.63778554297E+02  0.47000000000E+01 0.  1.
        -11    1    1    2    0    0 -0.24799125968E+02 -0.64882616535E+02 -0.11892524363E+03  0.13772423226E+03  0.00000000000E+00 0.  1.
         11    1    1    2    0    0 -0.23318881881E+02  0.27838428009E+02 -0.14538261743E+03  0.14984943703E+03  0.00000000000E+00 0. -1.
<mgrwt>
<rscale>  0 0.13205443E+03</rscale>
<asrwt>0</asrwt>
<pdfrwt beam="2">  1        1 0.20223814E+00 0.13896645E+03</pdfrwt>
<pdfrwt beam="1">  1       -1 0.25048241E-02 0.13896645E+03</pdfrwt>
<totfact> 0.46180986E+03</totfact>
</mgrwt>
</event>
<event>
 6    1  0.9240440E-006  0.2540659E+03  0.7546771E-02  0.1110762E+00
          2   -1    0    0  501    0  0.00000000000E+00  0.00000000000E+00  0.89323966770E+03  0.89323966770E+03  0.00000000000E+00 0.  1.
         -2   -1    0    0    0  501 -0.00000000000E+00 -0.00000000000E+00 -0.18066110973E+02  0.18066110973E+02  0.00000000000E+00 0. -1.
          5    1    1    2  502    0  0.71002475544E+02 -0.78795732113E+01  0.14551211647E+03  0.16217060537E+03  0.47000000000E+01 0. -1.
         -5    1    1    2    0  502 -0.89764948578E+01  0.19161463938E+02  0.41471787023E+03  0.41528392824E+03  0.47000000000E+01 0. -1.
        -11    1    1    2    0    0 -0.43781000911E+02  0.18292049305E+02  0.28201463368E+03  0.28597837107E+03  0.00000000000E+00 0.  1.
         11    1    1    2    0    0 -0.18244979775E+02 -0.29573940032E+02  0.32928936343E+02  0.47872873997E+02  0.00000000000E+00 0. -1.
<mgrwt>
<rscale>  0 0.25406587E+03</rscale>
<asrwt>0</asrwt>
<pdfrwt beam="1">  1        2 0.13742145E+00 0.25406587E+03</pdfrwt>
<pdfrwt beam="2">  1       -2 0.27794024E-02 0.25406587E+03</pdfrwt>
<totfact> 0.14465159E+04</totfact>
</mgrwt>
</event>
<event>
 6    1  0.9240440E-006  0.4355605E+03  0.7546771E-02  0.1067090E+00
          2   -1    0    0  501    0  0.00000000000E+00  0.00000000000E+00  0.26448980691E+04  0.26448980691E+04  0.00000000000E+00 0. -1.
         -2   -1    0    0    0  501 -0.00000000000E+00 -0.00000000000E+00 -0.39109314951E+02  0.39109314951E+02  0.00000000000E+00 0.  1.
          5    1    1    2  502    0  0.10096081922E+03  0.48528148066E+02  0.21631361141E+04  0.21660397056E+04  0.47000000000E+01 0. -1.
         -5    1    1    2    0  502 -0.65915069706E+02  0.75829510279E+02  0.11251311660E+03  0.15091786657E+03  0.47000000000E+01 0.  1.
        -11    1    1    2    0    0 -0.11446936283E+02 -0.12154715096E+03  0.19667642878E+03  0.23148727804E+03  0.00000000000E+00 0.  1.
         11    1    1    2    0    0 -0.23598813233E+02 -0.28105073809E+01  0.13346309461E+03  0.13556253376E+03  0.00000000000E+00 0. -1.
<mgrwt>
<rscale>  0 0.33931156E+03</rscale>
<asrwt>0</asrwt>
<pdfrwt beam="1">  1        2 0.40690726E+00 0.43556052E+03</pdfrwt>
<pdfrwt beam="2">  1       -2 0.60168197E-02 0.43556052E+03</pdfrwt>
<totfact> 0.47757635E+02</totfact>
</mgrwt>
</event>
<event>
 6    1  0.9240440E-006  0.1454865E+03  0.7546771E-02  0.1216388E+00
          3   -1    0    0  501    0  0.00000000000E+00  0.00000000000E+00  0.20886106925E+02  0.20886106925E+02  0.00000000000E+00 0. -1.
         -3   -1    0    0    0  501 -0.00000000000E+00 -0.00000000000E+00 -0.89638952010E+03  0.89638952010E+03  0.00000000000E+00 0.  1.
          5    1    1    2  502    0 -0.19969868727E+02 -0.54571378259E+01  0.28920971732E+01  0.21424990928E+02  0.47000000000E+01 0. -1.
         -5    1    1    2    0  502 -0.52836602566E+02  0.20975794677E+02 -0.35503361005E+03  0.35958676950E+03  0.47000000000E+01 0. -1.
        -11    1    1    2    0    0 -0.10191299130E+02 -0.30480924590E+02 -0.12430629541E+03  0.12839394231E+03  0.00000000000E+00 0.  1.
         11    1    1    2    0    0  0.82997770422E+02  0.14962267739E+02 -0.39905560488E+03  0.40786992429E+03  0.00000000000E+00 0. -1.
<mgrwt>
<rscale>  0 0.13775045E+03</rscale>
<asrwt>0</asrwt>
<pdfrwt beam="1">  1        3 0.32132475E-02 0.14548648E+03</pdfrwt>
<pdfrwt beam="2">  1       -3 0.13790607E+00 0.14548648E+03</pdfrwt>
<totfact> 0.45397532E+02</totfact>
</mgrwt>
</event>
<event>
 6    1  0.9240440E-006  0.1854382E+03  0.7546771E-02  0.1168019E+00
         -1   -1    0    0    0  501 -0.00000000000E+00  0.00000000000E+00  0.88696973927E+02  0.88696973927E+02  0.00000000000E+00 0.  1.
          1   -1    0    0  501    0  0.00000000000E+00 -0.00000000000E+00 -0.42299192147E+03  0.42299192147E+03  0.00000000000E+00 0. -1.
          5    1    1    2  502    0  0.66118168801E+02  0.11945916320E+03 -0.29253901058E+03  0.32286725852E+03  0.47000000000E+01 0. -1.
         -5    1    1    2    0  502 -0.14426593220E+02  0.73924004049E+01  0.64464915340E+01  0.18067136707E+02  0.47000000000E+01 0. -1.
        -11    1    1    2    0    0 -0.71418973770E+02 -0.10915653749E+03 -0.19851613923E+02  0.13194660309E+03  0.00000000000E+00 0. -1.
         11    1    1    2    0    0  0.19727398189E+02 -0.17695026118E+02 -0.28350814583E+02  0.38807897085E+02  0.00000000000E+00 0.  1.
<mgrwt>
<rscale>  0 0.17977709E+03</rscale>
<asrwt>0</asrwt>
<pdfrwt beam="2">  1        1 0.65075678E-01 0.18543822E+03</pdfrwt>
<pdfrwt beam="1">  1       -1 0.13645689E-01 0.18543822E+03</pdfrwt>
<totfact> 0.20824089E+03</totfact>
</mgrwt>
</event>
<event>
 6    1  0.9240440E-006  0.2052189E+03  0.7546771E-02  0.1150128E+00
         -2   -1    0    0    0  501 -0.00000000000E+00  0.00000000000E+00  0.46532983817E+02  0.46532983817E+02  0.00000000000E+00 0.  1.
          2   -1    0    0  501    0  0.00000000000E+00 -0.00000000000E+00 -0.82911262712E+03  0.82911262712E+03  0.00000000000E+00 0. -1.
          5    1    1    2  502    0 -0.37960736784E+02  0.10290813002E+03 -0.14457026174E+03  0.18153168137E+03  0.47000000000E+01 0.  1.
         -5    1    1    2    0  502 -0.48194083248E+02  0.35172416055E+02 -0.33191955717E+03  0.33727207259E+03  0.47000000000E+01 0.  1.
        -11    1    1    2    0    0 -0.65338213954E+01 -0.58650174262E+02 -0.74396100759E+02  0.94959536494E+02  0.00000000000E+00 0. -1.
         11    1    1    2    0    0  0.92688641428E+02 -0.79430371810E+02 -0.23169372363E+03  0.26188232049E+03  0.00000000000E+00 0.  1.
<mgrwt>
<rscale>  0 0.19953921E+03</rscale>
<asrwt>0</asrwt>
<pdfrwt beam="2">  1        2 0.12755578E+00 0.20521888E+03</pdfrwt>
<pdfrwt beam="1">  1       -2 0.71589210E-02 0.20521888E+03</pdfrwt>
<totfact> 0.37741430E+03</totfact>
</mgrwt>
</event>
<event>
 6    1  0.9240440E-006  0.1294376E+03  0.7546771E-02  0.1241797E+00
          2   -1    0    0  501    0  0.00000000000E+00  0.00000000000E+00  0.44879164768E+03  0.44879164768E+03  0.00000000000E+00 0.  1.
         -2   -1    0    0    0  501 -0.00000000000E+00 -0.00000000000E+00 -0.29421314026E+02  0.29421314026E+02  0.00000000000E+00 0. -1.
          5    1    1    2  502    0  0.75210184931E+02  0.14391162534E+02  0.18874260960E+03  0.20373890192E+03  0.47000000000E+01 0.  1.
         -5    1    1    2    0  502 -0.49805826499E+02  0.75734697564E+01  0.82000178528E+02  0.96354019511E+02  0.47000000000E+01 0.  1.
        -11    1    1    2    0    0 -0.20759059908E+02 -0.49916778851E+02  0.13737916847E+03  0.14763353043E+03  0.00000000000E+00 0.  1.
         11    1    1    2    0    0 -0.46452985244E+01  0.27952146561E+02  0.11248377053E+02  0.30486509837E+02  0.00000000000E+00 0. -1.
<mgrwt>
<rscale>  0 0.12079138E+03</rscale>
<asrwt>0</asrwt>
<pdfrwt beam="1">  1        2 0.69044864E-01 0.12943765E+03</pdfrwt>
<pdfrwt beam="2">  1       -2 0.45263563E-02 0.12943765E+03</pdfrwt>
<totfact> 0.15058438E+04</totfact>
</mgrwt>
</event>
<event>
 6    1  0.9240440E-006  0.1861203E+03  0.7546771E-02  0.1167039E+00
         -1   -1    0    0    0  501 -0.00000000000E+00  0.00000000000E+00  0.46122231383E+02  0.46122231383E+02  0.00000000000E+00 0.  1.
          1   -1    0    0  501    0  0.00000000000E+00 -0.00000000000E+00 -0.75955402422E+03  0.75955402422E+03  0.00000000000E+00 0. -1.
          5    1    1    2  502    0  0.26935661276E+02  0.48696651503E+01 -0.37440748631E+02  0.46616983441E+02  0.47000000000E+01 0.  1.
         -5    1    1    2    0  502 -0.61501080077E+02 -0.13838358837E+03 -0.47495078123E+03  0.49853057576E+03  0.47000000000E+01 0.  1.
        -11    1    1    2    0    0 -0.20305991667E+02  0.22252449600E+02 -0.86821134572E+02  0.91898934810E+02  0.00000000000E+00 0. -1.
         11    1    1    2    0    0  0.54871410468E+02  0.11126147362E+03 -0.11421912840E+03  0.16862976159E+03  0.00000000000E+00 0.  1.
<mgrwt>
<rscale>  0 0.18079192E+03</rscale>
<asrwt>0</asrwt>
<pdfrwt beam="2">  1        1 0.11685445E+00 0.18612034E+03</pdfrwt>
<pdfrwt beam="1">  1       -1 0.70957290E-02 0.18612034E+03</pdfrwt>
<totfact> 0.25585619E+03</totfact>
</mgrwt>
</event>
<event>
 6    1  0.9240440E-006  0.1277087E+03  0.7546771E-02  0.1234989E+00
          1   -1    0    0  501    0  0.00000000000E+00  0.00000000000E+00  0.11535244454E+03  0.11535244454E+03  0.00000000000E+00 0. -1.
         -1   -1    0    0    0  501 -0.00000000000E+00 -0.00000000000E+00 -0.13155021223E+03  0.13155021223E+03  0.00000000000E+00 0.  1.
          5    1    1    2  502    0  0.69865072071E+02 -0.51196377727E+01  0.10845872294E+02  0.71042676838E+02  0.47000000000E+01 0.  1.
         -5    1    1    2    0  502 -0.51052950932E+02  0.23299317975E+02 -0.68416356171E+01  0.56728828605E+02  0.47000000000E+01 0.  1.
        -11    1    1    2    0    0 -0.31009247435E+02 -0.50231591945E+02  0.23536352155E+02  0.63551130034E+02  0.00000000000E+00 0. -1.
         11    1    1    2    0    0  0.12197126296E+02  0.32051911743E+02 -0.43738356515E+02  0.55580021293E+02  0.00000000000E+00 0.  1.
<mgrwt>
<rscale>  0 0.12505119E+03</rscale>
<asrwt>0</asrwt>
<pdfrwt beam="1">  1        1 0.17746530E-01 0.12770875E+03</pdfrwt>
<pdfrwt beam="2">  1       -1 0.20238494E-01 0.12770875E+03</pdfrwt>
<totfact> 0.55984094E+03</totfact>
</mgrwt>
</event>
<event>
 6    1  0.9240440E-006  0.1259174E+03  0.7546771E-02  0.1249259E+00
          2   -1    0    0  501    0  0.00000000000E+00  0.00000000000E+00  0.17965383551E+03  0.17965383551E+03  0.00000000000E+00 0. -1.
         -2   -1    0    0    0  501 -0.00000000000E+00 -0.00000000000E+00 -0.73609834909E+02  0.73609834909E+02  0.00000000000E+00 0.  1.
          5    1    1    2  502    0  0.45069461776E+02 -0.39365618190E+02  0.15398739544E+02  0.61968697419E+02  0.47000000000E+01 0. -1.
         -5    1    1    2    0  502 -0.29904795357E+02  0.40634427171E+02  0.85500699016E+02  0.99387690330E+02  0.47000000000E+01 0. -1.
        -11    1    1    2    0    0 -0.59209926179E+01 -0.32427375105E+02  0.34783234907E+02  0.47921459080E+02  0.00000000000E+00 0. -1.
         11    1    1    2    0    0 -0.92436738012E+01  0.31158566123E+02 -0.29638672862E+02  0.43985823594E+02  0.00000000000E+00 0.  1.
<mgrwt>
<rscale>  0 0.11634062E+03</rscale>
<asrwt>0</asrwt>
<pdfrwt beam="1">  1        2 0.27639052E-01 0.12591738E+03</pdfrwt>
<pdfrwt beam="2">  1       -2 0.11324590E-01 0.12591738E+03</pdfrwt>
<totfact> 0.97795136E+03</totfact>
</mgrwt>
</event>
<event>
 6    1  0.9240440E-006  0.1179317E+03  0.7546771E-02  0.1256458E+00
         -2   -1    0    0    0  501 -0.00000000000E+00  0.00000000000E+00  0.15757810887E+03  0.15757810887E+03  0.00000000000E+00 0.  1.
          2   -1    0    0  501    0  0.00000000000E+00 -0.00000000000E+00 -0.17658187582E+03  0.17658187582E+03  0.00000000000E+00 0. -1.
          5    1    1    2  502    0 -0.50566410314E+01 -0.30830535924E+02 -0.14811218725E+03  0.15144438443E+03  0.47000000000E+01 0. -1.
         -5    1    1    2    0  502  0.26656891875E+02  0.61012752695E+01  0.10607745752E+02  0.29705718545E+02  0.47000000000E+01 0.  1.
        -11    1    1    2    0    0 -0.32099393961E+02  0.39507807427E+02  0.12401959639E+03  0.13406005456E+03  0.00000000000E+00 0.  1.
         11    1    1    2    0    0  0.10499143118E+02 -0.14778546773E+02 -0.55189218507E+01  0.18949827158E+02  0.00000000000E+00 0. -1.
<mgrwt>
<rscale>  0 0.11225047E+03</rscale>
<asrwt>0</asrwt>
<pdfrwt beam="2">  1        2 0.27166442E-01 0.11793171E+03</pdfrwt>
<pdfrwt beam="1">  1       -2 0.24242786E-01 0.11793171E+03</pdfrwt>
<totfact> 0.28218681E+03</totfact>
</mgrwt>
</event>
<event>
 6    1  0.9240440E-006  0.1279425E+03  0.7546771E-02  0.1244410E+00
         -2   -1    0    0    0  501 -0.00000000000E+00  0.00000000000E+00  0.85398089847E+03  0.85398089847E+03  0.00000000000E+00 0.  1.
          2   -1    0    0  501    0  0.00000000000E+00 -0.00000000000E+00 -0.14872926983E+02  0.14872926983E+02  0.00000000000E+00 0. -1.
          5    1    1    2  502    0 -0.37678416525E+02  0.71788167553E+01  0.39786274522E+03  0.39973497785E+03  0.47000000000E+01 0.  1.
         -5    1    1    2    0  502  0.24121392581E+02 -0.30821557720E+02  0.38900111775E+02  0.55381573618E+02  0.47000000000E+01 0.  1.
        -11    1    1    2    0    0 -0.30422640971E+02  0.39321777901E+02  0.21089568753E+03  0.21667655692E+03  0.00000000000E+00 0. -1.
         11    1    1    2    0    0  0.43979664914E+02 -0.15679036936E+02  0.19144942697E+03  0.19706071707E+03  0.00000000000E+00 0.  1.
<mgrwt>
<rscale>  0 0.11920751E+03</rscale>
<asrwt>0</asrwt>
<pdfrwt beam="2">  1        2 0.22881433E-02 0.12794250E+03</pdfrwt>
<pdfrwt beam="1">  1       -2 0.13138164E+00 0.12794250E+03</pdfrwt>
<totfact> 0.19257552E+03</totfact>
</mgrwt>
</event>
<event>
 6    1  0.9240440E-006  0.1316005E+03  0.7546771E-02  0.1241895E+00
         -2   -1    0    0    0  501 -0.00000000000E+00  0.00000000000E+00  0.40477073147E+02  0.40477073147E+02  0.00000000000E+00 0.  1.
          2   -1    0    0  501    0  0.00000000000E+00 -0.00000000000E+00 -0.31327648612E+03  0.31327648612E+03  0.00000000000E+00 0. -1.
          5    1    1    2  502    0 -0.38768715810E+02 -0.40822375048E+02 -0.10904491600E+03  0.12281027374E+03  0.47000000000E+01 0. -1.
         -5    1    1    2    0  502  0.82664187331E+01  0.68469451987E+02 -0.60861947898E+02  0.92101391064E+02  0.47000000000E+01 0. -1.
        -11    1    1    2    0    0  0.26090769812E+02 -0.44856779816E+02 -0.22588258621E+02  0.56595833702E+02  0.00000000000E+00 0.  1.
         11    1    1    2    0    0  0.44115272640E+01  0.17209702878E+02 -0.80304290455E+02  0.82246060765E+02  0.00000000000E+00 0. -1.
<mgrwt>
<rscale>  0 0.12073182E+03</rscale>
<asrwt>0</asrwt>
<pdfrwt beam="2">  1        2 0.48196382E-01 0.13160046E+03</pdfrwt>
<pdfrwt beam="1">  1       -2 0.62272421E-02 0.13160046E+03</pdfrwt>
<totfact> 0.13683796E+04</totfact>
</mgrwt>
</event>
<event>
 6    1  0.9240440E-006  0.1253493E+03  0.7546771E-02  0.1249917E+00
         -1   -1    0    0    0  501 -0.00000000000E+00  0.00000000000E+00  0.85210592409E+02  0.85210592409E+02  0.00000000000E+00 0.  1.
          1   -1    0    0  501    0  0.00000000000E+00 -0.00000000000E+00 -0.20098338951E+03  0.20098338951E+03  0.00000000000E+00 0. -1.
          5    1    1    2  502    0 -0.26453221482E+02  0.20053703941E+01 -0.15104073450E+03  0.15342486082E+03  0.47000000000E+01 0. -1.
         -5    1    1    2    0  502  0.35629488474E+02 -0.35424967677E+01  0.77717094198E+01  0.36939128300E+02  0.47000000000E+01 0. -1.
        -11    1    1    2    0    0 -0.46632525496E+02 -0.10026810737E+00 -0.40824118631E+01  0.46810987754E+02  0.00000000000E+00 0. -1.
         11    1    1    2    0    0  0.37456258504E+02  0.16373944809E+01  0.31578639844E+02  0.49019005051E+02  0.00000000000E+00 0.  1.
<mgrwt>
<rscale>  0 0.11595852E+03</rscale>
<asrwt>0</asrwt>
<pdfrwt beam="2">  1        1 0.30920521E-01 0.12534925E+03</pdfrwt>
<pdfrwt beam="1">  1       -1 0.13109322E-01 0.12534925E+03</pdfrwt>
<totfact> 0.55127369E+03</totfact>
</mgrwt>
</event>
<event>
 6    1  0.9240440E-006  0.3561286E+03  0.7546771E-02  0.1060127E+00
         -1   -1    0    0    0  501 -0.00000000000E+00  0.00000000000E+00  0.24211596530E+03  0.24211596530E+03  0.00000000000E+00 0.  1.
          1   -1    0    0  501    0  0.00000000000E+00 -0.00000000000E+00 -0.13095744578E+03  0.13095744578E+03  0.00000000000E+00 0. -1.
          5    1    1    2  502    0  0.20566102745E+02 -0.27243324379E+02  0.25216693602E+02  0.42698184289E+02  0.47000000000E+01 0.  1.
         -5    1    1    2    0  502 -0.12169914145E+03 -0.39603916424E+02 -0.29832996037E+02  0.13149619340E+03  0.47000000000E+01 0.  1.
        -11    1    1    2    0    0  0.34899080343E+02  0.63953107584E+02  0.92942687661E+01  0.73446097312E+02  0.00000000000E+00 0. -1.
         11    1    1    2    0    0  0.66233958361E+02  0.28941332185E+01  0.10648055318E+03  0.12543293608E+03  0.00000000000E+00 0.  1.
<mgrwt>
<rscale>  0 0.35612856E+03</rscale>
<asrwt>0</asrwt>
<pdfrwt beam="2">  1        1 0.20147299E-01 0.35612856E+03</pdfrwt>
<pdfrwt beam="1">  1       -1 0.37248610E-01 0.35612856E+03</pdfrwt>
<totfact> 0.17795520E+03</totfact>
</mgrwt>
</event>
<event>
 6    1  0.9240440E-006  0.1368652E+03  0.7546771E-02  0.1229189E+00
          2   -1    0    0  501    0  0.00000000000E+00  0.00000000000E+00  0.65991380932E+03  0.65991380932E+03  0.00000000000E+00 0. -1.
         -2   -1    0    0    0  501 -0.00000000000E+00 -0.00000000000E+00 -0.22645275227E+02  0.22645275227E+02  0.00000000000E+00 0.  1.
          5    1    1    2  502    0 -0.59509009763E+02 -0.12259431952E+02  0.27171422031E+03  0.27846422290E+03  0.47000000000E+01 0.  1.
         -5    1    1    2    0  502  0.40020204677E+02 -0.39961869074E+02  0.73271081582E+02  0.92678525876E+02  0.47000000000E+01 0.  1.
        -11    1    1    2    0    0  0.27800933588E+02 -0.19887241782E+02  0.11090612769E+03  0.11605414018E+03  0.00000000000E+00 0.  1.
         11    1    1    2    0    0 -0.83121285016E+01  0.72108542809E+02  0.18137710451E+03  0.19536219560E+03  0.00000000000E+00 0. -1.
<mgrwt>
<rscale>  0 0.12883847E+03</rscale>
<asrwt>0</asrwt>
<pdfrwt beam="1">  1        2 0.10152519E+00 0.13686519E+03</pdfrwt>
<pdfrwt beam="2">  1       -2 0.34838890E-02 0.13686519E+03</pdfrwt>
<totfact> 0.14504240E+04</totfact>
</mgrwt>
</event>
<event>
 6    1  0.9240440E-006  0.1257409E+03  0.7546771E-02  0.1251459E+00
          1   -1    0    0  501    0  0.00000000000E+00  0.00000000000E+00  0.12885102558E+03  0.12885102558E+03  0.00000000000E+00 0. -1.
         -1   -1    0    0    0  501 -0.00000000000E+00 -0.00000000000E+00 -0.23610477362E+03  0.23610477362E+03  0.00000000000E+00 0.  1.
          5    1    1    2  502    0  0.21023749346E+02 -0.10032845215E+02  0.11056853604E+03  0.11309353289E+03  0.47000000000E+01 0. -1.
         -5    1    1    2    0  502 -0.30439934663E+02  0.20223330940E+00 -0.24437601481E+02  0.39318149585E+02  0.47000000000E+01 0. -1.
        -11    1    1    2    0    0 -0.32484506828E+02 -0.86240127398E+01 -0.38854735185E+02  0.51374188323E+02  0.00000000000E+00 0. -1.
         11    1    1    2    0    0  0.41900692145E+02  0.18454624645E+02 -0.15452994741E+03  0.16116992840E+03  0.00000000000E+00 0.  1.
<mgrwt>
<rscale>  0 0.11506986E+03</rscale>
<asrwt>0</asrwt>
<pdfrwt beam="1">  1        1 0.19823235E-01 0.12574094E+03</pdfrwt>
<pdfrwt beam="2">  1       -1 0.36323811E-01 0.12574094E+03</pdfrwt>
<totfact> 0.18419841E+03</totfact>
</mgrwt>
</event>
<event>
 6    1  0.9240440E-006  0.1305068E+03  0.7546771E-02  0.1233133E+00
         -1   -1    0    0    0  501 -0.00000000000E+00  0.00000000000E+00  0.90302070323E+02  0.90302070323E+02  0.00000000000E+00 0.  1.
          1   -1    0    0  501    0  0.00000000000E+00 -0.00000000000E+00 -0.19184310660E+03  0.19184310660E+03  0.00000000000E+00 0. -1.
          5    1    1    2  502    0 -0.48624907082E+02  0.46395269978E+02 -0.86204972128E+02  0.10940881996E+03  0.47000000000E+01 0. -1.
         -5    1    1    2    0  502 -0.20912497140E+02 -0.50778109691E+02 -0.19258262108E+02  0.58384241194E+02  0.47000000000E+01 0.  1.
        -11    1    1    2    0    0  0.15099665586E+01  0.35959570972E+02 -0.11500387547E+02  0.37783986783E+02  0.00000000000E+00 0. -1.
         11    1    1    2    0    0  0.68027437664E+02 -0.31576731259E+02  0.15422585511E+02  0.76568128983E+02  0.00000000000E+00 0.  1.
<mgrwt>
<rscale>  0 0.12624725E+03</rscale>
<asrwt>0</asrwt>
<pdfrwt beam="2">  1        1 0.29514324E-01 0.13050677E+03</pdfrwt>
<pdfrwt beam="1">  1       -1 0.13892626E-01 0.13050677E+03</pdfrwt>
<totfact> 0.53513172E+03</totfact>
</mgrwt>
</event>
<event>
 6    1  0.9240440E-006  0.1840073E+03  0.7546771E-02  0.1169121E+00
         -1   -1    0    0    0  501 -0.00000000000E+00  0.00000000000E+00  0.30742029501E+02  0.30742029501E+02  0.00000000000E+00 0.  1.
          1   -1    0    0  501    0  0.00000000000E+00 -0.00000000000E+00 -0.98519531002E+03  0.98519531002E+03  0.00000000000E+00 0. -1.
          5    1    1    2  502    0  0.77134435078E+02  0.82353819365E+02 -0.32828172766E+03  0.34716401794E+03  0.47000000000E+01 0. -1.
         -5    1    1    2    0  502 -0.50321070022E+02  0.49971894731E+02 -0.20627685566E+03  0.21817798132E+03  0.47000000000E+01 0. -1.
        -11    1    1    2    0    0 -0.51823807279E+01 -0.19380238689E+02 -0.58784415157E+01  0.20904707515E+02  0.00000000000E+00 0.  1.
         11    1    1    2    0    0 -0.21630984329E+02 -0.11294547541E+03 -0.41401625569E+03  0.42969063275E+03  0.00000000000E+00 0. -1.
<mgrwt>
<rscale>  0 0.17864475E+03</rscale>
<asrwt>0</asrwt>
<pdfrwt beam="2">  1        1 0.15156850E+00 0.18400733E+03</pdfrwt>
<pdfrwt beam="1">  1       -1 0.47295434E-02 0.18400733E+03</pdfrwt>
<totfact> 0.31126878E+03</totfact>
</mgrwt>
</event>
<event>
 6    1  0.9240440E-006  0.1613967E+03  0.7546771E-02  0.1195809E+00
          1   -1    0    0  501    0  0.00000000000E+00  0.00000000000E+00  0.69760860339E+03  0.69760860339E+03  0.00000000000E+00 0. -1.
         -1   -1    0    0    0  501 -0.00000000000E+00 -0.00000000000E+00 -0.31866426547E+02  0.31866426547E+02  0.00000000000E+00 0.  1.
          5    1    1    2  502    0  0.35248871053E+02 -0.17190981458E+02  0.67248524053E+02  0.77990170799E+02  0.47000000000E+01 0. -1.
         -5    1    1    2    0  502 -0.10090064632E+03 -0.60985835925E+02  0.35213363876E+03  0.37137636187E+03  0.47000000000E+01 0. -1.
        -11    1    1    2    0    0  0.40744966055E+02  0.66694030294E+02  0.81256354791E+02  0.11274236617E+03  0.00000000000E+00 0.  1.
         11    1    1    2    0    0  0.24906809209E+02  0.11482787090E+02  0.16510365924E+03  0.16736613110E+03  0.00000000000E+00 0. -1.
<mgrwt>
<rscale>  0 0.15385947E+03</rscale>
<asrwt>0</asrwt>
<pdfrwt beam="1">  1        1 0.10732439E+00 0.16139666E+03</pdfrwt>
<pdfrwt beam="2">  1       -1 0.49025277E-02 0.16139666E+03</pdfrwt>
<totfact> 0.50184372E+03</totfact>
</mgrwt>
</event>
<event>
 6    1  0.9240440E-006  0.1392661E+03  0.7546771E-02  0.1222344E+00
          1   -1    0    0  501    0  0.00000000000E+00  0.00000000000E+00  0.93502192296E+03  0.93502192296E+03  0.00000000000E+00 0. -1.
         -1   -1    0    0    0  501 -0.00000000000E+00 -0.00000000000E+00 -0.48780713665E+02  0.48780713665E+02  0.00000000000E+00 0.  1.
          5    1    1    2  502    0  0.81515800360E+02  0.15424572550E+02  0.78150498732E+03  0.78591022283E+03  0.47000000000E+01 0.  1.
         -5    1    1    2    0  502 -0.20616663257E+02 -0.23227133056E+02  0.67617416719E+02  0.74557035601E+02  0.47000000000E+01 0.  1.
        -11    1    1    2    0    0 -0.21353474536E+02 -0.56765536693E+01  0.67923620645E+02  0.71426972341E+02  0.00000000000E+00 0. -1.
         11    1    1    2    0    0 -0.39545662567E+02  0.13479114175E+02 -0.30804815389E+02  0.51908405851E+02  0.00000000000E+00 0.  1.
<mgrwt>
<rscale>  0 0.13350631E+03</rscale>
<asrwt>0</asrwt>
<pdfrwt beam="1">  1        1 0.14384951E+00 0.13926610E+03</pdfrwt>
<pdfrwt beam="2">  1       -1 0.75047259E-02 0.13926610E+03</pdfrwt>
<totfact> 0.16931843E+03</totfact>
</mgrwt>
</event>
<event>
 6    1  0.9240440E-006  0.1399201E+03  0.7546771E-02  0.1224511E+00
          1   -1    0    0  501    0  0.00000000000E+00  0.00000000000E+00  0.82099151407E+02  0.82099151407E+02  0.00000000000E+00 0. -1.
         -1   -1    0    0    0  501 -0.00000000000E+00 -0.00000000000E+00 -0.26384824005E+03  0.26384824005E+03  0.00000000000E+00 0.  1.
          5    1    1    2  502    0  0.60074809613E+02  0.63578992376E+02 -0.38976803810E+02  0.95877798561E+02  0.47000000000E+01 0.  1.
         -5    1    1    2    0  502 -0.30645134669E+02 -0.80247447070E+01  0.30598276437E+02  0.44292948958E+02  0.47000000000E+01 0.  1.
        -11    1    1    2    0    0 -0.49207799085E+02 -0.37623365838E+02 -0.16729977357E+03  0.17839882114E+03  0.00000000000E+00 0.  1.
         11    1    1    2    0    0  0.19778124142E+02 -0.17930881832E+02 -0.60707876985E+01  0.27377822797E+02  0.00000000000E+00 0. -1.
<mgrwt>
<rscale>  0 0.13200471E+03</rscale>
<asrwt>0</asrwt>
<pdfrwt beam="1">  1        1 0.12630639E-01 0.13992012E+03</pdfrwt>
<pdfrwt beam="2">  1       -1 0.40592037E-01 0.13992012E+03</pdfrwt>
<totfact> 0.27271630E+03</totfact>
</mgrwt>
</event>
<event>
 6    1  0.9240440E-006  0.1238203E+03  0.7546771E-02  0.1247237E+00
          2   -1    0    0  501    0  0.00000000000E+00  0.00000000000E+00  0.47557060413E+02  0.47557060413E+02  0.00000000000E+00 0. -1.
         -2   -1    0    0    0  501 -0.00000000000E+00 -0.00000000000E+00 -0.33766447530E+03  0.33766447530E+03  0.00000000000E+00 0.  1.
          5    1    1    2  502    0  0.67222759998E+02  0.32335071288E+00 -0.13457986248E+02  0.68718348432E+02  0.47000000000E+01 0. -1.
         -5    1    1    2    0  502 -0.38168552458E+02 -0.28719090604E+02 -0.54140357439E+02  0.72352559495E+02  0.47000000000E+01 0.  1.
        -11    1    1    2    0    0 -0.51911006729E+02  0.35926249030E+02 -0.20469586855E+03  0.21420981908E+03  0.00000000000E+00 0.  1.
         11    1    1    2    0    0  0.22856799190E+02 -0.75305091393E+01 -0.17813202644E+02  0.29940808699E+02  0.00000000000E+00 0. -1.
<mgrwt>
<rscale>  0 0.11752492E+03</rscale>
<asrwt>0</asrwt>
<pdfrwt beam="1">  1        2 0.73164710E-02 0.12382029E+03</pdfrwt>
<pdfrwt beam="2">  1       -2 0.51948380E-01 0.12382029E+03</pdfrwt>
<totfact> 0.32254871E+03</totfact>
</mgrwt>
</event>
<event>
 6    1  0.9240440E-006  0.1246946E+03  0.7546771E-02  0.1251221E+00
          2   -1    0    0  501    0  0.00000000000E+00  0.00000000000E+00  0.60240541189E+03  0.60240541189E+03  0.00000000000E+00 0. -1.
         -2   -1    0    0    0  501 -0.00000000000E+00 -0.00000000000E+00 -0.33188966740E+02  0.33188966740E+02  0.00000000000E+00 0.  1.
          5    1    1    2  502    0 -0.43860467385E+02  0.51617571251E+02  0.35059265249E+03  0.35710700391E+03  0.47000000000E+01 0. -1.
         -5    1    1    2    0  502  0.36848488919E+02 -0.37943988305E+02  0.16420957655E+03  0.17258166883E+03  0.47000000000E+01 0.  1.
        -11    1    1    2    0    0  0.41545382372E+02  0.96239819842E+01  0.47228632844E+02  0.63633195629E+02  0.00000000000E+00 0.  1.
         11    1    1    2    0    0 -0.34533403906E+02 -0.23297564930E+02  0.71855832637E+01  0.42272510262E+02  0.00000000000E+00 0. -1.
<mgrwt>
<rscale>  0 0.11520630E+03</rscale>
<asrwt>0</asrwt>
<pdfrwt beam="1">  1        2 0.92677747E-01 0.12469465E+03</pdfrwt>
<pdfrwt beam="2">  1       -2 0.51059953E-02 0.12469465E+03</pdfrwt>
<totfact> 0.90603604E+03</totfact>
</mgrwt>
</event>
<event>
 6    1  0.9240440E-006  0.3727347E+03  0.7546771E-02  0.1053652E+00
          1   -1    0    0  501    0  0.00000000000E+00  0.00000000000E+00  0.13329201481E+04  0.13329201481E+04  0.00000000000E+00 0. -1.
         -1   -1    0    0    0  501 -0.00000000000E+00 -0.00000000000E+00 -0.26057660307E+02  0.26057660307E+02  0.00000000000E+00 0.  1.
          5    1    1    2  502    0  0.13836829260E+03  0.79766848100E+02  0.70020594117E+03  0.71820539158E+03  0.47000000000E+01 0. -1.
         -5    1    1    2    0  502 -0.19843658361E+02  0.13305797643E+02  0.35070989707E+02  0.42695191147E+02  0.47000000000E+01 0. -1.
        -11    1    1    2    0    0 -0.60459297718E+02 -0.31102547836E+02  0.11446341169E+03  0.13313364630E+03  0.00000000000E+00 0.  1.
         11    1    1    2    0    0 -0.58065336524E+02 -0.61970097907E+02  0.45712214523E+03  0.46494357937E+03  0.00000000000E+00 0. -1.
<mgrwt>
<rscale>  0 0.37273465E+03</rscale>
<asrwt>0</asrwt>
<pdfrwt beam="1">  1        1 0.20506458E+00 0.37273465E+03</pdfrwt>
<pdfrwt beam="2">  1       -1 0.40088719E-02 0.37273465E+03</pdfrwt>
<totfact> 0.22718259E+03</totfact>
</mgrwt>
</event>
<event>
 6    1  0.9240440E-006  0.3710644E+03  0.7546771E-02  0.1054287E+00
          2   -1    0    0  501    0  0.00000000000E+00  0.00000000000E+00  0.52757718453E+03  0.52757718453E+03  0.00000000000E+00 0. -1.
         -2   -1    0    0    0  501 -0.00000000000E+00 -0.00000000000E+00 -0.65245790053E+02  0.65245790053E+02  0.00000000000E+00 0.  1.
          5    1    1    2  502    0 -0.78693299324E+02 -0.11679069445E+03  0.11215814674E+03  0.18009509030E+03  0.47000000000E+01 0.  1.
         -5    1    1    2    0  502 -0.21871470932E+02  0.54312709268E+01  0.12510250965E+03  0.12720293968E+03  0.47000000000E+01 0.  1.
        -11    1    1    2    0    0  0.10755206732E+03  0.58630892495E+02  0.15813335147E+03  0.20002796201E+03  0.00000000000E+00 0.  1.
         11    1    1    2    0    0 -0.69872970634E+01  0.52728531028E+02  0.66937386618E+02  0.85496982590E+02  0.00000000000E+00 0. -1.
<mgrwt>
<rscale>  0 0.37106436E+03</rscale>
<asrwt>0</asrwt>
<pdfrwt beam="1">  1        2 0.81165718E-01 0.37106436E+03</pdfrwt>
<pdfrwt beam="2">  1       -2 0.10037814E-01 0.37106436E+03</pdfrwt>
<totfact> 0.38817672E+03</totfact>
</mgrwt>
</event>
<event>
 6    1  0.9240440E-006  0.1551833E+03  0.7546771E-02  0.1201840E+00
         -2   -1    0    0    0  501 -0.00000000000E+00  0.00000000000E+00  0.21812035296E+03  0.21812035296E+03  0.00000000000E+00 0.  1.
          2   -1    0    0  501    0  0.00000000000E+00 -0.00000000000E+00 -0.94207526886E+02  0.94207526886E+02  0.00000000000E+00 0. -1.
          5    1    1    2  502    0  0.12596961680E+02 -0.24336291849E+02 -0.85314031027E+01  0.29082870962E+02  0.47000000000E+01 0. -1.
         -5    1    1    2    0  502 -0.82777403958E+02  0.83774235196E+02  0.75223197093E+02  0.13982432002E+03  0.47000000000E+01 0. -1.
        -11    1    1    2    0    0 -0.63379316823E+01  0.20136601722E+02  0.87097452197E+01  0.22836632166E+02  0.00000000000E+00 0. -1.
         11    1    1    2    0    0  0.76518373960E+02 -0.79574545069E+02  0.48511286867E+02  0.12058405670E+03  0.00000000000E+00 0.  1.
<mgrwt>
<rscale>  0 0.14889307E+03</rscale>
<asrwt>0</asrwt>
<pdfrwt beam="2">  1        2 0.14493466E-01 0.15518326E+03</pdfrwt>
<pdfrwt beam="1">  1       -2 0.33556977E-01 0.15518326E+03</pdfrwt>
<totfact> 0.32667566E+03</totfact>
</mgrwt>
</event>
<event>
 6    1  0.9240440E-006  0.1311522E+03  0.7546771E-02  0.1234284E+00
          2   -1    0    0  501    0  0.00000000000E+00  0.00000000000E+00  0.27726487191E+04  0.27726487191E+04  0.00000000000E+00 0. -1.
         -2   -1    0    0    0  501 -0.00000000000E+00 -0.00000000000E+00 -0.19492060253E+02  0.19492060253E+02  0.00000000000E+00 0.  1.
          5    1    1    2  502    0  0.19629001514E+02  0.22675546148E+02  0.24196787723E+04  0.24198691967E+04  0.47000000000E+01 0. -1.
         -5    1    1    2    0  502  0.46917035439E+01  0.33133045151E+02  0.18182638496E+03  0.18493981462E+03  0.47000000000E+01 0.  1.
        -11    1    1    2    0    0  0.19092004302E+02 -0.12310759417E+02 -0.10362198025E+01  0.22740562376E+02  0.00000000000E+00 0.  1.
         11    1    1    2    0    0 -0.43412709360E+02 -0.43497831882E+02  0.15268772140E+03  0.16459120565E+03  0.00000000000E+00 0. -1.
<mgrwt>
<rscale>  0 0.12550398E+03</rscale>
<asrwt>0</asrwt>
<pdfrwt beam="1">  1        2 0.42656103E+00 0.13115221E+03</pdfrwt>
<pdfrwt beam="2">  1       -2 0.29987807E-02 0.13115221E+03</pdfrwt>
<totfact> 0.12312471E+03</totfact>
</mgrwt>
</event>
<event>
 6    1  0.9240440E-006  0.3391907E+03  0.7546771E-02  0.1067141E+00
          2   -1    0    0  501    0  0.00000000000E+00  0.00000000000E+00  0.12541204654E+03  0.12541204654E+03  0.00000000000E+00 0. -1.
         -2   -1    0    0    0  501 -0.00000000000E+00 -0.00000000000E+00 -0.22934462450E+03  0.22934462450E+03  0.00000000000E+00 0.  1.
          5    1    1    2  502    0  0.13575822034E+02 -0.19429402224E+02 -0.18819663606E+02  0.30627999493E+02  0.47000000000E+01 0. -1.
         -5    1    1    2    0  502 -0.76316250890E+02  0.13289210260E+03 -0.33842411873E+02  0.15700917147E+03  0.47000000000E+01 0. -1.
        -11    1    1    2    0    0  0.31917871426E+02 -0.94477871853E+02 -0.74172201234E+02  0.12428328215E+03  0.00000000000E+00 0.  1.
         11    1    1    2    0    0  0.30822557430E+02 -0.18984828521E+02  0.22901698750E+02  0.42836217926E+02  0.00000000000E+00 0. -1.
<mgrwt>
<rscale>  0 0.33919068E+03</rscale>
<asrwt>0</asrwt>
<pdfrwt beam="1">  1        2 0.19294161E-01 0.33919068E+03</pdfrwt>
<pdfrwt beam="2">  1       -2 0.35283788E-01 0.33919068E+03</pdfrwt>
<totfact> 0.21988449E+03</totfact>
</mgrwt>
</event>
<event>
 6    1  0.9240440E-006  0.1255571E+03  0.7546771E-02  0.1249743E+00
         -1   -1    0    0    0  501 -0.00000000000E+00  0.00000000000E+00  0.81214314287E+02  0.81214314287E+02  0.00000000000E+00 0.  1.
          1   -1    0    0  501    0  0.00000000000E+00 -0.00000000000E+00 -0.17987313742E+03  0.17987313742E+03  0.00000000000E+00 0. -1.
          5    1    1    2  502    0  0.15334032826E+01  0.59553062984E+02 -0.78661684092E+02  0.98785976639E+02  0.47000000000E+01 0.  1.
         -5    1    1    2    0  502  0.10288213176E+02 -0.59938637521E+02 -0.33593258493E+02  0.69635368990E+02  0.47000000000E+01 0.  1.
        -11    1    1    2    0    0  0.38989449079E+02 -0.60533908399E+01  0.12667884696E+02  0.41440270062E+02  0.00000000000E+00 0. -1.
         11    1    1    2    0    0 -0.50811065537E+02  0.64389653768E+01  0.92823475215E+00  0.51225836019E+02  0.00000000000E+00 0.  1.
<mgrwt>
<rscale>  0 0.11605923E+03</rscale>
<asrwt>0</asrwt>
<pdfrwt beam="2">  1        1 0.27672790E-01 0.12555707E+03</pdfrwt>
<pdfrwt beam="1">  1       -1 0.12494510E-01 0.12555707E+03</pdfrwt>
<totfact> 0.68160259E+03</totfact>
</mgrwt>
</event>
<event>
 6    1  0.9240440E-006  0.1354734E+03  0.7546771E-02  0.1227274E+00
         -1   -1    0    0    0  501 -0.00000000000E+00  0.00000000000E+00  0.23393932478E+02  0.23393932478E+02  0.00000000000E+00 0.  1.
          1   -1    0    0  501    0  0.00000000000E+00 -0.00000000000E+00 -0.67393961480E+03  0.67393961480E+03  0.00000000000E+00 0. -1.
          5    1    1    2  502    0  0.36691784508E+02 -0.49084583691E+02 -0.27882020230E+03  0.28551423540E+03  0.47000000000E+01 0. -1.
         -5    1    1    2    0  502 -0.55409948543E+02 -0.18981280921E+02 -0.90832265675E+02  0.10818106078E+03  0.47000000000E+01 0.  1.
        -11    1    1    2    0    0 -0.13310863850E+02  0.59772569528E+02 -0.83815086784E+02  0.10380225401E+03  0.00000000000E+00 0.  1.
         11    1    1    2    0    0  0.32029027885E+02  0.82932950840E+01 -0.19707812756E+03  0.19983599709E+03  0.00000000000E+00 0. -1.
<mgrwt>
<rscale>  0 0.13012247E+03</rscale>
<asrwt>0</asrwt>
<pdfrwt beam="2">  1        1 0.10368302E+00 0.13547339E+03</pdfrwt>
<pdfrwt beam="1">  1       -1 0.35990663E-02 0.13547339E+03</pdfrwt>
<totfact> 0.82377571E+03</totfact>
</mgrwt>
</event>
<event>
 6    1  0.9240440E-006  0.1625257E+03  0.7546771E-02  0.1194951E+00
          2   -1    0    0  501    0  0.00000000000E+00  0.00000000000E+00  0.60263249555E+03  0.60263249555E+03  0.00000000000E+00 0.  1.
         -2   -1    0    0    0  501 -0.00000000000E+00 -0.00000000000E+00 -0.55497793820E+02  0.55497793820E+02  0.00000000000E+00 0. -1.
          5    1    1    2  502    0 -0.20292358417E+02  0.44680544016E+02  0.29327675399E+03  0.29739111495E+03  0.47000000000E+01 0.  1.
         -5    1    1    2    0  502 -0.83572008096E+02 -0.45535144170E+02  0.19136648293E+03  0.21377780680E+03  0.47000000000E+01 0.  1.
        -11    1    1    2    0    0  0.69343043924E+02 -0.19631850232E+02  0.75875175845E+02  0.10464659380E+03  0.00000000000E+00 0.  1.
         11    1    1    2    0    0  0.34521322588E+02  0.20486450385E+02 -0.13383711027E+02  0.42314773821E+02  0.00000000000E+00 0. -1.
<mgrwt>
<rscale>  0 0.15458418E+03</rscale>
<asrwt>0</asrwt>
<pdfrwt beam="1">  1        2 0.92712687E-01 0.16252569E+03</pdfrwt>
<pdfrwt beam="2">  1       -2 0.85381225E-02 0.16252569E+03</pdfrwt>
<totfact> 0.41879066E+03</totfact>
</mgrwt>
</event>
<event>
 6    1  0.9240440E-006  0.2382501E+03  0.7546771E-02  0.1120964E+00
          2   -1    0    0  501    0  0.00000000000E+00  0.00000000000E+00  0.12741728834E+04  0.12741728834E+04  0.00000000000E+00 0. -1.
         -2   -1    0    0    0  501 -0.00000000000E+00 -0.00000000000E+00 -0.11137243660E+02  0.11137243660E+02  0.00000000000E+00 0.  1.
          5    1    1    2  502    0 -0.16362904673E+02 -0.17063831690E+01  0.61767334359E+03  0.61791027324E+03  0.47000000000E+01 0.  1.
         -5    1    1    2    0  502  0.34545816156E+02  0.49581404893E+02  0.15400127344E+03  0.16549988322E+03  0.47000000000E+01 0.  1.
        -11    1    1    2    0    0 -0.52758716869E+02 -0.38070150402E+02  0.27628355156E+03  0.28384048235E+03  0.00000000000E+00 0.  1.
         11    1    1    2    0    0  0.34575805386E+02 -0.98048713224E+01  0.21507747115E+03  0.21805948825E+03  0.00000000000E+00 0. -1.
<mgrwt>
<rscale>  0 0.23825007E+03</rscale>
<asrwt>0</asrwt>
<pdfrwt beam="1">  1        2 0.19602648E+00 0.23825007E+03</pdfrwt>
<pdfrwt beam="2">  1       -2 0.17134231E-02 0.23825007E+03</pdfrwt>
<totfact> 0.17480268E+04</totfact>
</mgrwt>
</event>
<event>
 6    1  0.1333172E-005  0.4025052E+03  0.7546771E-02  0.1042916E+00
          1   -1    0    0  501    0  0.00000000000E+00  0.00000000000E+00  0.11088638527E+04  0.11088638527E+04  0.00000000000E+00 0. -1.
         -1   -1    0    0    0  501 -0.00000000000E+00 -0.00000000000E+00 -0.36526224758E+02  0.36526224758E+02  0.00000000000E+00 0.  1.
          5    1    1    2  502    0 -0.36383817354E+02 -0.36874094379E+02  0.44864562552E+02  0.68690610526E+02  0.47000000000E+01 0. -1.
         -5    1    1    2    0  502 -0.12761213113E+03  0.91189060542E+01  0.45699886149E+03  0.47459251982E+03  0.47000000000E+01 0. -1.
        -11    1    1    2    0    0  0.58830775614E+02  0.58336447839E+02  0.26005775757E+03  0.27293632697E+03  0.00000000000E+00 0. -1.
         11    1    1    2    0    0  0.10516517287E+03 -0.30581259514E+02  0.31041644631E+03  0.32917062014E+03  0.00000000000E+00 0.  1.
<mgrwt>
<rscale>  0 0.40250521E+03</rscale>
<asrwt>0</asrwt>
<pdfrwt beam="1">  1        1 0.17059441E+00 0.40250521E+03</pdfrwt>
<pdfrwt beam="2">  1       -1 0.56194200E-02 0.40250521E+03</pdfrwt>
<totfact> 0.19622235E+03</totfact>
</mgrwt>
</event>
<event>
 6    1  0.9240440E-006  0.1540663E+03  0.7546771E-02  0.1204893E+00
          1   -1    0    0  501    0  0.00000000000E+00  0.00000000000E+00  0.84125275973E+03  0.84125275973E+03  0.00000000000E+00 0. -1.
         -1   -1    0    0    0  501 -0.00000000000E+00 -0.00000000000E+00 -0.23477832999E+02  0.23477832999E+02  0.00000000000E+00 0.  1.
          5    1    1    2  502    0 -0.30066471477E+02  0.56992081974E+01  0.53540472616E+02  0.61847763817E+02  0.47000000000E+01 0.  1.
         -5    1    1    2    0  502  0.11274232961E+03  0.30042559964E+02  0.43581393845E+03  0.45118651049E+03  0.47000000000E+01 0.  1.
        -11    1    1    2    0    0 -0.14619964923E+01 -0.33105450013E+02  0.39461529563E+02  0.51529802733E+02  0.00000000000E+00 0.  1.
         11    1    1    2    0    0 -0.81213861640E+02 -0.26363181486E+01  0.28895898610E+03  0.30016651569E+03  0.00000000000E+00 0. -1.
<mgrwt>
<rscale>  0 0.14645924E+03</rscale>
<asrwt>0</asrwt>
<pdfrwt beam="1">  1        1 0.12942348E+00 0.15406631E+03</pdfrwt>
<pdfrwt beam="2">  1       -1 0.36119750E-02 0.15406631E+03</pdfrwt>
<totfact> 0.59489280E+03</totfact>
</mgrwt>
</event>
<event>
 6    1  0.9240440E-006  0.1572462E+03  0.7546771E-02  0.1199948E+00
          1   -1    0    0  501    0  0.00000000000E+00  0.00000000000E+00  0.68586542970E+02  0.68586542970E+02  0.00000000000E+00 0. -1.
         -1   -1    0    0    0  501 -0.00000000000E+00 -0.00000000000E+00 -0.30775836478E+03  0.30775836478E+03  0.00000000000E+00 0.  1.
          5    1    1    2  502    0  0.28816086768E+01  0.80257827071E+02 -0.79547429071E+02  0.11313490154E+03  0.47000000000E+01 0. -1.
         -5    1    1    2    0  502  0.73174004636E+02 -0.22655853797E+02 -0.70323222756E+02  0.10409211461E+03  0.47000000000E+01 0. -1.
        -11    1    1    2    0    0  0.21139577400E+02 -0.12136329257E+02 -0.17524736755E+02  0.30021469298E+02  0.00000000000E+00 0.  1.
         11    1    1    2    0    0 -0.97195190713E+02 -0.45465644018E+02 -0.71776433233E+02  0.12909642230E+03  0.00000000000E+00 0. -1.
<mgrwt>
<rscale>  0 0.15042781E+03</rscale>
<asrwt>0</asrwt>
<pdfrwt beam="1">  1        1 0.10551776E-01 0.15724619E+03</pdfrwt>
<pdfrwt beam="2">  1       -1 0.47347440E-01 0.15724619E+03</pdfrwt>
<totfact> 0.26408809E+03</totfact>
</mgrwt>
</event>
<event>
 6    1  0.9240440E-006  0.1676674E+03  0.7546771E-02  0.1243486E+00
          2   -1    0    0  501    0  0.00000000000E+00  0.00000000000E+00  0.20570231063E+02  0.20570231063E+02  0.00000000000E+00 0.  1.
         -2   -1    0    0    0  501 -0.00000000000E+00 -0.00000000000E+00 -0.54270559525E+03  0.54270559525E+03  0.00000000000E+00 0. -1.
          5    1    1    2  502    0  0.31223308405E+02 -0.43253686510E+02 -0.29414567329E+02  0.61098961985E+02  0.47000000000E+01 0.  1.
         -5    1    1    2    0  502 -0.68603857201E+01  0.25833288414E+02 -0.38490896672E+03  0.38586451812E+03  0.47000000000E+01 0. -1.
        -11    1    1    2    0    0  0.66578955889E+01  0.93901066264E+01 -0.25237070822E+02  0.27738266344E+02  0.00000000000E+00 0.  1.
         11    1    1    2    0    0 -0.31020818274E+02  0.80302914698E+01 -0.82574759318E+02  0.88574079864E+02  0.00000000000E+00 0. -1.
<mgrwt>
<rscale>  0 0.11976454E+03</rscale>
<asrwt>0</asrwt>
<pdfrwt beam="1">  1        2 0.31646507E-02 0.16766741E+03</pdfrwt>
<pdfrwt beam="2">  1       -2 0.83493173E-01 0.16766741E+03</pdfrwt>
<totfact> 0.36449454E+03</totfact>
</mgrwt>
</event>
<event>
 6    1  0.9240440E-006  0.1867251E+03  0.7546771E-02  0.1166326E+00
         -4   -1    0    0    0  501 -0.00000000000E+00  0.00000000000E+00  0.47244217798E+02  0.47244217798E+02  0.00000000000E+00 0.  1.
          4   -1    0    0  501    0  0.00000000000E+00 -0.00000000000E+00 -0.76187679946E+03  0.76187679946E+03  0.00000000000E+00 0. -1.
          5    1    1    2  502    0  0.50755589008E+02  0.37197405195E+02 -0.32659486969E+03  0.33263504878E+03  0.47000000000E+01 0. -1.
         -5    1    1    2    0  502 -0.30767953618E+02  0.10005386800E+03 -0.19490737903E+03  0.22128809248E+03  0.47000000000E+01 0. -1.
        -11    1    1    2    0    0  0.33149076036E+02 -0.77517896764E+02 -0.12130110597E+03  0.14772218476E+03  0.00000000000E+00 0. -1.
         11    1    1    2    0    0 -0.53136711426E+02 -0.59733376427E+02 -0.71829226965E+02  0.10747569124E+03  0.00000000000E+00 0.  1.
<mgrwt>
<rscale>  0 0.18153466E+03</rscale>
<asrwt>0</asrwt>
<pdfrwt beam="2">  1        4 0.11721182E+00 0.18672507E+03</pdfrwt>
<pdfrwt beam="1">  1       -4 0.72683410E-02 0.18672507E+03</pdfrwt>
<totfact> 0.13389145E+02</totfact>
</mgrwt>
</event>
<event>
 6    1  0.9240440E-006  0.3060995E+03  0.7546771E-02  0.1082231E+00
         -1   -1    0    0    0  501 -0.00000000000E+00  0.00000000000E+00  0.52701675605E+03  0.52701675605E+03  0.00000000000E+00 0.  1.
          1   -1    0    0  501    0  0.00000000000E+00 -0.00000000000E+00 -0.44446820287E+02  0.44446820287E+02  0.00000000000E+00 0. -1.
          5    1    1    2  502    0 -0.18737676893E+02  0.17212869186E+02  0.92066431674E+02  0.95633159742E+02  0.47000000000E+01 0.  1.
         -5    1    1    2    0  502  0.39736531566E+02 -0.12187868082E+03  0.15623482464E+03  0.20215047665E+03  0.47000000000E+01 0.  1.
        -11    1    1    2    0    0 -0.57380169823E+02  0.51732139717E+02  0.12812771844E+03  0.14961754711E+03  0.00000000000E+00 0.  1.
         11    1    1    2    0    0  0.36381315150E+02  0.52933671915E+02  0.10614096101E+03  0.12406239285E+03  0.00000000000E+00 0. -1.
<mgrwt>
<rscale>  0 0.30609945E+03</rscale>
<asrwt>0</asrwt>
<pdfrwt beam="2">  1        1 0.68379727E-02 0.30609945E+03</pdfrwt>
<pdfrwt beam="1">  1       -1 0.81079496E-01 0.30609945E+03</pdfrwt>
<totfact> 0.17132416E+03</totfact>
</mgrwt>
</event>
<event>
 6    1  0.9240440E-006  0.1264337E+03  0.7546771E-02  0.1248546E+00
         -2   -1    0    0    0  501 -0.00000000000E+00  0.00000000000E+00  0.60202135302E+02  0.60202135302E+02  0.00000000000E+00 0.  1.
          2   -1    0    0  501    0  0.00000000000E+00 -0.00000000000E+00 -0.19973241923E+03  0.19973241923E+03  0.00000000000E+00 0. -1.
          5    1    1    2  502    0 -0.45344441984E+02  0.38113713922E+02 -0.15869487686E+02  0.61503692956E+02  0.47000000000E+01 0.  1.
         -5    1    1    2    0  502  0.52360186870E+02 -0.20456994717E+02 -0.76628901581E+02  0.95153330784E+02  0.47000000000E+01 0.  1.
        -11    1    1    2    0    0  0.35209101601E+02 -0.31033995068E+02 -0.30632515872E+02  0.56045880438E+02  0.00000000000E+00 0. -1.
         11    1    1    2    0    0 -0.42224846487E+02  0.13377275863E+02 -0.16399378788E+02  0.47231650353E+02  0.00000000000E+00 0.  1.
<mgrwt>
<rscale>  0 0.11675659E+03</rscale>
<asrwt>0</asrwt>
<pdfrwt beam="2">  1        2 0.30728065E-01 0.12643366E+03</pdfrwt>
<pdfrwt beam="1">  1       -2 0.92618669E-02 0.12643366E+03</pdfrwt>
<totfact> 0.11963691E+04</totfact>
</mgrwt>
</event>
<event>
 6    1  0.9240440E-006  0.1314413E+03  0.7546771E-02  0.1236037E+00
         -1   -1    0    0    0  501 -0.00000000000E+00  0.00000000000E+00  0.14645413734E+02  0.14645413734E+02  0.00000000000E+00 0.  1.
          1   -1    0    0  501    0  0.00000000000E+00 -0.00000000000E+00 -0.11347993336E+04  0.11347993336E+04  0.00000000000E+00 0. -1.
          5    1    1    2  502    0 -0.28036458560E+02 -0.18343045812E+01 -0.82085776318E+03  0.82135191304E+03  0.47000000000E+01 0.  1.
         -5    1    1    2    0  502 -0.92928976061E+01  0.17922769630E+02 -0.17155651515E+02  0.26907062196E+02  0.47000000000E+01 0.  1.
        -11    1    1    2    0    0  0.43276336034E+02 -0.41784922088E+02 -0.25963642545E+03  0.26651434181E+03  0.00000000000E+00 0. -1.
         11    1    1    2    0    0 -0.59469798676E+01  0.25696457038E+02 -0.22504079735E+02  0.34671430293E+02  0.00000000000E+00 0.  1.
<mgrwt>
<rscale>  0 0.12438303E+03</rscale>
<asrwt>0</asrwt>
<pdfrwt beam="2">  1        1 0.17458457E+00 0.13144126E+03</pdfrwt>
<pdfrwt beam="1">  1       -1 0.22531398E-02 0.13144126E+03</pdfrwt>
<totfact> 0.71182303E+03</totfact>
</mgrwt>
</event>
<event>
 6    1  0.9240440E-006  0.1358530E+03  0.7546771E-02  0.1231749E+00
         -2   -1    0    0    0  501 -0.00000000000E+00  0.00000000000E+00  0.38756200138E+03  0.38756200138E+03  0.00000000000E+00 0.  1.
          2   -1    0    0  501    0  0.00000000000E+00 -0.00000000000E+00 -0.38155193361E+02  0.38155193361E+02  0.00000000000E+00 0. -1.
          5    1    1    2  502    0  0.60257305519E+02 -0.30827850590E+02  0.77971868922E+02  0.10335860672E+03  0.47000000000E+01 0.  1.
         -5    1    1    2    0  502 -0.19400959376E+02  0.64922111507E+02  0.85487833628E+02  0.10918579342E+03  0.47000000000E+01 0.  1.
        -11    1    1    2    0    0 -0.37418785567E+02 -0.17739891882E+02  0.19121709769E+03  0.19564980891E+03  0.00000000000E+00 0. -1.
         11    1    1    2    0    0 -0.34375605768E+01 -0.16354369035E+02 -0.52699922221E+01  0.17522985684E+02  0.00000000000E+00 0.  1.
<mgrwt>
<rscale>  0 0.12714881E+03</rscale>
<asrwt>0</asrwt>
<pdfrwt beam="2">  1        2 0.58700300E-02 0.13585304E+03</pdfrwt>
<pdfrwt beam="1">  1       -2 0.59624920E-01 0.13585304E+03</pdfrwt>
<totfact> 0.32548021E+03</totfact>
</mgrwt>
</event>
<event>
 6    1  0.9240440E-006  0.1615584E+03  0.7546771E-02  0.1195221E+00
         -2   -1    0    0    0  501 -0.00000000000E+00  0.00000000000E+00  0.17740599816E+02  0.17740599816E+02  0.00000000000E+00 0.  1.
          2   -1    0    0  501    0  0.00000000000E+00 -0.00000000000E+00 -0.16536310664E+04  0.16536310664E+04  0.00000000000E+00 0. -1.
          5    1    1    2  502    0 -0.13869948160E+02 -0.63888409073E+02 -0.87452085376E+03  0.87697372705E+03  0.47000000000E+01 0. -1.
         -5    1    1    2    0  502 -0.77801797257E+02  0.18365662447E+02 -0.41764332860E+03  0.42525105189E+03  0.47000000000E+01 0. -1.
        -11    1    1    2    0    0  0.30318175889E+02 -0.36093199772E+01 -0.21174555978E+02  0.37156167735E+02  0.00000000000E+00 0.  1.
         11    1    1    2    0    0  0.61353569528E+02  0.49132066603E+02 -0.32255172824E+03  0.33199071953E+03  0.00000000000E+00 0. -1.
<mgrwt>
<rscale>  0 0.15435540E+03</rscale>
<asrwt>0</asrwt>
<pdfrwt beam="2">  1        2 0.25440479E+00 0.16155835E+03</pdfrwt>
<pdfrwt beam="1">  1       -2 0.27293229E-02 0.16155835E+03</pdfrwt>
<totfact> 0.54621574E+03</totfact>
</mgrwt>
</event>
<event>
 6    1  0.9240440E-006  0.1482956E+03  0.7546771E-02  0.1216736E+00
         -2   -1    0    0    0  501 -0.00000000000E+00  0.00000000000E+00  0.51429307553E+03  0.51429307553E+03  0.00000000000E+00 0.  1.
          2   -1    0    0  501    0  0.00000000000E+00 -0.00000000000E+00 -0.34818066949E+02  0.34818066949E+02  0.00000000000E+00 0. -1.
          5    1    1    2  502    0 -0.23137027695E+02 -0.94829642704E+02  0.13164856289E+03  0.16395553451E+03  0.47000000000E+01 0.  1.
         -5    1    1    2    0  502 -0.32962736837E+02  0.38061428946E+02  0.68871786022E+02  0.85443708388E+02  0.47000000000E+01 0.  1.
        -11    1    1    2    0    0  0.30251920281E+02 -0.15242497879E+01  0.29668983436E+02  0.42399889106E+02  0.00000000000E+00 0. -1.
         11    1    1    2    0    0  0.25847844252E+02  0.58292463546E+02  0.24928567624E+03  0.25731201048E+03  0.00000000000E+00 0.  1.
<mgrwt>
<rscale>  0 0.13749783E+03</rscale>
<asrwt>0</asrwt>
<pdfrwt beam="2">  1        2 0.53566261E-02 0.14829556E+03</pdfrwt>
<pdfrwt beam="1">  1       -2 0.79122006E-01 0.14829556E+03</pdfrwt>
<totfact> 0.20243275E+03</totfact>
</mgrwt>
</event>
<event>
 6    1  0.9240440E-006  0.2685391E+03  0.7546771E-02  0.1102119E+00
         -1   -1    0    0    0  501 -0.00000000000E+00  0.00000000000E+00  0.29967923075E+03  0.29967923075E+03  0.00000000000E+00 0.  1.
          1   -1    0    0  501    0  0.00000000000E+00 -0.00000000000E+00 -0.60158695965E+02  0.60158695965E+02  0.00000000000E+00 0. -1.
          5    1    1    2  502    0  0.17389945653E+01 -0.88790034964E+01  0.98054443132E+02  0.98583084873E+02  0.47000000000E+01 0. -1.
         -5    1    1    2    0  502 -0.69989486321E+02  0.40791043741E+02  0.73980218433E+01  0.81481643161E+02  0.47000000000E+01 0. -1.
        -11    1    1    2    0    0  0.35546091646E+02  0.30700460683E+02  0.70680689269E+02  0.84863435901E+02  0.00000000000E+00 0.  1.
         11    1    1    2    0    0  0.32704400110E+02 -0.62612500928E+02  0.63387380538E+02  0.94909762777E+02  0.00000000000E+00 0. -1.
<mgrwt>
<rscale>  0 0.26853910E+03</rscale>
<asrwt>0</asrwt>
<pdfrwt beam="2">  1        1 0.92551842E-02 0.26853910E+03</pdfrwt>
<pdfrwt beam="1">  1       -1 0.46104496E-01 0.26853910E+03</pdfrwt>
<totfact> 0.33837989E+03</totfact>
</mgrwt>
</event>
<event>
 6    1  0.9240440E-006  0.1289803E+03  0.7546771E-02  0.1242649E+00
          1   -1    0    0  501    0  0.00000000000E+00  0.00000000000E+00  0.30218781010E+03  0.30218781010E+03  0.00000000000E+00 0. -1.
         -1   -1    0    0    0  501 -0.00000000000E+00 -0.00000000000E+00 -0.60078718138E+02  0.60078718138E+02  0.00000000000E+00 0.  1.
          5    1    1    2  502    0  0.57124887073E+02  0.54608905223E+02  0.15955911184E+03  0.17811958181E+03  0.47000000000E+01 0. -1.
         -5    1    1    2    0  502 -0.30070344647E+02 -0.37928287813E+02  0.70843847366E+02  0.85928582865E+02  0.47000000000E+01 0. -1.
        -11    1    1    2    0    0 -0.12783804814E+02  0.67314569786E+01  0.49477872103E+02  0.51544136489E+02  0.00000000000E+00 0. -1.
         11    1    1    2    0    0 -0.14270737612E+02 -0.23412074388E+02 -0.37771739350E+02  0.46674227071E+02  0.00000000000E+00 0.  1.
<mgrwt>
<rscale>  0 0.12027184E+03</rscale>
<asrwt>0</asrwt>
<pdfrwt beam="1">  1        1 0.46490432E-01 0.12898027E+03</pdfrwt>
<pdfrwt beam="2">  1       -1 0.92428799E-02 0.12898027E+03</pdfrwt>
<totfact> 0.57014754E+03</totfact>
</mgrwt>
</event>
<event>
 6    1  0.9240440E-006  0.2597090E+03  0.7546771E-02  0.1107318E+00
         -1   -1    0    0    0  501 -0.00000000000E+00  0.00000000000E+00  0.33672892938E+03  0.33672892938E+03  0.00000000000E+00 0.  1.
          1   -1    0    0  501    0  0.00000000000E+00 -0.00000000000E+00 -0.50076465878E+02  0.50076465878E+02  0.00000000000E+00 0. -1.
          5    1    1    2  502    0  0.34461211559E+02 -0.17967864486E+02  0.16612066250E+02  0.42526109643E+02  0.47000000000E+01 0.  1.
         -5    1    1    2    0  502 -0.47318375198E+02  0.88991934385E+02  0.11268964674E+03  0.15126017155E+03  0.47000000000E+01 0.  1.
        -11    1    1    2    0    0  0.33044087695E+02 -0.29961568683E+02  0.13483817695E+03  0.14202443907E+03  0.00000000000E+00 0.  1.
         11    1    1    2    0    0 -0.20186924056E+02 -0.41062501216E+02  0.22512573563E+02  0.50994674990E+02  0.00000000000E+00 0. -1.
<mgrwt>
<rscale>  0 0.25970903E+03</rscale>
<asrwt>0</asrwt>
<pdfrwt beam="2">  1        1 0.77040719E-02 0.25970903E+03</pdfrwt>
<pdfrwt beam="1">  1       -1 0.51804449E-01 0.25970903E+03</pdfrwt>
<totfact> 0.34976663E+03</totfact>
</mgrwt>
</event>
<event>
 6    1  0.1761616E-005  0.1646417E+03  0.7546771E-02  0.1190713E+00
          1   -1    0    0  501    0  0.00000000000E+00  0.00000000000E+00  0.78302150376E+03  0.78302150376E+03  0.00000000000E+00 0. -1.
         -1   -1    0    0    0  501 -0.00000000000E+00 -0.00000000000E+00 -0.31565260252E+02  0.31565260252E+02  0.00000000000E+00 0.  1.
          5    1    1    2  502    0 -0.39406479625E+02 -0.98779978044E+01  0.33969345723E+02  0.53164385879E+02  0.47000000000E+01 0. -1.
         -5    1    1    2    0  502 -0.55053890642E+02  0.60465457759E+02  0.46806250331E+03  0.47517533549E+03  0.47000000000E+01 0. -1.
        -11    1    1    2    0    0  0.78348420190E+02 -0.66594361147E+02  0.13559645799E+03  0.17017544859E+03  0.00000000000E+00 0.  1.
         11    1    1    2    0    0  0.16111950077E+02  0.16006901193E+02  0.11382793649E+03  0.11607159405E+03  0.00000000000E+00 0. -1.
<mgrwt>
<rscale>  0 0.15822734E+03</rscale>
<asrwt>0</asrwt>
<pdfrwt beam="1">  1        1 0.12046483E+00 0.16464168E+03</pdfrwt>
<pdfrwt beam="2">  1       -1 0.48561945E-02 0.16464168E+03</pdfrwt>
<totfact> 0.42988585E+03</totfact>
</mgrwt>
</event>
<event>
 6    1  0.9240440E-006  0.1323909E+03  0.7546771E-02  0.1237027E+00
          2   -1    0    0  501    0  0.00000000000E+00  0.00000000000E+00  0.39851399599E+03  0.39851399599E+03  0.00000000000E+00 0.  1.
         -2   -1    0    0    0  501 -0.00000000000E+00 -0.00000000000E+00 -0.34356201124E+02  0.34356201124E+02  0.00000000000E+00 0. -1.
          5    1    1    2  502    0 -0.31485375540E+02 -0.31653366231E+02  0.90859281041E+02  0.10134477499E+03  0.47000000000E+01 0. -1.
         -5    1    1    2    0  502  0.72251649507E+02  0.47362215383E+02  0.13014906701E+03  0.15628291636E+03  0.47000000000E+01 0. -1.
        -11    1    1    2    0    0 -0.61681946239E+02 -0.27750338678E+01  0.13642673069E+03  0.14974850968E+03  0.00000000000E+00 0.  1.
         11    1    1    2    0    0  0.20915672272E+02 -0.12933815285E+02  0.67227161323E+01  0.25493996089E+02  0.00000000000E+00 0. -1.
<mgrwt>
<rscale>  0 0.12375568E+03</rscale>
<asrwt>0</asrwt>
<pdfrwt beam="1">  1        2 0.61309842E-01 0.13239085E+03</pdfrwt>
<pdfrwt beam="2">  1       -2 0.52855697E-02 0.13239085E+03</pdfrwt>
<totfact> 0.13584462E+04</totfact>
</mgrwt>
</event>
<event>
 6    1  0.9240440E-006  0.1799384E+03  0.7546771E-02  0.1173694E+00
          2   -1    0    0  501    0  0.00000000000E+00  0.00000000000E+00  0.60052849132E+03  0.60052849132E+03  0.00000000000E+00 0.  1.
         -2   -1    0    0    0  501 -0.00000000000E+00 -0.00000000000E+00 -0.47490587353E+02  0.47490587353E+02  0.00000000000E+00 0. -1.
          5    1    1    2  502    0  0.60116167676E+02 -0.29449459719E+02  0.57505851694E+02  0.88375546804E+02  0.47000000000E+01 0.  1.
         -5    1    1    2    0  502 -0.20365869178E+02 -0.93727709193E+02  0.25140148482E+03  0.26911790849E+03  0.47000000000E+01 0.  1.
        -11    1    1    2    0    0  0.26116506114E+02  0.62276190767E+02  0.11315854853E+03  0.13177728535E+03  0.00000000000E+00 0.  1.
         11    1    1    2    0    0 -0.65866804612E+02  0.60900978145E+02  0.13097201893E+03  0.15874833804E+03  0.00000000000E+00 0. -1.
<mgrwt>
<rscale>  0 0.17404485E+03</rscale>
<asrwt>0</asrwt>
<pdfrwt beam="1">  1        2 0.92388994E-01 0.17993840E+03</pdfrwt>
<pdfrwt beam="2">  1       -2 0.73062446E-02 0.17993840E+03</pdfrwt>
<totfact> 0.53777946E+03</totfact>
</mgrwt>
</event>
<event>
 6    1  0.9240440E-006  0.1284387E+03  0.7546771E-02  0.1244355E+00
          2   -1    0    0  501    0  0.00000000000E+00  0.00000000000E+00  0.10597439058E+04  0.10597439058E+04  0.00000000000E+00 0. -1.
         -2   -1    0    0    0  501 -0.00000000000E+00 -0.00000000000E+00 -0.16559989462E+02  0.16559989462E+02  0.00000000000E+00 0.  1.
          5    1    1    2  502    0  0.48398702663E+02 -0.10323443283E+01  0.84265417475E+03  0.84405666182E+03  0.47000000000E+01 0.  1.
         -5    1    1    2    0  502 -0.18941645756E+02 -0.11347445501E+01  0.19499314588E+02  0.27611353798E+02  0.47000000000E+01 0.  1.
        -11    1    1    2    0    0  0.10383971229E+02 -0.36080373831E+01 -0.65418071526E+01  0.12792186407E+02  0.00000000000E+00 0.  1.
         11    1    1    2    0    0 -0.39841028135E+02  0.57751262614E+01  0.18757223414E+03  0.19184369321E+03  0.00000000000E+00 0. -1.
<mgrwt>
<rscale>  0 0.11924079E+03</rscale>
<asrwt>0</asrwt>
<pdfrwt beam="1">  1        2 0.16303747E+00 0.12843866E+03</pdfrwt>
<pdfrwt beam="2">  1       -2 0.25476915E-02 0.12843866E+03</pdfrwt>
<totfact> 0.12510834E+04</totfact>
</mgrwt>
</event>
<event>
 6    1  0.9240440E-006  0.1261812E+03  0.7546771E-02  0.1248189E+00
          2   -1    0    0  501    0  0.00000000000E+00  0.00000000000E+00  0.11491375930E+04  0.11491375930E+04  0.00000000000E+00 0.  1.
         -2   -1    0    0    0  501 -0.00000000000E+00 -0.00000000000E+00 -0.12799115945E+02  0.12799115945E+02  0.00000000000E+00 0. -1.
          5    1    1    2  502    0 -0.12973656156E+02 -0.65363912372E+02  0.33773161412E+03  0.34427531130E+03  0.47000000000E+01 0. -1.
         -5    1    1    2    0  502  0.31896373190E+01  0.51135461241E+02  0.54606162245E+03  0.54848007684E+03  0.47000000000E+01 0. -1.
        -11    1    1    2    0    0  0.47683746082E+02 -0.32512526155E+01  0.17130284835E+03  0.17784537142E+03  0.00000000000E+00 0.  1.
         11    1    1    2    0    0 -0.37899727244E+02  0.17479703747E+02  0.81242392110E+02  0.91335949352E+02  0.00000000000E+00 0. -1.
<mgrwt>
<rscale>  0 0.11696550E+03</rscale>
<asrwt>0</asrwt>
<pdfrwt beam="1">  1        2 0.17679032E+00 0.12618121E+03</pdfrwt>
<pdfrwt beam="2">  1       -2 0.19690957E-02 0.12618121E+03</pdfrwt>
<totfact> 0.16163117E+04</totfact>
</mgrwt>
</event>
<event>
 6    1  0.9240440E-006  0.1630621E+03  0.7546771E-02  0.1192951E+00
         -2   -1    0    0    0  501 -0.00000000000E+00  0.00000000000E+00  0.13608848274E+03  0.13608848274E+03  0.00000000000E+00 0. -1.
          2   -1    0    0  501    0  0.00000000000E+00 -0.00000000000E+00 -0.16625466695E+03  0.16625466695E+03  0.00000000000E+00 0.  1.
          5    1    1    2  502    0 -0.13251065840E+03  0.59328327210E+01 -0.11969103478E+02  0.13326523377E+03  0.47000000000E+01 0. -1.
         -5    1    1    2    0  502  0.28572153171E+02  0.68474116117E+01 -0.93230084461E+01  0.31181139637E+02  0.47000000000E+01 0. -1.
        -11    1    1    2    0    0  0.10749064310E+02 -0.24855601647E+02 -0.31199199115E+02  0.41312629331E+02  0.00000000000E+00 0.  1.
         11    1    1    2    0    0  0.93189440923E+02  0.12075357314E+02  0.22325126838E+02  0.96584146950E+02  0.00000000000E+00 0. -1.
<mgrwt>
<rscale>  0 0.15628887E+03</rscale>
<asrwt>0</asrwt>
<pdfrwt beam="2">  1        2 0.25577641E-01 0.16306212E+03</pdfrwt>
<pdfrwt beam="1">  1       -2 0.20936690E-01 0.16306212E+03</pdfrwt>
<totfact> 0.39469434E+03</totfact>
</mgrwt>
</event>
<event>
 6    1  0.9240440E-006  0.4987302E+03  0.7546771E-02  0.1014111E+00
          2   -1    0    0  501    0  0.00000000000E+00  0.00000000000E+00  0.11287527717E+04  0.11287527717E+04  0.00000000000E+00 0.  1.
         -2   -1    0    0    0  501 -0.00000000000E+00 -0.00000000000E+00 -0.55089964263E+02  0.55089964263E+02  0.00000000000E+00 0. -1.
          5    1    1    2  502    0  0.67246000938E+01  0.15728006417E+02  0.20526955768E+02  0.27129989778E+02  0.47000000000E+01 0.  1.
         -5    1    1    2    0  502 -0.18900432113E+02 -0.45936600222E+02  0.10461943224E+04  0.10473834292E+04  0.47000000000E+01 0.  1.
        -11    1    1    2    0    0  0.39170119907E+02  0.14282889629E+02  0.44119619552E+02  0.60702883450E+02  0.00000000000E+00 0.  1.
         11    1    1    2    0    0 -0.26994287888E+02  0.15925704176E+02 -0.37178090327E+02  0.48626433475E+02  0.00000000000E+00 0. -1.
<mgrwt>
<rscale>  0 0.49873019E+03</rscale>
<asrwt>0</asrwt>
<pdfrwt beam="1">  1        2 0.17365426E+00 0.49873019E+03</pdfrwt>
<pdfrwt beam="2">  1       -2 0.84753799E-02 0.49873019E+03</pdfrwt>
<totfact> 0.18934110E+03</totfact>
</mgrwt>
</event>
<event>
 6    1  0.9240440E-006  0.2978463E+03  0.7546771E-02  0.1087983E+00
         -2   -1    0    0    0  501 -0.00000000000E+00  0.00000000000E+00  0.48955374292E+03  0.48955374292E+03  0.00000000000E+00 0. -1.
          2   -1    0    0  501    0  0.00000000000E+00 -0.00000000000E+00 -0.18684194284E+03  0.18684194284E+03  0.00000000000E+00 0.  1.
          5    1    1    2  502    0 -0.23719132097E+03 -0.55663046846E+02  0.83049676128E+02  0.25744404486E+03  0.47000000000E+01 0. -1.
         -5    1    1    2    0  502 -0.31820373730E+02  0.28816041047E+02 -0.19050185379E+02  0.47200635259E+02  0.47000000000E+01 0. -1.
        -11    1    1    2    0    0  0.90475179641E+01  0.76589775775E+01  0.46203172849E+02  0.47699588050E+02  0.00000000000E+00 0. -1.
         11    1    1    2    0    0  0.25996417674E+03  0.19188028222E+02  0.19250913649E+03  0.32405141760E+03  0.00000000000E+00 0.  1.
<mgrwt>
<rscale>  0 0.29457705E+03</rscale>
<asrwt>0</asrwt>
<pdfrwt beam="2">  1        2 0.28744914E-01 0.29784635E+03</pdfrwt>
<pdfrwt beam="1">  1       -2 0.75315960E-01 0.29784635E+03</pdfrwt>
<totfact> 0.30047585E+02</totfact>
</mgrwt>
</event>
<event>
 6    1  0.9240440E-006  0.3373225E+03  0.7546771E-02  0.1067942E+00
          3   -1    0    0  501    0  0.00000000000E+00  0.00000000000E+00  0.26827263445E+03  0.26827263445E+03  0.00000000000E+00 0. -1.
         -3   -1    0    0    0  501 -0.00000000000E+00 -0.00000000000E+00 -0.10603622706E+03  0.10603622706E+03  0.00000000000E+00 0.  1.
          5    1    1    2  502    0  0.11202405544E+03 -0.40013858944E+01  0.90945935227E+01  0.11256199055E+03  0.47000000000E+01 0.  1.
         -5    1    1    2    0  502  0.16956961571E+02  0.53293368986E+01  0.90875215986E+02  0.92716423884E+02  0.47000000000E+01 0.  1.
        -11    1    1    2    0    0 -0.60742158987E+02  0.17585106219E+02 -0.14201383289E+02  0.64811458296E+02  0.00000000000E+00 0. -1.
         11    1    1    2    0    0 -0.68238858019E+02 -0.18913057223E+02  0.76467981177E+02  0.10421898878E+03  0.00000000000E+00 0.  1.
<mgrwt>
<rscale>  0 0.33732250E+03</rscale>
<asrwt>0</asrwt>
<pdfrwt beam="1">  1        3 0.41272713E-01 0.33732250E+03</pdfrwt>
<pdfrwt beam="2">  1       -3 0.16313266E-01 0.33732250E+03</pdfrwt>
<totfact> 0.48495673E+02</totfact>
</mgrwt>
</event>
<event>
 6    1  0.9240440E-006  0.1294010E+03  0.7546771E-02  0.1243650E+00
         -2   -1    0    0    0  501 -0.00000000000E+00  0.00000000000E+00  0.20111031298E+02  0.20111031298E+02  0.00000000000E+00 0.  1.
          2   -1    0    0  501    0  0.00000000000E+00 -0.00000000000E+00 -0.80263265734E+03  0.80263265734E+03  0.00000000000E+00 0. -1.
          5    1    1    2  502    0  0.41443059099E+01 -0.48106073824E+02 -0.56007284321E+03  0.56216994700E+03  0.47000000000E+01 0.  1.
         -5    1    1    2    0  502  0.25213717564E+02  0.32002727334E+02 -0.70656743757E+02  0.81696827041E+02  0.47000000000E+01 0.  1.
        -11    1    1    2    0    0 -0.94301310915E+01  0.32069724126E+02 -0.10125397551E+02  0.34927328176E+02  0.00000000000E+00 0.  1.
         11    1    1    2    0    0 -0.19927892382E+02 -0.15966377637E+02 -0.14166664152E+03  0.14394958642E+03  0.00000000000E+00 0. -1.
<mgrwt>
<rscale>  0 0.11966529E+03</rscale>
<asrwt>0</asrwt>
<pdfrwt beam="2">  1        2 0.12348193E+00 0.12940097E+03</pdfrwt>
<pdfrwt beam="1">  1       -2 0.30940052E-02 0.12940097E+03</pdfrwt>
<totfact> 0.13598119E+04</totfact>
</mgrwt>
</event>
<event>
 6    1  0.1248332E-005  0.1397503E+03  0.7546771E-02  0.1225299E+00
          3   -1    0    0  501    0  0.00000000000E+00  0.00000000000E+00  0.55931739181E+02  0.55931739181E+02  0.00000000000E+00 0. -1.
         -3   -1    0    0    0  501 -0.00000000000E+00 -0.00000000000E+00 -0.28069217993E+03  0.28069217993E+03  0.00000000000E+00 0.  1.
          5    1    1    2  502    0  0.31877902408E+02 -0.62937092325E+02 -0.92464391615E+02  0.11640030914E+03  0.47000000000E+01 0. -1.
         -5    1    1    2    0  502 -0.57754743763E+02  0.60571881631E+01 -0.15759229610E+02  0.60355142892E+02  0.47000000000E+01 0. -1.
        -11    1    1    2    0    0 -0.14596426735E+02  0.35144121386E+02 -0.10615446601E+03  0.11276939121E+03  0.00000000000E+00 0.  1.
         11    1    1    2    0    0  0.40473268090E+02  0.21735782776E+02 -0.10382353522E+02  0.47099075866E+02  0.00000000000E+00 0. -1.
<mgrwt>
<rscale>  0 0.13146448E+03</rscale>
<asrwt>0</asrwt>
<pdfrwt beam="1">  1        3 0.86048830E-02 0.13975027E+03</pdfrwt>
<pdfrwt beam="2">  1       -3 0.43183412E-01 0.13975027E+03</pdfrwt>
<totfact> 0.11709534E+03</totfact>
</mgrwt>
</event>
<event>
 6    1  0.9240440E-006  0.1370742E+03  0.7546771E-02  0.1229366E+00
          4   -1    0    0  501    0  0.00000000000E+00  0.00000000000E+00  0.25076782214E+03  0.25076782214E+03  0.00000000000E+00 0.  1.
         -4   -1    0    0    0  501 -0.00000000000E+00 -0.00000000000E+00 -0.64648496169E+02  0.64648496169E+02  0.00000000000E+00 0. -1.
          5    1    1    2  502    0 -0.29798804061E+02 -0.90239027601E+02  0.87236754072E+02  0.12908676186E+03  0.47000000000E+01 0. -1.
         -5    1    1    2    0  502  0.16809063516E+02  0.35513347592E+02  0.61969015301E+02  0.73525446825E+02  0.47000000000E+01 0. -1.
        -11    1    1    2    0    0 -0.72916411680E+01  0.70308245696E+02  0.47458240614E+02  0.85139309640E+02  0.00000000000E+00 0.  1.
         11    1    1    2    0    0  0.20281381712E+02 -0.15582565687E+02 -0.10544684014E+02  0.27664799990E+02  0.00000000000E+00 0. -1.
<mgrwt>
<rscale>  0 0.12872102E+03</rscale>
<asrwt>0</asrwt>
<pdfrwt beam="1">  1        4 0.38579664E-01 0.13707423E+03</pdfrwt>
<pdfrwt beam="2">  1       -4 0.99459226E-02 0.13707423E+03</pdfrwt>
<totfact> 0.82890106E+02</totfact>
</mgrwt>
</event>
<event>
 6    1  0.9240440E-006  0.1660735E+03  0.7546771E-02  0.1187954E+00
         -2   -1    0    0    0  501 -0.00000000000E+00  0.00000000000E+00  0.27421492463E+02  0.27421492463E+02  0.00000000000E+00 0.  1.
          2   -1    0    0  501    0  0.00000000000E+00 -0.00000000000E+00 -0.12122405771E+04  0.12122405771E+04  0.00000000000E+00 0. -1.
          5    1    1    2  502    0  0.61623450040E+02  0.67275830560E+02 -0.29899351168E+03  0.31263828460E+03  0.47000000000E+01 0. -1.
         -5    1    1    2    0  502 -0.12876894626E+02  0.30596593080E+02 -0.64365862770E+03  0.64453121331E+03  0.47000000000E+01 0. -1.
        -11    1    1    2    0    0 -0.40119680732E+02 -0.83863165531E+02 -0.24814490792E+03  0.26498776320E+03  0.00000000000E+00 0. -1.
         11    1    1    2    0    0 -0.86268746815E+01 -0.14009258109E+02  0.59779627040E+01  0.17504808414E+02  0.00000000000E+00 0.  1.
<mgrwt>
<rscale>  0 0.16065990E+03</rscale>
<asrwt>0</asrwt>
<pdfrwt beam="2">  1        2 0.18649860E+00 0.16607345E+03</pdfrwt>
<pdfrwt beam="1">  1       -2 0.42186899E-02 0.16607345E+03</pdfrwt>
<totfact> 0.49211427E+03</totfact>
</mgrwt>
</event>
<event>
 6    1  0.9240440E-006  0.1506364E+03  0.7546771E-02  0.1209387E+00
          1   -1    0    0  501    0  0.00000000000E+00  0.00000000000E+00  0.48566610725E+03  0.48566610725E+03  0.00000000000E+00 0. -1.
         -1   -1    0    0    0  501 -0.00000000000E+00 -0.00000000000E+00 -0.38595167921E+02  0.38595167921E+02  0.00000000000E+00 0.  1.
          5    1    1    2  502    0 -0.19669170816E+02 -0.20079177659E+02  0.13373745137E+01  0.28529427380E+02  0.47000000000E+01 0.  1.
         -5    1    1    2    0  502 -0.53480964073E+02  0.61487946301E+02  0.26699018853E+03  0.27918959836E+03  0.47000000000E+01 0.  1.
        -11    1    1    2    0    0 -0.14264758204E+02 -0.22168183089E+02  0.75135124425E+02  0.79625363990E+02  0.00000000000E+00 0. -1.
         11    1    1    2    0    0  0.87414893093E+02 -0.19240585553E+02  0.10360825186E+03  0.13691688544E+03  0.00000000000E+00 0.  1.
<mgrwt>
<rscale>  0 0.14297040E+03</rscale>
<asrwt>0</asrwt>
<pdfrwt beam="1">  1        1 0.74717858E-01 0.15063638E+03</pdfrwt>
<pdfrwt beam="2">  1       -1 0.59377185E-02 0.15063638E+03</pdfrwt>
<totfact> 0.61557063E+03</totfact>
</mgrwt>
</event>
<event>
 6    1  0.9240440E-006  0.4006340E+03  0.7546771E-02  0.1043560E+00
          1   -1    0    0  501    0  0.00000000000E+00  0.00000000000E+00  0.11189161343E+04  0.11189161343E+04  0.00000000000E+00 0. -1.
         -1   -1    0    0    0  501 -0.00000000000E+00 -0.00000000000E+00 -0.35862295530E+02  0.35862295530E+02  0.00000000000E+00 0.  1.
          5    1    1    2  502    0 -0.20177571516E+02  0.27401931827E+02  0.61178948069E+03  0.61275317946E+03  0.47000000000E+01 0.  1.
         -5    1    1    2    0  502 -0.82350636598E+02  0.34714970768E+02  0.23274985863E+03  0.24936187206E+03  0.47000000000E+01 0.  1.
        -11    1    1    2    0    0  0.78467322041E+02 -0.32343993190E+02  0.46310797357E+02  0.96684768581E+02  0.00000000000E+00 0.  1.
         11    1    1    2    0    0  0.24060886073E+02 -0.29772909405E+02  0.19220370214E+03  0.19597860977E+03  0.00000000000E+00 0. -1.
<mgrwt>
<rscale>  0 0.40063400E+03</rscale>
<asrwt>0</asrwt>
<pdfrwt beam="1">  1        1 0.17214092E+00 0.40063400E+03</pdfrwt>
<pdfrwt beam="2">  1       -1 0.55172771E-02 0.40063400E+03</pdfrwt>
<totfact> 0.19840773E+03</totfact>
</mgrwt>
</event>
<event>
 6    1  0.9240440E-006  0.2104426E+03  0.7546771E-02  0.1141216E+00
          2   -1    0    0  501    0  0.00000000000E+00  0.00000000000E+00  0.77698247537E+02  0.77698247537E+02  0.00000000000E+00 0. -1.
         -2   -1    0    0    0  501 -0.00000000000E+00 -0.00000000000E+00 -0.14249383055E+03  0.14249383055E+03  0.00000000000E+00 0.  1.
          5    1    1    2  502    0  0.50767119085E+02 -0.14509471459E+02  0.23758098158E+02  0.58089262091E+02  0.47000000000E+01 0. -1.
         -5    1    1    2    0  502 -0.25461524721E+02  0.12410073838E+02 -0.54276808176E+02  0.61403266033E+02  0.47000000000E+01 0.  1.
        -11    1    1    2    0    0  0.94876441401E+00  0.43980668523E+02 -0.24357327106E+02  0.50283980962E+02  0.00000000000E+00 0.  1.
         11    1    1    2    0    0 -0.26254358778E+02 -0.41881270901E+02 -0.99195458906E+01  0.50415569002E+02  0.00000000000E+00 0. -1.
<mgrwt>
<rscale>  0 0.21044259E+03</rscale>
<asrwt>0</asrwt>
<pdfrwt beam="1">  1        2 0.11953577E-01 0.21044259E+03</pdfrwt>
<pdfrwt beam="2">  1       -2 0.21922128E-01 0.21044259E+03</pdfrwt>
<totfact> 0.89528228E+03</totfact>
</mgrwt>
</event>
<event>
 6    1  0.9240440E-006  0.1562453E+03  0.7546771E-02  0.1202051E+00
          3   -1    0    0  501    0  0.00000000000E+00  0.00000000000E+00  0.25369596497E+03  0.25369596497E+03  0.00000000000E+00 0. -1.
         -3   -1    0    0    0  501 -0.00000000000E+00 -0.00000000000E+00 -0.84091429941E+02  0.84091429941E+02  0.00000000000E+00 0.  1.
          5    1    1    2  502    0  0.15800701388E+02  0.79034321528E+02  0.42257238767E+02  0.91125465003E+02  0.47000000000E+01 0. -1.
         -5    1    1    2    0  502  0.63251203647E+02 -0.28703680880E+02  0.88595951010E+02  0.11267630006E+03  0.47000000000E+01 0. -1.
        -11    1    1    2    0    0 -0.74917317140E+01 -0.23040974914E+02  0.50964891700E+02  0.56430778438E+02  0.00000000000E+00 0. -1.
         11    1    1    2    0    0 -0.71560173322E+02 -0.27289665734E+02 -0.12213546445E+02  0.77554851418E+02  0.00000000000E+00 0.  1.
<mgrwt>
<rscale>  0 0.14872282E+03</rscale>
<asrwt>0</asrwt>
<pdfrwt beam="1">  1        3 0.39030148E-01 0.15624533E+03</pdfrwt>
<pdfrwt beam="2">  1       -3 0.12937143E-01 0.15624533E+03</pdfrwt>
<totfact> 0.73556384E+02</totfact>
</mgrwt>
</event>
<event>
 6    1  0.9240440E-006  0.1660005E+03  0.7546771E-02  0.1186947E+00
          1   -1    0    0  501    0  0.00000000000E+00  0.00000000000E+00  0.44367410383E+02  0.44367410383E+02  0.00000000000E+00 0. -1.
         -1   -1    0    0    0  501 -0.00000000000E+00 -0.00000000000E+00 -0.63660159512E+03  0.63660159512E+03  0.00000000000E+00 0.  1.
          5    1    1    2  502    0 -0.84001615466E+00  0.37069392733E+02  0.19988082530E+01  0.37429009327E+02  0.47000000000E+01 0. -1.
         -5    1    1    2    0  502  0.84515754148E+02  0.45358964711E+02 -0.19339312689E+03  0.21592438470E+03  0.47000000000E+01 0.  1.
        -11    1    1    2    0    0 -0.69667771945E+02 -0.10198501081E+03 -0.31145772969E+03  0.33505291860E+03  0.00000000000E+00 0.  1.
         11    1    1    2    0    0 -0.14007966049E+02  0.19556653370E+02 -0.89382136408E+02  0.92562692878E+02  0.00000000000E+00 0. -1.
<mgrwt>
<rscale>  0 0.16155981E+03</rscale>
<asrwt>0</asrwt>
<pdfrwt beam="1">  1        1 0.68257552E-02 0.16600047E+03</pdfrwt>
<pdfrwt beam="2">  1       -1 0.97938711E-01 0.16600047E+03</pdfrwt>
<totfact> 0.11276943E+03</totfact>
</mgrwt>
</event>
<event>
 6    1  0.9240440E-006  0.1420736E+03  0.7546771E-02  0.1222445E+00
         -2   -1    0    0    0  501 -0.00000000000E+00  0.00000000000E+00  0.12601455781E+03  0.12601455781E+03  0.00000000000E+00 0.  1.
          2   -1    0    0  501    0  0.00000000000E+00 -0.00000000000E+00 -0.50529440042E+03  0.50529440042E+03  0.00000000000E+00 0. -1.
          5    1    1    2  502    0 -0.22468171980E+01 -0.35862296592E+02 -0.73675625751E+02  0.82105665664E+02  0.47000000000E+01 0. -1.
         -5    1    1    2    0  502  0.36109923903E+02  0.93890861325E+02 -0.39462276708E+03  0.40726973708E+03  0.47000000000E+01 0. -1.
        -11    1    1    2    0    0  0.24965396902E+02 -0.32398087821E+02  0.57172094270E+02  0.70296198333E+02  0.00000000000E+00 0.  1.
         11    1    1    2    0    0 -0.58828503607E+02 -0.25630476911E+02  0.31846455948E+02  0.71637357153E+02  0.00000000000E+00 0. -1.
<mgrwt>
<rscale>  0 0.13343586E+03</rscale>
<asrwt>0</asrwt>
<pdfrwt beam="2">  1        2 0.77737600E-01 0.14207357E+03</pdfrwt>
<pdfrwt beam="1">  1       -2 0.19386855E-01 0.14207357E+03</pdfrwt>
<totfact> 0.13513747E+03</totfact>
</mgrwt>
</event>
<event>
 6    1  0.9240440E-006  0.1714758E+03  0.7546771E-02  0.1187605E+00
         -1   -1    0    0    0  501 -0.00000000000E+00  0.00000000000E+00  0.34013325145E+03  0.34013325145E+03  0.00000000000E+00 0.  1.
          1   -1    0    0  501    0  0.00000000000E+00 -0.00000000000E+00 -0.71933588638E+02  0.71933588638E+02  0.00000000000E+00 0. -1.
          5    1    1    2  502    0 -0.74476089237E+02 -0.73578194957E+01  0.11158084065E+03  0.13443659984E+03  0.47000000000E+01 0. -1.
         -5    1    1    2    0  502 -0.31954033373E+02  0.56878733420E+02 -0.79984342811E+01  0.65896248112E+02  0.47000000000E+01 0. -1.
        -11    1    1    2    0    0  0.48991423627E+02  0.86555437030E+01  0.46602048707E+02  0.68167653396E+02  0.00000000000E+00 0.  1.
         11    1    1    2    0    0  0.57438698983E+02 -0.58176457627E+02  0.11801520773E+03  0.14356633874E+03  0.00000000000E+00 0. -1.
<mgrwt>
<rscale>  0 0.16097118E+03</rscale>
<asrwt>0</asrwt>
<pdfrwt beam="2">  1        1 0.11066706E-01 0.17147576E+03</pdfrwt>
<pdfrwt beam="1">  1       -1 0.52328192E-01 0.17147576E+03</pdfrwt>
<totfact> 0.20713679E+03</totfact>
</mgrwt>
</event>
<event>
 6    1  0.9240440E-006  0.1356919E+03  0.7546771E-02  0.1231036E+00
          2   -1    0    0  501    0  0.00000000000E+00  0.00000000000E+00  0.38877806849E+03  0.38877806849E+03  0.00000000000E+00 0. -1.
         -2   -1    0    0    0  501 -0.00000000000E+00 -0.00000000000E+00 -0.40047490249E+02  0.40047490249E+02  0.00000000000E+00 0.  1.
          5    1    1    2  502    0 -0.13069272078E+02 -0.57740874716E+02  0.15675826905E+03  0.16763072332E+03  0.47000000000E+01 0.  1.
         -5    1    1    2    0  502 -0.39689771052E+02  0.57400439992E+02  0.90092127002E+02  0.11405599408E+03  0.47000000000E+01 0.  1.
        -11    1    1    2    0    0  0.22735878064E+01 -0.26347867993E+02  0.82814584239E+02  0.86934657715E+02  0.00000000000E+00 0. -1.
         11    1    1    2    0    0  0.50485455323E+02  0.26688302718E+02  0.19065597955E+02  0.60204183630E+02  0.00000000000E+00 0.  1.
<mgrwt>
<rscale>  0 0.12761661E+03</rscale>
<asrwt>0</asrwt>
<pdfrwt beam="1">  1        2 0.59812008E-01 0.13569189E+03</pdfrwt>
<pdfrwt beam="2">  1       -2 0.61611526E-02 0.13569189E+03</pdfrwt>
<totfact> 0.11084101E+04</totfact>
</mgrwt>
</event>
<event>
 6    1  0.9240440E-006  0.1345285E+03  0.7546771E-02  0.1231749E+00
          1   -1    0    0  501    0  0.00000000000E+00  0.00000000000E+00  0.17886834182E+04  0.17886834182E+04  0.00000000000E+00 0. -1.
         -1   -1    0    0    0  501 -0.00000000000E+00 -0.00000000000E+00 -0.10824635285E+02  0.10824635285E+02  0.00000000000E+00 0.  1.
          5    1    1    2  502    0  0.37433442049E+02 -0.14772519945E+02  0.12849005673E+04  0.12855392050E+04  0.47000000000E+01 0. -1.
         -5    1    1    2    0  502  0.70106272820E+01  0.37087216505E+02  0.12232118314E+03  0.12809829182E+03  0.47000000000E+01 0. -1.
        -11    1    1    2    0    0 -0.11569611747E+02 -0.57653666867E+02  0.21738049812E+03  0.22519343281E+03  0.00000000000E+00 0. -1.
         11    1    1    2    0    0 -0.32874457584E+02  0.35338970307E+02  0.15325653438E+03  0.16067712381E+03  0.00000000000E+00 0.  1.
<mgrwt>
<rscale>  0 0.12714885E+03</rscale>
<asrwt>0</asrwt>
<pdfrwt beam="1">  1        1 0.27518183E+00 0.13452850E+03</pdfrwt>
<pdfrwt beam="2">  1       -1 0.16653299E-02 0.13452850E+03</pdfrwt>
<totfact> 0.41035834E+03</totfact>
</mgrwt>
</event>
<event>
 6    1  0.9240440E-006  0.3358805E+03  0.7546771E-02  0.1068564E+00
         -1   -1    0    0    0  501 -0.00000000000E+00  0.00000000000E+00  0.65019375728E+03  0.65019375728E+03  0.00000000000E+00 0.  1.
          1   -1    0    0  501    0  0.00000000000E+00 -0.00000000000E+00 -0.43377723402E+02  0.43377723402E+02  0.00000000000E+00 0. -1.
          5    1    1    2  502    0  0.29366517055E+02  0.23951902100E+01  0.15953436222E+03  0.16230043743E+03  0.47000000000E+01 0.  1.
         -5    1    1    2    0  502  0.28590542509E+02 -0.11408263088E+03  0.11509792917E+03  0.16462651393E+03  0.47000000000E+01 0.  1.
        -11    1    1    2    0    0 -0.68467896254E+02  0.39741625232E+02  0.21047646358E+03  0.22487238896E+03  0.00000000000E+00 0. -1.
         11    1    1    2    0    0  0.10510836689E+02  0.71945815434E+02  0.12170727890E+03  0.14177214037E+03  0.00000000000E+00 0.  1.
<mgrwt>
<rscale>  0 0.33588048E+03</rscale>
<asrwt>0</asrwt>
<pdfrwt beam="2">  1        1 0.66734964E-02 0.33588048E+03</pdfrwt>
<pdfrwt beam="1">  1       -1 0.10002980E+00 0.33588048E+03</pdfrwt>
<totfact> 0.11267188E+03</totfact>
</mgrwt>
</event>
<event>
 6    1  0.9240440E-006  0.1292437E+03  0.7546771E-02  0.1242870E+00
         -2   -1    0    0    0  501 -0.00000000000E+00  0.00000000000E+00  0.46892339870E+02  0.46892339870E+02  0.00000000000E+00 0.  1.
          2   -1    0    0  501    0  0.00000000000E+00 -0.00000000000E+00 -0.27169810270E+03  0.27169810270E+03  0.00000000000E+00 0. -1.
          5    1    1    2  502    0 -0.62192122975E+02 -0.47779002121E+02 -0.10253066042E+03  0.12917166690E+03  0.47000000000E+01 0. -1.
         -5    1    1    2    0  502  0.33561132366E+02  0.30965635595E+02 -0.24438468000E+02  0.52005277729E+02  0.47000000000E+01 0. -1.
        -11    1    1    2    0    0  0.21982000663E+02  0.45337688629E+02 -0.95567911520E+02  0.10803675336E+03  0.00000000000E+00 0. -1.
         11    1    1    2    0    0  0.66489899466E+01 -0.28524322103E+02 -0.22687228894E+01  0.29376744583E+02  0.00000000000E+00 0.  1.
<mgrwt>
<rscale>  0 0.12013744E+03</rscale>
<asrwt>0</asrwt>
<pdfrwt beam="2">  1        2 0.41799708E-01 0.12924367E+03</pdfrwt>
<pdfrwt beam="1">  1       -2 0.72142062E-02 0.12924367E+03</pdfrwt>
<totfact> 0.12692824E+04</totfact>
</mgrwt>
</event>
<event>
 6    1  0.9240440E-006  0.1344178E+03  0.7546771E-02  0.1232771E+00
         -3   -1    0    0    0  501 -0.00000000000E+00  0.00000000000E+00  0.71221363793E+02  0.71221363793E+02  0.00000000000E+00 0.  1.
          3   -1    0    0  501    0  0.00000000000E+00 -0.00000000000E+00 -0.40209867416E+03  0.40209867416E+03  0.00000000000E+00 0. -1.
          5    1    1    2  502    0 -0.29887737127E+02 -0.52089322172E+01 -0.32229363134E+03  0.32375250518E+03  0.47000000000E+01 0.  1.
         -5    1    1    2    0  502 -0.70775137331E+01  0.38026530223E+02 -0.19600666853E+02  0.43616331144E+02  0.47000000000E+01 0.  1.
        -11    1    1    2    0    0 -0.12591687825E+02 -0.25646661460E+02  0.39188113169E+02  0.48497526329E+02  0.00000000000E+00 0.  1.
         11    1    1    2    0    0  0.49556938684E+02 -0.71709365451E+01 -0.28171125341E+02  0.57453675302E+02  0.00000000000E+00 0. -1.
<mgrwt>
<rscale>  0 0.12648207E+03</rscale>
<asrwt>0</asrwt>
<pdfrwt beam="2">  1        3 0.61861336E-01 0.13441782E+03</pdfrwt>
<pdfrwt beam="1">  1       -3 0.10957133E-01 0.13441782E+03</pdfrwt>
<totfact> 0.38004270E+02</totfact>
</mgrwt>
</event>
<event>
 6    1  0.9240440E-006  0.2014160E+03  0.7546771E-02  0.1164387E+00
          2   -1    0    0  501    0  0.00000000000E+00  0.00000000000E+00  0.14812848865E+04  0.14812848865E+04  0.00000000000E+00 0. -1.
         -2   -1    0    0    0  501 -0.00000000000E+00 -0.00000000000E+00 -0.28278475258E+02  0.28278475258E+02  0.00000000000E+00 0.  1.
          5    1    1    2  502    0 -0.25122695152E+02  0.12456431966E+03  0.50153205168E+03  0.51740110978E+03  0.47000000000E+01 0. -1.
         -5    1    1    2    0  502  0.22684728023E+02 -0.12565164731E+02  0.73139606829E+03  0.73187073925E+03  0.47000000000E+01 0.  1.
        -11    1    1    2    0    0  0.14233984389E+02 -0.12229519501E+03  0.19950936599E+03  0.23444126802E+03  0.00000000000E+00 0.  1.
         11    1    1    2    0    0 -0.11796017260E+02  0.10296040078E+02  0.20568925295E+02  0.25850244724E+02  0.00000000000E+00 0. -1.
<mgrwt>
<rscale>  0 0.18357500E+03</rscale>
<asrwt>0</asrwt>
<pdfrwt beam="1">  1        2 0.22788992E+00 0.20141600E+03</pdfrwt>
<pdfrwt beam="2">  1       -2 0.43505358E-02 0.20141600E+03</pdfrwt>
<totfact> 0.33710420E+03</totfact>
</mgrwt>
</event>
<event>
 6    1  0.9240440E-006  0.1378665E+03  0.7546771E-02  0.1233572E+00
          1   -1    0    0  501    0  0.00000000000E+00  0.00000000000E+00  0.19742804387E+03  0.19742804387E+03  0.00000000000E+00 0. -1.
         -1   -1    0    0    0  501 -0.00000000000E+00 -0.00000000000E+00 -0.21549008051E+03  0.21549008051E+03  0.00000000000E+00 0.  1.
          5    1    1    2  502    0  0.49352448005E+02 -0.60855313481E+01 -0.60466934633E+00  0.49951510897E+02  0.47000000000E+01 0. -1.
         -5    1    1    2    0  502 -0.12069720967E+02  0.83373025280E+01  0.16023080830E+03  0.16096953347E+03  0.47000000000E+01 0.  1.
        -11    1    1    2    0    0 -0.13705559446E+01 -0.22056606515E+02 -0.26954583139E+01  0.22262924563E+02  0.00000000000E+00 0. -1.
         11    1    1    2    0    0 -0.35912171093E+02  0.19804835335E+02 -0.17499271727E+03  0.17973415545E+03  0.00000000000E+00 0.  1.
<mgrwt>
<rscale>  0 0.12596294E+03</rscale>
<asrwt>0</asrwt>
<pdfrwt beam="1">  1        1 0.30373545E-01 0.13786654E+03</pdfrwt>
<pdfrwt beam="2">  1       -1 0.33152320E-01 0.13786654E+03</pdfrwt>
<totfact> 0.12642870E+03</totfact>
</mgrwt>
</event>
<event>
 6    1  0.9240440E-006  0.1309419E+03  0.7546771E-02  0.1239403E+00
         -2   -1    0    0    0  501 -0.00000000000E+00  0.00000000000E+00  0.41042596324E+03  0.41042596324E+03  0.00000000000E+00 0. -1.
          2   -1    0    0  501    0  0.00000000000E+00 -0.00000000000E+00 -0.38493311537E+02  0.38493311537E+02  0.00000000000E+00 0.  1.
          5    1    1    2  502    0 -0.35123726400E+01 -0.82147708977E+02  0.79857640940E+02  0.11471667563E+03  0.47000000000E+01 0.  1.
         -5    1    1    2    0  502  0.16215626226E+02  0.45283611164E+02  0.38498564945E+02  0.61788198523E+02  0.47000000000E+01 0.  1.
        -11    1    1    2    0    0 -0.38165017859E+02 -0.12588809192E+02  0.71367957727E+02  0.81905018743E+02  0.00000000000E+00 0.  1.
         11    1    1    2    0    0  0.25461764273E+02  0.49452907005E+02  0.18220848809E+03  0.19050938187E+03  0.00000000000E+00 0. -1.
<mgrwt>
<rscale>  0 0.12226734E+03</rscale>
<asrwt>0</asrwt>
<pdfrwt beam="2">  1        2 0.59220482E-02 0.13094189E+03</pdfrwt>
<pdfrwt beam="1">  1       -2 0.63142453E-01 0.13094189E+03</pdfrwt>
<totfact> 0.28521012E+03</totfact>
</mgrwt>
</event>
<event>
 6    1  0.9240440E-006  0.1525651E+03  0.7546771E-02  0.1205641E+00
         -2   -1    0    0    0  501 -0.00000000000E+00  0.00000000000E+00  0.15300048889E+02  0.15300048889E+02  0.00000000000E+00 0.  1.
          2   -1    0    0  501    0  0.00000000000E+00 -0.00000000000E+00 -0.15022901425E+04  0.15022901425E+04  0.00000000000E+00 0. -1.
          5    1    1    2  502    0  0.26252791292E+02 -0.25958460366E+02 -0.73606221695E+02  0.82480401232E+02  0.47000000000E+01 0.  1.
         -5    1    1    2    0  502  0.59119261039E+02  0.66556554312E+01 -0.10164739125E+04  0.10182242826E+04  0.47000000000E+01 0.  1.
        -11    1    1    2    0    0 -0.35597703274E+02 -0.34069857078E+02 -0.10493741787E+03  0.11593020879E+03  0.00000000000E+00 0.  1.
         11    1    1    2    0    0 -0.49774349057E+02  0.53372662012E+02 -0.29197254153E+03  0.30095529881E+03  0.00000000000E+00 0. -1.
<mgrwt>
<rscale>  0 0.14587071E+03</rscale>
<asrwt>0</asrwt>
<pdfrwt beam="2">  1        2 0.23112169E+00 0.15256507E+03</pdfrwt>
<pdfrwt beam="1">  1       -2 0.23538524E-02 0.15256507E+03</pdfrwt>
<totfact> 0.81223251E+03</totfact>
</mgrwt>
</event>
<event>
 6    1  0.9240440E-006  0.1525015E+03  0.7546771E-02  0.1221247E+00
         -1   -1    0    0    0  501 -0.00000000000E+00  0.00000000000E+00  0.38575472533E+02  0.38575472533E+02  0.00000000000E+00 0.  1.
          1   -1    0    0  501    0  0.00000000000E+00 -0.00000000000E+00 -0.39386316299E+03  0.39386316299E+03  0.00000000000E+00 0. -1.
          5    1    1    2  502    0  0.18862702893E+02  0.84426415893E+02 -0.99681346043E+02  0.13206847470E+03  0.47000000000E+01 0.  1.
         -5    1    1    2    0  502  0.48772609603E+02 -0.29167135868E+02 -0.15035696299E+03  0.16080670254E+03  0.47000000000E+01 0.  1.
        -11    1    1    2    0    0 -0.66863398228E+02 -0.44089719720E+02 -0.96137208055E+02  0.12512785533E+03  0.00000000000E+00 0. -1.
         11    1    1    2    0    0 -0.77191426846E+00 -0.11169560305E+02 -0.91121733754E+01  0.14435602955E+02  0.00000000000E+00 0.  1.
<mgrwt>
<rscale>  0 0.13427462E+03</rscale>
<asrwt>0</asrwt>
<pdfrwt beam="2">  1        1 0.60594331E-01 0.15250152E+03</pdfrwt>
<pdfrwt beam="1">  1       -1 0.59346883E-02 0.15250152E+03</pdfrwt>
<totfact> 0.80625771E+03</totfact>
</mgrwt>
</event>
<event>
 6    1  0.9240440E-006  0.1288063E+03  0.7546771E-02  0.1242535E+00
          2   -1    0    0  501    0  0.00000000000E+00  0.00000000000E+00  0.33560157198E+03  0.33560157198E+03  0.00000000000E+00 0. -1.
         -2   -1    0    0    0  501 -0.00000000000E+00 -0.00000000000E+00 -0.62184949384E+02  0.62184949384E+02  0.00000000000E+00 0.  1.
          5    1    1    2  502    0  0.55370612958E+02  0.15317733051E+02  0.25844227395E+03  0.26479244077E+03  0.47000000000E+01 0. -1.
         -5    1    1    2    0  502 -0.31909614698E+02  0.50999342398E+01  0.12058010073E+02  0.34809746428E+02  0.47000000000E+01 0. -1.
        -11    1    1    2    0    0  0.18727864682E+01 -0.36186164400E+02 -0.34699538175E+02  0.50169749577E+02  0.00000000000E+00 0.  1.
         11    1    1    2    0    0 -0.25333784728E+02  0.15768497109E+02  0.37615876756E+02  0.48014584595E+02  0.00000000000E+00 0. -1.
<mgrwt>
<rscale>  0 0.12034152E+03</rscale>
<asrwt>0</asrwt>
<pdfrwt beam="1">  1        2 0.51631010E-01 0.12880632E+03</pdfrwt>
<pdfrwt beam="2">  1       -2 0.95669155E-02 0.12880632E+03</pdfrwt>
<totfact> 0.65579043E+03</totfact>
</mgrwt>
</event>
<event>
 6    1  0.9240440E-006  0.1774377E+03  0.7546771E-02  0.1175992E+00
          2   -1    0    0  501    0  0.00000000000E+00  0.00000000000E+00  0.14057272122E+03  0.14057272122E+03  0.00000000000E+00 0. -1.
         -2   -1    0    0    0  501 -0.00000000000E+00 -0.00000000000E+00 -0.20049316393E+03  0.20049316393E+03  0.00000000000E+00 0.  1.
          5    1    1    2  502    0 -0.93292226012E+02 -0.43229420485E+02  0.23477099929E+02  0.10557218597E+03  0.47000000000E+01 0. -1.
         -5    1    1    2    0  502 -0.22733712833E+02 -0.57325806053E+01 -0.75706145650E+02  0.79392661303E+02  0.47000000000E+01 0. -1.
        -11    1    1    2    0    0  0.10783558669E+02  0.10485403594E+02 -0.37284358415E+02  0.40203883003E+02  0.00000000000E+00 0.  1.
         11    1    1    2    0    0  0.10524238018E+03  0.38476597496E+02  0.29592961430E+02  0.11589715487E+03  0.00000000000E+00 0. -1.
<mgrwt>
<rscale>  0 0.17179236E+03</rscale>
<asrwt>0</asrwt>
<pdfrwt beam="1">  1        2 0.21626572E-01 0.17743766E+03</pdfrwt>
<pdfrwt beam="2">  1       -2 0.30845102E-01 0.17743766E+03</pdfrwt>
<totfact> 0.24163716E+03</totfact>
</mgrwt>
</event>
<event>
 6    1  0.9240440E-006  0.1336364E+03  0.7546771E-02  0.1234244E+00
          1   -1    0    0  501    0  0.00000000000E+00  0.00000000000E+00  0.58023843579E+03  0.58023843579E+03  0.00000000000E+00 0. -1.
         -1   -1    0    0    0  501 -0.00000000000E+00 -0.00000000000E+00 -0.24887786373E+02  0.24887786373E+02  0.00000000000E+00 0.  1.
          5    1    1    2  502    0  0.45649309929E+02 -0.54672185003E+02  0.13473806284E+03  0.15247735205E+03  0.47000000000E+01 0.  1.
         -5    1    1    2    0  502  0.16073893429E+01  0.53860342959E+02  0.22130570269E+03  0.22781971883E+03  0.47000000000E+01 0.  1.
        -11    1    1    2    0    0  0.67899169168E+01  0.22172652151E+02  0.74386752856E+01  0.24352892337E+02  0.00000000000E+00 0.  1.
         11    1    1    2    0    0 -0.54046616189E+02 -0.21360810107E+02  0.19186820860E+03  0.20047625894E+03  0.00000000000E+00 0. -1.
<mgrwt>
<rscale>  0 0.12552977E+03</rscale>
<asrwt>0</asrwt>
<pdfrwt beam="1">  1        1 0.89267441E-01 0.13363644E+03</pdfrwt>
<pdfrwt beam="2">  1       -1 0.38288907E-02 0.13363644E+03</pdfrwt>
<totfact> 0.92395582E+03</totfact>
</mgrwt>
</event>
<event>
 6    1  0.9240440E-006  0.1317176E+03  0.7546771E-02  0.1238028E+00
          2   -1    0    0  501    0  0.00000000000E+00  0.00000000000E+00  0.75545172625E+03  0.75545172625E+03  0.00000000000E+00 0. -1.
         -2   -1    0    0    0  501 -0.00000000000E+00 -0.00000000000E+00 -0.17991257016E+02  0.17991257016E+02  0.00000000000E+00 0.  1.
          5    1    1    2  502    0 -0.25305345417E+02  0.60079655192E+02  0.43660772570E+03  0.44147290021E+03  0.47000000000E+01 0.  1.
         -5    1    1    2    0  502  0.64008940645E+01 -0.23142753821E+02  0.14432776281E+02  0.28406927507E+02  0.47000000000E+01 0.  1.
        -11    1    1    2    0    0  0.17516365894E+02 -0.54396412306E+02  0.27856744012E+03  0.28436879477E+03  0.00000000000E+00 0.  1.
         11    1    1    2    0    0  0.13880854589E+01  0.17459510934E+02  0.78525271294E+01  0.19194360777E+02  0.00000000000E+00 0. -1.
<mgrwt>
<rscale>  0 0.12312583E+03</rscale>
<asrwt>0</asrwt>
<pdfrwt beam="1">  1        2 0.11622332E+00 0.13171757E+03</pdfrwt>
<pdfrwt beam="2">  1       -2 0.27678863E-02 0.13171757E+03</pdfrwt>
<totfact> 0.17272341E+04</totfact>
</mgrwt>
</event>
<event>
 6    1  0.9240440E-006  0.1344453E+03  0.7546771E-02  0.1233290E+00
         -1   -1    0    0    0  501 -0.00000000000E+00  0.00000000000E+00  0.19069561229E+03  0.19069561229E+03  0.00000000000E+00 0.  1.
          1   -1    0    0  501    0  0.00000000000E+00 -0.00000000000E+00 -0.77858145346E+02  0.77858145346E+02  0.00000000000E+00 0. -1.
          5    1    1    2  502    0 -0.23817975829E+02  0.12222051202E+02  0.73139687545E+02  0.78026780034E+02  0.47000000000E+01 0. -1.
         -5    1    1    2    0  502  0.32136019925E+02  0.36534503518E+02 -0.36865328409E+02  0.61226106872E+02  0.47000000000E+01 0. -1.
        -11    1    1    2    0    0  0.32321593647E+02 -0.53578777581E+02  0.38872362586E+02  0.73664315621E+02  0.00000000000E+00 0. -1.
         11    1    1    2    0    0 -0.40639637743E+02  0.48222228609E+01  0.37690745226E+02  0.55636555113E+02  0.00000000000E+00 0.  1.
<mgrwt>
<rscale>  0 0.12614556E+03</rscale>
<asrwt>0</asrwt>
<pdfrwt beam="2">  1        1 0.11978176E-01 0.13444530E+03</pdfrwt>
<pdfrwt beam="1">  1       -1 0.29337786E-01 0.13444530E+03</pdfrwt>
<totfact> 0.50890241E+03</totfact>
</mgrwt>
</event>
<event>
 6    1  0.9240440E-006  0.1544331E+03  0.7546771E-02  0.1204301E+00
         -2   -1    0    0    0  501 -0.00000000000E+00  0.00000000000E+00  0.18561435083E+03  0.18561435083E+03  0.00000000000E+00 0.  1.
          2   -1    0    0  501    0  0.00000000000E+00 -0.00000000000E+00 -0.13663389812E+03  0.13663389812E+03  0.00000000000E+00 0. -1.
          5    1    1    2  502    0 -0.13371666473E+02 -0.13434010162E+02  0.27508111145E+02  0.33735148911E+02  0.47000000000E+01 0. -1.
         -5    1    1    2    0  502 -0.22586549464E+01  0.10276135815E+03 -0.76726698491E+02  0.12835137129E+03  0.47000000000E+01 0. -1.
        -11    1    1    2    0    0 -0.14362195194E+02  0.85686355166E+01 -0.20730346565E+01  0.16852051451E+02  0.00000000000E+00 0. -1.
         11    1    1    2    0    0  0.29992516613E+02 -0.97895983504E+02  0.10027207471E+03  0.14330967729E+03  0.00000000000E+00 0.  1.
<mgrwt>
<rscale>  0 0.14692639E+03</rscale>
<asrwt>0</asrwt>
<pdfrwt beam="2">  1        2 0.21020600E-01 0.15443306E+03</pdfrwt>
<pdfrwt beam="1">  1       -2 0.28556054E-01 0.15443306E+03</pdfrwt>
<totfact> 0.28492433E+03</totfact>
</mgrwt>
</event>
<event>
 6    1  0.9240440E-006  0.2217163E+03  0.7546771E-02  0.1132610E+00
          1   -1    0    0  501    0  0.00000000000E+00  0.00000000000E+00  0.42672881232E+03  0.42672881232E+03  0.00000000000E+00 0. -1.
         -1   -1    0    0    0  501 -0.00000000000E+00 -0.00000000000E+00 -0.28799383071E+02  0.28799383071E+02  0.00000000000E+00 0.  1.
          5    1    1    2  502    0 -0.33973357894E+02  0.17145498214E+02  0.12651974433E+01  0.38364669686E+02  0.47000000000E+01 0. -1.
         -5    1    1    2    0  502  0.12557630060E+02 -0.10240920877E+02  0.19299372231E+03  0.19372980511E+03  0.47000000000E+01 0. -1.
        -11    1    1    2    0    0 -0.51149827205E+01 -0.29277870648E+02  0.17748977457E+03  0.17996104255E+03  0.00000000000E+00 0. -1.
         11    1    1    2    0    0  0.26530710555E+02  0.22373293311E+02  0.26180734925E+02  0.43472678055E+02  0.00000000000E+00 0.  1.
<mgrwt>
<rscale>  0 0.22171627E+03</rscale>
<asrwt>0</asrwt>
<pdfrwt beam="1">  1        1 0.65650582E-01 0.22171627E+03</pdfrwt>
<pdfrwt beam="2">  1       -1 0.44306746E-02 0.22171627E+03</pdfrwt>
<totfact> 0.11528878E+04</totfact>
</mgrwt>
</event>
<event>
 6    1  0.9240440E-006  0.2075969E+03  0.7546771E-02  0.1147201E+00
          1   -1    0    0  501    0  0.00000000000E+00  0.00000000000E+00  0.68829366366E+03  0.68829366366E+03  0.00000000000E+00 0. -1.
         -1   -1    0    0    0  501 -0.00000000000E+00 -0.00000000000E+00 -0.64195913501E+02  0.64195913501E+02  0.00000000000E+00 0.  1.
          5    1    1    2  502    0  0.11809845355E+02  0.20750171872E+02  0.98109575799E+01  0.26237129581E+02  0.47000000000E+01 0.  1.
         -5    1    1    2    0  502  0.14489642780E+03 -0.74757930561E+02  0.43688921186E+03  0.46634536174E+03  0.47000000000E+01 0.  1.
        -11    1    1    2    0    0 -0.49892000015E+02  0.65618916385E+02  0.73369826343E+02  0.11035481535E+03  0.00000000000E+00 0.  1.
         11    1    1    2    0    0 -0.10681427314E+03 -0.11611157697E+02  0.10402775438E+03  0.14955227050E+03  0.00000000000E+00 0. -1.
<mgrwt>
<rscale>  0 0.20303768E+03</rscale>
<asrwt>0</asrwt>
<pdfrwt beam="1">  1        1 0.10589133E+00 0.20759689E+03</pdfrwt>
<pdfrwt beam="2">  1       -1 0.98762949E-02 0.20759689E+03</pdfrwt>
<totfact> 0.17883692E+03</totfact>
</mgrwt>
</event>
<event>
 6    1  0.9240440E-006  0.1501323E+03  0.7546771E-02  0.1211247E+00
          1   -1    0    0  501    0  0.00000000000E+00  0.00000000000E+00  0.10230112212E+04  0.10230112212E+04  0.00000000000E+00 0. -1.
         -1   -1    0    0    0  501 -0.00000000000E+00 -0.00000000000E+00 -0.18096933194E+02  0.18096933194E+02  0.00000000000E+00 0.  1.
          5    1    1    2  502    0 -0.96472646182E+01 -0.95785813481E+02  0.33379118834E+03  0.34742861021E+03  0.47000000000E+01 0. -1.
         -5    1    1    2    0  502 -0.38573713969E+02  0.28061490041E+02  0.30670543528E+03  0.31042824076E+03  0.47000000000E+01 0. -1.
        -11    1    1    2    0    0  0.21555695605E+02  0.65782214562E+01  0.13979701451E+02  0.26520804346E+02  0.00000000000E+00 0.  1.
         11    1    1    2    0    0  0.26665282982E+02  0.61146101984E+02  0.35043796289E+03  0.35673049903E+03  0.00000000000E+00 0. -1.
<mgrwt>
<rscale>  0 0.14155854E+03</rscale>
<asrwt>0</asrwt>
<pdfrwt beam="1">  1        1 0.15738630E+00 0.15013231E+03</pdfrwt>
<pdfrwt beam="2">  1       -1 0.27841444E-02 0.15013231E+03</pdfrwt>
<totfact> 0.63255705E+03</totfact>
</mgrwt>
</event>
<event>
 6    1  0.9240440E-006  0.3518595E+03  0.7546771E-02  0.1061854E+00
          1   -1    0    0  501    0  0.00000000000E+00  0.00000000000E+00  0.22747121316E+03  0.22747121316E+03  0.00000000000E+00 0. -1.
         -1   -1    0    0    0  501 -0.00000000000E+00 -0.00000000000E+00 -0.13606682235E+03  0.13606682235E+03  0.00000000000E+00 0.  1.
          5    1    1    2  502    0 -0.98322680120E+02  0.12241055525E+03  0.44822217856E+02  0.16334875168E+03  0.47000000000E+01 0.  1.
         -5    1    1    2    0  502  0.28078059695E+02 -0.39152842170E+01  0.10956820320E+02  0.30754654904E+02  0.47000000000E+01 0.  1.
        -11    1    1    2    0    0  0.32264323743E+02 -0.59387546941E+02 -0.29399509618E+02  0.73703449607E+02  0.00000000000E+00 0.  1.
         11    1    1    2    0    0  0.37980296682E+02 -0.59107724093E+02  0.65024862243E+02  0.95731179315E+02  0.00000000000E+00 0. -1.
<mgrwt>
<rscale>  0 0.35185955E+03</rscale>
<asrwt>0</asrwt>
<pdfrwt beam="1">  1        1 0.34995571E-01 0.35185955E+03</pdfrwt>
<pdfrwt beam="2">  1       -1 0.20933357E-01 0.35185955E+03</pdfrwt>
<totfact> 0.23369217E+03</totfact>
</mgrwt>
</event>
<event>
 6    1  0.9240440E-006  0.2251851E+03  0.7546771E-02  0.1133274E+00
         -2   -1    0    0    0  501 -0.00000000000E+00  0.00000000000E+00  0.14070978170E+03  0.14070978170E+03  0.00000000000E+00 0.  1.
          2   -1    0    0  501    0  0.00000000000E+00 -0.00000000000E+00 -0.38377251728E+03  0.38377251728E+03  0.00000000000E+00 0. -1.
          5    1    1    2  502    0 -0.15915900785E+03 -0.79086418406E+01 -0.17414418912E+03  0.23609833756E+03  0.47000000000E+01 0. -1.
         -5    1    1    2    0  502 -0.14545780383E+02 -0.62171084898E+02 -0.46152320533E+02  0.78923698690E+02  0.47000000000E+01 0. -1.
        -11    1    1    2    0    0  0.93012276188E+02 -0.32959145536E+01  0.14521912333E+02  0.94196775487E+02  0.00000000000E+00 0.  1.
         11    1    1    2    0    0  0.80692512048E+02  0.73375641292E+02 -0.37288138267E+02  0.11526348724E+03  0.00000000000E+00 0. -1.
<mgrwt>
<rscale>  0 0.22081828E+03</rscale>
<asrwt>0</asrwt>
<pdfrwt beam="2">  1        2 0.59041925E-01 0.22518510E+03</pdfrwt>
<pdfrwt beam="1">  1       -2 0.21647659E-01 0.22518510E+03</pdfrwt>
<totfact> 0.15244935E+03</totfact>
</mgrwt>
</event>
<event>
 6    1  0.9240440E-006  0.1479016E+03  0.7546771E-02  0.1204689E+00
          2   -1    0    0  501    0  0.00000000000E+00  0.00000000000E+00  0.65818349886E+03  0.65818349886E+03  0.00000000000E+00 0. -1.
         -2   -1    0    0    0  501 -0.00000000000E+00 -0.00000000000E+00 -0.38431085082E+02  0.38431085082E+02  0.00000000000E+00 0.  1.
          5    1    1    2  502    0 -0.72445418025E+02  0.22343875637E+02  0.27403048065E+03  0.28436311593E+03  0.47000000000E+01 0. -1.
         -5    1    1    2    0  502  0.39046134234E+02  0.58067151982E+02  0.18161488501E+03  0.19468551871E+03  0.47000000000E+01 0.  1.
        -11    1    1    2    0    0  0.67729869716E+02 -0.75530467616E+02  0.89468117603E+02  0.13526540895E+03  0.00000000000E+00 0.  1.
         11    1    1    2    0    0 -0.34330585925E+02 -0.48805600034E+01  0.74638930510E+02  0.82300540360E+02  0.00000000000E+00 0. -1.
<mgrwt>
<rscale>  0 0.14662016E+03</rscale>
<asrwt>0</asrwt>
<pdfrwt beam="1">  1        2 0.10125899E+00 0.14790164E+03</pdfrwt>
<pdfrwt beam="2">  1       -2 0.59124751E-02 0.14790164E+03</pdfrwt>
<totfact> 0.66236793E+03</totfact>
</mgrwt>
</event>
<event>
 6    1  0.9240440E-006  0.1192253E+03  0.7546771E-02  0.1252303E+00
          2   -1    0    0  501    0  0.00000000000E+00  0.00000000000E+00  0.26438010997E+03  0.26438010997E+03  0.00000000000E+00 0. -1.
         -2   -1    0    0    0  501 -0.00000000000E+00 -0.00000000000E+00 -0.47509593224E+02  0.47509593224E+02  0.00000000000E+00 0.  1.
          5    1    1    2  502    0 -0.16553699281E+02 -0.24593638244E+02  0.11021753247E+03  0.11423163514E+03  0.47000000000E+01 0. -1.
         -5    1    1    2    0  502  0.58563307772E+02  0.25444200736E+02  0.32716139027E+02  0.71899263703E+02  0.47000000000E+01 0.  1.
        -11    1    1    2    0    0  0.18972864697E+02  0.24747703294E+02  0.76233805650E+01  0.32101936769E+02  0.00000000000E+00 0.  1.
         11    1    1    2    0    0 -0.60982473187E+02 -0.25598265785E+02  0.66313464679E+02  0.93656867581E+02  0.00000000000E+00 0. -1.
<mgrwt>
<rscale>  0 0.11458735E+03</rscale>
<asrwt>0</asrwt>
<pdfrwt beam="1">  1        2 0.40673862E-01 0.11922532E+03</pdfrwt>
<pdfrwt beam="2">  1       -2 0.73091684E-02 0.11922532E+03</pdfrwt>
<totfact> 0.12718816E+04</totfact>
</mgrwt>
</event>
<event>
 6    1  0.9240440E-006  0.3693340E+03  0.7546771E-02  0.1054948E+00
          1   -1    0    0  501    0  0.00000000000E+00  0.00000000000E+00  0.14254895469E+04  0.14254895469E+04  0.00000000000E+00 0. -1.
         -1   -1    0    0    0  501 -0.00000000000E+00 -0.00000000000E+00 -0.23922945851E+02  0.23922945851E+02  0.00000000000E+00 0.  1.
          5    1    1    2  502    0  0.16134033087E+03 -0.23296516739E+02  0.68894628564E+03  0.70798481944E+03  0.47000000000E+01 0.  1.
         -5    1    1    2    0  502 -0.19925599978E+02 -0.11413191828E+02  0.20453588067E+03  0.20587449323E+03  0.47000000000E+01 0.  1.
        -11    1    1    2    0    0 -0.83114609166E+02  0.63094940258E+02  0.30343309428E+03  0.32087482364E+03  0.00000000000E+00 0.  1.
         11    1    1    2    0    0 -0.58300121726E+02 -0.28385231690E+02  0.20465134043E+03  0.21467835641E+03  0.00000000000E+00 0. -1.
<mgrwt>
<rscale>  0 0.36933405E+03</rscale>
<asrwt>0</asrwt>
<pdfrwt beam="1">  1        1 0.21930602E+00 0.36933405E+03</pdfrwt>
<pdfrwt beam="2">  1       -1 0.36804543E-02 0.36933405E+03</pdfrwt>
<totfact> 0.22333572E+03</totfact>
</mgrwt>
</event>
<event>
 6    1  0.9240440E-006  0.1373043E+03  0.7546771E-02  0.1228359E+00
         -1   -1    0    0    0  501 -0.00000000000E+00  0.00000000000E+00  0.15861882105E+02  0.15861882105E+02  0.00000000000E+00 0.  1.
          1   -1    0    0  501    0  0.00000000000E+00 -0.00000000000E+00 -0.95842692556E+03  0.95842692556E+03  0.00000000000E+00 0. -1.
          5    1    1    2  502    0  0.26801539547E+02 -0.37013306123E+02 -0.90994920384E+02  0.10193366906E+03  0.47000000000E+01 0.  1.
         -5    1    1    2    0  502 -0.71699767851E+02  0.22127728323E+01 -0.47906584018E+03  0.48442948125E+03  0.47000000000E+01 0.  1.
        -11    1    1    2    0    0  0.79166270867E+01  0.61391342907E+02 -0.23801981539E+03  0.24593698886E+03  0.00000000000E+00 0. -1.
         11    1    1    2    0    0  0.36981601217E+02 -0.26590809616E+02 -0.13448446749E+03  0.14198866849E+03  0.00000000000E+00 0.  1.
<mgrwt>
<rscale>  0 0.12939304E+03</rscale>
<asrwt>0</asrwt>
<pdfrwt beam="2">  1        1 0.14745035E+00 0.13730431E+03</pdfrwt>
<pdfrwt beam="1">  1       -1 0.24402887E-02 0.13730431E+03</pdfrwt>
<totfact> 0.85109036E+03</totfact>
</mgrwt>
</event>
<event>
 6    1  0.9240440E-006  0.3286715E+03  0.7546771E-02  0.1072956E+00
         -1   -1    0    0    0  501 -0.00000000000E+00  0.00000000000E+00  0.85477431898E+02  0.85477431898E+02  0.00000000000E+00 0.  1.
          1   -1    0    0  501    0  0.00000000000E+00 -0.00000000000E+00 -0.16590979258E+04  0.16590979258E+04  0.00000000000E+00 0. -1.
          5    1    1    2  502    0 -0.46814594662E+01  0.51874933473E+02 -0.17680839493E+03  0.18438064785E+03  0.47000000000E+01 0. -1.
         -5    1    1    2    0  502  0.23083079482E+03  0.15124215404E+03 -0.10672374632E+04  0.11023497348E+04  0.47000000000E+01 0. -1.
        -11    1    1    2    0    0 -0.19640486098E+03 -0.20672625483E+03 -0.27824651024E+03  0.39841151378E+03  0.00000000000E+00 0. -1.
         11    1    1    2    0    0 -0.29744474382E+02  0.36091673178E+01 -0.51328125539E+02  0.59433461251E+02  0.00000000000E+00 0.  1.
<mgrwt>
<rscale>  0 0.32592159E+03</rscale>
<asrwt>0</asrwt>
<pdfrwt beam="2">  1        1 0.25524581E+00 0.32867154E+03</pdfrwt>
<pdfrwt beam="1">  1       -1 0.13150375E-01 0.32867154E+03</pdfrwt>
<totfact> 0.22147988E+02</totfact>
</mgrwt>
</event>
<event>
 6    1  0.9240440E-006  0.2105731E+03  0.7546771E-02  0.1145312E+00
          2   -1    0    0  501    0  0.00000000000E+00  0.00000000000E+00  0.89482113120E+02  0.89482113120E+02  0.00000000000E+00 0. -1.
         -2   -1    0    0    0  501 -0.00000000000E+00 -0.00000000000E+00 -0.44954532872E+03  0.44954532872E+03  0.00000000000E+00 0.  1.
          5    1    1    2  502    0  0.67957967797E+02 -0.26973655553E+02 -0.48182080246E+02  0.87689602222E+02  0.47000000000E+01 0. -1.
         -5    1    1    2    0  502 -0.14381248458E+02 -0.13379287084E+03 -0.14844941928E+03  0.20041624854E+03  0.47000000000E+01 0. -1.
        -11    1    1    2    0    0 -0.10822521891E+02  0.14040648201E+03 -0.13801043023E+03  0.19717501369E+03  0.00000000000E+00 0. -1.
         11    1    1    2    0    0 -0.42754197447E+02  0.20360044382E+02 -0.25421285837E+02  0.53746577381E+02  0.00000000000E+00 0.  1.
<mgrwt>
<rscale>  0 0.20533749E+03</rscale>
<asrwt>0</asrwt>
<pdfrwt beam="1">  1        2 0.13766479E-01 0.21057311E+03</pdfrwt>
<pdfrwt beam="2">  1       -2 0.69160821E-01 0.21057311E+03</pdfrwt>
<totfact> 0.84100052E+02</totfact>
</mgrwt>
</event>
<event>
 6    1  0.9240440E-006  0.1388180E+03  0.7546771E-02  0.1225841E+00
          1   -1    0    0  501    0  0.00000000000E+00  0.00000000000E+00  0.62265577745E+02  0.62265577745E+02  0.00000000000E+00 0. -1.
         -1   -1    0    0    0  501 -0.00000000000E+00 -0.00000000000E+00 -0.24945367474E+03  0.24945367474E+03  0.00000000000E+00 0.  1.
          5    1    1    2  502    0 -0.78288931087E+02 -0.25898396520E+02 -0.11678599028E+03  0.14304174635E+03  0.47000000000E+01 0.  1.
         -5    1    1    2    0  502  0.17924966124E+02  0.24170583831E+02  0.10044372554E+02  0.32070250284E+02  0.47000000000E+01 0.  1.
        -11    1    1    2    0    0  0.11112897936E+02  0.13224142257E+02 -0.84142617927E+02  0.85897349148E+02  0.00000000000E+00 0.  1.
         11    1    1    2    0    0  0.49251067028E+02 -0.11496329568E+02  0.36961386575E+01  0.50709906704E+02  0.00000000000E+00 0. -1.
<mgrwt>
<rscale>  0 0.13109448E+03</rscale>
<asrwt>0</asrwt>
<pdfrwt beam="1">  1        1 0.95793196E-02 0.13881800E+03</pdfrwt>
<pdfrwt beam="2">  1       -1 0.38377489E-01 0.13881800E+03</pdfrwt>
<totfact> 0.43315400E+03</totfact>
</mgrwt>
</event>
<event>
 6    1  0.9240440E-006  0.3937966E+03  0.7546771E-02  0.1092000E+00
          2   -1    0    0  501    0  0.00000000000E+00  0.00000000000E+00  0.12688929493E+04  0.12688929493E+04  0.00000000000E+00 0. -1.
         -2   -1    0    0    0  501 -0.00000000000E+00 -0.00000000000E+00 -0.52900756681E+02  0.52900756681E+02  0.00000000000E+00 0.  1.
          5    1    1    2  502    0  0.27393596714E+00 -0.16019483456E+03  0.98388984441E+03  0.99685694861E+03  0.47000000000E+01 0. -1.
         -5    1    1    2    0  502 -0.28117667440E+02  0.10496187698E+03  0.72941101440E+02  0.13095836407E+03  0.47000000000E+01 0.  1.
        -11    1    1    2    0    0 -0.32119289584E+02  0.52299291173E+01  0.40858997369E+02  0.52234649305E+02  0.00000000000E+00 0.  1.
         11    1    1    2    0    0  0.59963021057E+02  0.50003028467E+02  0.11830224945E+03  0.14174374404E+03  0.00000000000E+00 0. -1.
<mgrwt>
<rscale>  0 0.28686093E+03</rscale>
<asrwt>0</asrwt>
<pdfrwt beam="1">  1        2 0.19521428E+00 0.39379656E+03</pdfrwt>
<pdfrwt beam="2">  1       -2 0.81385789E-02 0.39379656E+03</pdfrwt>
<totfact> 0.16768150E+03</totfact>
</mgrwt>
</event>
<event>
 6    1  0.9240440E-006  0.2299670E+03  0.7546771E-02  0.1126663E+00
         -2   -1    0    0    0  501 -0.00000000000E+00  0.00000000000E+00  0.10140776183E+02  0.10140776183E+02  0.00000000000E+00 0.  1.
          2   -1    0    0  501    0  0.00000000000E+00 -0.00000000000E+00 -0.13037668584E+04  0.13037668584E+04  0.00000000000E+00 0. -1.
          5    1    1    2  502    0 -0.10423241093E+02 -0.20797457233E+02 -0.32431049737E+02  0.40187574812E+02  0.47000000000E+01 0. -1.
         -5    1    1    2    0  502  0.32654239813E+02  0.47730576032E+02 -0.82205644769E+03  0.82410157168E+03  0.47000000000E+01 0. -1.
        -11    1    1    2    0    0 -0.50313299179E+02  0.58462853588E+01 -0.28871716111E+03  0.29312660446E+03  0.00000000000E+00 0.  1.
         11    1    1    2    0    0  0.28082300459E+02 -0.32779404158E+02 -0.15042142367E+03  0.15649188360E+03  0.00000000000E+00 0. -1.
<mgrwt>
<rscale>  0 0.22996702E+03</rscale>
<asrwt>0</asrwt>
<pdfrwt beam="2">  1        2 0.20057940E+00 0.22996702E+03</pdfrwt>
<pdfrwt beam="1">  1       -2 0.15601204E-02 0.22996702E+03</pdfrwt>
<totfact> 0.19274563E+04</totfact>
</mgrwt>
</event>
<event>
 6    1  0.9240440E-006  0.1579676E+03  0.7546771E-02  0.1199339E+00
         -2   -1    0    0    0  501 -0.00000000000E+00  0.00000000000E+00  0.19950194582E+02  0.19950194582E+02  0.00000000000E+00 0.  1.
          2   -1    0    0  501    0  0.00000000000E+00 -0.00000000000E+00 -0.13817625051E+04  0.13817625051E+04  0.00000000000E+00 0. -1.
          5    1    1    2  502    0 -0.40845980698E+02  0.11856473662E+02 -0.67157970219E+03  0.67294156990E+03  0.47000000000E+01 0. -1.
         -5    1    1    2    0  502  0.33458382810E+02  0.84367035294E+02 -0.39826522159E+03  0.40850279895E+03  0.47000000000E+01 0. -1.
        -11    1    1    2    0    0  0.32793962976E+02 -0.14742147679E+02 -0.15312852237E+03  0.15729309994E+03  0.00000000000E+00 0. -1.
         11    1    1    2    0    0 -0.25406365087E+02 -0.81481361277E+02 -0.13883886434E+03  0.16297523086E+03  0.00000000000E+00 0.  1.
<mgrwt>
<rscale>  0 0.15092666E+03</rscale>
<asrwt>0</asrwt>
<pdfrwt beam="2">  1        2 0.21257893E+00 0.15796760E+03</pdfrwt>
<pdfrwt beam="1">  1       -2 0.30692595E-02 0.15796760E+03</pdfrwt>
<totfact> 0.63752893E+03</totfact>
</mgrwt>
</event>
<event>
 6    1  0.9240440E-006  0.1379899E+03  0.7546771E-02  0.1226970E+00
          2   -1    0    0  501    0  0.00000000000E+00  0.00000000000E+00  0.14888175102E+04  0.14888175102E+04  0.00000000000E+00 0. -1.
         -2   -1    0    0    0  501 -0.00000000000E+00 -0.00000000000E+00 -0.10838136378E+02  0.10838136378E+02  0.00000000000E+00 0.  1.
          5    1    1    2  502    0  0.68306237476E+02 -0.40355928219E+01  0.90019508448E+03  0.90280413613E+03  0.47000000000E+01 0.  1.
         -5    1    1    2    0  502 -0.19701296165E+02 -0.28433101298E+02  0.83227690524E+02  0.90252538967E+02  0.47000000000E+01 0.  1.
        -11    1    1    2    0    0 -0.21923973465E+02 -0.31652156789E+02  0.22314810394E+03  0.22644556947E+03  0.00000000000E+00 0. -1.
         11    1    1    2    0    0 -0.26680967847E+02  0.64120850909E+02  0.27140849490E+03  0.28015340203E+03  0.00000000000E+00 0.  1.
<mgrwt>
<rscale>  0 0.13032782E+03</rscale>
<asrwt>0</asrwt>
<pdfrwt beam="1">  1        2 0.22904869E+00 0.13798987E+03</pdfrwt>
<pdfrwt beam="2">  1       -2 0.16674068E-02 0.13798987E+03</pdfrwt>
<totfact> 0.13570511E+04</totfact>
</mgrwt>
</event>
<event>
 6    1  0.9240440E-006  0.1441192E+03  0.7546771E-02  0.1219163E+00
         -1   -1    0    0    0  501 -0.00000000000E+00  0.00000000000E+00  0.19060316587E+02  0.19060316587E+02  0.00000000000E+00 0.  1.
          1   -1    0    0  501    0  0.00000000000E+00 -0.00000000000E+00 -0.10785375623E+04  0.10785375623E+04  0.00000000000E+00 0. -1.
          5    1    1    2  502    0  0.47859505411E+01 -0.41028192743E+02 -0.41009456751E+03  0.41219638793E+03  0.47000000000E+01 0.  1.
         -5    1    1    2    0  502 -0.75147108606E+02  0.54999377867E+02 -0.41037118417E+03  0.42083086662E+03  0.47000000000E+01 0.  1.
        -11    1    1    2    0    0  0.33452916553E+02  0.95848620710E+01 -0.17837341571E+02  0.39104193651E+02  0.00000000000E+00 0.  1.
         11    1    1    2    0    0  0.36908241512E+02 -0.23556047195E+02 -0.22117415243E+03  0.22546643066E+03  0.00000000000E+00 0. -1.
<mgrwt>
<rscale>  0 0.13575115E+03</rscale>
<asrwt>0</asrwt>
<pdfrwt beam="2">  1        1 0.16592891E+00 0.14411925E+03</pdfrwt>
<pdfrwt beam="1">  1       -1 0.29323554E-02 0.14411925E+03</pdfrwt>
<totfact> 0.53407864E+03</totfact>
</mgrwt>
</event>
<event>
 6    1  0.9240440E-006  0.1289381E+03  0.7546771E-02  0.1276825E+00
          1   -1    0    0  501    0  0.00000000000E+00  0.00000000000E+00  0.26370952195E+03  0.26370952195E+03  0.00000000000E+00 0. -1.
         -1   -1    0    0    0  501 -0.00000000000E+00 -0.00000000000E+00 -0.46625985988E+02  0.46625985988E+02  0.00000000000E+00 0.  1.
          5    1    1    2  502    0 -0.55093061445E+02  0.64609098922E+01  0.11906484136E+03  0.13143635427E+03  0.47000000000E+01 0. -1.
         -5    1    1    2    0  502  0.65540022804E+02 -0.28656507410E+02  0.10646054366E+03  0.12834573372E+03  0.47000000000E+01 0.  1.
        -11    1    1    2    0    0 -0.20565995848E+02  0.52586282088E+01  0.10073487376E+02  0.23496563659E+02  0.00000000000E+00 0. -1.
         11    1    1    2    0    0  0.10119034489E+02  0.16936969309E+02 -0.18515336445E+02  0.27056856285E+02  0.00000000000E+00 0.  1.
<mgrwt>
<rscale>  0 0.10166894E+03</rscale>
<asrwt>0</asrwt>
<pdfrwt beam="1">  1        1 0.40570695E-01 0.12893810E+03</pdfrwt>
<pdfrwt beam="2">  1       -1 0.71732288E-02 0.12893810E+03</pdfrwt>
<totfact> 0.98853774E+03</totfact>
</mgrwt>
</event>
<event>
 6    1  0.9240440E-006  0.3509405E+03  0.7546771E-02  0.1062230E+00
          1   -1    0    0  501    0  0.00000000000E+00  0.00000000000E+00  0.32260309819E+03  0.32260309819E+03  0.00000000000E+00 0. -1.
         -1   -1    0    0    0  501 -0.00000000000E+00 -0.00000000000E+00 -0.95441758440E+02  0.95441758440E+02  0.00000000000E+00 0.  1.
          5    1    1    2  502    0 -0.12252855000E+03  0.91302211923E+02  0.14155570249E+03  0.20834933735E+03  0.47000000000E+01 0. -1.
         -5    1    1    2    0  502  0.10917000396E+02 -0.10957322875E+02 -0.10301926210E+02  0.19169337648E+02  0.47000000000E+01 0. -1.
        -11    1    1    2    0    0  0.11794506262E+03 -0.55381917296E+02  0.10025776120E+03  0.16440746103E+03  0.00000000000E+00 0. -1.
         11    1    1    2    0    0 -0.63335130163E+01 -0.24962971752E+02 -0.43501977320E+01  0.26118720607E+02  0.00000000000E+00 0.  1.
<mgrwt>
<rscale>  0 0.35094049E+03</rscale>
<asrwt>0</asrwt>
<pdfrwt beam="1">  1        1 0.49631246E-01 0.35094049E+03</pdfrwt>
<pdfrwt beam="2">  1       -1 0.14683348E-01 0.35094049E+03</pdfrwt>
<totfact> 0.26643977E+03</totfact>
</mgrwt>
</event>
<event>
 6    1  0.9240440E-006  0.1765024E+03  0.7546771E-02  0.1176595E+00
         -2   -1    0    0    0  501 -0.00000000000E+00  0.00000000000E+00  0.11503274668E+03  0.11503274668E+03  0.00000000000E+00 0.  1.
          2   -1    0    0  501    0  0.00000000000E+00 -0.00000000000E+00 -0.27560880354E+03  0.27560880354E+03  0.00000000000E+00 0. -1.
          5    1    1    2  502    0 -0.25550167368E+02 -0.16832293901E+02 -0.13190627579E+03  0.13548982531E+03  0.47000000000E+01 0. -1.
         -5    1    1    2    0  502 -0.50688234550E+02 -0.81691204396E+02 -0.22106317241E+02  0.98759957773E+02  0.47000000000E+01 0. -1.
        -11    1    1    2    0    0  0.87836399609E+01 -0.14783840955E+02  0.14944897299E+02  0.22782981359E+02  0.00000000000E+00 0.  1.
         11    1    1    2    0    0  0.67454761957E+02  0.11330733925E+03 -0.21508361129E+02  0.13360878578E+03  0.00000000000E+00 0. -1.
<mgrwt>
<rscale>  0 0.17120666E+03</rscale>
<asrwt>0</asrwt>
<pdfrwt beam="2">  1        2 0.42401354E-01 0.17650236E+03</pdfrwt>
<pdfrwt beam="1">  1       -2 0.17697346E-01 0.17650236E+03</pdfrwt>
<totfact> 0.30433717E+03</totfact>
</mgrwt>
</event>
<event>
 6    1  0.9240440E-006  0.1347906E+03  0.7546771E-02  0.1231150E+00
         -4   -1    0    0    0  501 -0.00000000000E+00  0.00000000000E+00  0.20831831864E+03  0.20831831864E+03  0.00000000000E+00 0.  1.
          4   -1    0    0  501    0  0.00000000000E+00 -0.00000000000E+00 -0.82505032830E+02  0.82505032830E+02  0.00000000000E+00 0. -1.
          5    1    1    2  502    0 -0.13652983041E+02 -0.33724293949E+02 -0.48807957281E+02  0.61057666531E+02  0.47000000000E+01 0.  1.
         -5    1    1    2    0  502  0.37866950875E+02 -0.10502349851E+02  0.63105767963E+02  0.74489148680E+02  0.47000000000E+01 0.  1.
        -11    1    1    2    0    0 -0.58154995501E+02  0.86660949531E+01  0.57470657383E+02  0.82219104614E+02  0.00000000000E+00 0. -1.
         11    1    1    2    0    0  0.33941027668E+02  0.35560548847E+02  0.54044817747E+02  0.73057431647E+02  0.00000000000E+00 0.  1.
<mgrwt>
<rscale>  0 0.12754174E+03</rscale>
<asrwt>0</asrwt>
<pdfrwt beam="2">  1        4 0.12693082E-01 0.13479062E+03</pdfrwt>
<pdfrwt beam="1">  1       -4 0.32048972E-01 0.13479062E+03</pdfrwt>
<totfact> 0.78058353E+02</totfact>
</mgrwt>
</event>
<event>
 6    1  0.9240440E-006  0.1323713E+03  0.7546771E-02  0.1236778E+00
         -2   -1    0    0    0  501 -0.00000000000E+00  0.00000000000E+00  0.34598275086E+02  0.34598275086E+02  0.00000000000E+00 0. -1.
          2   -1    0    0  501    0  0.00000000000E+00 -0.00000000000E+00 -0.40147364613E+03  0.40147364613E+03  0.00000000000E+00 0.  1.
          5    1    1    2  502    0 -0.24763267086E+02  0.80724848297E+02 -0.13298626524E+03  0.15759808778E+03  0.47000000000E+01 0. -1.
         -5    1    1    2    0  502 -0.20291343144E+01 -0.46407584954E+02 -0.10009704901E+03  0.11045039859E+03  0.47000000000E+01 0. -1.
        -11    1    1    2    0    0 -0.15638268432E+02 -0.22098995266E+02  0.64182267713E-01  0.27072590395E+02  0.00000000000E+00 0. -1.
         11    1    1    2    0    0  0.42430669833E+02 -0.12218268077E+02 -0.13385623906E+03  0.14095084446E+03  0.00000000000E+00 0.  1.
<mgrwt>
<rscale>  0 0.12391278E+03</rscale>
<asrwt>0</asrwt>
<pdfrwt beam="2">  1        2 0.61765175E-01 0.13237129E+03</pdfrwt>
<pdfrwt beam="1">  1       -2 0.53228117E-02 0.13237129E+03</pdfrwt>
<totfact> 0.13335722E+04</totfact>
</mgrwt>
</event>
<event>
 6    1  0.9240440E-006  0.1464257E+03  0.7546771E-02  0.1214204E+00
          1   -1    0    0  501    0  0.00000000000E+00  0.00000000000E+00  0.42367454350E+02  0.42367454350E+02  0.00000000000E+00 0. -1.
         -1   -1    0    0    0  501 -0.00000000000E+00 -0.00000000000E+00 -0.42257900849E+03  0.42257900849E+03  0.00000000000E+00 0.  1.
          5    1    1    2  502    0  0.25269980217E+02  0.79013863820E+01 -0.15841804951E+03  0.16068407581E+03  0.47000000000E+01 0. -1.
         -5    1    1    2    0  502 -0.14492817775E+02  0.70145291608E+02 -0.29647287316E+02  0.77662444895E+02  0.47000000000E+01 0.  1.
        -11    1    1    2    0    0 -0.89147866944E+01  0.18612242414E+02 -0.55497493329E+02  0.59210309536E+02  0.00000000000E+00 0.  1.
         11    1    1    2    0    0 -0.18623757482E+01 -0.96658920404E+02 -0.13664872399E+03  0.16738963261E+03  0.00000000000E+00 0. -1.
<mgrwt>
<rscale>  0 0.13935143E+03</rscale>
<asrwt>0</asrwt>
<pdfrwt beam="1">  1        1 0.65180699E-02 0.14642573E+03</pdfrwt>
<pdfrwt beam="2">  1       -1 0.65012155E-01 0.14642573E+03</pdfrwt>
<totfact> 0.27747679E+03</totfact>
</mgrwt>
</event>
<event>
 6    1  0.9240440E-006  0.1833257E+03  0.7546771E-02  0.1169879E+00
          1   -1    0    0  501    0  0.00000000000E+00  0.00000000000E+00  0.58200487302E+03  0.58200487302E+03  0.00000000000E+00 0. -1.
         -1   -1    0    0    0  501 -0.00000000000E+00 -0.00000000000E+00 -0.66686553433E+02  0.66686553433E+02  0.00000000000E+00 0.  1.
          5    1    1    2  502    0 -0.79657352542E+02  0.10490750579E+03  0.38630813388E+03  0.40817513751E+03  0.47000000000E+01 0. -1.
         -5    1    1    2    0  502  0.32337094723E+02  0.20558380419E+02  0.38594955062E+02  0.54589332811E+02  0.47000000000E+01 0. -1.
        -11    1    1    2    0    0 -0.20113698897E+02 -0.12354748241E+01  0.49677177314E+01  0.20754891009E+02  0.00000000000E+00 0.  1.
         11    1    1    2    0    0  0.67433956717E+02 -0.12423041139E+03  0.85447512914E+02  0.16517206512E+03  0.00000000000E+00 0. -1.
<mgrwt>
<rscale>  0 0.17787116E+03</rscale>
<asrwt>0</asrwt>
<pdfrwt beam="1">  1        1 0.89539208E-01 0.18332572E+03</pdfrwt>
<pdfrwt beam="2">  1       -1 0.10259470E-01 0.18332572E+03</pdfrwt>
<totfact> 0.21287471E+03</totfact>
</mgrwt>
</event>
<event>
 6    1  0.9240440E-006  0.1475393E+03  0.7546771E-02  0.1215298E+00
         -1   -1    0    0    0  501 -0.00000000000E+00  0.00000000000E+00  0.11736234950E+03  0.11736234950E+03  0.00000000000E+00 0.  1.
          1   -1    0    0  501    0  0.00000000000E+00 -0.00000000000E+00 -0.26159985366E+03  0.26159985366E+03  0.00000000000E+00 0. -1.
          5    1    1    2  502    0  0.85470795584E+02 -0.47649465617E+02 -0.92569785356E+02  0.13478495329E+03  0.47000000000E+01 0. -1.
         -5    1    1    2    0  502 -0.81110104622E+01  0.35144421719E+02 -0.10972628688E+03  0.11559786720E+03  0.47000000000E+01 0. -1.
        -11    1    1    2    0    0 -0.56177635135E+02  0.17697249810E+01 -0.94693521176E+01  0.56997607366E+02  0.00000000000E+00 0. -1.
         11    1    1    2    0    0 -0.21182149987E+02  0.10735318917E+02  0.67527920198E+02  0.71581775310E+02  0.00000000000E+00 0.  1.
<mgrwt>
<rscale>  0 0.13854649E+03</rscale>
<asrwt>0</asrwt>
<pdfrwt beam="2">  1        1 0.40246131E-01 0.14753934E+03</pdfrwt>
<pdfrwt beam="1">  1       -1 0.18055746E-01 0.14753934E+03</pdfrwt>
<totfact> 0.24257957E+03</totfact>
</mgrwt>
</event>
<event>
 6    1  0.9240440E-006  0.1261468E+03  0.7546771E-02  0.1248518E+00
          3   -1    0    0  501    0  0.00000000000E+00  0.00000000000E+00  0.40521491913E+02  0.40521491913E+02  0.00000000000E+00 0. -1.
         -3   -1    0    0    0  501 -0.00000000000E+00 -0.00000000000E+00 -0.35332572618E+03  0.35332572618E+03  0.00000000000E+00 0.  1.
          5    1    1    2  502    0  0.42162646782E+02 -0.47283327672E+02 -0.92915905723E+02  0.11255601892E+03  0.47000000000E+01 0.  1.
         -5    1    1    2    0  502 -0.31505052217E+02  0.34018902597E+02 -0.44885780086E+01  0.46819775541E+02  0.47000000000E+01 0.  1.
        -11    1    1    2    0    0  0.32264899512E+02  0.24705656307E+02 -0.15003592022E+03  0.15544185585E+03  0.00000000000E+00 0.  1.
         11    1    1    2    0    0 -0.42922494077E+02 -0.11441231232E+02 -0.65363830320E+02  0.79029567783E+02  0.00000000000E+00 0. -1.
<mgrwt>
<rscale>  0 0.11677282E+03</rscale>
<asrwt>0</asrwt>
<pdfrwt beam="1">  1        3 0.62340757E-02 0.12614678E+03</pdfrwt>
<pdfrwt beam="2">  1       -3 0.54357804E-01 0.12614678E+03</pdfrwt>
<totfact> 0.12278961E+03</totfact>
</mgrwt>
</event>
<event>
 6    1  0.9240440E-006  0.3869859E+03  0.7546771E-02  0.1048382E+00
         -2   -1    0    0    0  501 -0.00000000000E+00  0.00000000000E+00  0.26296194312E+02  0.26296194312E+02  0.00000000000E+00 0.  1.
          2   -1    0    0  501    0  0.00000000000E+00 -0.00000000000E+00 -0.14237616272E+04  0.14237616272E+04  0.00000000000E+00 0. -1.
          5    1    1    2  502    0 -0.17948861839E+02 -0.28064026092E+02 -0.24767250282E+03  0.24994701409E+03  0.47000000000E+01 0.  1.
         -5    1    1    2    0  502  0.12675046667E+03  0.37686495233E+02 -0.92139386911E+03  0.93084623046E+03  0.47000000000E+01 0.  1.
        -11    1    1    2    0    0 -0.42150466442E+02  0.37989113655E+02 -0.12559969422E+03  0.13782277666E+03  0.00000000000E+00 0. -1.
         11    1    1    2    0    0 -0.66651138392E+02 -0.47611582795E+02 -0.10279936675E+03  0.13144180031E+03  0.00000000000E+00 0.  1.
<mgrwt>
<rscale>  0 0.38698585E+03</rscale>
<asrwt>0</asrwt>
<pdfrwt beam="2">  1        2 0.21904028E+00 0.38698585E+03</pdfrwt>
<pdfrwt beam="1">  1       -2 0.40455678E-02 0.38698585E+03</pdfrwt>
<totfact> 0.40622938E+03</totfact>
</mgrwt>
</event>
<event>
 6    1  0.9240440E-006  0.1298570E+03  0.7546771E-02  0.1241463E+00
          1   -1    0    0  501    0  0.00000000000E+00  0.00000000000E+00  0.41044241366E+03  0.41044241366E+03  0.00000000000E+00 0. -1.
         -1   -1    0    0    0  501 -0.00000000000E+00 -0.00000000000E+00 -0.35252842008E+02  0.35252842008E+02  0.00000000000E+00 0.  1.
          5    1    1    2  502    0 -0.14486561114E+02  0.58206065516E+02  0.21009113258E+03  0.21853645121E+03  0.47000000000E+01 0. -1.
         -5    1    1    2    0  502  0.43030901309E+02 -0.37615299485E+02  0.72306019164E+02  0.92286616745E+02  0.47000000000E+01 0. -1.
        -11    1    1    2    0    0 -0.14770761003E+01  0.28693480982E+02  0.29463623394E+01  0.28882151161E+02  0.00000000000E+00 0.  1.
         11    1    1    2    0    0 -0.27067264095E+02 -0.49284247013E+02  0.89846057561E+02  0.10599003655E+03  0.00000000000E+00 0. -1.
<mgrwt>
<rscale>  0 0.12099572E+03</rscale>
<asrwt>0</asrwt>
<pdfrwt beam="1">  1        1 0.63144983E-01 0.12985695E+03</pdfrwt>
<pdfrwt beam="2">  1       -1 0.54235144E-02 0.12985695E+03</pdfrwt>
<totfact> 0.86572670E+03</totfact>
</mgrwt>
</event>
<event>
 6    1  0.9240440E-006  0.1328323E+03  0.7546771E-02  0.1239161E+00
          2   -1    0    0  501    0  0.00000000000E+00  0.00000000000E+00  0.12330448054E+04  0.12330448054E+04  0.00000000000E+00 0. -1.
         -2   -1    0    0    0  501 -0.00000000000E+00 -0.00000000000E+00 -0.13004038214E+02  0.13004038214E+02  0.00000000000E+00 0.  1.
          5    1    1    2  502    0  0.41320076948E+02  0.22198532071E+02  0.21524461964E+03  0.22034622726E+03  0.47000000000E+01 0. -1.
         -5    1    1    2    0  502 -0.63548953479E+02 -0.44805207146E+02  0.74024091801E+03  0.74432834339E+03  0.47000000000E+01 0.  1.
        -11    1    1    2    0    0  0.23622291366E+02  0.54694090007E+02  0.20768572405E+03  0.21606206540E+03  0.00000000000E+00 0.  1.
         11    1    1    2    0    0 -0.13934148354E+01 -0.32087414932E+02  0.56869505458E+02  0.65312207534E+02  0.00000000000E+00 0. -1.
<mgrwt>
<rscale>  0 0.12241791E+03</rscale>
<asrwt>0</asrwt>
<pdfrwt beam="1">  1        2 0.18969911E+00 0.13283228E+03</pdfrwt>
<pdfrwt beam="2">  1       -2 0.20006222E-02 0.13283228E+03</pdfrwt>
<totfact> 0.14237886E+04</totfact>
</mgrwt>
</event>
<event>
 6    1  0.9240440E-006  0.2817404E+03  0.7546771E-02  0.1094742E+00
         -1   -1    0    0    0  501 -0.00000000000E+00  0.00000000000E+00  0.12708042108E+03  0.12708042108E+03  0.00000000000E+00 0.  1.
          1   -1    0    0  501    0  0.00000000000E+00 -0.00000000000E+00 -0.15615632387E+03  0.15615632387E+03  0.00000000000E+00 0. -1.
          5    1    1    2  502    0 -0.22538418400E+02  0.13113317592E+02  0.44896613584E+02  0.52131903030E+02  0.47000000000E+01 0.  1.
         -5    1    1    2    0  502  0.25348283016E+02  0.79481544201E+02 -0.62706594303E+02  0.10447037039E+03  0.47000000000E+01 0.  1.
        -11    1    1    2    0    0  0.22603950689E+02 -0.36331740121E+02 -0.39967789233E+02  0.58552182736E+02  0.00000000000E+00 0. -1.
         11    1    1    2    0    0 -0.25413815305E+02 -0.56263121672E+02  0.28701867162E+02  0.68082288792E+02  0.00000000000E+00 0.  1.
<mgrwt>
<rscale>  0 0.28174039E+03</rscale>
<asrwt>0</asrwt>
<pdfrwt beam="2">  1        1 0.24024050E-01 0.28174039E+03</pdfrwt>
<pdfrwt beam="1">  1       -1 0.19550834E-01 0.28174039E+03</pdfrwt>
<totfact> 0.41934662E+03</totfact>
</mgrwt>
</event>
<event>
 6    1  0.9240440E-006  0.1749691E+03  0.7546771E-02  0.1178335E+00
          2   -1    0    0  501    0  0.00000000000E+00  0.00000000000E+00  0.12130169063E+03  0.12130169063E+03  0.00000000000E+00 0. -1.
         -2   -1    0    0    0  501 -0.00000000000E+00 -0.00000000000E+00 -0.24903965600E+03  0.24903965600E+03  0.00000000000E+00 0.  1.
          5    1    1    2  502    0 -0.60919626646E+02 -0.10806624265E+03 -0.25107490420E+01  0.12416886716E+03  0.47000000000E+01 0. -1.
         -5    1    1    2    0  502 -0.36877702090E+02  0.34444602734E+02 -0.55904910320E+01  0.50987637315E+02  0.47000000000E+01 0. -1.
        -11    1    1    2    0    0 -0.34206425034E+01 -0.10205797620E+02 -0.40207624426E+02  0.41623456874E+02  0.00000000000E+00 0.  1.
         11    1    1    2    0    0  0.10121797124E+03  0.83827437536E+02 -0.79429100872E+02  0.15356138529E+03  0.00000000000E+00 0. -1.
<mgrwt>
<rscale>  0 0.16953406E+03</rscale>
<asrwt>0</asrwt>
<pdfrwt beam="1">  1        2 0.18661799E-01 0.17496906E+03</pdfrwt>
<pdfrwt beam="2">  1       -2 0.38313793E-01 0.17496906E+03</pdfrwt>
<totfact> 0.19122091E+03</totfact>
</mgrwt>
</event>
<event>
 6    1  0.9240440E-006  0.1281664E+03  0.7546771E-02  0.1245009E+00
          2   -1    0    0  501    0  0.00000000000E+00  0.00000000000E+00  0.41504001299E+03  0.41504001299E+03  0.00000000000E+00 0. -1.
         -2   -1    0    0    0  501 -0.00000000000E+00 -0.00000000000E+00 -0.30158689580E+02  0.30158689580E+02  0.00000000000E+00 0.  1.
          5    1    1    2  502    0  0.51709710251E+02 -0.51856818007E+02  0.99362982819E+02  0.12352374696E+03  0.47000000000E+01 0.  1.
         -5    1    1    2    0  502 -0.26089921324E+02  0.39840552557E+02  0.14061931668E+03  0.14853900446E+03  0.47000000000E+01 0.  1.
        -11    1    1    2    0    0  0.21294839400E+02  0.29633618633E+02  0.97709502745E+02  0.10430133491E+03  0.00000000000E+00 0. -1.
         11    1    1    2    0    0 -0.46914628327E+02 -0.17617353183E+02  0.47189521163E+02  0.68834616232E+02  0.00000000000E+00 0.  1.
<mgrwt>
<rscale>  0 0.11884811E+03</rscale>
<asrwt>0</asrwt>
<pdfrwt beam="1">  1        2 0.63852305E-01 0.12816644E+03</pdfrwt>
<pdfrwt beam="2">  1       -2 0.46397987E-02 0.12816644E+03</pdfrwt>
<totfact> 0.15770710E+04</totfact>
</mgrwt>
</event>
<event>
 6    1  0.9240440E-006  0.3320706E+03  0.7546771E-02  0.1070224E+00
          3   -1    0    0  501    0  0.00000000000E+00  0.00000000000E+00  0.14019274437E+03  0.14019274437E+03  0.00000000000E+00 0. -1.
         -3   -1    0    0    0  501 -0.00000000000E+00 -0.00000000000E+00 -0.19664150766E+03  0.19664150766E+03  0.00000000000E+00 0.  1.
          5    1    1    2  502    0 -0.15100941381E+02  0.19238158247E+02 -0.31019154511E+02  0.39779682124E+02  0.47000000000E+01 0. -1.
         -5    1    1    2    0  502  0.84553542679E+02  0.52263119013E+02  0.79249852455E+02  0.12721385264E+03  0.47000000000E+01 0. -1.
        -11    1    1    2    0    0 -0.82651925529E+02 -0.30672830353E+02 -0.53783805622E+02  0.10327081419E+03  0.00000000000E+00 0. -1.
         11    1    1    2    0    0  0.13199324231E+02 -0.40828446907E+02 -0.50895655606E+02  0.66569903084E+02  0.00000000000E+00 0.  1.
<mgrwt>
<rscale>  0 0.33207055E+03</rscale>
<asrwt>0</asrwt>
<pdfrwt beam="1">  1        3 0.21568115E-01 0.33207055E+03</pdfrwt>
<pdfrwt beam="2">  1       -3 0.30252540E-01 0.33207055E+03</pdfrwt>
<totfact> 0.53549425E+02</totfact>
</mgrwt>
</event>
<event>
 6    1  0.9240440E-006  0.1345922E+03  0.7546771E-02  0.1232950E+00
          1   -1    0    0  501    0  0.00000000000E+00  0.00000000000E+00  0.25149895491E+03  0.25149895491E+03  0.00000000000E+00 0. -1.
         -1   -1    0    0    0  501 -0.00000000000E+00 -0.00000000000E+00 -0.56896426723E+02  0.56896426723E+02  0.00000000000E+00 0.  1.
          5    1    1    2  502    0  0.17563489260E+02 -0.30246902283E+02  0.76443856266E+02  0.84196819497E+02  0.47000000000E+01 0. -1.
         -5    1    1    2    0  502 -0.61615182429E+02  0.53750759909E+02  0.29361598144E+02  0.87004415647E+02  0.47000000000E+01 0. -1.
        -11    1    1    2    0    0  0.23187598347E+02 -0.51786279096E+02  0.84505866399E+02  0.10178764599E+03  0.00000000000E+00 0. -1.
         11    1    1    2    0    0  0.20864094822E+02  0.28282421471E+02  0.42912073766E+01  0.35406500501E+02  0.00000000000E+00 0.  1.
<mgrwt>
<rscale>  0 0.12636559E+03</rscale>
<asrwt>0</asrwt>
<pdfrwt beam="1">  1        1 0.38692146E-01 0.13459223E+03</pdfrwt>
<pdfrwt beam="2">  1       -1 0.87532966E-02 0.13459223E+03</pdfrwt>
<totfact> 0.77899164E+03</totfact>
</mgrwt>
</event>
<event>
 6    1  0.9240440E-006  0.3808232E+03  0.7546771E-02  0.1050630E+00
         -4   -1    0    0    0  501 -0.00000000000E+00  0.00000000000E+00  0.34847098416E+03  0.34847098416E+03  0.00000000000E+00 0.  1.
          4   -1    0    0  501    0  0.00000000000E+00 -0.00000000000E+00 -0.10404477969E+03  0.10404477969E+03  0.00000000000E+00 0. -1.
          5    1    1    2  502    0 -0.39924381275E+02 -0.88288833569E+02 -0.59191996447E+02  0.11364267155E+03  0.47000000000E+01 0. -1.
         -5    1    1    2    0  502  0.60956856224E+01  0.23814876310E+02  0.18275306834E+02  0.30990039638E+02  0.47000000000E+01 0.  1.
        -11    1    1    2    0    0  0.46479924035E+02  0.22023765810E+01  0.16933480174E+03  0.17561181305E+03  0.00000000000E+00 0.  1.
         11    1    1    2    0    0 -0.12651228382E+02  0.62271580679E+02  0.11600809234E+03  0.13227123961E+03  0.00000000000E+00 0. -1.
<mgrwt>
<rscale>  0 0.38082325E+03</rscale>
<asrwt>0</asrwt>
<pdfrwt beam="2">  1        4 0.16006889E-01 0.38082325E+03</pdfrwt>
<pdfrwt beam="1">  1       -4 0.53610920E-01 0.38082325E+03</pdfrwt>
<totfact> 0.21842290E+02</totfact>
</mgrwt>
</event>
<event>
 6    1  0.9240440E-006  0.1480586E+03  0.7546771E-02  0.1214690E+00
         -2   -1    0    0    0  501 -0.00000000000E+00  0.00000000000E+00  0.24391882363E+02  0.24391882363E+02  0.00000000000E+00 0.  1.
          2   -1    0    0  501    0  0.00000000000E+00 -0.00000000000E+00 -0.87858428619E+03  0.87858428619E+03  0.00000000000E+00 0. -1.
          5    1    1    2  502    0 -0.23465702407E+02 -0.43801764844E+01 -0.38328237796E+03  0.38405376758E+03  0.47000000000E+01 0. -1.
         -5    1    1    2    0  502  0.92139558288E+02  0.22554203889E+02 -0.28411459369E+03  0.29956899483E+03  0.47000000000E+01 0.  1.
        -11    1    1    2    0    0  0.15251701656E+02 -0.21498060564E+02 -0.75174297942E+02  0.79661509416E+02  0.00000000000E+00 0. -1.
         11    1    1    2    0    0 -0.83925557537E+02  0.33240331590E+01 -0.11162113423E+03  0.13969189673E+03  0.00000000000E+00 0.  1.
<mgrwt>
<rscale>  0 0.13899307E+03</rscale>
<asrwt>0</asrwt>
<pdfrwt beam="2">  1        2 0.13516682E+00 0.14805865E+03</pdfrwt>
<pdfrwt beam="1">  1       -2 0.37525971E-02 0.14805865E+03</pdfrwt>
<totfact> 0.91922738E+03</totfact>
</mgrwt>
</event>
<event>
 6    1  0.9240440E-006  0.1279681E+03  0.7546771E-02  0.1244841E+00
         -1   -1    0    0    0  501 -0.00000000000E+00  0.00000000000E+00  0.31040549510E+02  0.31040549510E+02  0.00000000000E+00 0.  1.
          1   -1    0    0  501    0  0.00000000000E+00 -0.00000000000E+00 -0.41145398959E+03  0.41145398959E+03  0.00000000000E+00 0. -1.
          5    1    1    2  502    0  0.19585773042E+02  0.40369627251E+02 -0.34294309465E+02  0.56670088863E+02  0.47000000000E+01 0. -1.
         -5    1    1    2    0  502 -0.36819467109E-01 -0.60908318689E+02 -0.21555265066E+03  0.22404209392E+03  0.47000000000E+01 0. -1.
        -11    1    1    2    0    0 -0.39202116190E+02  0.47605267228E+01 -0.13074496737E+03  0.13657860381E+03  0.00000000000E+00 0.  1.
         11    1    1    2    0    0  0.19653162615E+02  0.15778164715E+02  0.17848740922E+00  0.25203752505E+02  0.00000000000E+00 0. -1.
<mgrwt>
<rscale>  0 0.11894901E+03</rscale>
<asrwt>0</asrwt>
<pdfrwt beam="2">  1        1 0.63300608E-01 0.12796807E+03</pdfrwt>
<pdfrwt beam="1">  1       -1 0.47754696E-02 0.12796807E+03</pdfrwt>
<totfact> 0.10405442E+04</totfact>
</mgrwt>
</event>
<event>
 6    1  0.9240440E-006  0.1682778E+03  0.7546771E-02  0.1186264E+00
         -2   -1    0    0    0  501 -0.00000000000E+00  0.00000000000E+00  0.58673025612E+02  0.58673025612E+02  0.00000000000E+00 0.  1.
          2   -1    0    0  501    0  0.00000000000E+00 -0.00000000000E+00 -0.70933469052E+03  0.70933469052E+03  0.00000000000E+00 0. -1.
          5    1    1    2  502    0 -0.54322284059E+02  0.22169947448E+02 -0.29247117046E+03  0.29833520185E+03  0.47000000000E+01 0. -1.
         -5    1    1    2    0  502 -0.27088037568E+02 -0.10005136417E+03 -0.29246871232E+03  0.31032897856E+03  0.47000000000E+01 0. -1.
        -11    1    1    2    0    0  0.63159747871E+01  0.68491194793E+02 -0.23514269249E+02  0.72690137983E+02  0.00000000000E+00 0.  1.
         11    1    1    2    0    0  0.75094346840E+02  0.93902219254E+01 -0.42207512883E+02  0.86653397734E+02  0.00000000000E+00 0. -1.
<mgrwt>
<rscale>  0 0.16217384E+03</rscale>
<asrwt>0</asrwt>
<pdfrwt beam="2">  1        2 0.10912841E+00 0.16827780E+03</pdfrwt>
<pdfrwt beam="1">  1       -2 0.90266192E-02 0.16827780E+03</pdfrwt>
<totfact> 0.31745863E+03</totfact>
</mgrwt>
</event>
<event>
 6    1  0.9240440E-006  0.4282562E+03  0.7546771E-02  0.1035262E+00
         -2   -1    0    0    0  501 -0.00000000000E+00  0.00000000000E+00  0.34612979545E+03  0.34612979545E+03  0.00000000000E+00 0.  1.
          2   -1    0    0  501    0  0.00000000000E+00 -0.00000000000E+00 -0.51693187667E+03  0.51693187667E+03  0.00000000000E+00 0. -1.
          5    1    1    2  502    0  0.32519824373E+03 -0.12988295066E+03 -0.48435168325E+02  0.35354141783E+03  0.47000000000E+01 0.  1.
         -5    1    1    2    0  502  0.36105802951E+02 -0.63085951724E+02 -0.42267446466E+02  0.84214567282E+02  0.47000000000E+01 0.  1.
        -11    1    1    2    0    0 -0.14361490956E+03  0.40275385205E+02 -0.51834934171E+02  0.15790569750E+03  0.00000000000E+00 0. -1.
         11    1    1    2    0    0 -0.21768913712E+03  0.15269351718E+03 -0.28264532251E+02  0.26739998951E+03  0.00000000000E+00 0.  1.
<mgrwt>
<rscale>  0 0.42559106E+03</rscale>
<asrwt>0</asrwt>
<pdfrwt beam="2">  1        2 0.79527981E-01 0.42825616E+03</pdfrwt>
<pdfrwt beam="1">  1       -2 0.53250738E-01 0.42825616E+03</pdfrwt>
<totfact> 0.20207887E+02</totfact>
</mgrwt>
</event>
<event>
 6    1  0.9240440E-006  0.2461549E+03  0.7546771E-02  0.1115759E+00
         -2   -1    0    0    0  501 -0.00000000000E+00  0.00000000000E+00  0.37980349354E+03  0.37980349354E+03  0.00000000000E+00 0. -1.
          2   -1    0    0  501    0  0.00000000000E+00 -0.00000000000E+00 -0.39883939807E+02  0.39883939807E+02  0.00000000000E+00 0.  1.
          5    1    1    2  502    0  0.68944728173E+02 -0.12667041125E+02  0.34568839118E+02  0.78300217826E+02  0.47000000000E+01 0. -1.
         -5    1    1    2    0  502 -0.13863375554E+02 -0.81349224134E+01  0.15685824196E+03  0.15774970116E+03  0.47000000000E+01 0. -1.
        -11    1    1    2    0    0  0.96425715246E+01  0.27954852016E+02  0.94589766299E+02  0.99104373391E+02  0.00000000000E+00 0. -1.
         11    1    1    2    0    0 -0.64723924143E+02 -0.71528884775E+01  0.53902706357E+02  0.84533140972E+02  0.00000000000E+00 0.  1.
<mgrwt>
<rscale>  0 0.24615491E+03</rscale>
<asrwt>0</asrwt>
<pdfrwt beam="2">  1        2 0.61359910E-02 0.24615491E+03</pdfrwt>
<pdfrwt beam="1">  1       -2 0.58431304E-01 0.24615491E+03</pdfrwt>
<totfact> 0.33210764E+03</totfact>
</mgrwt>
</event>
<event>
 6    1  0.9240440E-006  0.1410241E+03  0.7546771E-02  0.1222039E+00
          1   -1    0    0  501    0  0.00000000000E+00  0.00000000000E+00  0.10432376266E+03  0.10432376266E+03  0.00000000000E+00 0. -1.
         -1   -1    0    0    0  501 -0.00000000000E+00 -0.00000000000E+00 -0.27867132775E+03  0.27867132775E+03  0.00000000000E+00 0.  1.
          5    1    1    2  502    0 -0.50563338048E+02  0.52916680698E+02  0.19223757363E+02  0.75818659298E+02  0.47000000000E+01 0. -1.
         -5    1    1    2    0  502 -0.16454932923E+02 -0.65459168512E+02  0.15166856631E+02  0.69338236925E+02  0.47000000000E+01 0.  1.
        -11    1    1    2    0    0  0.85497989174E+02  0.82884624617E+01 -0.12298312322E+03  0.15001151076E+03  0.00000000000E+00 0. -1.
         11    1    1    2    0    0 -0.18479718202E+02  0.42540253529E+01 -0.85755055865E+02  0.87826683434E+02  0.00000000000E+00 0.  1.
<mgrwt>
<rscale>  0 0.13371919E+03</rscale>
<asrwt>0</asrwt>
<pdfrwt beam="1">  1        1 0.16049810E-01 0.14102415E+03</pdfrwt>
<pdfrwt beam="2">  1       -1 0.42872512E-01 0.14102415E+03</pdfrwt>
<totfact> 0.18141384E+03</totfact>
</mgrwt>
</event>
<event>
 6    1  0.9240440E-006  0.1293998E+03  0.7546771E-02  0.1253050E+00
          3   -1    0    0  501    0  0.00000000000E+00  0.00000000000E+00  0.46273732247E+03  0.46273732247E+03  0.00000000000E+00 0. -1.
         -3   -1    0    0    0  501 -0.00000000000E+00 -0.00000000000E+00 -0.23442729544E+02  0.23442729544E+02  0.00000000000E+00 0.  1.
          5    1    1    2  502    0 -0.18070479171E+02 -0.21851887291E+02  0.25162934087E+03  0.25326559652E+03  0.47000000000E+01 0. -1.
         -5    1    1    2    0  502 -0.14238533720E+02  0.30419998641E+02  0.51874609242E+01  0.34309064555E+02  0.47000000000E+01 0. -1.
        -11    1    1    2    0    0  0.30822405040E+02  0.24580192778E+02  0.60628154514E+02  0.72318598226E+02  0.00000000000E+00 0.  1.
         11    1    1    2    0    0  0.14866078508E+01 -0.33148304127E+02  0.12184963661E+03  0.12628679271E+03  0.00000000000E+00 0. -1.
<mgrwt>
<rscale>  0 0.11416263E+03</rscale>
<asrwt>0</asrwt>
<pdfrwt beam="1">  1        3 0.71190350E-01 0.12939983E+03</pdfrwt>
<pdfrwt beam="2">  1       -3 0.36065741E-02 0.12939983E+03</pdfrwt>
<totfact> 0.16733948E+03</totfact>
</mgrwt>
</event>
<event>
 6    1  0.9240440E-006  0.2313942E+03  0.7546771E-02  0.1125662E+00
         -1   -1    0    0    0  501 -0.00000000000E+00  0.00000000000E+00  0.41531081826E+02  0.41531081826E+02  0.00000000000E+00 0.  1.
          1   -1    0    0  501    0  0.00000000000E+00 -0.00000000000E+00 -0.32230856153E+03  0.32230856153E+03  0.00000000000E+00 0. -1.
          5    1    1    2  502    0 -0.55961326817E+01  0.17308259376E+02  0.14642470148E+02  0.23819833661E+02  0.47000000000E+01 0. -1.
         -5    1    1    2    0  502  0.94335888168E+01 -0.59365058740E+02 -0.16798361061E+03  0.17847629039E+03  0.47000000000E+01 0. -1.
        -11    1    1    2    0    0  0.42861299878E+02  0.20034745569E+02 -0.54328632261E+02  0.72042226094E+02  0.00000000000E+00 0.  1.
         11    1    1    2    0    0 -0.46698756014E+02  0.22022053796E+02 -0.73107706980E+02  0.89501293211E+02  0.00000000000E+00 0. -1.
<mgrwt>
<rscale>  0 0.23139424E+03</rscale>
<asrwt>0</asrwt>
<pdfrwt beam="2">  1        1 0.49585933E-01 0.23139424E+03</pdfrwt>
<pdfrwt beam="1">  1       -1 0.63893972E-02 0.23139424E+03</pdfrwt>
<totfact> 0.95393625E+03</totfact>
</mgrwt>
</event>
<event>
 6    1  0.9240440E-006  0.1534312E+03  0.7546771E-02  0.1208518E+00
          2   -1    0    0  501    0  0.00000000000E+00  0.00000000000E+00  0.70288929133E+02  0.70288929133E+02  0.00000000000E+00 0. -1.
         -2   -1    0    0    0  501 -0.00000000000E+00 -0.00000000000E+00 -0.31435863354E+03  0.31435863354E+03  0.00000000000E+00 0.  1.
          5    1    1    2  502    0 -0.48519513354E+02 -0.12131278647E+02  0.18364218701E+02  0.53485003751E+02  0.47000000000E+01 0. -1.
         -5    1    1    2    0  502  0.52711714485E+02 -0.60361225938E+02 -0.75612748598E+02  0.11027864794E+03  0.47000000000E+01 0.  1.
        -11    1    1    2    0    0  0.40048655271E+02  0.24055639770E+02 -0.11214058636E+03  0.12148283707E+03  0.00000000000E+00 0.  1.
         11    1    1    2    0    0 -0.44240856401E+02  0.48436864815E+02 -0.74680588147E+02  0.99401073909E+02  0.00000000000E+00 0. -1.
<mgrwt>
<rscale>  0 0.14363607E+03</rscale>
<asrwt>0</asrwt>
<pdfrwt beam="1">  1        2 0.10813682E-01 0.15343122E+03</pdfrwt>
<pdfrwt beam="2">  1       -2 0.48362866E-01 0.15343122E+03</pdfrwt>
<totfact> 0.23164109E+03</totfact>
</mgrwt>
</event>
<event>
 6    1  0.9240440E-006  0.1542482E+03  0.7546771E-02  0.1203625E+00
         -1   -1    0    0    0  501 -0.00000000000E+00  0.00000000000E+00  0.90995297965E+02  0.90995297965E+02  0.00000000000E+00 0.  1.
          1   -1    0    0  501    0  0.00000000000E+00 -0.00000000000E+00 -0.35355733427E+03  0.35355733427E+03  0.00000000000E+00 0. -1.
          5    1    1    2  502    0  0.20501326491E+02 -0.75731594156E+02 -0.11661717074E+03  0.14063155142E+03  0.47000000000E+01 0. -1.
         -5    1    1    2    0  502 -0.73484240258E+02  0.25142959506E+01 -0.15817524392E+03  0.17449284524E+03  0.47000000000E+01 0. -1.
        -11    1    1    2    0    0  0.10603277396E+02  0.75029713190E+01  0.43360844123E+02  0.45264631592E+02  0.00000000000E+00 0.  1.
         11    1    1    2    0    0  0.42379636372E+02  0.65714326887E+02 -0.31130465762E+02  0.84163603985E+02  0.00000000000E+00 0. -1.
<mgrwt>
<rscale>  0 0.14746381E+03</rscale>
<asrwt>0</asrwt>
<pdfrwt beam="2">  1        1 0.54393436E-01 0.15424822E+03</pdfrwt>
<pdfrwt beam="1">  1       -1 0.13999277E-01 0.15424822E+03</pdfrwt>
<totfact> 0.24964112E+03</totfact>
</mgrwt>
</event>
<event>
 6    1  0.9240440E-006  0.1316687E+03  0.7546771E-02  0.1238820E+00
         -2   -1    0    0    0  501 -0.00000000000E+00  0.00000000000E+00  0.28251419690E+02  0.28251419690E+02  0.00000000000E+00 0.  1.
          2   -1    0    0  501    0  0.00000000000E+00 -0.00000000000E+00 -0.53405599574E+03  0.53405599574E+03  0.00000000000E+00 0. -1.
          5    1    1    2  502    0  0.13609561765E+02  0.28603968237E+02 -0.26233595420E+03  0.26428327612E+03  0.47000000000E+01 0.  1.
         -5    1    1    2    0  502 -0.16119092867E+02 -0.69904506778E+02 -0.11774448418E+03  0.13795767024E+03  0.47000000000E+01 0.  1.
        -11    1    1    2    0    0 -0.38738853083E+02  0.38268306865E+02 -0.91069307895E+02  0.10610740261E+03  0.00000000000E+00 0. -1.
         11    1    1    2    0    0  0.41248384185E+02  0.30322316759E+01 -0.34654829777E+02  0.53959066464E+02  0.00000000000E+00 0.  1.
<mgrwt>
<rscale>  0 0.12262995E+03</rscale>
<asrwt>0</asrwt>
<pdfrwt beam="2">  1        2 0.82162460E-01 0.13166867E+03</pdfrwt>
<pdfrwt beam="1">  1       -2 0.43463723E-02 0.13166867E+03</pdfrwt>
<totfact> 0.13245319E+04</totfact>
</mgrwt>
</event>
<event>
 6    1  0.9240440E-006  0.1450482E+03  0.7546771E-02  0.1223487E+00
          1   -1    0    0  501    0  0.00000000000E+00  0.00000000000E+00  0.24489693564E+03  0.24489693564E+03  0.00000000000E+00 0. -1.
         -1   -1    0    0    0  501 -0.00000000000E+00 -0.00000000000E+00 -0.91408787157E+02  0.91408787157E+02  0.00000000000E+00 0.  1.
          5    1    1    2  502    0  0.55776050223E+02 -0.64456057374E+02  0.15545644680E+03  0.17735373682E+03  0.47000000000E+01 0. -1.
         -5    1    1    2    0  502 -0.42145561083E+02  0.22323909949E+02  0.24630782460E+02  0.53882935323E+02  0.47000000000E+01 0.  1.
        -11    1    1    2    0    0 -0.24781299038E+02  0.50417759492E+02 -0.51721036599E+02  0.76361828692E+02  0.00000000000E+00 0.  1.
         11    1    1    2    0    0  0.11150809898E+02 -0.82856120675E+01  0.25121955824E+02  0.28707221969E+02  0.00000000000E+00 0. -1.
<mgrwt>
<rscale>  0 0.13271113E+03</rscale>
<asrwt>0</asrwt>
<pdfrwt beam="1">  1        1 0.37676451E-01 0.14504823E+03</pdfrwt>
<pdfrwt beam="2">  1       -1 0.14062890E-01 0.14504823E+03</pdfrwt>
<totfact> 0.39017614E+03</totfact>
</mgrwt>
</event>
<event>
 6    1  0.9240440E-006  0.1269201E+03  0.7546771E-02  0.1246679E+00
         -4   -1    0    0    0  501 -0.00000000000E+00  0.00000000000E+00  0.37602498004E+02  0.37602498004E+02  0.00000000000E+00 0.  1.
          4   -1    0    0  501    0  0.00000000000E+00 -0.00000000000E+00 -0.33352960216E+03  0.33352960216E+03  0.00000000000E+00 0. -1.
          5    1    1    2  502    0  0.52724879954E+02 -0.10484070898E+02 -0.78497109338E+02  0.95256049063E+02  0.47000000000E+01 0. -1.
         -5    1    1    2    0  502 -0.72641635102E+02  0.14087120640E+01 -0.11912125535E+03  0.13960929445E+03  0.47000000000E+01 0. -1.
        -11    1    1    2    0    0  0.42935308434E+02  0.78525087672E+01 -0.97046925838E+01  0.44713349935E+02  0.00000000000E+00 0.  1.
         11    1    1    2    0    0 -0.23018553285E+02  0.12228500669E+01 -0.88604046882E+02  0.91553406717E+02  0.00000000000E+00 0. -1.
<mgrwt>
<rscale>  0 0.11785447E+03</rscale>
<asrwt>0</asrwt>
<pdfrwt beam="2">  1        4 0.51312248E-01 0.12692010E+03</pdfrwt>
<pdfrwt beam="1">  1       -4 0.57849996E-02 0.12692010E+03</pdfrwt>
<totfact> 0.11277084E+03</totfact>
</mgrwt>
</event>
<event>
 6    1  0.9240440E-006  0.1827391E+03  0.7546771E-02  0.1170600E+00
         -1   -1    0    0    0  501 -0.00000000000E+00  0.00000000000E+00  0.72309884510E+02  0.72309884510E+02  0.00000000000E+00 0.  1.
          1   -1    0    0  501    0  0.00000000000E+00 -0.00000000000E+00 -0.46823970599E+03  0.46823970599E+03  0.00000000000E+00 0. -1.
          5    1    1    2  502    0 -0.37688918086E+02 -0.92561575102E+02 -0.81200537534E+02  0.12885541132E+03  0.47000000000E+01 0. -1.
         -5    1    1    2    0  502 -0.27481659662E+02 -0.23723269206E+02 -0.22321724311E+03  0.22619916609E+03  0.47000000000E+01 0. -1.
        -11    1    1    2    0    0 -0.72340936568E+01  0.39671437439E+02  0.73337823739E+01  0.40987064099E+02  0.00000000000E+00 0.  1.
         11    1    1    2    0    0  0.72404671405E+02  0.76613406869E+02 -0.98845823212E+02  0.14450794898E+03  0.00000000000E+00 0. -1.
<mgrwt>
<rscale>  0 0.17713976E+03</rscale>
<asrwt>0</asrwt>
<pdfrwt beam="2">  1        1 0.72036874E-01 0.18273907E+03</pdfrwt>
<pdfrwt beam="1">  1       -1 0.11124598E-01 0.18273907E+03</pdfrwt>
<totfact> 0.25091623E+03</totfact>
</mgrwt>
</event>
<event>
 6    1  0.9240440E-006  0.1469249E+03  0.7546771E-02  0.1214126E+00
          2   -1    0    0  501    0  0.00000000000E+00  0.00000000000E+00  0.93683740761E+03  0.93683740761E+03  0.00000000000E+00 0.  1.
         -2   -1    0    0    0  501 -0.00000000000E+00 -0.00000000000E+00 -0.19148415588E+02  0.19148415588E+02  0.00000000000E+00 0. -1.
          5    1    1    2  502    0 -0.46709720414E+02  0.46859224402E+02  0.18471639101E+03  0.19626466824E+03  0.47000000000E+01 0.  1.
         -5    1    1    2    0  502 -0.24785344886E+02 -0.76019131476E+02  0.26561019865E+03  0.27742402438E+03  0.47000000000E+01 0.  1.
        -11    1    1    2    0    0 -0.18990339422E+02  0.19479551838E+02  0.84641046437E+02  0.88905526673E+02  0.00000000000E+00 0. -1.
         11    1    1    2    0    0  0.90485404722E+02  0.96803552363E+01  0.38272135593E+03  0.39339160391E+03  0.00000000000E+00 0.  1.
<mgrwt>
<rscale>  0 0.13940948E+03</rscale>
<asrwt>0</asrwt>
<pdfrwt beam="1">  1        2 0.14412880E+00 0.14692495E+03</pdfrwt>
<pdfrwt beam="2">  1       -2 0.29459108E-02 0.14692495E+03</pdfrwt>
<totfact> 0.12076151E+04</totfact>
</mgrwt>
</event>
<event>
 6    1  0.9240440E-006  0.2091512E+03  0.7546771E-02  0.1172631E+00
         -2   -1    0    0    0  501 -0.00000000000E+00  0.00000000000E+00  0.58429580634E+02  0.58429580634E+02  0.00000000000E+00 0.  1.
          2   -1    0    0  501    0  0.00000000000E+00 -0.00000000000E+00 -0.49477282654E+03  0.49477282654E+03  0.00000000000E+00 0. -1.
          5    1    1    2  502    0 -0.13398901280E+02 -0.10299877208E+02 -0.39089840977E+03  0.39129180261E+03  0.47000000000E+01 0. -1.
         -5    1    1    2    0  502  0.31345791595E+02 -0.34624957116E+02  0.54379872718E+01  0.47255772257E+02  0.47000000000E+01 0.  1.
        -11    1    1    2    0    0  0.25585065309E+01 -0.27361187366E+02 -0.16179254287E+02  0.31889634665E+02  0.00000000000E+00 0. -1.
         11    1    1    2    0    0 -0.20505396847E+02  0.72286021690E+02 -0.34703569120E+02  0.82765197645E+02  0.00000000000E+00 0.  1.
<mgrwt>
<rscale>  0 0.17510002E+03</rscale>
<asrwt>0</asrwt>
<pdfrwt beam="2">  1        2 0.76118898E-01 0.20915123E+03</pdfrwt>
<pdfrwt beam="1">  1       -2 0.89891661E-02 0.20915123E+03</pdfrwt>
<totfact> 0.48774994E+03</totfact>
</mgrwt>
</event>
<event>
 6    1  0.9240440E-006  0.1317140E+03  0.7546771E-02  0.1237710E+00
         -1   -1    0    0    0  501 -0.00000000000E+00  0.00000000000E+00  0.84487550944E+01  0.84487550944E+01  0.00000000000E+00 0.  1.
          1   -1    0    0  501    0  0.00000000000E+00 -0.00000000000E+00 -0.23092101437E+04  0.23092101437E+04  0.00000000000E+00 0. -1.
          5    1    1    2  502    0  0.48932867138E+02  0.59894612570E+02 -0.11894071519E+04  0.11919283758E+04  0.47000000000E+01 0. -1.
         -5    1    1    2    0  502 -0.50345093674E+02 -0.18398882681E+02 -0.70147566177E+03  0.70353631136E+03  0.47000000000E+01 0. -1.
        -11    1    1    2    0    0 -0.41367553351E+02 -0.30032594956E+02 -0.28836503602E+03  0.29286110228E+03  0.00000000000E+00 0. -1.
         11    1    1    2    0    0  0.42779779887E+02 -0.11463134933E+02 -0.12151353887E+03  0.12933310928E+03  0.00000000000E+00 0.  1.
<mgrwt>
<rscale>  0 0.12332500E+03</rscale>
<asrwt>0</asrwt>
<pdfrwt beam="2">  1        1 0.35526387E+00 0.13171395E+03</pdfrwt>
<pdfrwt beam="1">  1       -1 0.12998057E-02 0.13171395E+03</pdfrwt>
<totfact> 0.27271405E+03</totfact>
</mgrwt>
</event>
<event>
 6    1  0.9240440E-006  0.1282835E+03  0.7546771E-02  0.1245685E+00
          2   -1    0    0  501    0  0.00000000000E+00  0.00000000000E+00  0.39652373409E+03  0.39652373409E+03  0.00000000000E+00 0. -1.
         -2   -1    0    0    0  501 -0.00000000000E+00 -0.00000000000E+00 -0.45035263621E+02  0.45035263621E+02  0.00000000000E+00 0.  1.
          5    1    1    2  502    0 -0.46837514826E+02  0.30125122652E+02  0.71910452913E+02  0.91074030591E+02  0.47000000000E+01 0.  1.
         -5    1    1    2    0  502  0.53361522668E+02 -0.20233853518E+01  0.24540385626E+03  0.25119054293E+03  0.47000000000E+01 0.  1.
        -11    1    1    2    0    0  0.83384354488E+01  0.25026449655E+02  0.35357850853E+02  0.44113833488E+02  0.00000000000E+00 0. -1.
         11    1    1    2    0    0 -0.14862443291E+02 -0.53128186956E+02 -0.11836895532E+01  0.55180590707E+02  0.00000000000E+00 0.  1.
<mgrwt>
<rscale>  0 0.11844456E+03</rscale>
<asrwt>0</asrwt>
<pdfrwt beam="1">  1        2 0.61003649E-01 0.12828354E+03</pdfrwt>
<pdfrwt beam="2">  1       -2 0.69285024E-02 0.12828354E+03</pdfrwt>
<totfact> 0.90396721E+03</totfact>
</mgrwt>
</event>
<event>
 6    1  0.9240440E-006  0.3705960E+03  0.7546771E-02  0.1054465E+00
          2   -1    0    0  501    0  0.00000000000E+00  0.00000000000E+00  0.39318044394E+03  0.39318044394E+03  0.00000000000E+00 0. -1.
         -2   -1    0    0    0  501 -0.00000000000E+00 -0.00000000000E+00 -0.87327207733E+02  0.87327207733E+02  0.00000000000E+00 0.  1.
          5    1    1    2  502    0  0.13319105446E+03  0.84462642894E+02  0.20411718741E+03  0.25799168829E+03  0.47000000000E+01 0.  1.
         -5    1    1    2    0  502 -0.22103838885E+00 -0.26793254786E+02  0.94750680102E+01  0.28806149930E+02  0.47000000000E+01 0.  1.
        -11    1    1    2    0    0 -0.96430413989E+02 -0.42202160436E+02  0.10819609438E+03  0.15095112430E+03  0.00000000000E+00 0. -1.
         11    1    1    2    0    0 -0.36539602086E+02 -0.15467227672E+02 -0.15935113594E+02  0.42758689149E+02  0.00000000000E+00 0.  1.
<mgrwt>
<rscale>  0 0.37059601E+03</rscale>
<asrwt>0</asrwt>
<pdfrwt beam="1">  1        2 0.60489298E-01 0.37059601E+03</pdfrwt>
<pdfrwt beam="2">  1       -2 0.13434955E-01 0.37059601E+03</pdfrwt>
<totfact> 0.33592219E+03</totfact>
</mgrwt>
</event>
<event>
 6    1  0.9240440E-006  0.1292368E+03  0.7546771E-02  0.1242924E+00
          1   -1    0    0  501    0  0.00000000000E+00  0.00000000000E+00  0.43475853516E+02  0.43475853516E+02  0.00000000000E+00 0.  1.
         -1   -1    0    0    0  501 -0.00000000000E+00 -0.00000000000E+00 -0.33040659772E+03  0.33040659772E+03  0.00000000000E+00 0. -1.
          5    1    1    2  502    0 -0.10443498435E+02  0.16960522114E+02  0.26683265639E+02  0.33627557674E+02  0.47000000000E+01 0.  1.
         -5    1    1    2    0  502  0.26118435502E+02  0.11871948380E+02 -0.12614419588E+03  0.12945100999E+03  0.47000000000E+01 0.  1.
        -11    1    1    2    0    0 -0.70836221421E+01  0.25497434582E+02 -0.12410626403E+03  0.12689626332E+03  0.00000000000E+00 0. -1.
         11    1    1    2    0    0 -0.85913149242E+01 -0.54329905076E+02 -0.63363549933E+02  0.83907620260E+02  0.00000000000E+00 0.  1.
<mgrwt>
<rscale>  0 0.12010500E+03</rscale>
<asrwt>0</asrwt>
<pdfrwt beam="1">  1        1 0.66885930E-02 0.12923677E+03</pdfrwt>
<pdfrwt beam="2">  1       -1 0.50831783E-01 0.12923677E+03</pdfrwt>
<totfact> 0.42272755E+03</totfact>
</mgrwt>
</event>
<event>
 6    1  0.9240440E-006  0.1685230E+03  0.7546771E-02  0.1186695E+00
         -2   -1    0    0    0  501 -0.00000000000E+00  0.00000000000E+00  0.16708902219E+03  0.16708902219E+03  0.00000000000E+00 0.  1.
          2   -1    0    0  501    0  0.00000000000E+00 -0.00000000000E+00 -0.14615782117E+03  0.14615782117E+03  0.00000000000E+00 0. -1.
          5    1    1    2  502    0 -0.78666670588E+02 -0.66862433238E+02 -0.56245731866E+00  0.10335103482E+03  0.47000000000E+01 0. -1.
         -5    1    1    2    0  502  0.50074462931E+02 -0.41447062069E+02  0.19389413994E+00  0.65172374415E+02  0.47000000000E+01 0.  1.
        -11    1    1    2    0    0  0.50184385126E+02  0.77374059549E+02  0.42393769725E+02  0.10150098183E+03  0.00000000000E+00 0.  1.
         11    1    1    2    0    0 -0.21592177469E+02  0.30935435757E+02 -0.21094005525E+02  0.43222452295E+02  0.00000000000E+00 0. -1.
<mgrwt>
<rscale>  0 0.16178576E+03</rscale>
<asrwt>0</asrwt>
<pdfrwt beam="2">  1        2 0.22485819E-01 0.16852301E+03</pdfrwt>
<pdfrwt beam="1">  1       -2 0.25706004E-01 0.16852301E+03</pdfrwt>
<totfact> 0.31965972E+03</totfact>
</mgrwt>
</event>
<event>
 6    1  0.9240440E-006  0.1358970E+03  0.7546771E-02  0.1238397E+00
         -1   -1    0    0    0  501 -0.00000000000E+00  0.00000000000E+00  0.25099620594E+03  0.25099620594E+03  0.00000000000E+00 0.  1.
          1   -1    0    0  501    0  0.00000000000E+00 -0.00000000000E+00 -0.76663686656E+02  0.76663686656E+02  0.00000000000E+00 0. -1.
          5    1    1    2  502    0 -0.29175658348E+02 -0.46540356118E+02 -0.33366774276E+02  0.64441100341E+02  0.47000000000E+01 0. -1.
         -5    1    1    2    0  502  0.24929958085E+02  0.54405161993E+02  0.38973997861E+02  0.71571551408E+02  0.47000000000E+01 0.  1.
        -11    1    1    2    0    0  0.20321051091E+02 -0.34377821080E+02  0.15044244388E+03  0.15565252527E+03  0.00000000000E+00 0. -1.
         11    1    1    2    0    0 -0.16075350828E+02  0.26513015205E+02  0.18282851818E+02  0.35994715586E+02  0.00000000000E+00 0.  1.
<mgrwt>
<rscale>  0 0.12289461E+03</rscale>
<asrwt>0</asrwt>
<pdfrwt beam="2">  1        1 0.11794413E-01 0.13589702E+03</pdfrwt>
<pdfrwt beam="1">  1       -1 0.38614801E-01 0.13589702E+03</pdfrwt>
<totfact> 0.32512446E+03</totfact>
</mgrwt>
</event>
<event>
 6    1  0.9240440E-006  0.1433221E+03  0.7546771E-02  0.1220255E+00
          2   -1    0    0  501    0  0.00000000000E+00  0.00000000000E+00  0.43863799327E+02  0.43863799327E+02  0.00000000000E+00 0. -1.
         -2   -1    0    0    0  501 -0.00000000000E+00 -0.00000000000E+00 -0.37966530421E+03  0.37966530421E+03  0.00000000000E+00 0.  1.
          5    1    1    2  502    0 -0.68859867867E+01 -0.10311531459E+03 -0.10529438846E+03  0.14761159560E+03  0.47000000000E+01 0.  1.
         -5    1    1    2    0  502  0.18320542914E+02  0.33943863823E+02 -0.55977806835E+02  0.68142740200E+02  0.47000000000E+01 0.  1.
        -11    1    1    2    0    0 -0.41545009819E+02  0.70406640895E+02 -0.11558001046E+03  0.14156914120E+03  0.00000000000E+00 0.  1.
         11    1    1    2    0    0  0.30110453692E+02 -0.12351901309E+01 -0.58949299130E+02  0.66205626529E+02  0.00000000000E+00 0. -1.
<mgrwt>
<rscale>  0 0.13497472E+03</rscale>
<asrwt>0</asrwt>
<pdfrwt beam="1">  1        2 0.67482768E-02 0.14332206E+03</pdfrwt>
<pdfrwt beam="2">  1       -2 0.58410047E-01 0.14332206E+03</pdfrwt>
<totfact> 0.28484144E+03</totfact>
</mgrwt>
</event>
<event>
 6    1  0.9240440E-006  0.3660453E+03  0.7546771E-02  0.1056215E+00
         -2   -1    0    0    0  501 -0.00000000000E+00  0.00000000000E+00  0.16666545027E+03  0.16666545027E+03  0.00000000000E+00 0. -1.
          2   -1    0    0  501    0  0.00000000000E+00 -0.00000000000E+00 -0.20098526211E+03  0.20098526211E+03  0.00000000000E+00 0.  1.
          5    1    1    2  502    0  0.18964894015E+02  0.62485080286E+01 -0.28151779236E+02  0.34832796783E+02  0.47000000000E+01 0. -1.
         -5    1    1    2    0  502 -0.15643911243E+03  0.40961433794E+02 -0.21509116561E+02  0.16320467840E+03  0.47000000000E+01 0. -1.
        -11    1    1    2    0    0  0.81117324476E+02  0.16699874092E+02  0.16258679962E+02  0.84399353072E+02  0.00000000000E+00 0. -1.
         11    1    1    2    0    0  0.56356893938E+02 -0.63909815914E+02 -0.91759600533E+00  0.85213884121E+02  0.00000000000E+00 0.  1.
<mgrwt>
<rscale>  0 0.36604535E+03</rscale>
<asrwt>0</asrwt>
<pdfrwt beam="2">  1        2 0.30920809E-01 0.36604535E+03</pdfrwt>
<pdfrwt beam="1">  1       -2 0.25640839E-01 0.36604535E+03</pdfrwt>
<totfact> 0.23163340E+03</totfact>
</mgrwt>
</event>
<event>
 6    1  0.9240440E-006  0.1258177E+03  0.7546771E-02  0.1249180E+00
          1   -1    0    0  501    0  0.00000000000E+00  0.00000000000E+00  0.27233018290E+03  0.27233018290E+03  0.00000000000E+00 0. -1.
         -1   -1    0    0    0  501 -0.00000000000E+00 -0.00000000000E+00 -0.43806198809E+02  0.43806198809E+02  0.00000000000E+00 0.  1.
          5    1    1    2  502    0  0.28474966262E+02 -0.37177176004E+02  0.12464097436E+03  0.13323073448E+03  0.47000000000E+01 0. -1.
         -5    1    1    2    0  502 -0.21042767818E+02  0.49464690805E+02  0.17797899506E+02  0.56819089580E+02  0.47000000000E+01 0. -1.
        -11    1    1    2    0    0  0.11977949118E+02  0.15843381395E+02 -0.11318835947E+02  0.22860447203E+02  0.00000000000E+00 0.  1.
         11    1    1    2    0    0 -0.19410147562E+02 -0.28130896196E+02  0.97403946164E+02  0.10322611044E+03  0.00000000000E+00 0. -1.
<mgrwt>
<rscale>  0 0.11638628E+03</rscale>
<asrwt>0</asrwt>
<pdfrwt beam="1">  1        1 0.41896950E-01 0.12581774E+03</pdfrwt>
<pdfrwt beam="2">  1       -1 0.67394154E-02 0.12581774E+03</pdfrwt>
<totfact> 0.10410424E+04</totfact>
</mgrwt>
</event>
<event>
 6    1  0.9240440E-006  0.1501330E+03  0.7546771E-02  0.1209612E+00
         -2   -1    0    0    0  501 -0.00000000000E+00  0.00000000000E+00  0.21763309709E+02  0.21763309709E+02  0.00000000000E+00 0.  1.
          2   -1    0    0  501    0  0.00000000000E+00 -0.00000000000E+00 -0.11218244704E+04  0.11218244704E+04  0.00000000000E+00 0. -1.
          5    1    1    2  502    0 -0.26002246076E+02  0.10254367845E+02 -0.60926148145E+03  0.60992041418E+03  0.47000000000E+01 0. -1.
         -5    1    1    2    0  502 -0.23768352874E+02 -0.76872314565E+02 -0.25985877124E+03  0.27207160516E+03  0.47000000000E+01 0. -1.
        -11    1    1    2    0    0  0.67594128219E+02  0.40274390186E+02 -0.10217749357E+03  0.12896213734E+03  0.00000000000E+00 0.  1.
         11    1    1    2    0    0 -0.17823529269E+02  0.26343556534E+02 -0.12876341439E+03  0.13263362339E+03  0.00000000000E+00 0. -1.
<mgrwt>
<rscale>  0 0.14279871E+03</rscale>
<asrwt>0</asrwt>
<pdfrwt beam="2">  1        2 0.17258840E+00 0.15013297E+03</pdfrwt>
<pdfrwt beam="1">  1       -2 0.33482011E-02 0.15013297E+03</pdfrwt>
<totfact> 0.77758103E+03</totfact>
</mgrwt>
</event>
<event>
 6    1  0.9240440E-006  0.2945192E+03  0.7546771E-02  0.1089638E+00
         -1   -1    0    0    0  501 -0.00000000000E+00  0.00000000000E+00  0.53109309018E+02  0.53109309018E+02  0.00000000000E+00 0.  1.
          1   -1    0    0  501    0  0.00000000000E+00 -0.00000000000E+00 -0.15677161681E+04  0.15677161681E+04  0.00000000000E+00 0. -1.
          5    1    1    2  502    0  0.18274639926E+02  0.20678236944E+03 -0.66670202949E+03  0.69828833364E+03  0.47000000000E+01 0. -1.
         -5    1    1    2    0  502 -0.26577750384E+02  0.59765305180E+02 -0.74310154664E+02  0.99107807992E+02  0.47000000000E+01 0. -1.
        -11    1    1    2    0    0 -0.40857428429E+02 -0.13290922322E+03 -0.35384898018E+03  0.38018849516E+03  0.00000000000E+00 0.  1.
         11    1    1    2    0    0  0.49160538888E+02 -0.13363845139E+03 -0.41974569476E+03  0.44324084034E+03  0.00000000000E+00 0. -1.
<mgrwt>
<rscale>  0 0.29136713E+03</rscale>
<asrwt>0</asrwt>
<pdfrwt beam="2">  1        1 0.24118709E+00 0.29451918E+03</pdfrwt>
<pdfrwt beam="1">  1       -1 0.81706632E-02 0.29451918E+03</pdfrwt>
<totfact> 0.53733630E+02</totfact>
</mgrwt>
</event>
<event>
 6    1  0.9240440E-006  0.1326066E+03  0.7546771E-02  0.1236578E+00
          2   -1    0    0  501    0  0.00000000000E+00  0.00000000000E+00  0.77478848874E+03  0.77478848874E+03  0.00000000000E+00 0. -1.
         -2   -1    0    0    0  501 -0.00000000000E+00 -0.00000000000E+00 -0.30659933330E+02  0.30659933330E+02  0.00000000000E+00 0.  1.
          5    1    1    2  502    0  0.40302419880E+02  0.69894985855E+01  0.10400910531E+03  0.11186206741E+03  0.47000000000E+01 0.  1.
         -5    1    1    2    0  502 -0.62097379735E+02 -0.45511335302E+02  0.55718189184E+03  0.56249543714E+03  0.47000000000E+01 0.  1.
        -11    1    1    2    0    0  0.30185656719E+02  0.80260993480E+01 -0.10097751797E+02  0.32826159289E+02  0.00000000000E+00 0.  1.
         11    1    1    2    0    0 -0.83906968644E+01  0.30495737369E+02  0.93035310057E+02  0.98264758225E+02  0.00000000000E+00 0. -1.
<mgrwt>
<rscale>  0 0.12403982E+03</rscale>
<asrwt>0</asrwt>
<pdfrwt beam="1">  1        2 0.11919821E+00 0.13260660E+03</pdfrwt>
<pdfrwt beam="2">  1       -2 0.47169134E-02 0.13260660E+03</pdfrwt>
<totfact> 0.76145413E+03</totfact>
</mgrwt>
</event>
<event>
 6    1  0.9240440E-006  0.2711639E+03  0.7546771E-02  0.1101533E+00
         -2   -1    0    0    0  501 -0.00000000000E+00  0.00000000000E+00  0.10987099840E+03  0.10987099840E+03  0.00000000000E+00 0.  1.
          2   -1    0    0  501    0  0.00000000000E+00 -0.00000000000E+00 -0.20421997988E+04  0.20421997988E+04  0.00000000000E+00 0. -1.
          5    1    1    2  502    0 -0.20969779450E+03 -0.12592168555E+03 -0.18535204386E+04  0.18695960906E+04  0.47000000000E+01 0. -1.
         -5    1    1    2    0  502 -0.61101270617E+00 -0.40703266770E+01 -0.35873336780E+01  0.72041556550E+01  0.47000000000E+01 0.  1.
        -11    1    1    2    0    0  0.64646934537E+02  0.69528078364E+02 -0.69129237544E+02  0.11744033085E+03  0.00000000000E+00 0. -1.
         11    1    1    2    0    0  0.14566187267E+03  0.60463933858E+02 -0.60917905936E+01  0.15783022005E+03  0.00000000000E+00 0.  1.
<mgrwt>
<rscale>  0 0.26955715E+03</rscale>
<asrwt>0</asrwt>
<pdfrwt beam="2">  1        2 0.31418456E+00 0.27116395E+03</pdfrwt>
<pdfrwt beam="1">  1       -2 0.16903232E-01 0.27116395E+03</pdfrwt>
<totfact> 0.19882257E+02</totfact>
</mgrwt>
</event>
<event>
 6    1  0.9240440E-006  0.2573504E+03  0.7546771E-02  0.1146755E+00
         -1   -1    0    0    0  501 -0.00000000000E+00  0.00000000000E+00  0.14225183451E+02  0.14225183451E+02  0.00000000000E+00 0.  1.
          1   -1    0    0  501    0  0.00000000000E+00 -0.00000000000E+00 -0.29561008336E+04  0.29561008336E+04  0.00000000000E+00 0. -1.
          5    1    1    2  502    0  0.11007224170E+02  0.14358060001E+03 -0.16898488884E+04  0.16959799242E+04  0.47000000000E+01 0. -1.
         -5    1    1    2    0  502  0.21857613256E+02 -0.10785676847E+03 -0.94043705664E+03  0.94686576940E+03  0.47000000000E+01 0.  1.
        -11    1    1    2    0    0  0.25456245257E+02 -0.30657472999E+02 -0.92790249415E+02  0.10098480806E+03  0.00000000000E+00 0.  1.
         11    1    1    2    0    0 -0.58321082683E+02 -0.50663585379E+01 -0.21879945567E+03  0.22649551535E+03  0.00000000000E+00 0. -1.
<mgrwt>
<rscale>  0 0.20357748E+03</rscale>
<asrwt>0</asrwt>
<pdfrwt beam="2">  1        1 0.45478471E+00 0.25735036E+03</pdfrwt>
<pdfrwt beam="1">  1       -1 0.21884899E-02 0.25735036E+03</pdfrwt>
<totfact> 0.46747303E+02</totfact>
</mgrwt>
</event>
<event>
 6    1  0.9240440E-006  0.1288396E+03  0.7546771E-02  0.1245728E+00
          4   -1    0    0  501    0  0.00000000000E+00  0.00000000000E+00  0.32542374435E+03  0.32542374435E+03  0.00000000000E+00 0. -1.
         -4   -1    0    0    0  501 -0.00000000000E+00 -0.00000000000E+00 -0.40424018221E+02  0.40424018221E+02  0.00000000000E+00 0.  1.
          5    1    1    2  502    0  0.55133464317E+02  0.14737747796E+02  0.12059322239E+03  0.13349799767E+03  0.47000000000E+01 0. -1.
         -5    1    1    2    0  502 -0.67672931701E+02  0.13850131125E+02  0.92948088992E+02  0.11590034109E+03  0.47000000000E+01 0. -1.
        -11    1    1    2    0    0 -0.74583690127E+01 -0.54530623515E+02  0.27212520707E+02  0.61398187697E+02  0.00000000000E+00 0.  1.
         11    1    1    2    0    0  0.19997836397E+02  0.25942744594E+02  0.44245894047E+02  0.55051236114E+02  0.00000000000E+00 0. -1.
<mgrwt>
<rscale>  0 0.11841885E+03</rscale>
<asrwt>0</asrwt>
<pdfrwt beam="1">  1        4 0.50065190E-01 0.12883959E+03</pdfrwt>
<pdfrwt beam="2">  1       -4 0.62190799E-02 0.12883959E+03</pdfrwt>
<totfact> 0.10578244E+03</totfact>
</mgrwt>
</event>
<event>
 6    1  0.9240440E-006  0.1664371E+03  0.7546771E-02  0.1188311E+00
          1   -1    0    0  501    0  0.00000000000E+00  0.00000000000E+00  0.32365384227E+02  0.32365384227E+02  0.00000000000E+00 0. -1.
         -1   -1    0    0    0  501 -0.00000000000E+00 -0.00000000000E+00 -0.74447391406E+03  0.74447391406E+03  0.00000000000E+00 0.  1.
          5    1    1    2  502    0  0.25359757219E+02  0.14239061467E+02 -0.27436094643E+03  0.27593819432E+03  0.47000000000E+01 0.  1.
         -5    1    1    2    0  502  0.84045263899E+02 -0.39332564137E+01 -0.82999112593E+02  0.11827941318E+03  0.47000000000E+01 0.  1.
        -11    1    1    2    0    0 -0.26888131454E+02 -0.26239051168E+02 -0.22444207893E+03  0.22756472972E+03  0.00000000000E+00 0.  1.
         11    1    1    2    0    0 -0.82516889665E+02  0.15933246114E+02 -0.13030639188E+03  0.15505696107E+03  0.00000000000E+00 0. -1.
<mgrwt>
<rscale>  0 0.16034178E+03</rscale>
<asrwt>0</asrwt>
<pdfrwt beam="1">  1        1 0.49792896E-02 0.16643711E+03</pdfrwt>
<pdfrwt beam="2">  1       -1 0.11453445E+00 0.16643711E+03</pdfrwt>
<totfact> 0.12194120E+03</totfact>
</mgrwt>
</event>
<event>
 6    1  0.9240440E-006  0.1289157E+03  0.7546771E-02  0.1243228E+00
          2   -1    0    0  501    0  0.00000000000E+00  0.00000000000E+00  0.10743118748E+03  0.10743118748E+03  0.00000000000E+00 0.  1.
         -2   -1    0    0    0  501 -0.00000000000E+00 -0.00000000000E+00 -0.13879933188E+03  0.13879933188E+03  0.00000000000E+00 0. -1.
          5    1    1    2  502    0 -0.12381971079E+01 -0.73271264542E+02  0.24579462013E+02  0.77436756728E+02  0.47000000000E+01 0. -1.
         -5    1    1    2    0  502  0.22063077478E+02  0.49684629226E+02  0.47422675948E+01  0.54771533401E+02  0.47000000000E+01 0. -1.
        -11    1    1    2    0    0  0.34078453580E+02  0.23677642757E+02 -0.23221097956E+02  0.47551983715E+02  0.00000000000E+00 0.  1.
         11    1    1    2    0    0 -0.54903333950E+02 -0.91007441343E-01 -0.37468776046E+02  0.66470245521E+02  0.00000000000E+00 0. -1.
<mgrwt>
<rscale>  0 0.11992057E+03</rscale>
<asrwt>0</asrwt>
<pdfrwt beam="1">  1        2 0.16527875E-01 0.12891574E+03</pdfrwt>
<pdfrwt beam="2">  1       -2 0.21353743E-01 0.12891574E+03</pdfrwt>
<totfact> 0.61594845E+03</totfact>
</mgrwt>
</event>
<event>
 6    1  0.9240440E-006  0.1278551E+03  0.7546771E-02  0.1245320E+00
          1   -1    0    0  501    0  0.00000000000E+00  0.00000000000E+00  0.74067828074E+03  0.74067828074E+03  0.00000000000E+00 0. -1.
         -1   -1    0    0    0  501 -0.00000000000E+00 -0.00000000000E+00 -0.18938562655E+02  0.18938562655E+02  0.00000000000E+00 0.  1.
          5    1    1    2  502    0 -0.45571323984E+02 -0.82936817603E+01  0.50526616008E+03  0.50740665472E+03  0.47000000000E+01 0.  1.
         -5    1    1    2    0  502  0.22105156813E+02  0.21283813957E+02  0.30930378336E+02  0.43822562663E+02  0.47000000000E+01 0.  1.
        -11    1    1    2    0    0 -0.12903876188E+01  0.31488033650E+02  0.12680017236E+03  0.13065774019E+03  0.00000000000E+00 0. -1.
         11    1    1    2    0    0  0.24756554789E+02 -0.44478165846E+02  0.58743007315E+02  0.77729885826E+02  0.00000000000E+00 0.  1.
<mgrwt>
<rscale>  0 0.11866252E+03</rscale>
<asrwt>0</asrwt>
<pdfrwt beam="1">  1        1 0.11395048E+00 0.12785508E+03</pdfrwt>
<pdfrwt beam="2">  1       -1 0.29136256E-02 0.12785508E+03</pdfrwt>
<totfact> 0.97559994E+03</totfact>
</mgrwt>
</event>
<event>
 6    1  0.9240440E-006  0.2144681E+03  0.7546771E-02  0.1155880E+00
         -2   -1    0    0    0  501 -0.00000000000E+00  0.00000000000E+00  0.26938028522E+02  0.26938028522E+02  0.00000000000E+00 0.  1.
          2   -1    0    0  501    0  0.00000000000E+00 -0.00000000000E+00 -0.13109554532E+04  0.13109554532E+04  0.00000000000E+00 0. -1.
          5    1    1    2  502    0 -0.12694259148E+03 -0.25632221803E+02 -0.56778452192E+03  0.58238542706E+03  0.47000000000E+01 0. -1.
         -5    1    1    2    0  502  0.82725942362E+02 -0.17219015996E+02 -0.41014062824E+03  0.41878097018E+03  0.47000000000E+01 0.  1.
        -11    1    1    2    0    0  0.76611662403E+02  0.33207235668E+01 -0.24684469188E+03  0.25848148083E+03  0.00000000000E+00 0.  1.
         11    1    1    2    0    0 -0.32395013289E+02  0.39530514232E+02 -0.59247582613E+02  0.78245603627E+02  0.00000000000E+00 0. -1.
<mgrwt>
<rscale>  0 0.19289013E+03</rscale>
<asrwt>0</asrwt>
<pdfrwt beam="2">  1        2 0.20168542E+00 0.21446808E+03</pdfrwt>
<pdfrwt beam="1">  1       -2 0.41443129E-02 0.21446808E+03</pdfrwt>
<totfact> 0.44846897E+03</totfact>
</mgrwt>
</event>
<event>
 6    1  0.9240440E-006  0.1498200E+03  0.7546771E-02  0.1205912E+00
          1   -1    0    0  501    0  0.00000000000E+00  0.00000000000E+00  0.87366768222E+03  0.87366768222E+03  0.00000000000E+00 0. -1.
         -1   -1    0    0    0  501 -0.00000000000E+00 -0.00000000000E+00 -0.23743773617E+02  0.23743773617E+02  0.00000000000E+00 0.  1.
          5    1    1    2  502    0 -0.24679860933E+01 -0.57727530175E+02  0.10074334892E+03  0.11623197085E+03  0.47000000000E+01 0.  1.
         -5    1    1    2    0  502 -0.66833509283E+02  0.12670081596E+02  0.42525890003E+03  0.43069069062E+03  0.47000000000E+01 0.  1.
        -11    1    1    2    0    0  0.94560802487E+02  0.22092670993E+02  0.20628016016E+03  0.22799415772E+03  0.00000000000E+00 0. -1.
         11    1    1    2    0    0 -0.25259307111E+02  0.22964777586E+02  0.11764149948E+03  0.12249463664E+03  0.00000000000E+00 0.  1.
<mgrwt>
<rscale>  0 0.14565854E+03</rscale>
<asrwt>0</asrwt>
<pdfrwt beam="1">  1        1 0.13441039E+00 0.14982000E+03</pdfrwt>
<pdfrwt beam="2">  1       -1 0.36528889E-02 0.14982000E+03</pdfrwt>
<totfact> 0.55090743E+03</totfact>
</mgrwt>
</event>
<event>
 6    1  0.9240440E-006  0.1267712E+03  0.7546771E-02  0.1247525E+00
          3   -1    0    0  501    0  0.00000000000E+00  0.00000000000E+00  0.81161889300E+02  0.81161889300E+02  0.00000000000E+00 0. -1.
         -3   -1    0    0    0  501 -0.00000000000E+00 -0.00000000000E+00 -0.16190717995E+03  0.16190717995E+03  0.00000000000E+00 0.  1.
          5    1    1    2  502    0  0.25783986138E+02 -0.45831887196E+02  0.76157469066E+01  0.53342904177E+02  0.47000000000E+01 0. -1.
         -5    1    1    2    0  502 -0.24347874458E+02  0.66900237605E+02 -0.19612957231E+02  0.73994721931E+02  0.47000000000E+01 0. -1.
        -11    1    1    2    0    0  0.28467987862E+02 -0.10770405093E+02 -0.77208830652E+02  0.82991755551E+02  0.00000000000E+00 0.  1.
         11    1    1    2    0    0 -0.29904099542E+02 -0.10297945316E+02  0.84607503310E+01  0.32739687588E+02  0.00000000000E+00 0. -1.
<mgrwt>
<rscale>  0 0.11735511E+03</rscale>
<asrwt>0</asrwt>
<pdfrwt beam="1">  1        3 0.12486445E-01 0.12677120E+03</pdfrwt>
<pdfrwt beam="2">  1       -3 0.24908797E-01 0.12677120E+03</pdfrwt>
<totfact> 0.17422715E+03</totfact>
</mgrwt>
</event>
<event>
 6    1  0.9240440E-006  0.2354416E+03  0.7546771E-02  0.1125788E+00
          2   -1    0    0  501    0  0.00000000000E+00  0.00000000000E+00  0.33888570191E+03  0.33888570191E+03  0.00000000000E+00 0. -1.
         -2   -1    0    0    0  501 -0.00000000000E+00 -0.00000000000E+00 -0.18154287288E+03  0.18154287288E+03  0.00000000000E+00 0.  1.
          5    1    1    2  502    0  0.76588565878E+02  0.19555510578E+02  0.11280710560E+03  0.13782510472E+03  0.47000000000E+01 0. -1.
         -5    1    1    2    0  502  0.10734891890E+03 -0.96843143062E+02  0.72563383545E+02  0.16183299843E+03  0.47000000000E+01 0. -1.
        -11    1    1    2    0    0 -0.14011310483E+03  0.25711867478E+02 -0.47804197818E+02  0.15025985359E+03  0.00000000000E+00 0.  1.
         11    1    1    2    0    0 -0.43824379956E+02  0.51575765007E+02  0.19776537704E+02  0.70510618052E+02  0.00000000000E+00 0. -1.
<mgrwt>
<rscale>  0 0.23121479E+03</rscale>
<asrwt>0</asrwt>
<pdfrwt beam="1">  1        2 0.52136262E-01 0.23544163E+03</pdfrwt>
<pdfrwt beam="2">  1       -2 0.27929673E-01 0.23544163E+03</pdfrwt>
<totfact> 0.11141231E+03</totfact>
</mgrwt>
</event>
<event>
 6    1  0.9240440E-006  0.1285628E+03  0.7546771E-02  0.1243629E+00
         -1   -1    0    0    0  501 -0.00000000000E+00  0.00000000000E+00  0.12494536215E+03  0.12494536215E+03  0.00000000000E+00 0. -1.
          1   -1    0    0  501    0  0.00000000000E+00 -0.00000000000E+00 -0.12261521001E+03  0.12261521001E+03  0.00000000000E+00 0.  1.
          5    1    1    2  502    0 -0.48672830124E+01 -0.48513224658E+02  0.27221144895E+02  0.56038416644E+02  0.47000000000E+01 0. -1.
         -5    1    1    2    0  502 -0.12719422074E+02  0.24155910795E+02 -0.76988920636E+02  0.81820997458E+02  0.47000000000E+01 0. -1.
        -11    1    1    2    0    0 -0.22187331830E+02 -0.68742562779E+01 -0.13505533756E+02  0.26868802265E+02  0.00000000000E+00 0.  1.
         11    1    1    2    0    0  0.39774036917E+02  0.31231570141E+02  0.65603461639E+02  0.82832355787E+02  0.00000000000E+00 0. -1.
<mgrwt>
<rscale>  0 0.11967799E+03</rscale>
<asrwt>0</asrwt>
<pdfrwt beam="2">  1        1 0.18863878E-01 0.12856277E+03</pdfrwt>
<pdfrwt beam="1">  1       -1 0.19222364E-01 0.12856277E+03</pdfrwt>
<totfact> 0.56265342E+03</totfact>
</mgrwt>
</event>
<event>
 6    1  0.9240440E-006  0.3134918E+03  0.7546771E-02  0.1082104E+00
          1   -1    0    0  501    0  0.00000000000E+00  0.00000000000E+00  0.12387512451E+04  0.12387512451E+04  0.00000000000E+00 0. -1.
         -1   -1    0    0    0  501 -0.00000000000E+00 -0.00000000000E+00 -0.97327832130E+02  0.97327832130E+02  0.00000000000E+00 0.  1.
          5    1    1    2  502    0 -0.13624537573E+03 -0.22753385249E+02  0.71019818001E+03  0.72352198573E+03  0.47000000000E+01 0. -1.
         -5    1    1    2    0  502 -0.13407198941E+03  0.81768249134E+01  0.21712436981E+03  0.25535708483E+03  0.47000000000E+01 0.  1.
        -11    1    1    2    0    0  0.11369651691E+03 -0.29704958981E+02  0.55557205989E+02  0.12998417474E+03  0.00000000000E+00 0. -1.
         11    1    1    2    0    0  0.15662084823E+03  0.44281519316E+02  0.15854365715E+03  0.22721583192E+03  0.00000000000E+00 0.  1.
<mgrwt>
<rscale>  0 0.30636024E+03</rscale>
<asrwt>0</asrwt>
<pdfrwt beam="1">  1        1 0.19057710E+00 0.31349182E+03</pdfrwt>
<pdfrwt beam="2">  1       -1 0.14973514E-01 0.31349182E+03</pdfrwt>
<totfact> 0.34665733E+02</totfact>
</mgrwt>
</event>
<event>
 6    1  0.9240440E-006  0.1254122E+03  0.7546771E-02  0.1248897E+00
         -2   -1    0    0    0  501 -0.00000000000E+00  0.00000000000E+00  0.12742249987E+02  0.12742249987E+02  0.00000000000E+00 0. -1.
          2   -1    0    0  501    0  0.00000000000E+00 -0.00000000000E+00 -0.13140866557E+04  0.13140866557E+04  0.00000000000E+00 0.  1.
          5    1    1    2  502    0  0.26608269366E+01 -0.86158236102E+01 -0.10666476497E+04  0.10666961193E+04  0.47000000000E+01 0.  1.
         -5    1    1    2    0  502 -0.84230776229E+01  0.12825191937E+00 -0.27508658104E+01  0.10031049193E+02  0.47000000000E+01 0.  1.
        -11    1    1    2    0    0  0.15849057432E+02  0.48368932601E+02 -0.10558369923E+03  0.11721204633E+03  0.00000000000E+00 0. -1.
         11    1    1    2    0    0 -0.10086806745E+02 -0.39881360910E+02 -0.12636219101E+03  0.13288969085E+03  0.00000000000E+00 0.  1.
<mgrwt>
<rscale>  0 0.11655155E+03</rscale>
<asrwt>0</asrwt>
<pdfrwt beam="2">  1        2 0.20216714E+00 0.12541216E+03</pdfrwt>
<pdfrwt beam="1">  1       -2 0.19603465E-02 0.12541216E+03</pdfrwt>
<totfact> 0.13210979E+04</totfact>
</mgrwt>
</event>
<event>
 6    1  0.9240440E-006  0.1443701E+03  0.7546771E-02  0.1217764E+00
         -2   -1    0    0    0  501 -0.00000000000E+00  0.00000000000E+00  0.20441806516E+02  0.20441806516E+02  0.00000000000E+00 0.  1.
          2   -1    0    0  501    0  0.00000000000E+00 -0.00000000000E+00 -0.83218676604E+03  0.83218676604E+03  0.00000000000E+00 0. -1.
          5    1    1    2  502    0 -0.52206451480E+02  0.15667477983E+02 -0.71787762443E+02  0.90258275405E+02  0.47000000000E+01 0. -1.
         -5    1    1    2    0  502  0.17614723985E+02  0.47757806006E+02 -0.39641373060E+03  0.39969616254E+03  0.47000000000E+01 0. -1.
        -11    1    1    2    0    0  0.62709943087E+02 -0.54815688375E+02 -0.28831401990E+03  0.30010376660E+03  0.00000000000E+00 0. -1.
         11    1    1    2    0    0 -0.28118215592E+02 -0.86095956149E+01 -0.55229446580E+02  0.62570368021E+02  0.00000000000E+00 0.  1.
<mgrwt>
<rscale>  0 0.13675444E+03</rscale>
<asrwt>0</asrwt>
<pdfrwt beam="2">  1        2 0.12802872E+00 0.14437006E+03</pdfrwt>
<pdfrwt beam="1">  1       -2 0.31448936E-02 0.14437006E+03</pdfrwt>
<totfact> 0.12779571E+04</totfact>
</mgrwt>
</event>
<event>
 6    1  0.9240440E-006  0.1690254E+03  0.7546771E-02  0.1185656E+00
         -4   -1    0    0    0  501 -0.00000000000E+00  0.00000000000E+00  0.15784730950E+03  0.15784730950E+03  0.00000000000E+00 0.  1.
          4   -1    0    0  501    0  0.00000000000E+00 -0.00000000000E+00 -0.15898383128E+03  0.15898383128E+03  0.00000000000E+00 0. -1.
          5    1    1    2  502    0 -0.11012578947E+02  0.44817288607E+02 -0.33220327633E+02  0.57057395850E+02  0.47000000000E+01 0. -1.
         -5    1    1    2    0  502  0.11224845393E+03  0.70999471479E+01  0.12372782636E+02  0.11324884286E+03  0.47000000000E+01 0. -1.
        -11    1    1    2    0    0 -0.74833830807E+02 -0.56615334617E+01  0.45064100756E+02  0.87538153803E+02  0.00000000000E+00 0.  1.
         11    1    1    2    0    0 -0.26402044173E+02 -0.46255702293E+02 -0.25353077540E+02  0.58986748273E+02  0.00000000000E+00 0. -1.
<mgrwt>
<rscale>  0 0.16272358E+03</rscale>
<asrwt>0</asrwt>
<pdfrwt beam="2">  1        4 0.24459051E-01 0.16902543E+03</pdfrwt>
<pdfrwt beam="1">  1       -4 0.24284202E-01 0.16902543E+03</pdfrwt>
<totfact> 0.42651072E+02</totfact>
</mgrwt>
</event>
<event>
 6    1  0.9240440E-006  0.1313852E+03  0.7546771E-02  0.1239161E+00
          1   -1    0    0  501    0  0.00000000000E+00  0.00000000000E+00  0.14443413135E+04  0.14443413135E+04  0.00000000000E+00 0. -1.
         -1   -1    0    0    0  501 -0.00000000000E+00 -0.00000000000E+00 -0.12653340830E+02  0.12653340830E+02  0.00000000000E+00 0.  1.
          5    1    1    2  502    0 -0.76370195975E+02 -0.44560537019E+01  0.45250522782E+03  0.45895025270E+03  0.47000000000E+01 0. -1.
         -5    1    1    2    0  502  0.35936426412E+02  0.32779493248E+01  0.71479432846E+03  0.71572005260E+03  0.47000000000E+01 0. -1.
        -11    1    1    2    0    0 -0.50795290564E+01  0.34651438558E+02  0.15832400166E+03  0.16215120508E+03  0.00000000000E+00 0. -1.
         11    1    1    2    0    0  0.45513298619E+02 -0.33473334181E+02  0.10606441470E+03  0.12017314391E+03  0.00000000000E+00 0.  1.
<mgrwt>
<rscale>  0 0.12241799E+03</rscale>
<asrwt>0</asrwt>
<pdfrwt beam="1">  1        1 0.22220623E+00 0.13138520E+03</pdfrwt>
<pdfrwt beam="2">  1       -1 0.19466690E-02 0.13138520E+03</pdfrwt>
<totfact> 0.54500296E+03</totfact>
</mgrwt>
</event>
<event>
 6    1  0.9240440E-006  0.1266472E+03  0.7546771E-02  0.1246825E+00
          1   -1    0    0  501    0  0.00000000000E+00  0.00000000000E+00  0.66448894895E+03  0.66448894895E+03  0.00000000000E+00 0.  1.
         -1   -1    0    0    0  501 -0.00000000000E+00 -0.00000000000E+00 -0.19309701453E+02  0.19309701453E+02  0.00000000000E+00 0. -1.
          5    1    1    2  502    0  0.56947775078E+02 -0.16707709953E+02  0.20468378895E+03  0.21316599193E+03  0.47000000000E+01 0.  1.
         -5    1    1    2    0  502 -0.66935275767E+02 -0.11177493449E+01  0.23451530747E+03  0.24392847301E+03  0.47000000000E+01 0.  1.
        -11    1    1    2    0    0  0.28670299612E+02 -0.29738229542E+02  0.11721224282E+03  0.12427814870E+03  0.00000000000E+00 0.  1.
         11    1    1    2    0    0 -0.18682798923E+02  0.47563688840E+02  0.88767908262E+02  0.10242603677E+03  0.00000000000E+00 0. -1.
<mgrwt>
<rscale>  0 0.11776799E+03</rscale>
<asrwt>0</asrwt>
<pdfrwt beam="1">  1        1 0.10222905E+00 0.12664716E+03</pdfrwt>
<pdfrwt beam="2">  1       -1 0.29707238E-02 0.12664716E+03</pdfrwt>
<totfact> 0.11066918E+04</totfact>
</mgrwt>
</event>
<event>
 6    1  0.9240440E-006  0.2071691E+03  0.7546771E-02  0.1148159E+00
          2   -1    0    0  501    0  0.00000000000E+00  0.00000000000E+00  0.65138305604E+03  0.65138305604E+03  0.00000000000E+00 0. -1.
         -2   -1    0    0    0  501 -0.00000000000E+00 -0.00000000000E+00 -0.62956197183E+02  0.62956197183E+02  0.00000000000E+00 0.  1.
          5    1    1    2  502    0  0.13345017771E+03  0.90592644556E+02  0.17957369669E+03  0.24142240932E+03  0.47000000000E+01 0. -1.
         -5    1    1    2    0  502  0.23488746228E+02 -0.38947917391E+02  0.46377849356E+02  0.65127999964E+02  0.47000000000E+01 0. -1.
        -11    1    1    2    0    0 -0.10787530415E+03 -0.26335513313E+02  0.14067292883E+03  0.17921917702E+03  0.00000000000E+00 0.  1.
         11    1    1    2    0    0 -0.49063619793E+02 -0.25309213853E+02  0.22180238399E+03  0.22856966692E+03  0.00000000000E+00 0. -1.
<mgrwt>
<rscale>  0 0.20188416E+03</rscale>
<asrwt>0</asrwt>
<pdfrwt beam="1">  1        2 0.10021277E+00 0.20716914E+03</pdfrwt>
<pdfrwt beam="2">  1       -2 0.96855693E-02 0.20716914E+03</pdfrwt>
<totfact> 0.31642146E+03</totfact>
</mgrwt>
</event>
<event>
 6    1  0.9240440E-006  0.2341622E+03  0.7546771E-02  0.1123744E+00
         -1   -1    0    0    0  501 -0.00000000000E+00  0.00000000000E+00  0.18701316732E+03  0.18701316732E+03  0.00000000000E+00 0.  1.
          1   -1    0    0  501    0  0.00000000000E+00 -0.00000000000E+00 -0.73299564263E+02  0.73299564263E+02  0.00000000000E+00 0. -1.
          5    1    1    2  502    0  0.10564420711E+01 -0.15637187289E+02 -0.39127421760E+02  0.42410881030E+02  0.47000000000E+01 0.  1.
         -5    1    1    2    0  502  0.84061330529E+01  0.57128982751E+02  0.74385223457E+02  0.94284862050E+02  0.47000000000E+01 0.  1.
        -11    1    1    2    0    0 -0.44160565619E+02 -0.20427434890E+02  0.20357518892E+02  0.52743380887E+02  0.00000000000E+00 0.  1.
         11    1    1    2    0    0  0.34697990495E+02 -0.21064360572E+02  0.58098282463E+02  0.70873607611E+02  0.00000000000E+00 0. -1.
<mgrwt>
<rscale>  0 0.23416220E+03</rscale>
<asrwt>0</asrwt>
<pdfrwt beam="2">  1        1 0.11276856E-01 0.23416220E+03</pdfrwt>
<pdfrwt beam="1">  1       -1 0.28771256E-01 0.23416220E+03</pdfrwt>
<totfact> 0.58924047E+03</totfact>
</mgrwt>
</event>
<event>
 6    1  0.9240440E-006  0.1454808E+03  0.7546771E-02  0.1214734E+00
          2   -1    0    0  501    0  0.00000000000E+00  0.00000000000E+00  0.44220968921E+03  0.44220968921E+03  0.00000000000E+00 0. -1.
         -2   -1    0    0    0  501 -0.00000000000E+00 -0.00000000000E+00 -0.40349394057E+02  0.40349394057E+02  0.00000000000E+00 0.  1.
          5    1    1    2  502    0 -0.47801508328E+02  0.59509160924E+01  0.36719302200E+01  0.48538342290E+02  0.47000000000E+01 0. -1.
         -5    1    1    2    0  502 -0.26349298261E+02  0.51955741887E+00  0.19984026609E+03  0.20162533921E+03  0.47000000000E+01 0. -1.
        -11    1    1    2    0    0  0.52105124268E+02  0.20869768609E+02  0.18737280790E+03  0.19559923404E+03  0.00000000000E+00 0. -1.
         11    1    1    2    0    0  0.22045682321E+02 -0.27340242120E+02  0.10975290939E+02  0.36796167727E+02  0.00000000000E+00 0.  1.
<mgrwt>
<rscale>  0 0.13896066E+03</rscale>
<asrwt>0</asrwt>
<pdfrwt beam="1">  1        2 0.68032256E-01 0.14548077E+03</pdfrwt>
<pdfrwt beam="2">  1       -2 0.62075994E-02 0.14548077E+03</pdfrwt>
<totfact> 0.95900861E+03</totfact>
</mgrwt>
</event>
<event>
 6    1  0.9240440E-006  0.1377022E+03  0.7546771E-02  0.1226133E+00
         -1   -1    0    0    0  501 -0.00000000000E+00  0.00000000000E+00  0.70511891228E+02  0.70511891228E+02  0.00000000000E+00 0.  1.
          1   -1    0    0  501    0  0.00000000000E+00 -0.00000000000E+00 -0.24646113078E+03  0.24646113078E+03  0.00000000000E+00 0. -1.
          5    1    1    2  502    0 -0.74986325152E+02  0.44738898928E+02 -0.10437961313E+03  0.13616795392E+03  0.47000000000E+01 0. -1.
         -5    1    1    2    0  502  0.48619626396E+02  0.66165603451E+01 -0.41474514971E+02  0.64419502743E+02  0.47000000000E+01 0. -1.
        -11    1    1    2    0    0 -0.28993590221E+02  0.77698777956E+01 -0.16507873040E+02  0.34256519776E+02  0.00000000000E+00 0.  1.
         11    1    1    2    0    0  0.55360288977E+02 -0.59125337069E+02 -0.13587238415E+02  0.82129045574E+02  0.00000000000E+00 0. -1.
<mgrwt>
<rscale>  0 0.13089516E+03</rscale>
<asrwt>0</asrwt>
<pdfrwt beam="2">  1        1 0.37917097E-01 0.13770222E+03</pdfrwt>
<pdfrwt beam="1">  1       -1 0.10847983E-01 0.13770222E+03</pdfrwt>
<totfact> 0.57679691E+03</totfact>
</mgrwt>
</event>
<event>
 6    1  0.9240440E-006  0.1258565E+03  0.7546771E-02  0.1249153E+00
         -4   -1    0    0    0  501 -0.00000000000E+00  0.00000000000E+00  0.10985110416E+02  0.10985110416E+02  0.00000000000E+00 0.  1.
          4   -1    0    0  501    0  0.00000000000E+00 -0.00000000000E+00 -0.13586266406E+04  0.13586266406E+04  0.00000000000E+00 0. -1.
          5    1    1    2  502    0 -0.52993503877E+02 -0.96330089100E+01 -0.88082697687E+03  0.88248476445E+03  0.47000000000E+01 0. -1.
         -5    1    1    2    0  502  0.45887881145E+02 -0.32586210525E+01 -0.18262440072E+03  0.18838810468E+03  0.47000000000E+01 0. -1.
        -11    1    1    2    0    0 -0.30828658054E+02 -0.12990780707E+02 -0.20054854176E+03  0.20331966000E+03  0.00000000000E+00 0. -1.
         11    1    1    2    0    0  0.37934280786E+02  0.25882410669E+02 -0.83641610828E+02  0.95419221872E+02  0.00000000000E+00 0.  1.
<mgrwt>
<rscale>  0 0.11640240E+03</rscale>
<asrwt>0</asrwt>
<pdfrwt beam="2">  1        4 0.20901942E+00 0.12585654E+03</pdfrwt>
<pdfrwt beam="1">  1       -4 0.16900175E-02 0.12585654E+03</pdfrwt>
<totfact> 0.27985196E+02</totfact>
</mgrwt>
</event>
<event>
 6    1  0.9240440E-006  0.1253205E+03  0.7546771E-02  0.1251922E+00
          1   -1    0    0  501    0  0.00000000000E+00  0.00000000000E+00  0.29664846251E+02  0.29664846251E+02  0.00000000000E+00 0. -1.
         -1   -1    0    0    0  501 -0.00000000000E+00 -0.00000000000E+00 -0.39475349473E+03  0.39475349473E+03  0.00000000000E+00 0.  1.
          5    1    1    2  502    0 -0.31161106999E+02  0.49105192110E+02 -0.10794739123E+03  0.12270722780E+03  0.47000000000E+01 0. -1.
         -5    1    1    2    0  502  0.40054677693E+02 -0.50118318063E+02 -0.71648779135E+02  0.96290500892E+02  0.47000000000E+01 0. -1.
        -11    1    1    2    0    0 -0.25228792474E+02  0.39182871794E+02 -0.92282908641E+02  0.10338241939E+03  0.00000000000E+00 0. -1.
         11    1    1    2    0    0  0.16335221781E+02 -0.38169745842E+02 -0.93209569477E+02  0.10203819290E+03  0.00000000000E+00 0.  1.
<mgrwt>
<rscale>  0 0.11480475E+03</rscale>
<asrwt>0</asrwt>
<pdfrwt beam="1">  1        1 0.45638226E-02 0.12532047E+03</pdfrwt>
<pdfrwt beam="2">  1       -1 0.60731305E-01 0.12532047E+03</pdfrwt>
<totfact> 0.50904932E+03</totfact>
</mgrwt>
</event>
<event>
 6    1  0.9240440E-006  0.2638793E+03  0.7546771E-02  0.1104835E+00
          2   -1    0    0  501    0  0.00000000000E+00  0.00000000000E+00  0.38461020476E+03  0.38461020476E+03  0.00000000000E+00 0. -1.
         -2   -1    0    0    0  501 -0.00000000000E+00 -0.00000000000E+00 -0.45261594298E+02  0.45261594298E+02  0.00000000000E+00 0.  1.
          5    1    1    2  502    0  0.97419886742E+01  0.15219862243E+02  0.15570433898E+03  0.15681990220E+03  0.47000000000E+01 0.  1.
         -5    1    1    2    0  502 -0.66203736462E+02 -0.58815781601E+02  0.80448982981E+02  0.11973453867E+03  0.47000000000E+01 0.  1.
        -11    1    1    2    0    0  0.30645566787E+02 -0.84364963357E+01  0.87580774649E+02  0.93170367189E+02  0.00000000000E+00 0. -1.
         11    1    1    2    0    0  0.25816181000E+02  0.52032415693E+02  0.15614513862E+02  0.60146991009E+02  0.00000000000E+00 0.  1.
<mgrwt>
<rscale>  0 0.26387930E+03</rscale>
<asrwt>0</asrwt>
<pdfrwt beam="1">  1        2 0.59170799E-01 0.26387930E+03</pdfrwt>
<pdfrwt beam="2">  1       -2 0.69633225E-02 0.26387930E+03</pdfrwt>
<totfact> 0.97014971E+03</totfact>
</mgrwt>
</event>
<event>
 6    1  0.9240440E-006  0.1441504E+03  0.7546771E-02  0.1218364E+00
         -2   -1    0    0    0  501 -0.00000000000E+00  0.00000000000E+00  0.55650946779E+02  0.55650946779E+02  0.00000000000E+00 0.  1.
          2   -1    0    0  501    0  0.00000000000E+00 -0.00000000000E+00 -0.31994457716E+03  0.31994457716E+03  0.00000000000E+00 0. -1.
          5    1    1    2  502    0  0.57453756209E+02 -0.41869506132E+02 -0.79170061100E+02  0.10650811340E+03  0.47000000000E+01 0.  1.
         -5    1    1    2    0  502  0.81408773874E+01  0.71072699152E+02 -0.11059008794E+03  0.13179476469E+03  0.47000000000E+01 0.  1.
        -11    1    1    2    0    0 -0.22869679273E+02 -0.30487666791E+02 -0.85114963985E+02  0.93258121098E+02  0.00000000000E+00 0. -1.
         11    1    1    2    0    0 -0.42724954324E+02  0.12844737722E+01  0.10581482644E+02  0.44034524748E+02  0.00000000000E+00 0.  1.
<mgrwt>
<rscale>  0 0.13632297E+03</rscale>
<asrwt>0</asrwt>
<pdfrwt beam="2">  1        2 0.49222243E-01 0.14415043E+03</pdfrwt>
<pdfrwt beam="1">  1       -2 0.85616840E-02 0.14415043E+03</pdfrwt>
<totfact> 0.82629436E+03</totfact>
</mgrwt>
</event>
<event>
 6    1  0.9240440E-006  0.2973382E+03  0.7546771E-02  0.1086579E+00
          1   -1    0    0  501    0  0.00000000000E+00  0.00000000000E+00  0.19213800191E+03  0.19213800191E+03  0.00000000000E+00 0.  1.
         -1   -1    0    0    0  501 -0.00000000000E+00 -0.00000000000E+00 -0.11503454563E+03  0.11503454563E+03  0.00000000000E+00 0. -1.
          5    1    1    2  502    0  0.40597996594E+01 -0.14207922104E+02 -0.27242674746E+02  0.31346456755E+02  0.47000000000E+01 0. -1.
         -5    1    1    2    0  502 -0.88930447424E+01 -0.43339791659E+02  0.13913113554E+03  0.14607185445E+03  0.47000000000E+01 0. -1.
        -11    1    1    2    0    0  0.28236639702E+02  0.15367938985E+02  0.33317818457E+02  0.46298578780E+02  0.00000000000E+00 0.  1.
         11    1    1    2    0    0 -0.23403394619E+02  0.42179774778E+02 -0.68102822970E+02  0.83455657547E+02  0.00000000000E+00 0. -1.
<mgrwt>
<rscale>  0 0.29733824E+03</rscale>
<asrwt>0</asrwt>
<pdfrwt beam="1">  1        1 0.29559693E-01 0.29733824E+03</pdfrwt>
<pdfrwt beam="2">  1       -1 0.17697622E-01 0.29733824E+03</pdfrwt>
<totfact> 0.37903607E+03</totfact>
</mgrwt>
</event>
<event>
 6    1  0.9240440E-006  0.1297054E+03  0.7546771E-02  0.1239507E+00
          3   -1    0    0  501    0  0.00000000000E+00  0.00000000000E+00  0.62844482604E+02  0.62844482604E+02  0.00000000000E+00 0. -1.
         -3   -1    0    0    0  501 -0.00000000000E+00 -0.00000000000E+00 -0.21678289086E+03  0.21678289086E+03  0.00000000000E+00 0.  1.
          5    1    1    2  502    0  0.11511813629E+02 -0.49024134517E+02 -0.44616458868E+02  0.67443354158E+02  0.47000000000E+01 0.  1.
         -5    1    1    2    0  502  0.11618664887E+02  0.74779367676E+02 -0.25465610909E+02  0.79984589408E+02  0.47000000000E+01 0.  1.
        -11    1    1    2    0    0 -0.10658046974E+02 -0.56637746397E+02 -0.80105419682E+02  0.98682858413E+02  0.00000000000E+00 0.  1.
         11    1    1    2    0    0 -0.12472431542E+02  0.30882513237E+02 -0.37509187998E+01  0.33516571487E+02  0.00000000000E+00 0. -1.
<mgrwt>
<rscale>  0 0.12220281E+03</rscale>
<asrwt>0</asrwt>
<pdfrwt beam="1">  1        3 0.96683821E-02 0.12970544E+03</pdfrwt>
<pdfrwt beam="2">  1       -3 0.33351213E-01 0.12970544E+03</pdfrwt>
<totfact> 0.15653906E+03</totfact>
</mgrwt>
</event>
<event>
 6    1  0.9240440E-006  0.1370576E+03  0.7546771E-02  0.1229317E+00
         -2   -1    0    0    0  501 -0.00000000000E+00  0.00000000000E+00  0.72804555424E+02  0.72804555424E+02  0.00000000000E+00 0.  1.
          2   -1    0    0  501    0  0.00000000000E+00 -0.00000000000E+00 -0.20487778046E+03  0.20487778046E+03  0.00000000000E+00 0. -1.
          5    1    1    2  502    0 -0.16466523139E+02  0.32361408655E+02 -0.83850375040E+02  0.91495259706E+02  0.47000000000E+01 0.  1.
         -5    1    1    2    0  502 -0.38844558962E+02 -0.42436539536E+02  0.18132942313E+02  0.60503332517E+02  0.47000000000E+01 0.  1.
        -11    1    1    2    0    0  0.70086980957E+01 -0.36244774418E+02 -0.10140964546E+02  0.38283739153E+02  0.00000000000E+00 0.  1.
         11    1    1    2    0    0  0.48302384005E+02  0.46319905300E+02 -0.56214827766E+02  0.87400004510E+02  0.00000000000E+00 0. -1.
<mgrwt>
<rscale>  0 0.12875338E+03</rscale>
<asrwt>0</asrwt>
<pdfrwt beam="2">  1        2 0.31519659E-01 0.13705762E+03</pdfrwt>
<pdfrwt beam="1">  1       -2 0.11200701E-01 0.13705762E+03</pdfrwt>
<totfact> 0.86877762E+03</totfact>
</mgrwt>
</event>
<event>
 6    1  0.9240440E-006  0.1572695E+03  0.7546771E-02  0.1199192E+00
         -1   -1    0    0    0  501 -0.00000000000E+00  0.00000000000E+00  0.17223563112E+03  0.17223563112E+03  0.00000000000E+00 0.  1.
          1   -1    0    0  501    0  0.00000000000E+00 -0.00000000000E+00 -0.15052671044E+03  0.15052671044E+03  0.00000000000E+00 0. -1.
          5    1    1    2  502    0 -0.69546950124E+02  0.20789391035E+02 -0.84099769566E+02  0.11119279784E+03  0.47000000000E+01 0. -1.
         -5    1    1    2    0  502 -0.21804973500E+01  0.49088070895E+02  0.26827978437E+02  0.56180278567E+02  0.47000000000E+01 0.  1.
        -11    1    1    2    0    0  0.11142056540E+02  0.73007410956E+01 -0.14625444648E+02  0.19782564941E+02  0.00000000000E+00 0. -1.
         11    1    1    2    0    0  0.60585390934E+02 -0.77178203025E+02  0.93606156458E+02  0.13560670022E+03  0.00000000000E+00 0.  1.
<mgrwt>
<rscale>  0 0.15104760E+03</rscale>
<asrwt>0</asrwt>
<pdfrwt beam="2">  1        1 0.23157956E-01 0.15726948E+03</pdfrwt>
<pdfrwt beam="1">  1       -1 0.26497789E-01 0.15726948E+03</pdfrwt>
<totfact> 0.26007367E+03</totfact>
</mgrwt>
</event>
<event>
 6    1  0.9240440E-006  0.1274856E+03  0.7546771E-02  0.1245222E+00
         -1   -1    0    0    0  501 -0.00000000000E+00  0.00000000000E+00  0.48505455605E+02  0.48505455605E+02  0.00000000000E+00 0.  1.
          1   -1    0    0  501    0  0.00000000000E+00 -0.00000000000E+00 -0.26835837104E+03  0.26835837104E+03  0.00000000000E+00 0. -1.
          5    1    1    2  502    0  0.44390803693E+02 -0.34707502692E+02 -0.15978225658E+03  0.16949222316E+03  0.47000000000E+01 0. -1.
         -5    1    1    2    0  502 -0.28189401483E+02  0.15574222969E+02  0.28792886797E+01  0.32673828676E+02  0.47000000000E+01 0. -1.
        -11    1    1    2    0    0 -0.41476881605E+01  0.54777675112E+02 -0.22249844638E+02  0.59269322538E+02  0.00000000000E+00 0.  1.
         11    1    1    2    0    0 -0.12053714049E+02 -0.35644395388E+02 -0.40700102904E+02  0.55428452273E+02  0.00000000000E+00 0. -1.
<mgrwt>
<rscale>  0 0.11872092E+03</rscale>
<asrwt>0</asrwt>
<pdfrwt beam="2">  1        1 0.41285902E-01 0.12748557E+03</pdfrwt>
<pdfrwt beam="1">  1       -1 0.74623780E-02 0.12748557E+03</pdfrwt>
<totfact> 0.91098154E+03</totfact>
</mgrwt>
</event>
<event>
 6    1  0.9240440E-006  0.1863774E+03  0.7546771E-02  0.1166858E+00
          2   -1    0    0  501    0  0.00000000000E+00  0.00000000000E+00  0.15496376017E+04  0.15496376017E+04  0.00000000000E+00 0.  1.
         -2   -1    0    0    0  501 -0.00000000000E+00 -0.00000000000E+00 -0.33036868455E+02  0.33036868455E+02  0.00000000000E+00 0. -1.
          5    1    1    2  502    0  0.58634178444E+02 -0.95559206348E+02  0.12024254191E+04  0.12076499937E+04  0.47000000000E+01 0.  1.
         -5    1    1    2    0  502  0.36538697619E+02 -0.47072942645E+01  0.79429041188E+02  0.87682938061E+02  0.47000000000E+01 0.  1.
        -11    1    1    2    0    0 -0.34698716836E+02  0.22242766695E+02  0.10805900394E+02  0.42608791389E+02  0.00000000000E+00 0. -1.
         11    1    1    2    0    0 -0.60474159227E+02  0.78023733918E+02  0.22394037253E+03  0.24473274696E+03  0.00000000000E+00 0.  1.
<mgrwt>
<rscale>  0 0.18098028E+03</rscale>
<asrwt>0</asrwt>
<pdfrwt beam="1">  1        2 0.23840573E+00 0.18637743E+03</pdfrwt>
<pdfrwt beam="2">  1       -2 0.50825963E-02 0.18637743E+03</pdfrwt>
<totfact> 0.24518375E+03</totfact>
</mgrwt>
</event>
<event>
 6    1  0.9240440E-006  0.1753154E+03  0.7546771E-02  0.1191383E+00
          1   -1    0    0  501    0  0.00000000000E+00  0.00000000000E+00  0.49040293979E+02  0.49040293979E+02  0.00000000000E+00 0. -1.
         -1   -1    0    0    0  501 -0.00000000000E+00 -0.00000000000E+00 -0.49852965884E+03  0.49852965884E+03  0.00000000000E+00 0.  1.
          5    1    1    2  502    0 -0.87464248837E+02  0.13865230297E+02 -0.22251830165E+02  0.91430155756E+02  0.47000000000E+01 0. -1.
         -5    1    1    2    0  502  0.23480756915E+02 -0.37183438339E+02 -0.14229347340E+03  0.14900831052E+03  0.47000000000E+01 0.  1.
        -11    1    1    2    0    0  0.48731705677E+02  0.57739633459E+02 -0.16634529765E+03  0.18270030777E+03  0.00000000000E+00 0.  1.
         11    1    1    2    0    0  0.15251786245E+02 -0.34421425417E+02 -0.11859876365E+03  0.12443117877E+03  0.00000000000E+00 0. -1.
<mgrwt>
<rscale>  0 0.15764333E+03</rscale>
<asrwt>0</asrwt>
<pdfrwt beam="1">  1        1 0.75446607E-02 0.17531543E+03</pdfrwt>
<pdfrwt beam="2">  1       -1 0.76696870E-01 0.17531543E+03</pdfrwt>
<totfact> 0.16516646E+03</totfact>
</mgrwt>
</event>
<event>
 6    1  0.9240440E-006  0.3082279E+03  0.7546771E-02  0.1081198E+00
          4   -1    0    0  501    0  0.00000000000E+00  0.00000000000E+00  0.14339725346E+03  0.14339725346E+03  0.00000000000E+00 0.  1.
         -4   -1    0    0    0  501 -0.00000000000E+00 -0.00000000000E+00 -0.16563160003E+03  0.16563160003E+03  0.00000000000E+00 0. -1.
          5    1    1    2  502    0  0.15880227727E+02 -0.21853786037E+02  0.45414113048E+02  0.53049988320E+02  0.47000000000E+01 0.  1.
         -5    1    1    2    0  502  0.17209324427E+02  0.10829593305E+03  0.28153602813E+01  0.10979155804E+03  0.47000000000E+01 0.  1.
        -11    1    1    2    0    0  0.19352772954E+02 -0.53099953509E+02 -0.63067219538E+01  0.56867474232E+02  0.00000000000E+00 0.  1.
         11    1    1    2    0    0 -0.52442325107E+02 -0.33342193508E+02 -0.64157097946E+02  0.89319832889E+02  0.00000000000E+00 0. -1.
<mgrwt>
<rscale>  0 0.30822795E+03</rscale>
<asrwt>0</asrwt>
<pdfrwt beam="1">  1        4 0.22061116E-01 0.30822795E+03</pdfrwt>
<pdfrwt beam="2">  1       -4 0.25481785E-01 0.30822795E+03</pdfrwt>
<totfact> 0.51864173E+02</totfact>
</mgrwt>
</event>
<event>
 6    1  0.9240440E-006  0.1175514E+03  0.7546771E-02  0.1256289E+00
         -1   -1    0    0    0  501 -0.00000000000E+00  0.00000000000E+00  0.11361337558E+02  0.11361337558E+02  0.00000000000E+00 0.  1.
          1   -1    0    0  501    0  0.00000000000E+00 -0.00000000000E+00 -0.16469062591E+04  0.16469062591E+04  0.00000000000E+00 0. -1.
          5    1    1    2  502    0  0.40951560193E+02 -0.34820882361E+02 -0.34688223940E+03  0.35105398750E+03  0.47000000000E+01 0. -1.
         -5    1    1    2    0  502 -0.49490148524E+01  0.41264901037E+02 -0.10258200514E+04  0.10266723687E+04  0.47000000000E+01 0.  1.
        -11    1    1    2    0    0 -0.37744548471E+02 -0.29377404156E+02 -0.24930860806E+03  0.25385520453E+03  0.00000000000E+00 0. -1.
         11    1    1    2    0    0  0.17420031311E+01  0.22933385480E+02 -0.13534022730E+02  0.26686035969E+02  0.00000000000E+00 0.  1.
<mgrwt>
<rscale>  0 0.11234445E+03</rscale>
<asrwt>0</asrwt>
<pdfrwt beam="2">  1        1 0.25336989E+00 0.11755141E+03</pdfrwt>
<pdfrwt beam="1">  1       -1 0.17479002E-02 0.11755141E+03</pdfrwt>
<totfact> 0.46963200E+03</totfact>
</mgrwt>
</event>
<event>
 6    1  0.9240440E-006  0.3041840E+03  0.7546771E-02  0.1083168E+00
         -2   -1    0    0    0  501 -0.00000000000E+00  0.00000000000E+00  0.38713701567E+02  0.38713701567E+02  0.00000000000E+00 0.  1.
          2   -1    0    0  501    0  0.00000000000E+00 -0.00000000000E+00 -0.59751404812E+03  0.59751404812E+03  0.00000000000E+00 0. -1.
          5    1    1    2  502    0  0.38619507438E+02  0.44395076513E+02 -0.82333927383E+02  0.10130821670E+03  0.47000000000E+01 0. -1.
         -5    1    1    2    0  502  0.11726649912E+02 -0.11827827996E+02 -0.40481328101E+03  0.40518303804E+03  0.47000000000E+01 0. -1.
        -11    1    1    2    0    0 -0.28661840844E+02  0.23712460700E+02 -0.15114793536E+01  0.37229913818E+02  0.00000000000E+00 0.  1.
         11    1    1    2    0    0 -0.21684316506E+02 -0.56279709217E+02 -0.70141658816E+02  0.92506581135E+02  0.00000000000E+00 0. -1.
<mgrwt>
<rscale>  0 0.30418403E+03</rscale>
<asrwt>0</asrwt>
<pdfrwt beam="2">  1        2 0.91925235E-01 0.30418403E+03</pdfrwt>
<pdfrwt beam="1">  1       -2 0.59559543E-02 0.30418403E+03</pdfrwt>
<totfact> 0.75882824E+03</totfact>
</mgrwt>
</event>
<event>
 6    1  0.9240440E-006  0.1311598E+03  0.7546771E-02  0.1241372E+00
          2   -1    0    0  501    0  0.00000000000E+00  0.00000000000E+00  0.25018151655E+03  0.25018151655E+03  0.00000000000E+00 0. -1.
         -2   -1    0    0    0  501 -0.00000000000E+00 -0.00000000000E+00 -0.52798437267E+02  0.52798437267E+02  0.00000000000E+00 0.  1.
          5    1    1    2  502    0 -0.26571384360E+02 -0.50124667233E+02  0.30021396072E+02  0.64357555533E+02  0.47000000000E+01 0. -1.
         -5    1    1    2    0  502  0.58552019894E+02  0.26540330055E+02  0.11003366512E+03  0.12752343162E+03  0.47000000000E+01 0. -1.
        -11    1    1    2    0    0 -0.48372691428E+01 -0.32454978653E+02  0.17566587747E+02  0.37219750364E+02  0.00000000000E+00 0.  1.
         11    1    1    2    0    0 -0.27143366392E+02  0.56039315831E+02  0.39761430349E+02  0.73879216301E+02  0.00000000000E+00 0. -1.
<mgrwt>
<rscale>  0 0.12105158E+03</rscale>
<asrwt>0</asrwt>
<pdfrwt beam="1">  1        2 0.38489463E-01 0.13115980E+03</pdfrwt>
<pdfrwt beam="2">  1       -2 0.81228366E-02 0.13115980E+03</pdfrwt>
<totfact> 0.11557988E+04</totfact>
</mgrwt>
</event>
<event>
 6    1  0.9240440E-006  0.1373740E+03  0.7546771E-02  0.1228916E+00
         -1   -1    0    0    0  501 -0.00000000000E+00  0.00000000000E+00  0.76187234634E+02  0.76187234634E+02  0.00000000000E+00 0.  1.
          1   -1    0    0  501    0  0.00000000000E+00 -0.00000000000E+00 -0.19594588580E+03  0.19594588580E+03  0.00000000000E+00 0. -1.
          5    1    1    2  502    0  0.31732987264E+02 -0.72555036518E+01 -0.99964511913E+02  0.10523601311E+03  0.47000000000E+01 0. -1.
         -5    1    1    2    0  502  0.25054715741E+02  0.11639437267E+02  0.36559701791E+02  0.46064271142E+02  0.47000000000E+01 0. -1.
        -11    1    1    2    0    0 -0.33488453779E+02  0.24629331112E+02 -0.69821908229E+02  0.81259949276E+02  0.00000000000E+00 0. -1.
         11    1    1    2    0    0 -0.23299249226E+02 -0.29013264727E+02  0.13468067181E+02  0.39572886908E+02  0.00000000000E+00 0.  1.
<mgrwt>
<rscale>  0 0.12902073E+03</rscale>
<asrwt>0</asrwt>
<pdfrwt beam="2">  1        1 0.30145520E-01 0.13737396E+03</pdfrwt>
<pdfrwt beam="1">  1       -1 0.11721113E-01 0.13737396E+03</pdfrwt>
<totfact> 0.68045109E+03</totfact>
</mgrwt>
</event>
<event>
 6    1  0.9240440E-006  0.2054778E+03  0.7546771E-02  0.1152800E+00
          2   -1    0    0  501    0  0.00000000000E+00  0.00000000000E+00  0.15088057394E+04  0.15088057394E+04  0.00000000000E+00 0. -1.
         -2   -1    0    0    0  501 -0.00000000000E+00 -0.00000000000E+00 -0.23570567469E+02  0.23570567469E+02  0.00000000000E+00 0.  1.
          5    1    1    2  502    0 -0.11271780344E+03 -0.29339806126E+02  0.29052105220E+03  0.31303466135E+03  0.47000000000E+01 0. -1.
         -5    1    1    2    0  502 -0.35793979701E+02 -0.38060977398E+02  0.53939972071E+03  0.54194464264E+03  0.47000000000E+01 0. -1.
        -11    1    1    2    0    0  0.32639971420E+02  0.24423905694E+02  0.91087058550E+02  0.99793522531E+02  0.00000000000E+00 0.  1.
         11    1    1    2    0    0  0.11587181172E+03  0.42976877830E+02  0.56422734048E+03  0.57760348036E+03  0.00000000000E+00 0. -1.
<mgrwt>
<rscale>  0 0.19641378E+03</rscale>
<asrwt>0</asrwt>
<pdfrwt beam="1">  1        2 0.23212388E+00 0.20547779E+03</pdfrwt>
<pdfrwt beam="2">  1       -2 0.36262423E-02 0.20547779E+03</pdfrwt>
<totfact> 0.42847341E+03</totfact>
</mgrwt>
</event>
<event>
 6    1  0.9240440E-006  0.1256614E+03  0.7546771E-02  0.1250675E+00
          1   -1    0    0  501    0  0.00000000000E+00  0.00000000000E+00  0.35331741158E+03  0.35331741158E+03  0.00000000000E+00 0. -1.
         -1   -1    0    0    0  501 -0.00000000000E+00 -0.00000000000E+00 -0.36392212758E+02  0.36392212758E+02  0.00000000000E+00 0.  1.
          5    1    1    2  502    0 -0.51368802158E+02 -0.39241876957E+02  0.84937368274E+02  0.10684158962E+03  0.47000000000E+01 0. -1.
         -5    1    1    2    0  502  0.38847400495E+02  0.35965401803E+02  0.15752921520E+03  0.16625334371E+03  0.47000000000E+01 0. -1.
        -11    1    1    2    0    0 -0.25923166884E+02  0.93835201813E+01  0.72583511353E+02  0.77642946574E+02  0.00000000000E+00 0. -1.
         11    1    1    2    0    0  0.38444568547E+02 -0.61070450271E+01  0.18751039930E+01  0.38971744440E+02  0.00000000000E+00 0.  1.
<mgrwt>
<rscale>  0 0.11552050E+03</rscale>
<asrwt>0</asrwt>
<pdfrwt beam="1">  1        1 0.54356523E-01 0.12566144E+03</pdfrwt>
<pdfrwt beam="2">  1       -1 0.55988022E-02 0.12566144E+03</pdfrwt>
<totfact> 0.99400446E+03</totfact>
</mgrwt>
</event>
<event>
 6    1  0.9240440E-006  0.1285546E+03  0.7546771E-02  0.1242664E+00
         -1   -1    0    0    0  501 -0.00000000000E+00  0.00000000000E+00  0.20672438384E+03  0.20672438384E+03  0.00000000000E+00 0.  1.
          1   -1    0    0  501    0  0.00000000000E+00 -0.00000000000E+00 -0.27388922415E+03  0.27388922415E+03  0.00000000000E+00 0. -1.
          5    1    1    2  502    0  0.21189641092E+02 -0.21006537157E+02 -0.19778921136E+03  0.20008232711E+03  0.47000000000E+01 0. -1.
         -5    1    1    2    0  502 -0.55755750028E+02  0.22866639571E+02 -0.47586778206E+02  0.76929697299E+02  0.47000000000E+01 0.  1.
        -11    1    1    2    0    0  0.38907729400E+01 -0.38064745622E+02  0.31992406266E+02  0.49875615606E+02  0.00000000000E+00 0. -1.
         11    1    1    2    0    0  0.30675335997E+02  0.36204643208E+02  0.14621874299E+03  0.15372596798E+03  0.00000000000E+00 0.  1.
<mgrwt>
<rscale>  0 0.12026265E+03</rscale>
<asrwt>0</asrwt>
<pdfrwt beam="2">  1        1 0.42136804E-01 0.12855460E+03</pdfrwt>
<pdfrwt beam="1">  1       -1 0.31803751E-01 0.12855460E+03</pdfrwt>
<totfact> 0.90345767E+02</totfact>
</mgrwt>
</event>
<event>
 6    1  0.9240440E-006  0.2084534E+03  0.7546771E-02  0.1146523E+00
          2   -1    0    0  501    0  0.00000000000E+00  0.00000000000E+00  0.15813904704E+04  0.15813904704E+04  0.00000000000E+00 0. -1.
         -2   -1    0    0    0  501 -0.00000000000E+00 -0.00000000000E+00 -0.68836537658E+02  0.68836537658E+02  0.00000000000E+00 0.  1.
          5    1    1    2  502    0 -0.84861958781E+02  0.13644378991E+02  0.32188801491E+03  0.33319919758E+03  0.47000000000E+01 0. -1.
         -5    1    1    2    0  502 -0.59000494956E+02  0.70777632616E+02  0.11035345716E+04  0.11073848348E+04  0.47000000000E+01 0. -1.
        -11    1    1    2    0    0  0.21512758873E+02 -0.53108192470E+02  0.54778713383E+02  0.79271598582E+02  0.00000000000E+00 0. -1.
         11    1    1    2    0    0  0.12234969486E+03 -0.31313819136E+02  0.32352632825E+02  0.13037137705E+03  0.00000000000E+00 0.  1.
<mgrwt>
<rscale>  0 0.20386005E+03</rscale>
<asrwt>0</asrwt>
<pdfrwt beam="1">  1        2 0.24329082E+00 0.20845336E+03</pdfrwt>
<pdfrwt beam="2">  1       -2 0.10590238E-01 0.20845336E+03</pdfrwt>
<totfact> 0.75456215E+02</totfact>
</mgrwt>
</event>
<event>
 6    1  0.9240440E-006  0.1998519E+03  0.7546771E-02  0.1154756E+00
          2   -1    0    0  501    0  0.00000000000E+00  0.00000000000E+00  0.42464566117E+03  0.42464566117E+03  0.00000000000E+00 0. -1.
         -2   -1    0    0    0  501 -0.00000000000E+00 -0.00000000000E+00 -0.84255592287E+02  0.84255592287E+02  0.00000000000E+00 0.  1.
          5    1    1    2  502    0 -0.24497381492E+01 -0.21363309126E+02  0.71793050771E+02  0.75091439810E+02  0.47000000000E+01 0. -1.
         -5    1    1    2    0  502 -0.15045433938E+03  0.51960729680E+02  0.96657353465E+02  0.18628247273E+03  0.47000000000E+01 0. -1.
        -11    1    1    2    0    0  0.14946447073E+02  0.24778756998E+02  0.21676255713E+02  0.36155817516E+02  0.00000000000E+00 0.  1.
         11    1    1    2    0    0  0.13795763046E+03 -0.55376177553E+02  0.15026340894E+03  0.21137152341E+03  0.00000000000E+00 0. -1.
<mgrwt>
<rscale>  0 0.19416673E+03</rscale>
<asrwt>0</asrwt>
<pdfrwt beam="1">  1        2 0.65330101E-01 0.19985190E+03</pdfrwt>
<pdfrwt beam="2">  1       -2 0.12962399E-01 0.19985190E+03</pdfrwt>
<totfact> 0.32105396E+03</totfact>
</mgrwt>
</event>
<event>
 6    1  0.9240440E-006  0.1300082E+03  0.7546771E-02  0.1241448E+00
         -1   -1    0    0    0  501 -0.00000000000E+00  0.00000000000E+00  0.21535002080E+02  0.21535002080E+02  0.00000000000E+00 0.  1.
          1   -1    0    0  501    0  0.00000000000E+00 -0.00000000000E+00 -0.13770325708E+04  0.13770325708E+04  0.00000000000E+00 0. -1.
          5    1    1    2  502    0  0.68097684161E+00  0.22376078823E+02 -0.40374411774E+02  0.46404048951E+02  0.47000000000E+01 0. -1.
         -5    1    1    2    0  502  0.35019628445E+02 -0.23749619613E+02 -0.12020995328E+04  0.12028531895E+04  0.47000000000E+01 0. -1.
        -11    1    1    2    0    0 -0.63078085295E+02  0.86487396350E+01 -0.52636262830E+02  0.82608847628E+02  0.00000000000E+00 0.  1.
         11    1    1    2    0    0  0.27377480009E+02 -0.72751988451E+01 -0.60387361262E+02  0.66701486716E+02  0.00000000000E+00 0. -1.
<mgrwt>
<rscale>  0 0.12100504E+03</rscale>
<asrwt>0</asrwt>
<pdfrwt beam="2">  1        1 0.21185122E+00 0.13000825E+03</pdfrwt>
<pdfrwt beam="1">  1       -1 0.33130763E-02 0.13000825E+03</pdfrwt>
<totfact> 0.27908646E+03</totfact>
</mgrwt>
</event>
<event>
 6    1  0.9240440E-006  0.1494731E+03  0.7546771E-02  0.1219294E+00
         -1   -1    0    0    0  501 -0.00000000000E+00  0.00000000000E+00  0.39775839049E+02  0.39775839049E+02  0.00000000000E+00 0.  1.
          1   -1    0    0  501    0  0.00000000000E+00 -0.00000000000E+00 -0.74024835924E+03  0.74024835924E+03  0.00000000000E+00 0. -1.
          5    1    1    2  502    0  0.25917191322E+02 -0.66885568009E+02 -0.60300454818E+03  0.60727420095E+03  0.47000000000E+01 0.  1.
         -5    1    1    2    0  502 -0.33253122507E+02 -0.14740267410E+02 -0.46580955608E+02  0.59286769731E+02  0.47000000000E+01 0.  1.
        -11    1    1    2    0    0  0.62693393305E+01  0.54681821221E+02  0.93217787621E+00  0.55047934960E+02  0.00000000000E+00 0.  1.
         11    1    1    2    0    0  0.10665918546E+01  0.26944014198E+02 -0.51819194271E+02  0.58415292639E+02  0.00000000000E+00 0. -1.
<mgrwt>
<rscale>  0 0.13565777E+03</rscale>
<asrwt>0</asrwt>
<pdfrwt beam="2">  1        1 0.11388436E+00 0.14947308E+03</pdfrwt>
<pdfrwt beam="1">  1       -1 0.61193602E-02 0.14947308E+03</pdfrwt>
<totfact> 0.32998982E+03</totfact>
</mgrwt>
</event>
<event>
 6    1  0.9240440E-006  0.1454539E+03  0.7546771E-02  0.1215728E+00
          1   -1    0    0  501    0  0.00000000000E+00  0.00000000000E+00  0.14617792935E+04  0.14617792935E+04  0.00000000000E+00 0. -1.
         -1   -1    0    0    0  501 -0.00000000000E+00 -0.00000000000E+00 -0.27049924838E+02  0.27049924838E+02  0.00000000000E+00 0.  1.
          5    1    1    2  502    0  0.76182251049E+02 -0.25000093452E+02  0.10968885537E+04  0.10998251358E+04  0.47000000000E+01 0.  1.
         -5    1    1    2    0  502 -0.48685944169E+01  0.46046277730E+02  0.20789540128E+03  0.21304119503E+03  0.47000000000E+01 0.  1.
        -11    1    1    2    0    0 -0.44620622866E+02  0.38395678541E+01  0.41460506811E+01  0.44977016381E+02  0.00000000000E+00 0.  1.
         11    1    1    2    0    0 -0.26693033766E+02 -0.24885752132E+02  0.12579936297E+03  0.13098587112E+03  0.00000000000E+00 0. -1.
<mgrwt>
<rscale>  0 0.13823189E+03</rscale>
<asrwt>0</asrwt>
<pdfrwt beam="1">  1        1 0.22488906E+00 0.14545389E+03</pdfrwt>
<pdfrwt beam="2">  1       -1 0.41615280E-02 0.14545389E+03</pdfrwt>
<totfact> 0.17603383E+03</totfact>
</mgrwt>
</event>
<event>
 6    1  0.9240440E-006  0.4854125E+03  0.7546771E-02  0.1018863E+00
         -2   -1    0    0    0  501 -0.00000000000E+00  0.00000000000E+00  0.28357075692E+03  0.28357075692E+03  0.00000000000E+00 0.  1.
          2   -1    0    0  501    0  0.00000000000E+00 -0.00000000000E+00 -0.12051881499E+04  0.12051881499E+04  0.00000000000E+00 0. -1.
          5    1    1    2  502    0 -0.20897055924E+03 -0.31802194569E+03 -0.80615417986E+03  0.89146693953E+03  0.47000000000E+01 0. -1.
         -5    1    1    2    0  502 -0.83646656534E+02 -0.35212537087E+02 -0.91114253822E+02  0.12868792938E+03  0.47000000000E+01 0.  1.
        -11    1    1    2    0    0  0.27247911900E+03  0.31771225975E+03  0.45532201960E+01  0.41857697273E+03  0.00000000000E+00 0.  1.
         11    1    1    2    0    0  0.20138096777E+02  0.35522223029E+02 -0.28902179489E+02  0.50027065174E+02  0.00000000000E+00 0. -1.
<mgrwt>
<rscale>  0 0.48099213E+03</rscale>
<asrwt>0</asrwt>
<pdfrwt beam="2">  1        2 0.18541356E+00 0.48541252E+03</pdfrwt>
<pdfrwt beam="1">  1       -2 0.43626270E-01 0.48541252E+03</pdfrwt>
<totfact> 0.97703692E+01</totfact>
</mgrwt>
</event>
<event>
 6    1  0.9240440E-006  0.1384787E+03  0.7546771E-02  0.1227796E+00
         -2   -1    0    0    0  501 -0.00000000000E+00  0.00000000000E+00  0.84815580153E+01  0.84815580153E+01  0.00000000000E+00 0.  1.
          2   -1    0    0  501    0  0.00000000000E+00 -0.00000000000E+00 -0.19203578517E+04  0.19203578517E+04  0.00000000000E+00 0. -1.
          5    1    1    2  502    0  0.39399717409E+02  0.17748081375E+02 -0.85892928602E+03  0.86002845331E+03  0.47000000000E+01 0. -1.
         -5    1    1    2    0  502 -0.67571697996E+02  0.34942879493E+02 -0.47588324311E+03  0.48194801615E+03  0.47000000000E+01 0. -1.
        -11    1    1    2    0    0  0.25583333367E+01 -0.73491454376E+02 -0.37867824501E+03  0.38575219012E+03  0.00000000000E+00 0.  1.
         11    1    1    2    0    0  0.25613647250E+02  0.20800493507E+02 -0.19838551952E+03  0.20111075012E+03  0.00000000000E+00 0. -1.
<mgrwt>
<rscale>  0 0.12977071E+03</rscale>
<asrwt>0</asrwt>
<pdfrwt beam="2">  1        2 0.29543983E+00 0.13847872E+03</pdfrwt>
<pdfrwt beam="1">  1       -2 0.13048544E-02 0.13847872E+03</pdfrwt>
<totfact> 0.11599477E+04</totfact>
</mgrwt>
</event>
<event>
 6    1  0.9240440E-006  0.1526837E+03  0.7546771E-02  0.1206011E+00
          1   -1    0    0  501    0  0.00000000000E+00  0.00000000000E+00  0.67624242337E+03  0.67624242337E+03  0.00000000000E+00 0. -1.
         -1   -1    0    0    0  501 -0.00000000000E+00 -0.00000000000E+00 -0.74771333523E+02  0.74771333523E+02  0.00000000000E+00 0.  1.
          5    1    1    2  502    0  0.12725915046E+02 -0.33456377785E+02  0.52879425757E+03  0.53002522107E+03  0.47000000000E+01 0.  1.
         -5    1    1    2    0  502 -0.84427490297E+01 -0.54300925627E+02  0.77007807018E+02  0.94721501660E+02  0.47000000000E+01 0.  1.
        -11    1    1    2    0    0  0.34596550199E+02  0.75880173356E+02  0.80177545317E+01  0.83779510514E+02  0.00000000000E+00 0. -1.
         11    1    1    2    0    0 -0.38879716216E+02  0.11877130055E+02 -0.12348729272E+02  0.42487523651E+02  0.00000000000E+00 0.  1.
<mgrwt>
<rscale>  0 0.14558050E+03</rscale>
<asrwt>0</asrwt>
<pdfrwt beam="1">  1        1 0.10403729E+00 0.15268375E+03</pdfrwt>
<pdfrwt beam="2">  1       -1 0.11503283E-01 0.15268375E+03</pdfrwt>
<totfact> 0.14435778E+03</totfact>
</mgrwt>
</event>
<event>
 6    1  0.9240440E-006  0.1354719E+03  0.7546771E-02  0.1231422E+00
         -1   -1    0    0    0  501 -0.00000000000E+00  0.00000000000E+00  0.27659638085E+03  0.27659638085E+03  0.00000000000E+00 0.  1.
          1   -1    0    0  501    0  0.00000000000E+00 -0.00000000000E+00 -0.61452681481E+02  0.61452681481E+02  0.00000000000E+00 0. -1.
          5    1    1    2  502    0  0.13399946510E+02  0.56765926238E+02  0.67836002378E+02  0.89586506611E+02  0.47000000000E+01 0.  1.
         -5    1    1    2    0  502  0.36483025110E+02 -0.41301565971E+02 -0.12581263499E+02  0.56720443088E+02  0.47000000000E+01 0.  1.
        -11    1    1    2    0    0  0.18807863665E+02  0.37068826001E+01  0.89534596445E+02  0.91563751970E+02  0.00000000000E+00 0.  1.
         11    1    1    2    0    0 -0.68690835284E+02 -0.19171242866E+02  0.70354364046E+02  0.10017836066E+03  0.00000000000E+00 0. -1.
<mgrwt>
<rscale>  0 0.12736259E+03</rscale>
<asrwt>0</asrwt>
<pdfrwt beam="2">  1        1 0.94542589E-02 0.13547191E+03</pdfrwt>
<pdfrwt beam="1">  1       -1 0.42553289E-01 0.13547191E+03</pdfrwt>
<totfact> 0.36713001E+03</totfact>
</mgrwt>
</event>
<event>
 6    1  0.9240440E-006  0.2924553E+03  0.7546771E-02  0.1089074E+00
         -2   -1    0    0    0  501 -0.00000000000E+00  0.00000000000E+00  0.29723979025E+02  0.29723979025E+02  0.00000000000E+00 0.  1.
          2   -1    0    0  501    0  0.00000000000E+00 -0.00000000000E+00 -0.71936956153E+03  0.71936956153E+03  0.00000000000E+00 0. -1.
          5    1    1    2  502    0  0.39493254787E+02 -0.49491826798E+02 -0.50741837085E+03  0.51137525475E+03  0.47000000000E+01 0. -1.
         -5    1    1    2    0  502 -0.28277193755E+02 -0.14635681867E+02 -0.29254456453E+02  0.43493862702E+02  0.47000000000E+01 0. -1.
        -11    1    1    2    0    0  0.42281309720E+02  0.42097947787E+02 -0.59275553042E+02  0.84104325382E+02  0.00000000000E+00 0.  1.
         11    1    1    2    0    0 -0.53497370751E+02  0.22029560879E+02 -0.93697202158E+02  0.11012009772E+03  0.00000000000E+00 0. -1.
<mgrwt>
<rscale>  0 0.29245530E+03</rscale>
<asrwt>0</asrwt>
<pdfrwt beam="2">  1        2 0.11067223E+00 0.29245530E+03</pdfrwt>
<pdfrwt beam="1">  1       -2 0.45729204E-02 0.29245530E+03</pdfrwt>
<totfact> 0.90890539E+03</totfact>
</mgrwt>
</event>
<event>
 6    1  0.9240440E-006  0.1256239E+03  0.7546771E-02  0.1249495E+00
         -1   -1    0    0    0  501 -0.00000000000E+00  0.00000000000E+00  0.40319641214E+02  0.40319641214E+02  0.00000000000E+00 0.  1.
          1   -1    0    0  501    0  0.00000000000E+00 -0.00000000000E+00 -0.30783362836E+03  0.30783362836E+03  0.00000000000E+00 0. -1.
          5    1    1    2  502    0 -0.22343162434E+02 -0.60715470205E+02 -0.11596896411E+03  0.13287767256E+03  0.47000000000E+01 0. -1.
         -5    1    1    2    0  502  0.30152837488E+02  0.50978676793E+02 -0.74546362748E+02  0.95327169764E+02  0.47000000000E+01 0. -1.
        -11    1    1    2    0    0  0.20531811646E+02 -0.47592347906E+00 -0.86070457376E+02  0.88486752825E+02  0.00000000000E+00 0. -1.
         11    1    1    2    0    0 -0.28341486700E+02  0.10212716890E+02  0.90717970905E+01  0.31461674417E+02  0.00000000000E+00 0.  1.
<mgrwt>
<rscale>  0 0.11620317E+03</rscale>
<asrwt>0</asrwt>
<pdfrwt beam="2">  1        1 0.47359019E-01 0.12562388E+03</pdfrwt>
<pdfrwt beam="1">  1       -1 0.62030218E-02 0.12562388E+03</pdfrwt>
<totfact> 0.10126742E+04</totfact>
</mgrwt>
</event>
<event>
 6    1  0.9240440E-006  0.3188020E+03  0.7546771E-02  0.1076202E+00
          1   -1    0    0  501    0  0.00000000000E+00  0.00000000000E+00  0.96323303246E+02  0.96323303246E+02  0.00000000000E+00 0. -1.
         -1   -1    0    0    0  501 -0.00000000000E+00 -0.00000000000E+00 -0.26378533245E+03  0.26378533245E+03  0.00000000000E+00 0.  1.
          5    1    1    2  502    0  0.10402589421E+01  0.22943137611E+02 -0.32118552264E+02  0.39763816487E+02  0.47000000000E+01 0.  1.
         -5    1    1    2    0  502 -0.44501355825E+01 -0.12860942797E+03 -0.93010990125E+01  0.12910766481E+03  0.47000000000E+01 0.  1.
        -11    1    1    2    0    0 -0.41710701624E+02  0.62838682564E+02 -0.40926892099E+02  0.85810798581E+02  0.00000000000E+00 0. -1.
         11    1    1    2    0    0  0.45120578264E+02  0.42827607799E+02 -0.85115485825E+02  0.10542635581E+03  0.00000000000E+00 0.  1.
<mgrwt>
<rscale>  0 0.31880197E+03</rscale>
<asrwt>0</asrwt>
<pdfrwt beam="1">  1        1 0.14818970E-01 0.31880197E+03</pdfrwt>
<pdfrwt beam="2">  1       -1 0.40582359E-01 0.31880197E+03</pdfrwt>
<totfact> 0.22810205E+03</totfact>
</mgrwt>
</event>
<event>
 6    1  0.9240440E-006  0.2391864E+03  0.7546771E-02  0.1123094E+00
          2   -1    0    0  501    0  0.00000000000E+00  0.00000000000E+00  0.49371721114E+03  0.49371721114E+03  0.00000000000E+00 0.  1.
         -2   -1    0    0    0  501 -0.00000000000E+00 -0.00000000000E+00 -0.10835515402E+03  0.10835515402E+03  0.00000000000E+00 0. -1.
          5    1    1    2  502    0  0.25980327732E+02  0.10579923817E+03  0.48756067953E+02  0.11944747963E+03  0.47000000000E+01 0.  1.
         -5    1    1    2    0  502 -0.78469570385E+02  0.91253601942E+02  0.14407746174E+03  0.18779003788E+03  0.47000000000E+01 0.  1.
        -11    1    1    2    0    0  0.47441428700E+02 -0.55970782156E+02  0.29245827674E+02  0.78985669894E+02  0.00000000000E+00 0. -1.
         11    1    1    2    0    0  0.50478139533E+01 -0.14108205796E+03  0.16328269975E+03  0.21584917776E+03  0.00000000000E+00 0.  1.
<mgrwt>
<rscale>  0 0.23511035E+03</rscale>
<asrwt>0</asrwt>
<pdfrwt beam="1">  1        2 0.75956492E-01 0.23918638E+03</pdfrwt>
<pdfrwt beam="2">  1       -2 0.16670024E-01 0.23918638E+03</pdfrwt>
<totfact> 0.18047135E+03</totfact>
</mgrwt>
</event>
<event>
 6    1  0.9240440E-006  0.1347639E+03  0.7546771E-02  0.1231796E+00
         -2   -1    0    0    0  501 -0.00000000000E+00  0.00000000000E+00  0.21870218260E+02  0.21870218260E+02  0.00000000000E+00 0.  1.
          2   -1    0    0  501    0  0.00000000000E+00 -0.00000000000E+00 -0.87548832389E+03  0.87548832389E+03  0.00000000000E+00 0. -1.
          5    1    1    2  502    0  0.23884746557E+02 -0.23984803009E+02 -0.74365274767E+02  0.81841529706E+02  0.47000000000E+01 0. -1.
         -5    1    1    2    0  502 -0.47466864404E+02  0.68478533123E+02 -0.60835268915E+03  0.61405007704E+03  0.47000000000E+01 0. -1.
        -11    1    1    2    0    0  0.58509630238E+02 -0.35810592740E+02 -0.12997886963E+03  0.14697034372E+03  0.00000000000E+00 0.  1.
         11    1    1    2    0    0 -0.34927512391E+02 -0.86831373745E+01 -0.40921272089E+02  0.54496591690E+02  0.00000000000E+00 0. -1.
<mgrwt>
<rscale>  0 0.12711823E+03</rscale>
<asrwt>0</asrwt>
<pdfrwt beam="2">  1        2 0.13469050E+00 0.13476390E+03</pdfrwt>
<pdfrwt beam="1">  1       -2 0.33646492E-02 0.13476390E+03</pdfrwt>
<totfact> 0.10795317E+04</totfact>
</mgrwt>
</event>
<event>
 6    1  0.9240440E-006  0.1434808E+03  0.7546771E-02  0.1220200E+00
         -2   -1    0    0    0  501 -0.00000000000E+00  0.00000000000E+00  0.33207848879E+03  0.33207848879E+03  0.00000000000E+00 0.  1.
          2   -1    0    0  501    0  0.00000000000E+00 -0.00000000000E+00 -0.78788114238E+02  0.78788114238E+02  0.00000000000E+00 0. -1.
          5    1    1    2  502    0  0.60016180814E+02  0.77608201740E+02 -0.21198651490E+02  0.10048108161E+03  0.47000000000E+01 0. -1.
         -5    1    1    2    0  502 -0.21889740769E+02 -0.18321260820E+02  0.32400581987E+02  0.43436356454E+02  0.47000000000E+01 0. -1.
        -11    1    1    2    0    0 -0.62101897739E+02 -0.59990407985E+02  0.20853547185E+03  0.22570453645E+03  0.00000000000E+00 0.  1.
         11    1    1    2    0    0  0.23975457694E+02  0.70346706429E+00  0.33552972197E+02  0.41244628509E+02  0.00000000000E+00 0. -1.
<mgrwt>
<rscale>  0 0.13501385E+03</rscale>
<asrwt>0</asrwt>
<pdfrwt beam="2">  1        2 0.12121249E-01 0.14348082E+03</pdfrwt>
<pdfrwt beam="1">  1       -2 0.51088997E-01 0.14348082E+03</pdfrwt>
<totfact> 0.18038315E+03</totfact>
</mgrwt>
</event>
<event>
 6    1  0.9240440E-006  0.1664915E+03  0.7546771E-02  0.1188174E+00
         -2   -1    0    0    0  501 -0.00000000000E+00  0.00000000000E+00  0.28251035684E+02  0.28251035684E+02  0.00000000000E+00 0.  1.
          2   -1    0    0  501    0  0.00000000000E+00 -0.00000000000E+00 -0.85331031813E+03  0.85331031813E+03  0.00000000000E+00 0. -1.
          5    1    1    2  502    0 -0.41042175431E+02 -0.62029137119E+02 -0.17838123767E+03  0.19332364048E+03  0.47000000000E+01 0.  1.
         -5    1    1    2    0  502  0.80895183263E+02 -0.40471997792E+02 -0.28608189718E+03  0.30007824842E+03  0.47000000000E+01 0.  1.
        -11    1    1    2    0    0 -0.27925911967E+02  0.57483033316E+02 -0.32018199542E+03  0.32649757407E+03  0.00000000000E+00 0. -1.
         11    1    1    2    0    0 -0.11927095865E+02  0.45018101595E+02 -0.40414152171E+02  0.61661890846E+02  0.00000000000E+00 0.  1.
<mgrwt>
<rscale>  0 0.16046414E+03</rscale>
<asrwt>0</asrwt>
<pdfrwt beam="2">  1        2 0.13127851E+00 0.16649150E+03</pdfrwt>
<pdfrwt beam="1">  1       -2 0.43463131E-02 0.16649150E+03</pdfrwt>
<totfact> 0.77132534E+03</totfact>
</mgrwt>
</event>
<event>
 6    1  0.9240440E-006  0.1541824E+03  0.7546771E-02  0.1203745E+00
         -2   -1    0    0    0  501 -0.00000000000E+00  0.00000000000E+00  0.42804413606E+02  0.42804413606E+02  0.00000000000E+00 0.  1.
          2   -1    0    0  501    0  0.00000000000E+00 -0.00000000000E+00 -0.71817154281E+03  0.71817154281E+03  0.00000000000E+00 0. -1.
          5    1    1    2  502    0  0.27291752864E+02 -0.13202308321E+02 -0.67621360745E+02  0.74255499113E+02  0.47000000000E+01 0. -1.
         -5    1    1    2    0  502 -0.11755058973E+03  0.13089274393E+02 -0.51415679810E+03  0.52760664636E+03  0.47000000000E+01 0. -1.
        -11    1    1    2    0    0  0.10334997075E+03 -0.15083064586E+02 -0.61307747724E+02  0.12110885691E+03  0.00000000000E+00 0.  1.
         11    1    1    2    0    0 -0.13091133878E+02  0.15196098514E+02 -0.32281222632E+02  0.38004954031E+02  0.00000000000E+00 0. -1.
<mgrwt>
<rscale>  0 0.14736798E+03</rscale>
<asrwt>0</asrwt>
<pdfrwt beam="2">  1        2 0.11048793E+00 0.15418241E+03</pdfrwt>
<pdfrwt beam="1">  1       -2 0.65852946E-02 0.15418241E+03</pdfrwt>
<totfact> 0.50782529E+03</totfact>
</mgrwt>
</event>
<event>
 6    1  0.9240440E-006  0.1373564E+03  0.7546771E-02  0.1228355E+00
          2   -1    0    0  501    0  0.00000000000E+00  0.00000000000E+00  0.47682000920E+03  0.47682000920E+03  0.00000000000E+00 0.  1.
         -2   -1    0    0    0  501 -0.00000000000E+00 -0.00000000000E+00 -0.32363846143E+02  0.32363846143E+02  0.00000000000E+00 0. -1.
          5    1    1    2  502    0  0.54450594017E+02  0.49202300671E+02  0.10276208526E+03  0.12636403661E+03  0.47000000000E+01 0. -1.
         -5    1    1    2    0  502  0.23504778100E+01 -0.53184039317E+02  0.18387917947E+03  0.19148814435E+03  0.47000000000E+01 0. -1.
        -11    1    1    2    0    0 -0.27057595235E+02 -0.44012969918E+02  0.78265142012E+02  0.93779994855E+02  0.00000000000E+00 0. -1.
         11    1    1    2    0    0 -0.29743476592E+02  0.47994708563E+02  0.79549756312E+02  0.97551679530E+02  0.00000000000E+00 0.  1.
<mgrwt>
<rscale>  0 0.12939591E+03</rscale>
<asrwt>0</asrwt>
<pdfrwt beam="1">  1        2 0.73356919E-01 0.13735645E+03</pdfrwt>
<pdfrwt beam="2">  1       -2 0.49790536E-02 0.13735645E+03</pdfrwt>
<totfact> 0.12282070E+04</totfact>
</mgrwt>
</event>
<event>
 6    1  0.9240440E-006  0.2573177E+03  0.7546771E-02  0.1111067E+00
         -2   -1    0    0    0  501 -0.00000000000E+00  0.00000000000E+00  0.64707569609E+02  0.64707569609E+02  0.00000000000E+00 0.  1.
          2   -1    0    0  501    0  0.00000000000E+00 -0.00000000000E+00 -0.97048958193E+03  0.97048958193E+03  0.00000000000E+00 0. -1.
          5    1    1    2  502    0  0.16646365878E+02  0.35250033298E+02 -0.18591158881E+02  0.43444073623E+02  0.47000000000E+01 0. -1.
         -5    1    1    2    0  502  0.17449273398E+03  0.83291290320E+02 -0.48336535425E+03  0.52062396117E+03  0.47000000000E+01 0. -1.
        -11    1    1    2    0    0 -0.76993557674E+02  0.53449459958E+00 -0.11201312891E+03  0.13592363538E+03  0.00000000000E+00 0.  1.
         11    1    1    2    0    0 -0.11414554219E+03 -0.11907581822E+03 -0.29181237029E+03  0.33520548137E+03  0.00000000000E+00 0. -1.
<mgrwt>
<rscale>  0 0.25357431E+03</rscale>
<asrwt>0</asrwt>
<pdfrwt beam="2">  1        2 0.14930608E+00 0.25731772E+03</pdfrwt>
<pdfrwt beam="1">  1       -2 0.99550112E-02 0.25731772E+03</pdfrwt>
<totfact> 0.18293135E+03</totfact>
</mgrwt>
</event>
<event>
 6    1  0.9240440E-006  0.2492966E+03  0.7546771E-02  0.1113750E+00
         -2   -1    0    0    0  501 -0.00000000000E+00  0.00000000000E+00  0.27432215224E+02  0.27432215224E+02  0.00000000000E+00 0.  1.
          2   -1    0    0  501    0  0.00000000000E+00 -0.00000000000E+00 -0.56638531146E+03  0.56638531146E+03  0.00000000000E+00 0. -1.
          5    1    1    2  502    0  0.12410210608E+02  0.77261101484E+01 -0.33606539422E+03  0.33641603008E+03  0.47000000000E+01 0. -1.
         -5    1    1    2    0  502 -0.50099497547E+02  0.22218386435E+02 -0.58679957450E+02  0.80430365886E+02  0.47000000000E+01 0. -1.
        -11    1    1    2    0    0  0.12497631694E+01 -0.43490432244E+02 -0.22050583025E+02  0.48777123906E+02  0.00000000000E+00 0.  1.
         11    1    1    2    0    0  0.36439523770E+02  0.13545935661E+02 -0.12215716154E+03  0.12819400681E+03  0.00000000000E+00 0. -1.
<mgrwt>
<rscale>  0 0.24929664E+03</rscale>
<asrwt>0</asrwt>
<pdfrwt beam="2">  1        2 0.87136194E-01 0.24929664E+03</pdfrwt>
<pdfrwt beam="1">  1       -2 0.42203412E-02 0.24929664E+03</pdfrwt>
<totfact> 0.13525799E+04</totfact>
</mgrwt>
</event>
<event>
 6    1  0.9240440E-006  0.1257386E+03  0.7546771E-02  0.1249453E+00
         -1   -1    0    0    0  501 -0.00000000000E+00  0.00000000000E+00  0.32918629855E+02  0.32918629855E+02  0.00000000000E+00 0.  1.
          1   -1    0    0  501    0  0.00000000000E+00 -0.00000000000E+00 -0.41654106949E+03  0.41654106949E+03  0.00000000000E+00 0. -1.
          5    1    1    2  502    0 -0.13214879785E+02 -0.56112659516E+02 -0.11167977767E+03  0.12576854275E+03  0.47000000000E+01 0. -1.
         -5    1    1    2    0  502  0.34924990698E+01  0.65635124391E+02 -0.18831635691E+03  0.19951267474E+03  0.47000000000E+01 0. -1.
        -11    1    1    2    0    0 -0.18086312154E+02  0.30457813490E+02 -0.11679695012E+02  0.37298905688E+02  0.00000000000E+00 0.  1.
         11    1    1    2    0    0  0.27808692869E+02 -0.39980278365E+02 -0.71946610046E+02  0.86879576163E+02  0.00000000000E+00 0. -1.
<mgrwt>
<rscale>  0 0.11622783E+03</rscale>
<asrwt>0</asrwt>
<pdfrwt beam="2">  1        1 0.64083242E-01 0.12573858E+03</pdfrwt>
<pdfrwt beam="1">  1       -1 0.50644045E-02 0.12573858E+03</pdfrwt>
<totfact> 0.93820969E+03</totfact>
</mgrwt>
</event>
<event>
 6    1  0.9240440E-006  0.1288593E+03  0.7546771E-02  0.1243285E+00
          1   -1    0    0  501    0  0.00000000000E+00  0.00000000000E+00  0.45054587085E+02  0.45054587085E+02  0.00000000000E+00 0. -1.
         -1   -1    0    0    0  501 -0.00000000000E+00 -0.00000000000E+00 -0.28737845763E+03  0.28737845763E+03  0.00000000000E+00 0.  1.
          5    1    1    2  502    0  0.46101945257E+02 -0.33471284921E+02 -0.98145695438E+01  0.58001138317E+02  0.47000000000E+01 0.  1.
         -5    1    1    2    0  502 -0.16044331803E+02  0.42251128793E+02 -0.10570760787E+03  0.11505984021E+03  0.47000000000E+01 0.  1.
        -11    1    1    2    0    0  0.19121443933E+02 -0.35584677376E+02 -0.57362761641E+02  0.70159712836E+02  0.00000000000E+00 0. -1.
         11    1    1    2    0    0 -0.49179057386E+02  0.26804833504E+02 -0.69438931491E+02  0.89212353355E+02  0.00000000000E+00 0.  1.
<mgrwt>
<rscale>  0 0.11988600E+03</rscale>
<asrwt>0</asrwt>
<pdfrwt beam="1">  1        1 0.69314749E-02 0.12885934E+03</pdfrwt>
<pdfrwt beam="2">  1       -1 0.44212071E-01 0.12885934E+03</pdfrwt>
<totfact> 0.51811746E+03</totfact>
</mgrwt>
</event>
<event>
 6    1  0.9240440E-006  0.3408162E+03  0.7546771E-02  0.1066449E+00
          2   -1    0    0  501    0  0.00000000000E+00  0.00000000000E+00  0.42369555528E+03  0.42369555528E+03  0.00000000000E+00 0. -1.
         -2   -1    0    0    0  501 -0.00000000000E+00 -0.00000000000E+00 -0.68537237032E+02  0.68537237032E+02  0.00000000000E+00 0.  1.
          5    1    1    2  502    0  0.37073536712E+02  0.12190771835E+02  0.28662135120E+03  0.28930425335E+03  0.47000000000E+01 0.  1.
         -5    1    1    2    0  502 -0.41534002160E+01 -0.42011752614E+02  0.24464431310E+02  0.49018736116E+02  0.47000000000E+01 0.  1.
        -11    1    1    2    0    0  0.40997054307E+01  0.59644836352E+02  0.75961033084E+02  0.96666398688E+02  0.00000000000E+00 0. -1.
         11    1    1    2    0    0 -0.37019841927E+02 -0.29823855573E+02 -0.31888497342E+02  0.57243404164E+02  0.00000000000E+00 0.  1.
<mgrwt>
<rscale>  0 0.34081621E+03</rscale>
<asrwt>0</asrwt>
<pdfrwt beam="1">  1        2 0.65183930E-01 0.34081621E+03</pdfrwt>
<pdfrwt beam="2">  1       -2 0.10544191E-01 0.34081621E+03</pdfrwt>
<totfact> 0.45790341E+03</totfact>
</mgrwt>
</event>
<event>
 6    1  0.9240440E-006  0.1813126E+03  0.7546771E-02  0.1172627E+00
          2   -1    0    0  501    0  0.00000000000E+00  0.00000000000E+00  0.17316669983E+03  0.17316669983E+03  0.00000000000E+00 0. -1.
         -2   -1    0    0    0  501 -0.00000000000E+00 -0.00000000000E+00 -0.16851476290E+03  0.16851476290E+03  0.00000000000E+00 0.  1.
          5    1    1    2  502    0  0.10200322242E+03 -0.39367342072E+02 -0.25797958026E+02  0.11243695853E+03  0.47000000000E+01 0.  1.
         -5    1    1    2    0  502  0.29284080925E+02  0.40538912847E+02  0.49319364273E+02  0.70394961061E+02  0.47000000000E+01 0.  1.
        -11    1    1    2    0    0 -0.21425592645E+02  0.34622358307E+02 -0.14502569428E+02  0.43221386314E+02  0.00000000000E+00 0.  1.
         11    1    1    2    0    0 -0.10986171070E+03 -0.35793929082E+02 -0.43668998889E+01  0.11562815683E+03  0.00000000000E+00 0. -1.
<mgrwt>
<rscale>  0 0.17510396E+03</rscale>
<asrwt>0</asrwt>
<pdfrwt beam="1">  1        2 0.26641031E-01 0.18131259E+03</pdfrwt>
<pdfrwt beam="2">  1       -2 0.25925348E-01 0.18131259E+03</pdfrwt>
<totfact> 0.26156949E+03</totfact>
</mgrwt>
</event>
<event>
 6    1  0.9240440E-006  0.5350608E+03  0.7546771E-02  0.1063673E+00
          2   -1    0    0  501    0  0.00000000000E+00  0.00000000000E+00  0.20093515645E+04  0.20093515645E+04  0.00000000000E+00 0. -1.
         -2   -1    0    0    0  501 -0.00000000000E+00 -0.00000000000E+00 -0.67395194703E+02  0.67395194703E+02  0.00000000000E+00 0.  1.
          5    1    1    2  502    0  0.17904756789E+03  0.19735801255E+03  0.92155495941E+03  0.95931947228E+03  0.47000000000E+01 0. -1.
         -5    1    1    2    0  502 -0.18224109947E+03 -0.19696942461E+03  0.97641339585E+03  0.10126272671E+04  0.47000000000E+01 0.  1.
        -11    1    1    2    0    0 -0.11178355844E+02  0.35689773713E+02  0.53062875048E+02  0.64918289375E+02  0.00000000000E+00 0.  1.
         11    1    1    2    0    0  0.14371887428E+02 -0.36078361651E+02 -0.90748605012E+01  0.39881730414E+02  0.00000000000E+00 0. -1.
<mgrwt>
<rscale>  0 0.34743376E+03</rscale>
<asrwt>0</asrwt>
<pdfrwt beam="1">  1        2 0.30913096E+00 0.53506081E+03</pdfrwt>
<pdfrwt beam="2">  1       -2 0.10368493E-01 0.53506081E+03</pdfrwt>
<totfact> 0.44521369E+02</totfact>
</mgrwt>
</event>
<event>
 6    1  0.9240440E-006  0.1337553E+03  0.7546771E-02  0.1235070E+00
          4   -1    0    0  501    0  0.00000000000E+00  0.00000000000E+00  0.23078627122E+03  0.23078627122E+03  0.00000000000E+00 0. -1.
         -4   -1    0    0    0  501 -0.00000000000E+00 -0.00000000000E+00 -0.63610367528E+02  0.63610367528E+02  0.00000000000E+00 0.  1.
          5    1    1    2  502    0  0.26606009498E+02  0.83677510591E+02  0.83673024249E+02  0.12137986039E+03  0.47000000000E+01 0. -1.
         -5    1    1    2    0  502 -0.42340548166E+01 -0.45383705149E+02  0.44257031555E+02  0.63705437407E+02  0.47000000000E+01 0.  1.
        -11    1    1    2    0    0  0.13653613411E+02  0.59329965648E+01  0.49203417643E+02  0.51406205026E+02  0.00000000000E+00 0. -1.
         11    1    1    2    0    0 -0.36025568092E+02 -0.44226802007E+02 -0.99575697508E+01  0.57905135934E+02  0.00000000000E+00 0.  1.
<mgrwt>
<rscale>  0 0.12499938E+03</rscale>
<asrwt>0</asrwt>
<pdfrwt beam="1">  1        4 0.35505580E-01 0.13375526E+03</pdfrwt>
<pdfrwt beam="2">  1       -4 0.97862105E-02 0.13375526E+03</pdfrwt>
<totfact> 0.99613952E+02</totfact>
</mgrwt>
</event>
<event>
 6    1  0.9240440E-006  0.1351780E+03  0.7546771E-02  0.1235898E+00
          2   -1    0    0  501    0  0.00000000000E+00  0.00000000000E+00  0.17675033758E+03  0.17675033758E+03  0.00000000000E+00 0. -1.
         -2   -1    0    0    0  501 -0.00000000000E+00 -0.00000000000E+00 -0.90782622060E+02  0.90782622060E+02  0.00000000000E+00 0.  1.
          5    1    1    2  502    0  0.11335980545E+02  0.75989370569E+02  0.14988435998E+02  0.78419590079E+02  0.47000000000E+01 0.  1.
         -5    1    1    2    0  502 -0.98424116866E+01 -0.24543747231E+02  0.86618837974E+02  0.90687274124E+02  0.47000000000E+01 0.  1.
        -11    1    1    2    0    0  0.13615257819E+02 -0.14585968118E+02 -0.44810087166E+02  0.49051703571E+02  0.00000000000E+00 0.  1.
         11    1    1    2    0    0 -0.15108826678E+02 -0.36859655221E+02  0.29170528710E+02  0.49374391862E+02  0.00000000000E+00 0. -1.
<mgrwt>
<rscale>  0 0.12447119E+03</rscale>
<asrwt>0</asrwt>
<pdfrwt beam="1">  1        2 0.27192359E-01 0.13517801E+03</pdfrwt>
<pdfrwt beam="2">  1       -2 0.13966557E-01 0.13517801E+03</pdfrwt>
<totfact> 0.71517713E+03</totfact>
</mgrwt>
</event>
<event>
 6    1  0.9240440E-006  0.1408821E+03  0.7546771E-02  0.1222756E+00
         -1   -1    0    0    0  501 -0.00000000000E+00  0.00000000000E+00  0.10828177376E+03  0.10828177376E+03  0.00000000000E+00 0.  1.
          1   -1    0    0  501    0  0.00000000000E+00 -0.00000000000E+00 -0.14879743616E+03  0.14879743616E+03  0.00000000000E+00 0. -1.
          5    1    1    2  502    0 -0.54180663063E+02 -0.22192545908E+01  0.10725764772E+02  0.55476133344E+02  0.47000000000E+01 0.  1.
         -5    1    1    2    0  502  0.52737363646E+02 -0.62741303879E+02 -0.26597385278E+02  0.86297228463E+02  0.47000000000E+01 0.  1.
        -11    1    1    2    0    0 -0.43924027424E+02  0.40324463199E+02 -0.41815572555E+01  0.59773471863E+02  0.00000000000E+00 0.  1.
         11    1    1    2    0    0  0.45367326841E+02  0.24636095270E+02 -0.20462484635E+02  0.55532376253E+02  0.00000000000E+00 0. -1.
<mgrwt>
<rscale>  0 0.13321912E+03</rscale>
<asrwt>0</asrwt>
<pdfrwt beam="2">  1        1 0.22891913E-01 0.14088214E+03</pdfrwt>
<pdfrwt beam="1">  1       -1 0.16658734E-01 0.14088214E+03</pdfrwt>
<totfact> 0.55597097E+03</totfact>
</mgrwt>
</event>
<event>
 6    1  0.9240440E-006  0.1526879E+03  0.7546771E-02  0.1208513E+00
         -2   -1    0    0    0  501 -0.00000000000E+00  0.00000000000E+00  0.25065997067E+02  0.25065997067E+02  0.00000000000E+00 0.  1.
          2   -1    0    0  501    0  0.00000000000E+00 -0.00000000000E+00 -0.81424452252E+03  0.81424452252E+03  0.00000000000E+00 0. -1.
          5    1    1    2  502    0 -0.40870357345E+02  0.82547979245E+02 -0.22460888920E+03  0.24280815080E+03  0.47000000000E+01 0. -1.
         -5    1    1    2    0  502  0.37073139215E+02  0.50357177999E+01 -0.33991826645E+03  0.34200335374E+03  0.47000000000E+01 0. -1.
        -11    1    1    2    0    0 -0.27060771708E+02 -0.54528602850E+02 -0.18358607188E+03  0.19341535534E+03  0.00000000000E+00 0. -1.
         11    1    1    2    0    0  0.30857989838E+02 -0.33055094195E+02 -0.41065297924E+02  0.61083659703E+02  0.00000000000E+00 0.  1.
<mgrwt>
<rscale>  0 0.14364025E+03</rscale>
<asrwt>0</asrwt>
<pdfrwt beam="2">  1        2 0.12526836E+00 0.15268787E+03</pdfrwt>
<pdfrwt beam="1">  1       -2 0.38563082E-02 0.15268787E+03</pdfrwt>
<totfact> 0.97445921E+03</totfact>
</mgrwt>
</event>
<event>
 6    1  0.9240440E-006  0.1624567E+03  0.7546771E-02  0.1193389E+00
          2   -1    0    0  501    0  0.00000000000E+00  0.00000000000E+00  0.16410688351E+04  0.16410688351E+04  0.00000000000E+00 0. -1.
         -2   -1    0    0    0  501 -0.00000000000E+00 -0.00000000000E+00 -0.23351964412E+02  0.23351964412E+02  0.00000000000E+00 0.  1.
          5    1    1    2  502    0  0.11645754037E+02  0.29779306015E+02  0.35676073640E+03  0.35822164046E+03  0.47000000000E+01 0.  1.
         -5    1    1    2    0  502 -0.10603169579E+03 -0.72898467549E+02  0.10241020330E+04  0.10321647015E+04  0.47000000000E+01 0.  1.
        -11    1    1    2    0    0  0.59216804992E+02  0.50349995178E+02  0.74179616004E+02  0.10744471806E+03  0.00000000000E+00 0.  1.
         11    1    1    2    0    0  0.35169136762E+02 -0.72308336436E+01  0.16267448535E+03  0.16658973954E+03  0.00000000000E+00 0. -1.
<mgrwt>
<rscale>  0 0.15591334E+03</rscale>
<asrwt>0</asrwt>
<pdfrwt beam="1">  1        2 0.25247204E+00 0.16245674E+03</pdfrwt>
<pdfrwt beam="2">  1       -2 0.35926112E-02 0.16245674E+03</pdfrwt>
<totfact> 0.36934182E+03</totfact>
</mgrwt>
</event>
<event>
 6    1  0.9240440E-006  0.1341662E+03  0.7546771E-02  0.1233691E+00
         -3   -1    0    0    0  501 -0.00000000000E+00  0.00000000000E+00  0.25787796854E+02  0.25787796854E+02  0.00000000000E+00 0.  1.
          3   -1    0    0  501    0  0.00000000000E+00 -0.00000000000E+00 -0.55161782411E+03  0.55161782411E+03  0.00000000000E+00 0. -1.
          5    1    1    2  502    0  0.10594327778E+02  0.43396125399E+02 -0.27561215327E+03  0.27924829903E+03  0.47000000000E+01 0.  1.
         -5    1    1    2    0  502  0.36594981608E+02 -0.31207060843E+02 -0.36755134993E+02  0.60713287456E+02  0.47000000000E+01 0.  1.
        -11    1    1    2    0    0  0.11578772711E+02  0.13280238152E+02 -0.35448225904E+01  0.17972158192E+02  0.00000000000E+00 0.  1.
         11    1    1    2    0    0 -0.58768082097E+02 -0.25469302708E+02 -0.20991791641E+03  0.21947187629E+03  0.00000000000E+00 0. -1.
<mgrwt>
<rscale>  0 0.12588592E+03</rscale>
<asrwt>0</asrwt>
<pdfrwt beam="2">  1        3 0.84864283E-01 0.13416616E+03</pdfrwt>
<pdfrwt beam="1">  1       -3 0.39673533E-02 0.13416616E+03</pdfrwt>
<totfact> 0.99355773E+02</totfact>
</mgrwt>
</event>
<event>
 6    1  0.9240440E-006  0.2844373E+03  0.7546771E-02  0.1093290E+00
          2   -1    0    0  501    0  0.00000000000E+00  0.00000000000E+00  0.40129335832E+03  0.40129335832E+03  0.00000000000E+00 0. -1.
         -2   -1    0    0    0  501 -0.00000000000E+00 -0.00000000000E+00 -0.50402376844E+02  0.50402376844E+02  0.00000000000E+00 0.  1.
          5    1    1    2  502    0  0.25234498620E+02  0.19702295729E+02  0.32970552545E+02  0.46196403677E+02  0.47000000000E+01 0.  1.
         -5    1    1    2    0  502 -0.10361898259E+03 -0.49704070699E+02  0.21733053696E+03  0.24589030175E+03  0.47000000000E+01 0.  1.
        -11    1    1    2    0    0  0.52364976320E+02 -0.26429488325E+02  0.31115919005E+02  0.66398863044E+02  0.00000000000E+00 0.  1.
         11    1    1    2    0    0  0.26019507655E+02  0.56431263295E+02  0.69473972967E+02  0.93210166697E+02  0.00000000000E+00 0. -1.
<mgrwt>
<rscale>  0 0.28443726E+03</rscale>
<asrwt>0</asrwt>
<pdfrwt beam="1">  1        2 0.61737438E-01 0.28443726E+03</pdfrwt>
<pdfrwt beam="2">  1       -2 0.77542121E-02 0.28443726E+03</pdfrwt>
<totfact> 0.78615748E+03</totfact>
</mgrwt>
</event>
<event>
 6    1  0.9240440E-006  0.2515482E+03  0.7546771E-02  0.1112330E+00
         -2   -1    0    0    0  501 -0.00000000000E+00  0.00000000000E+00  0.15937955819E+02  0.15937955819E+02  0.00000000000E+00 0.  1.
          2   -1    0    0  501    0  0.00000000000E+00 -0.00000000000E+00 -0.99254422072E+03  0.99254422072E+03  0.00000000000E+00 0. -1.
          5    1    1    2  502    0 -0.19690843218E+02  0.66944806287E+02 -0.65734303470E+03  0.66105316856E+03  0.47000000000E+01 0.  1.
         -5    1    1    2    0  502  0.20536031137E+02 -0.21159986546E+02 -0.46429074902E+02  0.55201653976E+02  0.47000000000E+01 0.  1.
        -11    1    1    2    0    0  0.36242631025E+02 -0.15025190270E+02 -0.20676581973E+03  0.21045519441E+03  0.00000000000E+00 0. -1.
         11    1    1    2    0    0 -0.37087818944E+02 -0.30759629471E+02 -0.66068335566E+02  0.81772159588E+02  0.00000000000E+00 0.  1.
<mgrwt>
<rscale>  0 0.25154821E+03</rscale>
<asrwt>0</asrwt>
<pdfrwt beam="2">  1        2 0.15269913E+00 0.25154821E+03</pdfrwt>
<pdfrwt beam="1">  1       -2 0.24519929E-02 0.25154821E+03</pdfrwt>
<totfact> 0.15072732E+04</totfact>
</mgrwt>
</event>
<event>
 6    1  0.9240440E-006  0.2151411E+03  0.7546771E-02  0.1140900E+00
         -2   -1    0    0    0  501 -0.00000000000E+00  0.00000000000E+00  0.41650458565E+02  0.41650458565E+02  0.00000000000E+00 0.  1.
          2   -1    0    0  501    0  0.00000000000E+00 -0.00000000000E+00 -0.11615869548E+04  0.11615869548E+04  0.00000000000E+00 0. -1.
          5    1    1    2  502    0 -0.68738966967E+02  0.74263540418E+02 -0.26765787121E+03  0.28618690578E+03  0.47000000000E+01 0.  1.
         -5    1    1    2    0  502  0.36130119874E+02  0.97803359727E+02 -0.51707174907E+03  0.52749992078E+03  0.47000000000E+01 0.  1.
        -11    1    1    2    0    0 -0.10572783476E+02 -0.35394757969E+02 -0.17226860921E+02  0.40759506613E+02  0.00000000000E+00 0.  1.
         11    1    1    2    0    0  0.43181630569E+02 -0.13667214218E+03 -0.31798001504E+03  0.34879108020E+03  0.00000000000E+00 0. -1.
<mgrwt>
<rscale>  0 0.21084350E+03</rscale>
<asrwt>0</asrwt>
<pdfrwt beam="2">  1        2 0.17870569E+00 0.21514106E+03</pdfrwt>
<pdfrwt beam="1">  1       -2 0.64077626E-02 0.21514106E+03</pdfrwt>
<totfact> 0.28017279E+03</totfact>
</mgrwt>
</event>
<event>
 6    1  0.9240440E-006  0.1496083E+03  0.7546771E-02  0.1209627E+00
          2   -1    0    0  501    0  0.00000000000E+00  0.00000000000E+00  0.61499048934E+03  0.61499048934E+03  0.00000000000E+00 0. -1.
         -2   -1    0    0    0  501 -0.00000000000E+00 -0.00000000000E+00 -0.67422882977E+02  0.67422882977E+02  0.00000000000E+00 0.  1.
          5    1    1    2  502    0 -0.19386494129E+02 -0.27284581731E+02  0.11630077490E+03  0.12111252948E+03  0.47000000000E+01 0. -1.
         -5    1    1    2    0  502  0.66664237987E+02  0.94535188587E+02  0.42112926204E+03  0.43675275368E+03  0.47000000000E+01 0. -1.
        -11    1    1    2    0    0 -0.30559490865E+02 -0.18046311642E+01  0.40269682909E+02  0.50584449559E+02  0.00000000000E+00 0. -1.
         11    1    1    2    0    0 -0.16718252992E+02 -0.65445975692E+02 -0.30132113490E+02  0.73963639585E+02  0.00000000000E+00 0.  1.
<mgrwt>
<rscale>  0 0.14278746E+03</rscale>
<asrwt>0</asrwt>
<pdfrwt beam="1">  1        2 0.94613918E-01 0.14960825E+03</pdfrwt>
<pdfrwt beam="2">  1       -2 0.10372752E-01 0.14960825E+03</pdfrwt>
<totfact> 0.30053994E+03</totfact>
</mgrwt>
</event>
<event>
 6    1  0.9240440E-006  0.3484855E+03  0.7546771E-02  0.1113265E+00
          2   -1    0    0  501    0  0.00000000000E+00  0.00000000000E+00  0.29250653011E+04  0.29250653011E+04  0.00000000000E+00 0. -1.
         -2   -1    0    0    0  501 -0.00000000000E+00 -0.00000000000E+00 -0.17020258890E+02  0.17020258890E+02  0.00000000000E+00 0.  1.
          5    1    1    2  502    0  0.15142215954E+03 -0.25176678525E+02  0.16360732520E+04  0.16432651373E+04  0.47000000000E+01 0. -1.
         -5    1    1    2    0  502 -0.16476686337E+03  0.42882645280E+02  0.82869853997E+03  0.84602033112E+03  0.47000000000E+01 0.  1.
        -11    1    1    2    0    0  0.51498786214E+02 -0.15021371906E+02  0.23514667892E+03  0.24118815726E+03  0.00000000000E+00 0.  1.
         11    1    1    2    0    0 -0.38154082382E+02 -0.26845948492E+01  0.20812657131E+03  0.21161193430E+03  0.00000000000E+00 0. -1.
<mgrwt>
<rscale>  0 0.25006339E+03</rscale>
<asrwt>0</asrwt>
<pdfrwt beam="1">  1        2 0.45000965E+00 0.34848552E+03</pdfrwt>
<pdfrwt beam="2">  1       -2 0.26185037E-02 0.34848552E+03</pdfrwt>
<totfact> 0.11822366E+03</totfact>
</mgrwt>
</event>
<event>
 6    1  0.9240440E-006  0.2502815E+03  0.7546771E-02  0.1113127E+00
          1   -1    0    0  501    0  0.00000000000E+00  0.00000000000E+00  0.13670066474E+03  0.13670066474E+03  0.00000000000E+00 0. -1.
         -1   -1    0    0    0  501 -0.00000000000E+00 -0.00000000000E+00 -0.11455839515E+03  0.11455839515E+03  0.00000000000E+00 0.  1.
          5    1    1    2  502    0 -0.65854551660E+02  0.19340275626E+02  0.69134274373E+02  0.97532077434E+02  0.47000000000E+01 0.  1.
         -5    1    1    2    0  502  0.89528057914E+01 -0.14773357535E+01 -0.42312470187E+02  0.43528960312E+02  0.47000000000E+01 0.  1.
        -11    1    1    2    0    0  0.24765333801E+02 -0.51987973031E+02 -0.19879533628E+02  0.60920168708E+02  0.00000000000E+00 0.  1.
         11    1    1    2    0    0  0.32136412067E+02  0.34125033159E+02  0.15199999025E+02  0.49277853434E+02  0.00000000000E+00 0. -1.
<mgrwt>
<rscale>  0 0.25028151E+03</rscale>
<asrwt>0</asrwt>
<pdfrwt beam="1">  1        1 0.21030872E-01 0.25028151E+03</pdfrwt>
<pdfrwt beam="2">  1       -1 0.17624368E-01 0.25028151E+03</pdfrwt>
<totfact> 0.58537196E+03</totfact>
</mgrwt>
</event>
<event>
 6    1  0.9240440E-006  0.1263707E+03  0.7546771E-02  0.1249074E+00
          1   -1    0    0  501    0  0.00000000000E+00  0.00000000000E+00  0.24331920586E+03  0.24331920586E+03  0.00000000000E+00 0. -1.
         -1   -1    0    0    0  501 -0.00000000000E+00 -0.00000000000E+00 -0.58352372966E+02  0.58352372966E+02  0.00000000000E+00 0.  1.
          5    1    1    2  502    0  0.13615551264E+01 -0.49747694227E+02  0.34338096281E+02  0.60645542041E+02  0.47000000000E+01 0.  1.
         -5    1    1    2    0  502  0.48682593043E+01  0.67225533463E+02  0.13161971860E+03  0.14794868239E+03  0.47000000000E+01 0.  1.
        -11    1    1    2    0    0  0.15888866200E+00 -0.33120873581E+02 -0.27844204673E+02  0.43270281329E+02  0.00000000000E+00 0.  1.
         11    1    1    2    0    0 -0.63887030927E+01  0.15643034345E+02  0.46853222685E+02  0.49807073059E+02  0.00000000000E+00 0. -1.
<mgrwt>
<rscale>  0 0.11644825E+03</rscale>
<asrwt>0</asrwt>
<pdfrwt beam="1">  1        1 0.37433724E-01 0.12637070E+03</pdfrwt>
<pdfrwt beam="2">  1       -1 0.89772883E-02 0.12637070E+03</pdfrwt>
<totfact> 0.77746577E+03</totfact>
</mgrwt>
</event>
<event>
 6    1  0.9240440E-006  0.1970128E+03  0.7546771E-02  0.1156709E+00
         -2   -1    0    0    0  501 -0.00000000000E+00  0.00000000000E+00  0.25735876057E+03  0.25735876057E+03  0.00000000000E+00 0.  1.
          2   -1    0    0  501    0  0.00000000000E+00 -0.00000000000E+00 -0.15591908298E+03  0.15591908298E+03  0.00000000000E+00 0. -1.
          5    1    1    2  502    0 -0.42096357381E+02  0.13224371820E+03  0.21356984089E+02  0.14049453754E+03  0.47000000000E+01 0.  1.
         -5    1    1    2    0  502 -0.39359796278E+02 -0.35795346436E+01 -0.41571769223E+02  0.57552659605E+02  0.47000000000E+01 0.  1.
        -11    1    1    2    0    0  0.18653953821E+02 -0.31454442141E+01  0.58204498792E+02  0.61201531779E+02  0.00000000000E+00 0.  1.
         11    1    1    2    0    0  0.62802199838E+02 -0.12551873934E+03  0.63449963931E+02  0.15402911463E+03  0.00000000000E+00 0. -1.
<mgrwt>
<rscale>  0 0.19195604E+03</rscale>
<asrwt>0</asrwt>
<pdfrwt beam="2">  1        2 0.23987551E-01 0.19701283E+03</pdfrwt>
<pdfrwt beam="1">  1       -2 0.39593655E-01 0.19701283E+03</pdfrwt>
<totfact> 0.13572529E+03</totfact>
</mgrwt>
</event>
<event>
 6    1  0.9240440E-006  0.3968774E+03  0.7546771E-02  0.1044866E+00
         -1   -1    0    0    0  501 -0.00000000000E+00  0.00000000000E+00  0.10141565313E+04  0.10141565313E+04  0.00000000000E+00 0.  1.
          1   -1    0    0  501    0  0.00000000000E+00 -0.00000000000E+00 -0.38828247591E+02  0.38828247591E+02  0.00000000000E+00 0. -1.
          5    1    1    2  502    0  0.14551346245E+02  0.13009344860E+02  0.12267842989E+02  0.23528168284E+02  0.47000000000E+01 0.  1.
         -5    1    1    2    0  502  0.68778767693E+02 -0.15389953587E+03  0.55010712004E+03  0.57537424303E+03  0.47000000000E+01 0.  1.
        -11    1    1    2    0    0  0.16046175674E+02  0.28839966323E+02  0.38041667127E+02  0.50362603676E+02  0.00000000000E+00 0. -1.
         11    1    1    2    0    0 -0.99376289612E+02  0.11205022469E+03  0.37491165350E+03  0.40371976385E+03  0.00000000000E+00 0.  1.
<mgrwt>
<rscale>  0 0.39687742E+03</rscale>
<asrwt>0</asrwt>
<pdfrwt beam="2">  1        1 0.59735773E-02 0.39687742E+03</pdfrwt>
<pdfrwt beam="1">  1       -1 0.15602406E+00 0.39687742E+03</pdfrwt>
<totfact> 0.44225603E+02</totfact>
</mgrwt>
</event>
<event>
 6    1  0.9240440E-006  0.3116441E+03  0.7546771E-02  0.1079560E+00
          2   -1    0    0  501    0  0.00000000000E+00  0.00000000000E+00  0.13727231095E+03  0.13727231095E+03  0.00000000000E+00 0. -1.
         -2   -1    0    0    0  501 -0.00000000000E+00 -0.00000000000E+00 -0.17687843876E+03  0.17687843876E+03  0.00000000000E+00 0.  1.
          5    1    1    2  502    0 -0.73147249570E+02 -0.23376197203E+02  0.91405761091E+02  0.11947413894E+03  0.47000000000E+01 0.  1.
         -5    1    1    2    0  502  0.33386354053E+02 -0.66915541195E+01 -0.12443315127E+02  0.36556143462E+02  0.47000000000E+01 0.  1.
        -11    1    1    2    0    0  0.16149182303E+01  0.50815563155E+02 -0.28875744042E+02  0.58469120171E+02  0.00000000000E+00 0. -1.
         11    1    1    2    0    0  0.38145977287E+02 -0.20747811832E+02 -0.89692829738E+02  0.99651347133E+02  0.00000000000E+00 0.  1.
<mgrwt>
<rscale>  0 0.31164411E+03</rscale>
<asrwt>0</asrwt>
<pdfrwt beam="1">  1        2 0.21118817E-01 0.31164411E+03</pdfrwt>
<pdfrwt beam="2">  1       -2 0.27212067E-01 0.31164411E+03</pdfrwt>
<totfact> 0.31849830E+03</totfact>
</mgrwt>
</event>
<event>
 6    1  0.9240440E-006  0.2373714E+03  0.7546771E-02  0.1121556E+00
          2   -1    0    0  501    0  0.00000000000E+00  0.00000000000E+00  0.20377246438E+03  0.20377246438E+03  0.00000000000E+00 0. -1.
         -2   -1    0    0    0  501 -0.00000000000E+00 -0.00000000000E+00 -0.69127592145E+02  0.69127592145E+02  0.00000000000E+00 0.  1.
          5    1    1    2  502    0  0.30451235992E+02  0.18591946883E+02 -0.16990320947E+02  0.39795719220E+02  0.47000000000E+01 0.  1.
         -5    1    1    2    0  502 -0.27905420865E+00  0.43056834045E+01  0.13834995228E+03  0.13849698942E+03  0.47000000000E+01 0.  1.
        -11    1    1    2    0    0  0.20775977105E+02  0.43277402796E+01  0.27868373192E+02  0.35028799365E+02  0.00000000000E+00 0. -1.
         11    1    1    2    0    0 -0.50948158888E+02 -0.27225370567E+02 -0.14583132293E+02  0.59578548523E+02  0.00000000000E+00 0.  1.
<mgrwt>
<rscale>  0 0.23737144E+03</rscale>
<asrwt>0</asrwt>
<pdfrwt beam="1">  1        2 0.31349610E-01 0.23737144E+03</pdfrwt>
<pdfrwt beam="2">  1       -2 0.10635014E-01 0.23737144E+03</pdfrwt>
<totfact> 0.98560344E+03</totfact>
</mgrwt>
</event>
<event>
 6    1  0.1012675E-005  0.1710020E+03  0.7546771E-02  0.1183771E+00
         -3   -1    0    0    0  501 -0.00000000000E+00  0.00000000000E+00  0.98223927932E+02  0.98223927932E+02  0.00000000000E+00 0.  1.
          3   -1    0    0  501    0  0.00000000000E+00 -0.00000000000E+00 -0.44069163103E+03  0.44069163103E+03  0.00000000000E+00 0. -1.
          5    1    1    2  502    0 -0.90156202022E+01 -0.48174207490E+02 -0.68542049067E+02  0.84392761332E+02  0.47000000000E+01 0.  1.
         -5    1    1    2    0  502 -0.10767186125E+03  0.47287366118E+02 -0.28452399854E+03  0.30790472624E+03  0.47000000000E+01 0.  1.
        -11    1    1    2    0    0  0.80092271922E+02  0.98352970543E+01 -0.34581775271E+02  0.87791823484E+02  0.00000000000E+00 0. -1.
         11    1    1    2    0    0  0.36595209534E+02 -0.89484556822E+01  0.45180119773E+02  0.58826247905E+02  0.00000000000E+00 0.  1.
<mgrwt>
<rscale>  0 0.16444223E+03</rscale>
<asrwt>0</asrwt>
<pdfrwt beam="2">  1        3 0.67798712E-01 0.17100200E+03</pdfrwt>
<pdfrwt beam="1">  1       -3 0.15111374E-01 0.17100200E+03</pdfrwt>
<totfact> 0.18765386E+02</totfact>
</mgrwt>
</event>
<event>
 6    1  0.9240440E-006  0.3317356E+03  0.7546771E-02  0.1071901E+00
         -2   -1    0    0    0  501 -0.00000000000E+00  0.00000000000E+00  0.12001058654E+03  0.12001058654E+03  0.00000000000E+00 0.  1.
          2   -1    0    0  501    0  0.00000000000E+00 -0.00000000000E+00 -0.12609178590E+04  0.12609178590E+04  0.00000000000E+00 0. -1.
          5    1    1    2  502    0 -0.98752545325E+00 -0.14099437637E+03 -0.63499983182E+03  0.65048233319E+03  0.47000000000E+01 0. -1.
         -5    1    1    2    0  502  0.55101320163E+01 -0.16625569757E+03 -0.32336668681E+03  0.36367488595E+03  0.47000000000E+01 0. -1.
        -11    1    1    2    0    0 -0.15368091892E+01  0.93476250258E+02 -0.13998376752E+02  0.94531083229E+02  0.00000000000E+00 0.  1.
         11    1    1    2    0    0 -0.29857973738E+01  0.21377382368E+03 -0.16854237702E+03  0.27224014313E+03  0.00000000000E+00 0. -1.
<mgrwt>
<rscale>  0 0.32827785E+03</rscale>
<asrwt>0</asrwt>
<pdfrwt beam="2">  1        2 0.19398737E+00 0.33173556E+03</pdfrwt>
<pdfrwt beam="1">  1       -2 0.18463166E-01 0.33173556E+03</pdfrwt>
<totfact> 0.44437967E+02</totfact>
</mgrwt>
</event>
<event>
 6    1  0.9240440E-006  0.2975135E+03  0.7546771E-02  0.1088147E+00
         -2   -1    0    0    0  501 -0.00000000000E+00  0.00000000000E+00  0.47320283597E+02  0.47320283597E+02  0.00000000000E+00 0.  1.
          2   -1    0    0  501    0  0.00000000000E+00 -0.00000000000E+00 -0.18019448546E+04  0.18019448546E+04  0.00000000000E+00 0. -1.
          5    1    1    2  502    0 -0.15095927149E+01  0.24433453578E+02 -0.27633456087E+02  0.37215190705E+02  0.47000000000E+01 0.  1.
         -5    1    1    2    0  502 -0.24361781523E+03  0.88718832965E+02 -0.94140278421E+03  0.97646401027E+03  0.47000000000E+01 0.  1.
        -11    1    1    2    0    0  0.24114986271E+03 -0.85712991421E+02 -0.72787358433E+03  0.77155682095E+03  0.00000000000E+00 0. -1.
         11    1    1    2    0    0  0.39775452366E+01 -0.27439295122E+02 -0.57714746400E+02  0.64029116306E+02  0.00000000000E+00 0.  1.
<mgrwt>
<rscale>  0 0.29425739E+03</rscale>
<asrwt>0</asrwt>
<pdfrwt beam="2">  1        2 0.27722224E+00 0.29751351E+03</pdfrwt>
<pdfrwt beam="1">  1       -2 0.72800449E-02 0.29751351E+03</pdfrwt>
<totfact> 0.10329392E+03</totfact>
</mgrwt>
</event>
<event>
 6    1  0.9240440E-006  0.1307106E+03  0.7546771E-02  0.1243302E+00
         -1   -1    0    0    0  501 -0.00000000000E+00  0.00000000000E+00  0.19124124388E+03  0.19124124388E+03  0.00000000000E+00 0.  1.
          1   -1    0    0  501    0  0.00000000000E+00 -0.00000000000E+00 -0.66111518994E+02  0.66111518994E+02  0.00000000000E+00 0. -1.
          5    1    1    2  502    0  0.93261142525E+01  0.87695061249E+01 -0.36799721942E+02  0.39245256780E+02  0.47000000000E+01 0.  1.
         -5    1    1    2    0  502  0.11291117771E+02 -0.40955944378E+02  0.94337247192E+02  0.10356874494E+03  0.47000000000E+01 0.  1.
        -11    1    1    2    0    0 -0.48686339456E+02  0.39008729899E+02  0.54438899382E+02  0.82798758589E+02  0.00000000000E+00 0.  1.
         11    1    1    2    0    0  0.28069107433E+02 -0.68222916454E+01  0.13153300256E+02  0.31740002567E+02  0.00000000000E+00 0. -1.
<mgrwt>
<rscale>  0 0.11987584E+03</rscale>
<asrwt>0</asrwt>
<pdfrwt beam="2">  1        1 0.10171003E-01 0.13071064E+03</pdfrwt>
<pdfrwt beam="1">  1       -1 0.29421730E-01 0.13071064E+03</pdfrwt>
<totfact> 0.62704022E+03</totfact>
</mgrwt>
</event>
<event>
 6    1  0.9240440E-006  0.1730618E+03  0.7546771E-02  0.1180836E+00
         -1   -1    0    0    0  501 -0.00000000000E+00  0.00000000000E+00  0.45738032128E+02  0.45738032128E+02  0.00000000000E+00 0.  1.
          1   -1    0    0  501    0  0.00000000000E+00 -0.00000000000E+00 -0.60307813740E+03  0.60307813740E+03  0.00000000000E+00 0. -1.
          5    1    1    2  502    0  0.54198573701E+02  0.62920907987E+02 -0.15332368730E+03  0.17443270663E+03  0.47000000000E+01 0.  1.
         -5    1    1    2    0  502 -0.68479046992E+02  0.55850987740E+02 -0.21619741434E+03  0.23360677361E+03  0.47000000000E+01 0.  1.
        -11    1    1    2    0    0 -0.15945740255E+01 -0.74802407517E+02 -0.17789337392E+03  0.19298703407E+03  0.00000000000E+00 0. -1.
         11    1    1    2    0    0  0.15875047316E+02 -0.43969488210E+02 -0.99256297119E+01  0.47789655219E+02  0.00000000000E+00 0.  1.
<mgrwt>
<rscale>  0 0.16716599E+03</rscale>
<asrwt>0</asrwt>
<pdfrwt beam="2">  1        1 0.92781243E-01 0.17306176E+03</pdfrwt>
<pdfrwt beam="1">  1       -1 0.70366210E-02 0.17306176E+03</pdfrwt>
<totfact> 0.35953481E+03</totfact>
</mgrwt>
</event>
<event>
 6    1  0.9240440E-006  0.1254092E+03  0.7546771E-02  0.1249785E+00
         -2   -1    0    0    0  501 -0.00000000000E+00  0.00000000000E+00  0.73110750897E+02  0.73110750897E+02  0.00000000000E+00 0.  1.
          2   -1    0    0  501    0  0.00000000000E+00 -0.00000000000E+00 -0.16233057590E+03  0.16233057590E+03  0.00000000000E+00 0. -1.
          5    1    1    2  502    0  0.25425431360E+01 -0.56912811918E+02 -0.43576731446E+00  0.57164784432E+02  0.47000000000E+01 0.  1.
         -5    1    1    2    0  502 -0.12444530734E+02  0.54642964711E+02 -0.59359857931E+02  0.81770426630E+02  0.47000000000E+01 0.  1.
        -11    1    1    2    0    0  0.28427329497E+02  0.16885634509E+02  0.22144780064E+02  0.39794836338E+02  0.00000000000E+00 0.  1.
         11    1    1    2    0    0 -0.18525341898E+02 -0.14615787302E+02 -0.51568979822E+02  0.56711279397E+02  0.00000000000E+00 0. -1.
<mgrwt>
<rscale>  0 0.11603503E+03</rscale>
<asrwt>0</asrwt>
<pdfrwt beam="2">  1        2 0.24973934E-01 0.12540923E+03</pdfrwt>
<pdfrwt beam="1">  1       -2 0.11247808E-01 0.12540923E+03</pdfrwt>
<totfact> 0.11042537E+04</totfact>
</mgrwt>
</event>
<event>
 6    1  0.1189239E-005  0.1576825E+03  0.7546771E-02  0.1199585E+00
          1   -1    0    0  501    0  0.00000000000E+00  0.00000000000E+00  0.99987556786E+02  0.99987556786E+02  0.00000000000E+00 0. -1.
         -1   -1    0    0    0  501 -0.00000000000E+00 -0.00000000000E+00 -0.21806439234E+03  0.21806439234E+03  0.00000000000E+00 0.  1.
          5    1    1    2  502    0 -0.15753644311E+02 -0.57821789111E+02  0.32125931620E+02  0.68159387377E+02  0.47000000000E+01 0. -1.
         -5    1    1    2    0  502  0.60817002519E+02 -0.27075093628E+02 -0.64499961164E+02  0.92812194675E+02  0.47000000000E+01 0. -1.
        -11    1    1    2    0    0 -0.10784005540E+02  0.96660657422E+01 -0.71801270164E+02  0.73247184243E+02  0.00000000000E+00 0.  1.
         11    1    1    2    0    0 -0.34279352668E+02  0.75230816997E+02 -0.13901535851E+02  0.83833182836E+02  0.00000000000E+00 0. -1.
<mgrwt>
<rscale>  0 0.15072496E+03</rscale>
<asrwt>0</asrwt>
<pdfrwt beam="1">  1        1 0.15382701E-01 0.15768251E+03</pdfrwt>
<pdfrwt beam="2">  1       -1 0.33548368E-01 0.15768251E+03</pdfrwt>
<totfact> 0.29522522E+03</totfact>
</mgrwt>
</event>
<event>
 6    1  0.9240440E-006  0.1891981E+03  0.7546771E-02  0.1164268E+00
          2   -1    0    0  501    0  0.00000000000E+00  0.00000000000E+00  0.24820590313E+03  0.24820590313E+03  0.00000000000E+00 0. -1.
         -2   -1    0    0    0  501 -0.00000000000E+00 -0.00000000000E+00 -0.14935471408E+03  0.14935471408E+03  0.00000000000E+00 0.  1.
          5    1    1    2  502    0  0.45936824250E+02  0.35685689236E+02  0.12952303206E+03  0.14206324673E+03  0.47000000000E+01 0. -1.
         -5    1    1    2    0  502  0.78005228625E+02  0.33715276652E+02 -0.36386764365E+01  0.85187238121E+02  0.47000000000E+01 0. -1.
        -11    1    1    2    0    0 -0.24317599245E+02  0.90221785614E+00 -0.40899815151E+02  0.47591538213E+02  0.00000000000E+00 0.  1.
         11    1    1    2    0    0 -0.99624453630E+02 -0.70303183745E+02  0.13866648575E+02  0.12271859414E+03  0.00000000000E+00 0. -1.
<mgrwt>
<rscale>  0 0.18370136E+03</rscale>
<asrwt>0</asrwt>
<pdfrwt beam="1">  1        2 0.38185524E-01 0.18919808E+03</pdfrwt>
<pdfrwt beam="2">  1       -2 0.22977648E-01 0.18919808E+03</pdfrwt>
<totfact> 0.21871914E+03</totfact>
</mgrwt>
</event>
<event>
 6    1  0.9240440E-006  0.1265545E+03  0.7546771E-02  0.1247579E+00
          2   -1    0    0  501    0  0.00000000000E+00  0.00000000000E+00  0.34736725359E+03  0.34736725359E+03  0.00000000000E+00 0. -1.
         -2   -1    0    0    0  501 -0.00000000000E+00 -0.00000000000E+00 -0.37698631461E+02  0.37698631461E+02  0.00000000000E+00 0.  1.
          5    1    1    2  502    0 -0.32828205209E+02 -0.22627089818E+02  0.23267137891E+03  0.23610958646E+03  0.47000000000E+01 0. -1.
         -5    1    1    2    0  502  0.14683582761E+02  0.19729491134E+02 -0.38926226871E+01  0.25339750088E+02  0.47000000000E+01 0.  1.
        -11    1    1    2    0    0  0.12326818285E+02 -0.18287428648E+02 -0.14062370050E+02  0.26155893160E+02  0.00000000000E+00 0.  1.
         11    1    1    2    0    0  0.58178041635E+01  0.21185027331E+02  0.94952235947E+02  0.97460655341E+02  0.00000000000E+00 0. -1.
<mgrwt>
<rscale>  0 0.11732320E+03</rscale>
<asrwt>0</asrwt>
<pdfrwt beam="1">  1        2 0.53441114E-01 0.12655448E+03</pdfrwt>
<pdfrwt beam="2">  1       -2 0.57997897E-02 0.12655448E+03</pdfrwt>
<totfact> 0.13615928E+04</totfact>
</mgrwt>
</event>
<event>
 6    1  0.9240440E-006  0.1304961E+03  0.7546771E-02  0.1236234E+00
         -2   -1    0    0    0  501 -0.00000000000E+00  0.00000000000E+00  0.38902841151E+02  0.38902841151E+02  0.00000000000E+00 0.  1.
          2   -1    0    0  501    0  0.00000000000E+00 -0.00000000000E+00 -0.49292820696E+03  0.49292820696E+03  0.00000000000E+00 0. -1.
          5    1    1    2  502    0 -0.12293243311E+02 -0.61866276642E+02 -0.28244035668E+03  0.28943601209E+03  0.47000000000E+01 0. -1.
         -5    1    1    2    0  502  0.53003390972E+02  0.16093422796E+02 -0.96790623383E+02  0.11161931950E+03  0.47000000000E+01 0.  1.
        -11    1    1    2    0    0 -0.46176462148E+02 -0.13069368603E+02 -0.37399917852E+02  0.60842648755E+02  0.00000000000E+00 0. -1.
         11    1    1    2    0    0  0.54663144863E+01  0.58842222449E+02 -0.37394467898E+02  0.69933067758E+02  0.00000000000E+00 0.  1.
<mgrwt>
<rscale>  0 0.12425780E+03</rscale>
<asrwt>0</asrwt>
<pdfrwt beam="2">  1        2 0.75835108E-01 0.13049614E+03</pdfrwt>
<pdfrwt beam="1">  1       -2 0.59850525E-02 0.13049614E+03</pdfrwt>
<totfact> 0.89421118E+03</totfact>
</mgrwt>
</event>
<event>
 6    1  0.9240440E-006  0.2816450E+03  0.7546771E-02  0.1134480E+00
         -2   -1    0    0    0  501 -0.00000000000E+00  0.00000000000E+00  0.13192856293E+03  0.13192856293E+03  0.00000000000E+00 0.  1.
          2   -1    0    0  501    0  0.00000000000E+00 -0.00000000000E+00 -0.28500677357E+03  0.28500677357E+03  0.00000000000E+00 0. -1.
          5    1    1    2  502    0  0.89894145975E+02 -0.83714962379E+02 -0.53999443697E+02  0.13426534298E+03  0.47000000000E+01 0. -1.
         -5    1    1    2    0  502 -0.93727094187E+02  0.12785751517E+03 -0.79809387200E+02  0.17754982584E+03  0.47000000000E+01 0.  1.
        -11    1    1    2    0    0  0.22678614641E+02 -0.15402407314E+02  0.32789535101E+02  0.42739996786E+02  0.00000000000E+00 0.  1.
         11    1    1    2    0    0 -0.18845666429E+02 -0.28740145474E+02 -0.52058914844E+02  0.62380170886E+02  0.00000000000E+00 0. -1.
<mgrwt>
<rscale>  0 0.21920100E+03</rscale>
<asrwt>0</asrwt>
<pdfrwt beam="2">  1        2 0.43847196E-01 0.28164498E+03</pdfrwt>
<pdfrwt beam="1">  1       -2 0.20296702E-01 0.28164498E+03</pdfrwt>
<totfact> 0.23638484E+03</totfact>
</mgrwt>
</event>
<event>
 6    1  0.9240440E-006  0.1296873E+03  0.7546771E-02  0.1242616E+00
         -1   -1    0    0    0  501 -0.00000000000E+00  0.00000000000E+00  0.20970418003E+03  0.20970418003E+03  0.00000000000E+00 0.  1.
          1   -1    0    0  501    0  0.00000000000E+00 -0.00000000000E+00 -0.63383252045E+02  0.63383252045E+02  0.00000000000E+00 0. -1.
          5    1    1    2  502    0 -0.54205029505E+01  0.73179549017E+02  0.61529838104E+01  0.73787380061E+02  0.47000000000E+01 0.  1.
         -5    1    1    2    0  502  0.18625741021E+02 -0.41254775741E+02  0.49783225354E+02  0.67448752966E+02  0.47000000000E+01 0.  1.
        -11    1    1    2    0    0 -0.23914344450E+02 -0.60191247941E+02  0.70146090814E+02  0.95474374863E+02  0.00000000000E+00 0.  1.
         11    1    1    2    0    0  0.10709106379E+02  0.28266474665E+02  0.20238628005E+02  0.36376924182E+02  0.00000000000E+00 0. -1.
<mgrwt>
<rscale>  0 0.12029209E+03</rscale>
<asrwt>0</asrwt>
<pdfrwt beam="2">  1        1 0.97512696E-02 0.12968726E+03</pdfrwt>
<pdfrwt beam="1">  1       -1 0.32262181E-01 0.12968726E+03</pdfrwt>
<totfact> 0.56739455E+03</totfact>
</mgrwt>
</event>
<event>
 6    1  0.9240440E-006  0.1471724E+03  0.7546771E-02  0.1213813E+00
          2   -1    0    0  501    0  0.00000000000E+00  0.00000000000E+00  0.83668023780E+02  0.83668023780E+02  0.00000000000E+00 0. -1.
         -2   -1    0    0    0  501 -0.00000000000E+00 -0.00000000000E+00 -0.47955881965E+03  0.47955881965E+03  0.00000000000E+00 0.  1.
          5    1    1    2  502    0  0.39252704090E+00 -0.39786461108E+02 -0.33251154891E+02  0.52065784029E+02  0.47000000000E+01 0.  1.
         -5    1    1    2    0  502 -0.78073268533E+02  0.40519042538E+02  0.35924427108E+02  0.95130870545E+02  0.47000000000E+01 0.  1.
        -11    1    1    2    0    0  0.18158982439E+01 -0.35672846275E+02 -0.12419063027E+03  0.12922523784E+03  0.00000000000E+00 0.  1.
         11    1    1    2    0    0  0.75864843248E+02  0.34940264845E+02 -0.27437343781E+03  0.28680495101E+03  0.00000000000E+00 0. -1.
<mgrwt>
<rscale>  0 0.13964068E+03</rscale>
<asrwt>0</asrwt>
<pdfrwt beam="1">  1        2 0.12872004E-01 0.14717238E+03</pdfrwt>
<pdfrwt beam="2">  1       -2 0.73778278E-01 0.14717238E+03</pdfrwt>
<totfact> 0.78577980E+02</totfact>
</mgrwt>
</event>
<event>
 6    1  0.9240440E-006  0.1598662E+03  0.7546771E-02  0.1196565E+00
          2   -1    0    0  501    0  0.00000000000E+00  0.00000000000E+00  0.17554862049E+03  0.17554862049E+03  0.00000000000E+00 0. -1.
         -2   -1    0    0    0  501 -0.00000000000E+00 -0.00000000000E+00 -0.12723276358E+03  0.12723276358E+03  0.00000000000E+00 0.  1.
          5    1    1    2  502    0 -0.83616267436E+02  0.42819231666E+02  0.37395823153E+02  0.10122106683E+03  0.47000000000E+01 0. -1.
         -5    1    1    2    0  502  0.43442398566E+02  0.48378005315E+02  0.13721125066E+02  0.66618560961E+02  0.47000000000E+01 0. -1.
        -11    1    1    2    0    0  0.46902773806E+02 -0.81028972743E+02  0.31306583208E+02  0.98720143672E+02  0.00000000000E+00 0. -1.
         11    1    1    2    0    0 -0.67289049362E+01 -0.10168264238E+02 -0.34107674516E+02  0.36221612611E+02  0.00000000000E+00 0.  1.
<mgrwt>
<rscale>  0 0.15322536E+03</rscale>
<asrwt>0</asrwt>
<pdfrwt beam="1">  1        2 0.27007480E-01 0.15986619E+03</pdfrwt>
<pdfrwt beam="2">  1       -2 0.19574271E-01 0.15986619E+03</pdfrwt>
<totfact> 0.41636716E+03</totfact>
</mgrwt>
</event>
<event>
 6    1  0.9240440E-006  0.2552992E+03  0.7546771E-02  0.1110001E+00
          2   -1    0    0  501    0  0.00000000000E+00  0.00000000000E+00  0.40662718299E+03  0.40662718299E+03  0.00000000000E+00 0. -1.
         -2   -1    0    0    0  501 -0.00000000000E+00 -0.00000000000E+00 -0.40072134585E+02  0.40072134585E+02  0.00000000000E+00 0.  1.
          5    1    1    2  502    0  0.74173192998E+02 -0.53530990861E+02  0.16212229437E+03  0.18620676108E+03  0.47000000000E+01 0. -1.
         -5    1    1    2    0  502 -0.33686514283E+02  0.23207416226E+02  0.11126658250E+03  0.11864108813E+03  0.47000000000E+01 0. -1.
        -11    1    1    2    0    0 -0.37218255227E+02 -0.29171233516E+02  0.44190094631E+02  0.64721896222E+02  0.00000000000E+00 0.  1.
         11    1    1    2    0    0 -0.32684234885E+01  0.59494808151E+02  0.48976076911E+02  0.77129572141E+02  0.00000000000E+00 0. -1.
<mgrwt>
<rscale>  0 0.25529919E+03</rscale>
<asrwt>0</asrwt>
<pdfrwt beam="1">  1        2 0.62558025E-01 0.25529919E+03</pdfrwt>
<pdfrwt beam="2">  1       -2 0.61649441E-02 0.25529919E+03</pdfrwt>
<totfact> 0.11002273E+04</totfact>
</mgrwt>
</event>
<event>
 6    1  0.9240440E-006  0.2571701E+03  0.7546771E-02  0.1108856E+00
         -2   -1    0    0    0  501 -0.00000000000E+00  0.00000000000E+00  0.10124210794E+03  0.10124210794E+03  0.00000000000E+00 0.  1.
          2   -1    0    0  501    0  0.00000000000E+00 -0.00000000000E+00 -0.16331263126E+03  0.16331263126E+03  0.00000000000E+00 0. -1.
          5    1    1    2  502    0 -0.13947736055E+02 -0.58522618626E+01 -0.67421684213E+02  0.69257214873E+02  0.47000000000E+01 0.  1.
         -5    1    1    2    0  502  0.37055401323E+02  0.69563199958E+02  0.18540171159E+02  0.81104682369E+02  0.47000000000E+01 0.  1.
        -11    1    1    2    0    0 -0.33648882135E+02  0.12704229582E+02 -0.19828100131E+00  0.35967819417E+02  0.00000000000E+00 0. -1.
         11    1    1    2    0    0  0.10541216866E+02 -0.76415167677E+02 -0.12990729265E+02  0.78225022537E+02  0.00000000000E+00 0.  1.
<mgrwt>
<rscale>  0 0.25717010E+03</rscale>
<asrwt>0</asrwt>
<pdfrwt beam="2">  1        2 0.25125020E-01 0.25717010E+03</pdfrwt>
<pdfrwt beam="1">  1       -2 0.15575709E-01 0.25717010E+03</pdfrwt>
<totfact> 0.67944377E+03</totfact>
</mgrwt>
</event>
<event>
 6    1  0.9240440E-006  0.1626538E+03  0.7546771E-02  0.1193208E+00
          1   -1    0    0  501    0  0.00000000000E+00  0.00000000000E+00  0.44595879226E+03  0.44595879226E+03  0.00000000000E+00 0. -1.
         -1   -1    0    0    0  501 -0.00000000000E+00 -0.00000000000E+00 -0.63237888066E+02  0.63237888066E+02  0.00000000000E+00 0.  1.
          5    1    1    2  502    0  0.17250038481E+02 -0.45779915082E+02  0.21047710609E+03  0.21613899842E+03  0.47000000000E+01 0. -1.
         -5    1    1    2    0  502  0.85715936894E+02  0.30665119718E+02  0.10689276940E+03  0.14048389785E+03  0.47000000000E+01 0. -1.
        -11    1    1    2    0    0 -0.45935451924E+02  0.40416012512E+02  0.66244010892E+02  0.90176431455E+02  0.00000000000E+00 0. -1.
         11    1    1    2    0    0 -0.57030523450E+02 -0.25301217148E+02 -0.89298218565E+00  0.62397352599E+02  0.00000000000E+00 0.  1.
<mgrwt>
<rscale>  0 0.15606847E+03</rscale>
<asrwt>0</asrwt>
<pdfrwt beam="1">  1        1 0.68609043E-01 0.16265378E+03</pdfrwt>
<pdfrwt beam="2">  1       -1 0.97289061E-02 0.16265378E+03</pdfrwt>
<totfact> 0.32718792E+03</totfact>
</mgrwt>
</event>
<event>
 6    1  0.9240440E-006  0.3568443E+03  0.7546771E-02  0.1059840E+00
          2   -1    0    0  501    0  0.00000000000E+00  0.00000000000E+00  0.38091213601E+02  0.38091213601E+02  0.00000000000E+00 0. -1.
         -2   -1    0    0    0  501 -0.00000000000E+00 -0.00000000000E+00 -0.83574306979E+03  0.83574306979E+03  0.00000000000E+00 0.  1.
          5    1    1    2  502    0  0.20796150996E+02  0.11336194137E+02 -0.40740373365E+01  0.24488302799E+02  0.47000000000E+01 0.  1.
         -5    1    1    2    0  502  0.17913947137E+02  0.12494508434E+03 -0.44830550463E+03  0.46575970101E+03  0.47000000000E+01 0.  1.
        -11    1    1    2    0    0  0.51199796023E+01 -0.11391380663E+03 -0.27588679111E+03  0.29852318342E+03  0.00000000000E+00 0.  1.
         11    1    1    2    0    0 -0.43830077736E+02 -0.22367471848E+02 -0.69385523117E+02  0.85063096166E+02  0.00000000000E+00 0. -1.
<mgrwt>
<rscale>  0 0.35684432E+03</rscale>
<asrwt>0</asrwt>
<pdfrwt beam="1">  1        2 0.58601866E-02 0.35684432E+03</pdfrwt>
<pdfrwt beam="2">  1       -2 0.12857586E+00 0.35684432E+03</pdfrwt>
<totfact> 0.60007253E+02</totfact>
</mgrwt>
</event>
<event>
 6    1  0.9240440E-006  0.1574703E+03  0.7546771E-02  0.1202671E+00
         -2   -1    0    0    0  501 -0.00000000000E+00  0.00000000000E+00  0.36422077890E+02  0.36422077890E+02  0.00000000000E+00 0. -1.
          2   -1    0    0  501    0  0.00000000000E+00 -0.00000000000E+00 -0.55019964461E+03  0.55019964461E+03  0.00000000000E+00 0.  1.
          5    1    1    2  502    0 -0.69778828271E+02  0.68876966926E+02 -0.13530236661E+03  0.16715843340E+03  0.47000000000E+01 0. -1.
         -5    1    1    2    0  502 -0.20179727517E+02 -0.36034017127E+02 -0.18689095813E+03  0.19145754627E+03  0.47000000000E+01 0. -1.
        -11    1    1    2    0    0  0.60850841707E+02  0.16713734306E+01 -0.48094328473E+02  0.77580170513E+02  0.00000000000E+00 0. -1.
         11    1    1    2    0    0  0.29107714081E+02 -0.34514323230E+02 -0.14348991351E+03  0.15042557232E+03  0.00000000000E+00 0.  1.
<mgrwt>
<rscale>  0 0.14822511E+03</rscale>
<asrwt>0</asrwt>
<pdfrwt beam="2">  1        2 0.84646095E-01 0.15747026E+03</pdfrwt>
<pdfrwt beam="1">  1       -2 0.56033969E-02 0.15747026E+03</pdfrwt>
<totfact> 0.88536260E+03</totfact>
</mgrwt>
</event>
<event>
 6    1  0.9240440E-006  0.1466769E+03  0.7546771E-02  0.1214556E+00
          1   -1    0    0  501    0  0.00000000000E+00  0.00000000000E+00  0.10299689704E+03  0.10299689704E+03  0.00000000000E+00 0. -1.
         -1   -1    0    0    0  501 -0.00000000000E+00 -0.00000000000E+00 -0.17488568888E+03  0.17488568888E+03  0.00000000000E+00 0.  1.
          5    1    1    2  502    0  0.93727563308E+02  0.59353523636E+01  0.39256518334E+01  0.94114745250E+02  0.47000000000E+01 0. -1.
         -5    1    1    2    0  502 -0.25597162986E+02 -0.41266678116E+02 -0.22525319797E+02  0.53736705403E+02  0.47000000000E+01 0. -1.
        -11    1    1    2    0    0 -0.37089196799E+02  0.45711567442E+02 -0.71468982813E+02  0.92590341946E+02  0.00000000000E+00 0.  1.
         11    1    1    2    0    0 -0.31041203522E+02 -0.10380241690E+02  0.18179858933E+02  0.37440793320E+02  0.00000000000E+00 0. -1.
<mgrwt>
<rscale>  0 0.13909185E+03</rscale>
<asrwt>0</asrwt>
<pdfrwt beam="1">  1        1 0.15845677E-01 0.14667687E+03</pdfrwt>
<pdfrwt beam="2">  1       -1 0.26905491E-01 0.14667687E+03</pdfrwt>
<totfact> 0.41050613E+03</totfact>
</mgrwt>
</event>
<event>
 6    1  0.9240440E-006  0.1445195E+03  0.7546771E-02  0.1219575E+00
          1   -1    0    0  501    0  0.00000000000E+00  0.00000000000E+00  0.50772977532E+03  0.50772977532E+03  0.00000000000E+00 0. -1.
         -1   -1    0    0    0  501 -0.00000000000E+00 -0.00000000000E+00 -0.39096058734E+02  0.39096058734E+02  0.00000000000E+00 0.  1.
          5    1    1    2  502    0  0.14456900459E+02 -0.42657896923E+02  0.26700835732E+02  0.52571121061E+02  0.47000000000E+01 0. -1.
         -5    1    1    2    0  502  0.11902048202E+01 -0.28144575485E+02  0.34587366039E+03  0.34705073501E+03  0.47000000000E+01 0. -1.
        -11    1    1    2    0    0  0.22287394704E+02  0.44252908237E+02  0.86857206797E+02  0.99996111038E+02  0.00000000000E+00 0. -1.
         11    1    1    2    0    0 -0.37934499983E+02  0.26549564170E+02  0.92020136696E+01  0.47207866952E+02  0.00000000000E+00 0.  1.
<mgrwt>
<rscale>  0 0.13545793E+03</rscale>
<asrwt>0</asrwt>
<pdfrwt beam="1">  1        1 0.78112268E-01 0.14451945E+03</pdfrwt>
<pdfrwt beam="2">  1       -1 0.60147786E-02 0.14451945E+03</pdfrwt>
<totfact> 0.56850132E+03</totfact>
</mgrwt>
</event>
<event>
 6    1  0.9240440E-006  0.1765093E+03  0.7546771E-02  0.1176992E+00
         -1   -1    0    0    0  501 -0.00000000000E+00  0.00000000000E+00  0.31771704575E+02  0.31771704575E+02  0.00000000000E+00 0.  1.
          1   -1    0    0  501    0  0.00000000000E+00 -0.00000000000E+00 -0.10912460838E+04  0.10912460838E+04  0.00000000000E+00 0. -1.
          5    1    1    2  502    0  0.10045432959E+03  0.32859694611E+02 -0.45170360387E+03  0.46392786898E+03  0.47000000000E+01 0. -1.
         -5    1    1    2    0  502 -0.24008428426E+02  0.65570520435E+02 -0.36130027169E+03  0.36801613294E+03  0.47000000000E+01 0. -1.
        -11    1    1    2    0    0  0.60890541546E+01 -0.29306891334E+02 -0.10527505602E+02  0.31730093513E+02  0.00000000000E+00 0. -1.
         11    1    1    2    0    0 -0.82534955323E+02 -0.69123323713E+02 -0.23594299806E+03  0.25934369293E+03  0.00000000000E+00 0.  1.
<mgrwt>
<rscale>  0 0.17082376E+03</rscale>
<asrwt>0</asrwt>
<pdfrwt beam="2">  1        1 0.16788404E+00 0.17650927E+03</pdfrwt>
<pdfrwt beam="1">  1       -1 0.48879538E-02 0.17650927E+03</pdfrwt>
<totfact> 0.24786950E+03</totfact>
</mgrwt>
</event>
<event>
 6    1  0.9240440E-006  0.1382086E+03  0.7546771E-02  0.1230275E+00
         -2   -1    0    0    0  501 -0.00000000000E+00  0.00000000000E+00  0.56303914703E+02  0.56303914703E+02  0.00000000000E+00 0.  1.
          2   -1    0    0  501    0  0.00000000000E+00 -0.00000000000E+00 -0.25633832455E+03  0.25633832455E+03  0.00000000000E+00 0. -1.
          5    1    1    2  502    0 -0.34613627481E+02 -0.17150648664E+02  0.18302057330E+02  0.43003526129E+02  0.47000000000E+01 0.  1.
         -5    1    1    2    0  502 -0.24160660426E+02  0.21420409840E+02 -0.13196855031E+03  0.13594248688E+03  0.47000000000E+01 0.  1.
        -11    1    1    2    0    0  0.14037086414E+02  0.16506259162E+02 -0.81268279085E+02  0.84107250413E+02  0.00000000000E+00 0. -1.
         11    1    1    2    0    0  0.44737201492E+02 -0.20776020338E+02 -0.50996377882E+01  0.49588975831E+02  0.00000000000E+00 0.  1.
<mgrwt>
<rscale>  0 0.12811795E+03</rscale>
<asrwt>0</asrwt>
<pdfrwt beam="2">  1        2 0.39436665E-01 0.13820855E+03</pdfrwt>
<pdfrwt beam="1">  1       -2 0.86621409E-02 0.13820855E+03</pdfrwt>
<totfact> 0.10236458E+04</totfact>
</mgrwt>
</event>
<event>
 6    1  0.9240440E-006  0.1278433E+03  0.7546771E-02  0.1244768E+00
         -3   -1    0    0    0  501 -0.00000000000E+00  0.00000000000E+00  0.39748564219E+03  0.39748564219E+03  0.00000000000E+00 0.  1.
          3   -1    0    0  501    0  0.00000000000E+00 -0.00000000000E+00 -0.33914200585E+02  0.33914200585E+02  0.00000000000E+00 0. -1.
          5    1    1    2  502    0  0.13634190776E+02 -0.27059522860E+02 -0.80826958110E+01  0.31710075798E+02  0.47000000000E+01 0. -1.
         -5    1    1    2    0  502 -0.40421680127E+02  0.27896953176E+02  0.15692784818E+03  0.16450103876E+03  0.47000000000E+01 0. -1.
        -11    1    1    2    0    0  0.41115117321E+02 -0.30600254199E+01  0.21667207429E+03  0.22055975246E+03  0.00000000000E+00 0.  1.
         11    1    1    2    0    0 -0.14327627970E+02  0.22225951046E+01 -0.19457850482E+01  0.14628975757E+02  0.00000000000E+00 0. -1.
<mgrwt>
<rscale>  0 0.11899250E+03</rscale>
<asrwt>0</asrwt>
<pdfrwt beam="2">  1        3 0.52175696E-02 0.12784335E+03</pdfrwt>
<pdfrwt beam="1">  1       -3 0.61151634E-01 0.12784335E+03</pdfrwt>
<totfact> 0.12843688E+03</totfact>
</mgrwt>
</event>
<event>
 6    1  0.9240440E-006  0.1396361E+03  0.7546771E-02  0.1225958E+00
         -1   -1    0    0    0  501 -0.00000000000E+00  0.00000000000E+00  0.38618950442E+02  0.38618950442E+02  0.00000000000E+00 0.  1.
          1   -1    0    0  501    0  0.00000000000E+00 -0.00000000000E+00 -0.46054456680E+03  0.46054456680E+03  0.00000000000E+00 0. -1.
          5    1    1    2  502    0 -0.97849949027E+01 -0.26027345922E+02 -0.18625313549E+03  0.18837592559E+03  0.47000000000E+01 0.  1.
         -5    1    1    2    0  502  0.38122330725E+02  0.81435506447E+02 -0.13937976706E+03  0.16593330972E+03  0.47000000000E+01 0.  1.
        -11    1    1    2    0    0 -0.17079252602E+02 -0.65728505490E+02 -0.10662472919E+03  0.12641507101E+03  0.00000000000E+00 0. -1.
         11    1    1    2    0    0 -0.11258083221E+02  0.10320344965E+02  0.10332015373E+02  0.18439210929E+02  0.00000000000E+00 0.  1.
<mgrwt>
<rscale>  0 0.13101474E+03</rscale>
<asrwt>0</asrwt>
<pdfrwt beam="2">  1        1 0.70853004E-01 0.13963612E+03</pdfrwt>
<pdfrwt beam="1">  1       -1 0.59413775E-02 0.13963612E+03</pdfrwt>
<totfact> 0.65589636E+03</totfact>
</mgrwt>
</event>
<event>
 6    1  0.9240440E-006  0.2744695E+03  0.7546771E-02  0.1098749E+00
         -1   -1    0    0    0  501 -0.00000000000E+00  0.00000000000E+00  0.60235652395E+02  0.60235652395E+02  0.00000000000E+00 0.  1.
          1   -1    0    0  501    0  0.00000000000E+00 -0.00000000000E+00 -0.31266154530E+03  0.31266154530E+03  0.00000000000E+00 0. -1.
          5    1    1    2  502    0  0.59591129344E+02 -0.82297541407E+02 -0.18596101958E+03  0.21196126726E+03  0.47000000000E+01 0. -1.
         -5    1    1    2    0  502 -0.85336143508E+01  0.26424945516E+02 -0.17518014072E+02  0.33167320308E+02  0.47000000000E+01 0.  1.
        -11    1    1    2    0    0 -0.70415510435E+02  0.27187519745E+02 -0.10777925940E+02  0.76247419808E+02  0.00000000000E+00 0.  1.
         11    1    1    2    0    0  0.19357995441E+02  0.28685076146E+02 -0.38168933316E+02  0.51521190315E+02  0.00000000000E+00 0. -1.
<mgrwt>
<rscale>  0 0.27446947E+03</rscale>
<asrwt>0</asrwt>
<pdfrwt beam="2">  1        1 0.48101777E-01 0.27446947E+03</pdfrwt>
<pdfrwt beam="1">  1       -1 0.92670233E-02 0.27446947E+03</pdfrwt>
<totfact> 0.56656251E+03</totfact>
</mgrwt>
</event>
<event>
 6    1  0.9240440E-006  0.1269552E+03  0.7546771E-02  0.1249527E+00
          1   -1    0    0  501    0  0.00000000000E+00  0.00000000000E+00  0.34784166320E+03  0.34784166320E+03  0.00000000000E+00 0. -1.
         -1   -1    0    0    0  501 -0.00000000000E+00 -0.00000000000E+00 -0.38385311412E+02  0.38385311412E+02  0.00000000000E+00 0.  1.
          5    1    1    2  502    0 -0.66775091926E+02  0.26607278626E+02  0.16418904574E+03  0.17929582516E+03  0.47000000000E+01 0. -1.
         -5    1    1    2    0  502  0.51934383989E+02 -0.10089755097E+02  0.81978127395E+02  0.97680534240E+02  0.47000000000E+01 0. -1.
        -11    1    1    2    0    0  0.32984971104E+02 -0.34143628459E+02  0.75909623446E+01  0.48077212818E+02  0.00000000000E+00 0.  1.
         11    1    1    2    0    0 -0.18144263167E+02  0.17626104930E+02  0.55698216307E+02  0.61173402396E+02  0.00000000000E+00 0. -1.
<mgrwt>
<rscale>  0 0.11618452E+03</rscale>
<asrwt>0</asrwt>
<pdfrwt beam="1">  1        1 0.53514100E-01 0.12695521E+03</pdfrwt>
<pdfrwt beam="2">  1       -1 0.59054328E-02 0.12695521E+03</pdfrwt>
<totfact> 0.93712826E+03</totfact>
</mgrwt>
</event>
<event>
 6    1  0.9240440E-006  0.3070167E+03  0.7546771E-02  0.1081785E+00
         -1   -1    0    0    0  501 -0.00000000000E+00  0.00000000000E+00  0.53835507250E+02  0.53835507250E+02  0.00000000000E+00 0.  1.
          1   -1    0    0  501    0  0.00000000000E+00 -0.00000000000E+00 -0.43771875388E+03  0.43771875388E+03  0.00000000000E+00 0. -1.
          5    1    1    2  502    0 -0.27627249849E+02  0.98632038092E+02 -0.31498791450E+03  0.33125672846E+03  0.47000000000E+01 0. -1.
         -5    1    1    2    0  502  0.66608629370E+01 -0.22454203822E+02 -0.10125508138E+02  0.25945602314E+02  0.47000000000E+01 0. -1.
        -11    1    1    2    0    0  0.19037377300E+02 -0.18064309965E+02  0.22400816449E+02  0.34504167959E+02  0.00000000000E+00 0.  1.
         11    1    1    2    0    0  0.19290096124E+01 -0.58113524305E+02 -0.81170640445E+02  0.99847762396E+02  0.00000000000E+00 0. -1.
<mgrwt>
<rscale>  0 0.30701668E+03</rscale>
<asrwt>0</asrwt>
<pdfrwt beam="2">  1        1 0.67341345E-01 0.30701668E+03</pdfrwt>
<pdfrwt beam="1">  1       -1 0.82823860E-02 0.30701668E+03</pdfrwt>
<totfact> 0.43937938E+03</totfact>
</mgrwt>
</event>
<event>
 6    1  0.9240440E-006  0.1286504E+03  0.7546771E-02  0.1244386E+00
          4   -1    0    0  501    0  0.00000000000E+00  0.00000000000E+00  0.45514398206E+03  0.45514398206E+03  0.00000000000E+00 0. -1.
         -4   -1    0    0    0  501 -0.00000000000E+00 -0.00000000000E+00 -0.35426678487E+02  0.35426678487E+02  0.00000000000E+00 0.  1.
          5    1    1    2  502    0  0.27090439417E+02  0.72732510635E+02  0.25332325930E+03  0.26498806334E+03  0.47000000000E+01 0. -1.
         -5    1    1    2    0  502 -0.20418524976E+02 -0.43090121826E+02  0.96479456794E+02  0.10772209775E+03  0.47000000000E+01 0. -1.
        -11    1    1    2    0    0  0.13672413553E+02 -0.24850160832E+02 -0.13824166325E+02  0.31552701316E+02  0.00000000000E+00 0.  1.
         11    1    1    2    0    0 -0.20344327995E+02 -0.47922279763E+01  0.83738753802E+02  0.86307798134E+02  0.00000000000E+00 0. -1.
<mgrwt>
<rscale>  0 0.11922217E+03</rscale>
<asrwt>0</asrwt>
<pdfrwt beam="1">  1        4 0.70022147E-01 0.12865039E+03</pdfrwt>
<pdfrwt beam="2">  1       -4 0.54502586E-02 0.12865039E+03</pdfrwt>
<totfact> 0.64879938E+02</totfact>
</mgrwt>
</event>
<event>
 6    1  0.9240440E-006  0.1451439E+03  0.7546771E-02  0.1215991E+00
          2   -1    0    0  501    0  0.00000000000E+00  0.00000000000E+00  0.11777459972E+04  0.11777459972E+04  0.00000000000E+00 0. -1.
         -2   -1    0    0    0  501 -0.00000000000E+00 -0.00000000000E+00 -0.14796432434E+02  0.14796432434E+02  0.00000000000E+00 0.  1.
          5    1    1    2  502    0  0.96643772031E+02  0.21956605731E+02  0.35423743101E+03  0.36787002968E+03  0.47000000000E+01 0. -1.
         -5    1    1    2    0  502 -0.23110579265E+02 -0.27860912196E+02  0.30376948224E+03  0.30595476404E+03  0.47000000000E+01 0. -1.
        -11    1    1    2    0    0 -0.74602029038E+02 -0.31696552179E+02  0.33620535412E+03  0.34583836440E+03  0.00000000000E+00 0. -1.
         11    1    1    2    0    0  0.10688362719E+01  0.37600858645E+02  0.16873729736E+03  0.17287927147E+03  0.00000000000E+00 0.  1.
<mgrwt>
<rscale>  0 0.13804001E+03</rscale>
<asrwt>0</asrwt>
<pdfrwt beam="1">  1        2 0.18119162E+00 0.14514391E+03</pdfrwt>
<pdfrwt beam="2">  1       -2 0.22763751E-02 0.14514391E+03</pdfrwt>
<totfact> 0.12723450E+04</totfact>
</mgrwt>
</event>
<event>
 6    1  0.9240440E-006  0.1418487E+03  0.7546771E-02  0.1221476E+00
         -1   -1    0    0    0  501 -0.00000000000E+00  0.00000000000E+00  0.31792371727E+02  0.31792371727E+02  0.00000000000E+00 0.  1.
          1   -1    0    0  501    0  0.00000000000E+00 -0.00000000000E+00 -0.52937434901E+03  0.52937434901E+03  0.00000000000E+00 0. -1.
          5    1    1    2  502    0  0.61815225885E+02 -0.34043821971E+02 -0.28278708790E+03  0.29149739459E+03  0.47000000000E+01 0. -1.
         -5    1    1    2    0  502 -0.37580894891E+02 -0.28252726838E+02 -0.43233081571E+02  0.64044746675E+02  0.47000000000E+01 0. -1.
        -11    1    1    2    0    0 -0.22425559454E+02  0.86305877975E+02 -0.13853315989E+03  0.16475146943E+03  0.00000000000E+00 0. -1.
         11    1    1    2    0    0 -0.18087715399E+01 -0.24009329166E+02 -0.33028647912E+02  0.40873110040E+02  0.00000000000E+00 0.  1.
<mgrwt>
<rscale>  0 0.13411384E+03</rscale>
<asrwt>0</asrwt>
<pdfrwt beam="2">  1        1 0.81442197E-01 0.14184873E+03</pdfrwt>
<pdfrwt beam="1">  1       -1 0.48911347E-02 0.14184873E+03</pdfrwt>
<totfact> 0.73088508E+03</totfact>
</mgrwt>
</event>
<event>
 6    1  0.9240440E-006  0.2615641E+03  0.7546771E-02  0.1108436E+00
         -2   -1    0    0    0  501 -0.00000000000E+00  0.00000000000E+00  0.45483096998E+02  0.45483096998E+02  0.00000000000E+00 0.  1.
          2   -1    0    0  501    0  0.00000000000E+00 -0.00000000000E+00 -0.16438625537E+04  0.16438625537E+04  0.00000000000E+00 0. -1.
          5    1    1    2  502    0  0.30438035116E+01  0.12308692777E+02 -0.32482242792E+03  0.32510378088E+03  0.47000000000E+01 0.  1.
         -5    1    1    2    0  502  0.18299587851E+03  0.12252636561E+03 -0.80431902335E+03  0.83393727771E+03  0.47000000000E+01 0.  1.
        -11    1    1    2    0    0 -0.43302343200E+02 -0.31665181849E+01 -0.39375052940E+02  0.58613262647E+02  0.00000000000E+00 0.  1.
         11    1    1    2    0    0 -0.14273733882E+03 -0.13166854021E+03 -0.42986295244E+03  0.47169132943E+03  0.00000000000E+00 0. -1.
<mgrwt>
<rscale>  0 0.25786012E+03</rscale>
<asrwt>0</asrwt>
<pdfrwt beam="2">  1        2 0.25290193E+00 0.26156406E+03</pdfrwt>
<pdfrwt beam="1">  1       -2 0.69973997E-02 0.26156406E+03</pdfrwt>
<totfact> 0.13353725E+03</totfact>
</mgrwt>
</event>
<event>
 6    1  0.9240440E-006  0.1788813E+03  0.7546771E-02  0.1174542E+00
         -1   -1    0    0    0  501 -0.00000000000E+00  0.00000000000E+00  0.24573060384E+02  0.24573060384E+02  0.00000000000E+00 0.  1.
          1   -1    0    0  501    0  0.00000000000E+00 -0.00000000000E+00 -0.12634406990E+04  0.12634406990E+04  0.00000000000E+00 0. -1.
          5    1    1    2  502    0  0.10334528198E+03 -0.10612327507E+02 -0.29257127063E+03  0.31050427888E+03  0.47000000000E+01 0. -1.
         -5    1    1    2    0  502  0.21471658810E+02 -0.17590286827E+02 -0.55620549774E+03  0.55691749483E+03  0.47000000000E+01 0. -1.
        -11    1    1    2    0    0 -0.82140249678E+02  0.45480034744E+02 -0.15647634256E+03  0.18248369779E+03  0.00000000000E+00 0.  1.
         11    1    1    2    0    0 -0.42676691108E+02 -0.17277420410E+02 -0.23361452768E+03  0.23810828790E+03  0.00000000000E+00 0. -1.
<mgrwt>
<rscale>  0 0.17320866E+03</rscale>
<asrwt>0</asrwt>
<pdfrwt beam="2">  1        1 0.19437554E+00 0.17888133E+03</pdfrwt>
<pdfrwt beam="1">  1       -1 0.37804699E-02 0.17888133E+03</pdfrwt>
<totfact> 0.27531853E+03</totfact>
</mgrwt>
</event>
<event>
 6    1  0.9240440E-006  0.1911483E+03  0.7546771E-02  0.1167917E+00
          1   -1    0    0  501    0  0.00000000000E+00  0.00000000000E+00  0.62274721142E+03  0.62274721142E+03  0.00000000000E+00 0. -1.
         -1   -1    0    0    0  501 -0.00000000000E+00 -0.00000000000E+00 -0.47202209975E+02  0.47202209975E+02  0.00000000000E+00 0.  1.
          5    1    1    2  502    0  0.12351509561E+02  0.82151626946E+02  0.10688034314E+03  0.13545090383E+03  0.47000000000E+01 0. -1.
         -5    1    1    2    0  502  0.99889916790E+02  0.90447073293E+01  0.24969910537E+03  0.26913107481E+03  0.47000000000E+01 0. -1.
        -11    1    1    2    0    0 -0.59776370278E+02 -0.36240783882E+02  0.13570168242E+03  0.15264847025E+03  0.00000000000E+00 0. -1.
         11    1    1    2    0    0 -0.52465056073E+02 -0.54955550393E+02  0.83263870510E+02  0.11271897249E+03  0.00000000000E+00 0.  1.
<mgrwt>
<rscale>  0 0.17988204E+03</rscale>
<asrwt>0</asrwt>
<pdfrwt beam="1">  1        1 0.95807257E-01 0.19114830E+03</pdfrwt>
<pdfrwt beam="2">  1       -1 0.72618789E-02 0.19114830E+03</pdfrwt>
<totfact> 0.32903443E+03</totfact>
</mgrwt>
</event>
<event>
 6    1  0.9240440E-006  0.1251180E+03  0.7546771E-02  0.1245838E+00
         -2   -1    0    0    0  501 -0.00000000000E+00  0.00000000000E+00  0.27632113318E+02  0.27632113318E+02  0.00000000000E+00 0.  1.
          2   -1    0    0  501    0  0.00000000000E+00 -0.00000000000E+00 -0.90303627729E+03  0.90303627729E+03  0.00000000000E+00 0. -1.
          5    1    1    2  502    0  0.29186022707E+02 -0.21200812335E+02 -0.69334936439E+03  0.69430305305E+03  0.47000000000E+01 0.  1.
         -5    1    1    2    0  502 -0.33918090302E+02  0.24251563213E+02 -0.94195080499E+02  0.10311827364E+03  0.47000000000E+01 0.  1.
        -11    1    1    2    0    0  0.24733296086E+02  0.28820426640E+02 -0.87753854964E+02  0.95619516774E+02  0.00000000000E+00 0. -1.
         11    1    1    2    0    0 -0.20001228492E+02 -0.31871177518E+02 -0.10586412035E+00  0.37627547154E+02  0.00000000000E+00 0.  1.
<mgrwt>
<rscale>  0 0.11835375E+03</rscale>
<asrwt>0</asrwt>
<pdfrwt beam="2">  1        2 0.13892863E+00 0.12511802E+03</pdfrwt>
<pdfrwt beam="1">  1       -2 0.42510951E-02 0.12511802E+03</pdfrwt>
<totfact> 0.73039509E+03</totfact>
</mgrwt>
</event>
<event>
 6    1  0.9240440E-006  0.1250340E+03  0.7546771E-02  0.1251400E+00
          2   -1    0    0  501    0  0.00000000000E+00  0.00000000000E+00  0.20244325725E+03  0.20244325725E+03  0.00000000000E+00 0. -1.
         -2   -1    0    0    0  501 -0.00000000000E+00 -0.00000000000E+00 -0.59131590298E+02  0.59131590298E+02  0.00000000000E+00 0.  1.
          5    1    1    2  502    0 -0.40366104031E+02 -0.41922363951E+02  0.82450891453E+02  0.10103042341E+03  0.47000000000E+01 0. -1.
         -5    1    1    2    0  502  0.41981411979E+02  0.40829915970E+02  0.25067856160E+02  0.63874943462E+02  0.47000000000E+01 0. -1.
        -11    1    1    2    0    0  0.10171263928E+02  0.35906569748E+02 -0.93332984420E+01  0.38468777220E+02  0.00000000000E+00 0.  1.
         11    1    1    2    0    0 -0.11786571876E+02 -0.34814121766E+02  0.45126217777E+02  0.58200703448E+02  0.00000000000E+00 0. -1.
<mgrwt>
<rscale>  0 0.11510360E+03</rscale>
<asrwt>0</asrwt>
<pdfrwt beam="1">  1        2 0.31145116E-01 0.12503399E+03</pdfrwt>
<pdfrwt beam="2">  1       -2 0.90971678E-02 0.12503399E+03</pdfrwt>
<totfact> 0.12113779E+04</totfact>
</mgrwt>
</event>
<event>
 6    1  0.9240440E-006  0.2763475E+03  0.7546771E-02  0.1114354E+00
          2   -1    0    0  501    0  0.00000000000E+00  0.00000000000E+00  0.13208012386E+04  0.13208012386E+04  0.00000000000E+00 0. -1.
         -2   -1    0    0    0  501 -0.00000000000E+00 -0.00000000000E+00 -0.47657732966E+02  0.47657732966E+02  0.00000000000E+00 0.  1.
          5    1    1    2  502    0  0.41192743569E+02  0.11338763743E+03  0.93291884564E+03  0.94069828372E+03  0.47000000000E+01 0. -1.
         -5    1    1    2    0  502  0.77687714258E+02 -0.11433575022E+02  0.93098465690E+02  0.12188323059E+03  0.47000000000E+01 0.  1.
        -11    1    1    2    0    0 -0.22613700745E+02  0.11877016218E+02  0.13912347261E+02  0.29086016949E+02  0.00000000000E+00 0. -1.
         11    1    1    2    0    0 -0.96266757081E+02 -0.11383107862E+03  0.23321384709E+03  0.27679144035E+03  0.00000000000E+00 0.  1.
<mgrwt>
<rscale>  0 0.24834752E+03</rscale>
<asrwt>0</asrwt>
<pdfrwt beam="1">  1        2 0.20320016E+00 0.27634752E+03</pdfrwt>
<pdfrwt beam="2">  1       -2 0.73319599E-02 0.27634752E+03</pdfrwt>
<totfact> 0.18523281E+03</totfact>
</mgrwt>
</event>
<event>
 6    1  0.9240440E-006  0.1957777E+03  0.7546771E-02  0.1166261E+00
         -1   -1    0    0    0  501 -0.00000000000E+00  0.00000000000E+00  0.18126278330E+02  0.18126278330E+02  0.00000000000E+00 0.  1.
          1   -1    0    0  501    0  0.00000000000E+00 -0.00000000000E+00 -0.22110229097E+04  0.22110229097E+04  0.00000000000E+00 0. -1.
          5    1    1    2  502    0  0.26182483773E+02 -0.40354682133E+02 -0.30425317890E+03  0.30806835231E+03  0.47000000000E+01 0. -1.
         -5    1    1    2    0  502 -0.13637372078E+03  0.42280984746E+02 -0.14913011985E+04  0.14981277743E+04  0.47000000000E+01 0.  1.
        -11    1    1    2    0    0  0.67824632848E+01  0.30405810374E+02 -0.48242926288E+02  0.57427302301E+02  0.00000000000E+00 0.  1.
         11    1    1    2    0    0  0.10340877372E+03 -0.32332112986E+02 -0.34909932769E+03  0.36552575915E+03  0.00000000000E+00 0. -1.
<mgrwt>
<rscale>  0 0.18160244E+03</rscale>
<asrwt>0</asrwt>
<pdfrwt beam="2">  1        1 0.34015736E+00 0.19577775E+03</pdfrwt>
<pdfrwt beam="1">  1       -1 0.27886583E-02 0.19577775E+03</pdfrwt>
<totfact> 0.10410154E+03</totfact>
</mgrwt>
</event>
<event>
 6    1  0.9240440E-006  0.2937531E+03  0.7546771E-02  0.1088406E+00
          1   -1    0    0  501    0  0.00000000000E+00  0.00000000000E+00  0.20759601802E+03  0.20759601802E+03  0.00000000000E+00 0. -1.
         -1   -1    0    0    0  501 -0.00000000000E+00 -0.00000000000E+00 -0.10391683575E+03  0.10391683575E+03  0.00000000000E+00 0.  1.
          5    1    1    2  502    0 -0.14604737311E+01 -0.11787313383E+02 -0.40526843577E+02  0.42492220354E+02  0.47000000000E+01 0.  1.
         -5    1    1    2    0  502 -0.32894276432E+02 -0.76127109635E+02  0.88387689864E+02  0.12129239038E+03  0.47000000000E+01 0.  1.
        -11    1    1    2    0    0 -0.31686754893E+02  0.53378847682E+02  0.21649790356E+02  0.65742415821E+02  0.00000000000E+00 0.  1.
         11    1    1    2    0    0  0.66041505057E+02  0.34535575336E+02  0.34168545624E+02  0.81985827214E+02  0.00000000000E+00 0. -1.
<mgrwt>
<rscale>  0 0.29375310E+03</rscale>
<asrwt>0</asrwt>
<pdfrwt beam="1">  1        1 0.31937849E-01 0.29375310E+03</pdfrwt>
<pdfrwt beam="2">  1       -1 0.15987206E-01 0.29375310E+03</pdfrwt>
<totfact> 0.40447336E+03</totfact>
</mgrwt>
</event>
<event>
 6    1  0.9240440E-006  0.1379183E+03  0.7546771E-02  0.1227875E+00
         -2   -1    0    0    0  501 -0.00000000000E+00  0.00000000000E+00  0.99782973892E+01  0.99782973892E+01  0.00000000000E+00 0.  1.
          2   -1    0    0  501    0  0.00000000000E+00 -0.00000000000E+00 -0.15461287046E+04  0.15461287046E+04  0.00000000000E+00 0. -1.
          5    1    1    2  502    0  0.56844177719E+02  0.72088490470E+02 -0.81646829238E+03  0.82162678477E+03  0.47000000000E+01 0.  1.
         -5    1    1    2    0  502 -0.11152659984E+02 -0.35920465223E+02 -0.15418547200E+03  0.15877629364E+03  0.47000000000E+01 0.  1.
        -11    1    1    2    0    0  0.18944284441E+02 -0.38597650607E+02 -0.20685275545E+03  0.21127405657E+03  0.00000000000E+00 0. -1.
         11    1    1    2    0    0 -0.64635802176E+02  0.24296253605E+01 -0.35864388738E+03  0.36442986699E+03  0.00000000000E+00 0.  1.
<mgrwt>
<rscale>  0 0.12971808E+03</rscale>
<asrwt>0</asrwt>
<pdfrwt beam="2">  1        2 0.23786609E+00 0.13791833E+03</pdfrwt>
<pdfrwt beam="1">  1       -2 0.15351218E-02 0.13791833E+03</pdfrwt>
<totfact> 0.14276867E+04</totfact>
</mgrwt>
</event>
<event>
 6    1  0.9240440E-006  0.1259768E+03  0.7546771E-02  0.1250446E+00
         -4   -1    0    0    0  501 -0.00000000000E+00  0.00000000000E+00  0.92916957687E+02  0.92916957687E+02  0.00000000000E+00 0.  1.
          4   -1    0    0  501    0  0.00000000000E+00 -0.00000000000E+00 -0.15483978597E+03  0.15483978597E+03  0.00000000000E+00 0. -1.
          5    1    1    2  502    0  0.32741647158E+02  0.45340525076E+02 -0.26504028523E+02  0.62067158793E+02  0.47000000000E+01 0. -1.
         -5    1    1    2    0  502 -0.29798776260E+02 -0.60665414262E+02 -0.62519819076E+02  0.92190440564E+02  0.47000000000E+01 0. -1.
        -11    1    1    2    0    0  0.27656420786E+02 -0.26069541241E+02  0.11850331389E+02  0.39811166088E+02  0.00000000000E+00 0. -1.
         11    1    1    2    0    0 -0.30599291684E+02  0.41394430427E+02  0.15250687930E+02  0.53687978210E+02  0.00000000000E+00 0.  1.
<mgrwt>
<rscale>  0 0.11565275E+03</rscale>
<asrwt>0</asrwt>
<pdfrwt beam="2">  1        4 0.23821505E-01 0.12597683E+03</pdfrwt>
<pdfrwt beam="1">  1       -4 0.14294917E-01 0.12597683E+03</pdfrwt>
<totfact> 0.10908602E+03</totfact>
</mgrwt>
</event>
<event>
 6    1  0.9240440E-006  0.1357901E+03  0.7546771E-02  0.1231593E+00
          1   -1    0    0  501    0  0.00000000000E+00  0.00000000000E+00  0.14554346487E+03  0.14554346487E+03  0.00000000000E+00 0.  1.
         -1   -1    0    0    0  501 -0.00000000000E+00 -0.00000000000E+00 -0.19155521389E+03  0.19155521389E+03  0.00000000000E+00 0. -1.
          5    1    1    2  502    0 -0.41186307707E+02  0.89244622001E+00  0.14097042395E+02  0.43794120691E+02  0.47000000000E+01 0. -1.
         -5    1    1    2    0  502  0.87413553437E+02 -0.26926350251E+02  0.77779762004E+02  0.12015797535E+03  0.47000000000E+01 0. -1.
        -11    1    1    2    0    0 -0.10377120620E+02  0.27915270942E+02  0.89500617550E+00  0.29795100607E+02  0.00000000000E+00 0.  1.
         11    1    1    2    0    0 -0.35850125110E+02 -0.18813669117E+01 -0.13878355959E+03  0.14335148212E+03  0.00000000000E+00 0. -1.
<mgrwt>
<rscale>  0 0.12725048E+03</rscale>
<asrwt>0</asrwt>
<pdfrwt beam="1">  1        1 0.22391303E-01 0.13579007E+03</pdfrwt>
<pdfrwt beam="2">  1       -1 0.29470033E-01 0.13579007E+03</pdfrwt>
<totfact> 0.22589063E+03</totfact>
</mgrwt>
</event>
<event>
 6    1  0.9240440E-006  0.1524310E+03  0.7546771E-02  0.1205853E+00
          1   -1    0    0  501    0  0.00000000000E+00  0.00000000000E+00  0.92055935884E+03  0.92055935884E+03  0.00000000000E+00 0. -1.
         -1   -1    0    0    0  501 -0.00000000000E+00 -0.00000000000E+00 -0.22252318193E+02  0.22252318193E+02  0.00000000000E+00 0.  1.
          5    1    1    2  502    0  0.39764590817E+01  0.63502475181E+02  0.15434358295E+03  0.16701020382E+03  0.47000000000E+01 0. -1.
         -5    1    1    2    0  502  0.73274057981E+02 -0.23026358361E+02  0.43339114341E+03  0.44016959679E+03  0.47000000000E+01 0. -1.
        -11    1    1    2    0    0 -0.11623676908E+02 -0.49619241992E+02  0.20292139434E+03  0.20922301814E+03  0.00000000000E+00 0. -1.
         11    1    1    2    0    0 -0.65626840154E+02  0.91431251715E+01  0.10765091995E+03  0.12640885828E+03  0.00000000000E+00 0.  1.
<mgrwt>
<rscale>  0 0.14570445E+03</rscale>
<asrwt>0</asrwt>
<pdfrwt beam="1">  1        1 0.14162449E+00 0.15243097E+03</pdfrwt>
<pdfrwt beam="2">  1       -1 0.34234343E-02 0.15243097E+03</pdfrwt>
<totfact> 0.55780481E+03</totfact>
</mgrwt>
</event>
<event>
 6    1  0.9240440E-006  0.2603833E+03  0.7546771E-02  0.1106913E+00
         -3   -1    0    0    0  501 -0.00000000000E+00  0.00000000000E+00  0.42471756807E+02  0.42471756807E+02  0.00000000000E+00 0.  1.
          3   -1    0    0  501    0  0.00000000000E+00 -0.00000000000E+00 -0.39908555856E+03  0.39908555856E+03  0.00000000000E+00 0. -1.
          5    1    1    2  502    0 -0.31677656797E+01  0.35127789402E+02 -0.15325622720E+03  0.15733263331E+03  0.47000000000E+01 0.  1.
         -5    1    1    2    0  502 -0.11992792999E+02 -0.86099002269E+02 -0.12522353604E+03  0.15251193151E+03  0.47000000000E+01 0.  1.
        -11    1    1    2    0    0  0.42414802024E+02  0.24071657670E+02 -0.48284232736E+01  0.49007895333E+02  0.00000000000E+00 0.  1.
         11    1    1    2    0    0 -0.27254243345E+02  0.26899555197E+02 -0.73305615236E+02  0.82704855210E+02  0.00000000000E+00 0. -1.
<mgrwt>
<rscale>  0 0.26038329E+03</rscale>
<asrwt>0</asrwt>
<pdfrwt beam="2">  1        3 0.61397780E-01 0.26038329E+03</pdfrwt>
<pdfrwt beam="1">  1       -3 0.65341163E-02 0.26038329E+03</pdfrwt>
<totfact> 0.98441533E+02</totfact>
</mgrwt>
</event>
<event>
 6    1  0.9240440E-006  0.1623612E+03  0.7546771E-02  0.1193102E+00
          2   -1    0    0  501    0  0.00000000000E+00  0.00000000000E+00  0.82178534207E+02  0.82178534207E+02  0.00000000000E+00 0. -1.
         -2   -1    0    0    0  501 -0.00000000000E+00 -0.00000000000E+00 -0.27972634829E+03  0.27972634829E+03  0.00000000000E+00 0.  1.
          5    1    1    2  502    0 -0.43332013806E+02  0.42624963858E+02 -0.11292459865E+03  0.12833006641E+03  0.47000000000E+01 0. -1.
         -5    1    1    2    0  502 -0.76089018506E+01  0.47621400610E+02  0.26892160206E+02  0.55416346541E+02  0.47000000000E+01 0. -1.
        -11    1    1    2    0    0 -0.32778071040E+01  0.12354901599E+02 -0.39655678796E+02  0.41664858979E+02  0.00000000000E+00 0.  1.
         11    1    1    2    0    0  0.54218722761E+02 -0.10260126607E+03 -0.71859696850E+02  0.13649361057E+03  0.00000000000E+00 0. -1.
<mgrwt>
<rscale>  0 0.15615999E+03</rscale>
<asrwt>0</asrwt>
<pdfrwt beam="1">  1        2 0.12642851E-01 0.16236121E+03</pdfrwt>
<pdfrwt beam="2">  1       -2 0.43034823E-01 0.16236121E+03</pdfrwt>
<totfact> 0.24131175E+03</totfact>
</mgrwt>
</event>
<event>
 6    1  0.9240440E-006  0.2334219E+03  0.7546771E-02  0.1135082E+00
          1   -1    0    0  501    0  0.00000000000E+00  0.00000000000E+00  0.93258245724E+03  0.93258245724E+03  0.00000000000E+00 0. -1.
         -1   -1    0    0    0  501 -0.00000000000E+00 -0.00000000000E+00 -0.47478028923E+02  0.47478028923E+02  0.00000000000E+00 0.  1.
          5    1    1    2  502    0 -0.39320821806E+02  0.56978271285E+02  0.73469446022E+02  0.10105691429E+03  0.47000000000E+01 0.  1.
         -5    1    1    2    0  502 -0.17518090238E+02  0.57664270980E+02  0.41025870208E+03  0.41468824950E+03  0.47000000000E+01 0.  1.
        -11    1    1    2    0    0 -0.13058137077E+02 -0.17792347996E+02 -0.17863745043E+02  0.28393590440E+02  0.00000000000E+00 0.  1.
         11    1    1    2    0    0  0.69897049120E+02 -0.96850194269E+02  0.41924002526E+03  0.43592173195E+03  0.00000000000E+00 0. -1.
<mgrwt>
<rscale>  0 0.21839880E+03</rscale>
<asrwt>0</asrwt>
<pdfrwt beam="1">  1        1 0.14347421E+00 0.23342194E+03</pdfrwt>
<pdfrwt beam="2">  1       -1 0.73043129E-02 0.23342194E+03</pdfrwt>
<totfact> 0.17805418E+03</totfact>
</mgrwt>
</event>
<event>
 6    1  0.9240440E-006  0.3745645E+03  0.7546771E-02  0.1052961E+00
          2   -1    0    0  501    0  0.00000000000E+00  0.00000000000E+00  0.32598086469E+02  0.32598086469E+02  0.00000000000E+00 0.  1.
         -2   -1    0    0    0  501 -0.00000000000E+00 -0.00000000000E+00 -0.10759721785E+04  0.10759721785E+04  0.00000000000E+00 0. -1.
          5    1    1    2  502    0  0.12286029087E+03  0.28935914344E+02 -0.27321084848E+03  0.30099534206E+03  0.47000000000E+01 0.  1.
         -5    1    1    2    0  502  0.14471413004E+02  0.30102226403E+02 -0.35857872536E+03  0.36016157222E+03  0.47000000000E+01 0.  1.
        -11    1    1    2    0    0 -0.75545868002E+02 -0.60359593064E+01 -0.10060789677E+03  0.12595856410E+03  0.00000000000E+00 0.  1.
         11    1    1    2    0    0 -0.61785835873E+02 -0.53002181440E+02 -0.31097662145E+03  0.32145478662E+03  0.00000000000E+00 0. -1.
<mgrwt>
<rscale>  0 0.37456446E+03</rscale>
<asrwt>0</asrwt>
<pdfrwt beam="1">  1        2 0.50150907E-02 0.37456446E+03</pdfrwt>
<pdfrwt beam="2">  1       -2 0.16553417E+00 0.37456446E+03</pdfrwt>
<totfact> 0.38404069E+02</totfact>
</mgrwt>
</event>
<event>
 6    1  0.9240440E-006  0.1649276E+03  0.7546771E-02  0.1189534E+00
         -2   -1    0    0    0  501 -0.00000000000E+00  0.00000000000E+00  0.14259328901E+03  0.14259328901E+03  0.00000000000E+00 0.  1.
          2   -1    0    0  501    0  0.00000000000E+00 -0.00000000000E+00 -0.23015091429E+03  0.23015091429E+03  0.00000000000E+00 0. -1.
          5    1    1    2  502    0  0.13033994270E+02  0.29243779767E+02 -0.31362750514E+02  0.45064351560E+02  0.47000000000E+01 0. -1.
         -5    1    1    2    0  502  0.24407148898E+02 -0.13011012027E+03 -0.11233313075E+03  0.17368124418E+03  0.47000000000E+01 0. -1.
        -11    1    1    2    0    0 -0.50417441035E+02  0.77821825693E+02  0.87192664551E+00  0.92730335764E+02  0.00000000000E+00 0.  1.
         11    1    1    2    0    0  0.12976297868E+02  0.23044514813E+02  0.55266329346E+02  0.61268271795E+02  0.00000000000E+00 0. -1.
<mgrwt>
<rscale>  0 0.15926074E+03</rscale>
<asrwt>0</asrwt>
<pdfrwt beam="2">  1        2 0.35407833E-01 0.16492765E+03</pdfrwt>
<pdfrwt beam="1">  1       -2 0.21937429E-01 0.16492765E+03</pdfrwt>
<totfact> 0.25572267E+03</totfact>
</mgrwt>
</event>
<event>
 6    1  0.9240440E-006  0.1405143E+03  0.7546771E-02  0.1223370E+00
         -1   -1    0    0    0  501 -0.00000000000E+00  0.00000000000E+00  0.52537748382E+02  0.52537748382E+02  0.00000000000E+00 0.  1.
          1   -1    0    0  501    0  0.00000000000E+00 -0.00000000000E+00 -0.30598091279E+03  0.30598091279E+03  0.00000000000E+00 0. -1.
          5    1    1    2  502    0  0.79192707656E+02  0.93745171607E+01 -0.97571587659E+02  0.12610182884E+03  0.47000000000E+01 0.  1.
         -5    1    1    2    0  502 -0.38275033727E+02  0.40072415555E+02 -0.27628139719E+02  0.62098154558E+02  0.47000000000E+01 0.  1.
        -11    1    1    2    0    0 -0.21858814307E+02  0.16329886232E+02 -0.28371704068E+01  0.27432143248E+02  0.00000000000E+00 0.  1.
         11    1    1    2    0    0 -0.19058859621E+02 -0.65776818948E+02 -0.12540626662E+03  0.14288653452E+03  0.00000000000E+00 0. -1.
<mgrwt>
<rscale>  0 0.13279233E+03</rscale>
<asrwt>0</asrwt>
<pdfrwt beam="2">  1        1 0.47073986E-01 0.14051428E+03</pdfrwt>
<pdfrwt beam="1">  1       -1 0.80827307E-02 0.14051428E+03</pdfrwt>
<totfact> 0.69153602E+03</totfact>
</mgrwt>
</event>
<event>
 6    1  0.9240440E-006  0.3026948E+03  0.7546771E-02  0.1083901E+00
          2   -1    0    0  501    0  0.00000000000E+00  0.00000000000E+00  0.14387762357E+04  0.14387762357E+04  0.00000000000E+00 0.  1.
         -2   -1    0    0    0  501 -0.00000000000E+00 -0.00000000000E+00 -0.15920495629E+02  0.15920495629E+02  0.00000000000E+00 0. -1.
          5    1    1    2  502    0  0.21511630987E+02  0.76033390292E+02  0.25638047584E+03  0.26832231569E+03  0.47000000000E+01 0.  1.
         -5    1    1    2    0  502 -0.28970431551E+02  0.20721090999E+02  0.71190312173E+03  0.71280908682E+03  0.47000000000E+01 0.  1.
        -11    1    1    2    0    0 -0.40519254396E+02 -0.58154236402E+02  0.25943300958E+03  0.26894090735E+03  0.00000000000E+00 0. -1.
         11    1    1    2    0    0  0.47978054961E+02 -0.38600244889E+02  0.19513913292E+03  0.20462442146E+03  0.00000000000E+00 0.  1.
<mgrwt>
<rscale>  0 0.30269477E+03</rscale>
<asrwt>0</asrwt>
<pdfrwt beam="1">  1        2 0.22135009E+00 0.30269477E+03</pdfrwt>
<pdfrwt beam="2">  1       -2 0.24493082E-02 0.30269477E+03</pdfrwt>
<totfact> 0.84500329E+03</totfact>
</mgrwt>
</event>
<event>
 6    1  0.9240440E-006  0.1366040E+03  0.7546771E-02  0.1229666E+00
          1   -1    0    0  501    0  0.00000000000E+00  0.00000000000E+00  0.10868196756E+03  0.10868196756E+03  0.00000000000E+00 0. -1.
         -1   -1    0    0    0  501 -0.00000000000E+00 -0.00000000000E+00 -0.14119300126E+03  0.14119300126E+03  0.00000000000E+00 0.  1.
          5    1    1    2  502    0 -0.29604266038E+02  0.24338207753E+02 -0.18792610675E+02  0.42941974108E+02  0.47000000000E+01 0.  1.
         -5    1    1    2    0  502  0.83628457609E+02 -0.35130194662E+02  0.23143175001E+02  0.93731243714E+02  0.47000000000E+01 0.  1.
        -11    1    1    2    0    0 -0.73192601999E+02  0.33482128630E+01 -0.26879023418E+01  0.73318431079E+02  0.00000000000E+00 0. -1.
         11    1    1    2    0    0  0.19168410428E+02  0.74437740454E+01 -0.34173695691E+02  0.39883319917E+02  0.00000000000E+00 0.  1.
<mgrwt>
<rscale>  0 0.12852154E+03</rscale>
<asrwt>0</asrwt>
<pdfrwt beam="1">  1        1 0.16720303E-01 0.13660396E+03</pdfrwt>
<pdfrwt beam="2">  1       -1 0.21722000E-01 0.13660396E+03</pdfrwt>
<totfact> 0.54158385E+03</totfact>
</mgrwt>
</event>
<event>
 6    1  0.9240440E-006  0.2427588E+03  0.7546771E-02  0.1119166E+00
         -2   -1    0    0    0  501 -0.00000000000E+00  0.00000000000E+00  0.57237191551E+02  0.57237191551E+02  0.00000000000E+00 0.  1.
          2   -1    0    0  501    0  0.00000000000E+00 -0.00000000000E+00 -0.11440922993E+04  0.11440922993E+04  0.00000000000E+00 0. -1.
          5    1    1    2  502    0  0.35542435948E+02  0.66928012838E+02 -0.47200205688E+03  0.47806971809E+03  0.47000000000E+01 0.  1.
         -5    1    1    2    0  502 -0.68486056010E+01  0.13918312224E+03 -0.29216719251E+03  0.32373230191E+03  0.47000000000E+01 0.  1.
        -11    1    1    2    0    0 -0.14414206602E+01 -0.16403236219E+03 -0.30509454500E+03  0.34639771207E+03  0.00000000000E+00 0. -1.
         11    1    1    2    0    0 -0.27252409687E+02 -0.42078772888E+02 -0.17591313338E+02  0.53129758765E+02  0.00000000000E+00 0.  1.
<mgrwt>
<rscale>  0 0.24094282E+03</rscale>
<asrwt>0</asrwt>
<pdfrwt beam="2">  1        2 0.17601420E+00 0.24275881E+03</pdfrwt>
<pdfrwt beam="1">  1       -2 0.88057220E-02 0.24275881E+03</pdfrwt>
<totfact> 0.17491075E+03</totfact>
</mgrwt>
</event>
<event>
 6    1  0.9240440E-006  0.1251009E+03  0.7546771E-02  0.1249662E+00
          1   -1    0    0  501    0  0.00000000000E+00  0.00000000000E+00  0.60985072443E+03  0.60985072443E+03  0.00000000000E+00 0. -1.
         -1   -1    0    0    0  501 -0.00000000000E+00 -0.00000000000E+00 -0.20439138523E+02  0.20439138523E+02  0.00000000000E+00 0.  1.
          5    1    1    2  502    0  0.52117373838E+02 -0.21307332089E+02  0.11656977908E+03  0.12954082929E+03  0.47000000000E+01 0.  1.
         -5    1    1    2    0  502 -0.52411720720E+02  0.26186474969E+02  0.28769484192E+03  0.29363775644E+03  0.47000000000E+01 0.  1.
        -11    1    1    2    0    0 -0.26232221677E+02  0.14087241806E+02  0.14030927539E+02  0.32915752512E+02  0.00000000000E+00 0.  1.
         11    1    1    2    0    0  0.26526568559E+02 -0.18966384685E+02  0.17111603736E+03  0.17419552471E+03  0.00000000000E+00 0. -1.
<mgrwt>
<rscale>  0 0.11610649E+03</rscale>
<asrwt>0</asrwt>
<pdfrwt beam="1">  1        1 0.93823174E-01 0.12510089E+03</pdfrwt>
<pdfrwt beam="2">  1       -1 0.31444833E-02 0.12510089E+03</pdfrwt>
<totfact> 0.11460852E+04</totfact>
</mgrwt>
</event>
<event>
 6    1  0.9240440E-006  0.3413594E+03  0.7546771E-02  0.1066218E+00
          4   -1    0    0  501    0  0.00000000000E+00  0.00000000000E+00  0.25439798262E+03  0.25439798262E+03  0.00000000000E+00 0. -1.
         -4   -1    0    0    0  501 -0.00000000000E+00 -0.00000000000E+00 -0.11451175160E+03  0.11451175160E+03  0.00000000000E+00 0.  1.
          5    1    1    2  502    0  0.27760902704E+02 -0.96053114347E+02  0.43379876991E+02  0.10909066056E+03  0.47000000000E+01 0. -1.
         -5    1    1    2    0  502  0.25743483606E+02  0.53697584297E+01  0.11658045041E+03  0.11960205965E+03  0.47000000000E+01 0. -1.
        -11    1    1    2    0    0 -0.74672374740E+02  0.50246137778E+02  0.84811572371E+00  0.90007539747E+02  0.00000000000E+00 0.  1.
         11    1    1    2    0    0  0.21167988431E+02  0.40437218140E+02 -0.20922212108E+02  0.50209474251E+02  0.00000000000E+00 0. -1.
<mgrwt>
<rscale>  0 0.34135939E+03</rscale>
<asrwt>0</asrwt>
<pdfrwt beam="1">  1        4 0.39138151E-01 0.34135939E+03</pdfrwt>
<pdfrwt beam="2">  1       -4 0.17617193E-01 0.34135939E+03</pdfrwt>
<totfact> 0.34556514E+02</totfact>
</mgrwt>
</event>
<event>
 6    1  0.9240440E-006  0.1625486E+03  0.7546771E-02  0.1193474E+00
          2   -1    0    0  501    0  0.00000000000E+00  0.00000000000E+00  0.25319535471E+03  0.25319535471E+03  0.00000000000E+00 0. -1.
         -2   -1    0    0    0  501 -0.00000000000E+00 -0.00000000000E+00 -0.12303182499E+03  0.12303182499E+03  0.00000000000E+00 0.  1.
          5    1    1    2  502    0  0.17432855618E+02  0.22978717582E+02  0.38132275145E+02  0.48042547022E+02  0.47000000000E+01 0. -1.
         -5    1    1    2    0  502 -0.85956291390E+02 -0.10107759541E+03  0.12987878751E+03  0.18573032538E+03  0.47000000000E+01 0. -1.
        -11    1    1    2    0    0  0.33729038728E+02 -0.11718017793E+02 -0.28490250780E+02  0.45679912260E+02  0.00000000000E+00 0.  1.
         11    1    1    2    0    0  0.34794397045E+02  0.89816895619E+02 -0.93572821536E+01  0.96774395031E+02  0.00000000000E+00 0. -1.
<mgrwt>
<rscale>  0 0.15584123E+03</rscale>
<asrwt>0</asrwt>
<pdfrwt beam="1">  1        2 0.38953131E-01 0.16254857E+03</pdfrwt>
<pdfrwt beam="2">  1       -2 0.18927973E-01 0.16254857E+03</pdfrwt>
<totfact> 0.29661001E+03</totfact>
</mgrwt>
</event>
<event>
 6    1  0.9240440E-006  0.1950284E+03  0.7546771E-02  0.1158518E+00
         -2   -1    0    0    0  501 -0.00000000000E+00  0.00000000000E+00  0.11149669394E+03  0.11149669394E+03  0.00000000000E+00 0.  1.
          2   -1    0    0  501    0  0.00000000000E+00 -0.00000000000E+00 -0.30775924867E+03  0.30775924867E+03  0.00000000000E+00 0. -1.
          5    1    1    2  502    0 -0.11269778375E+03 -0.68135202475E+02 -0.26754101530E+02  0.13446586269E+03  0.47000000000E+01 0. -1.
         -5    1    1    2    0  502  0.88146140456E+01 -0.39656691649E+02 -0.75207704756E+02  0.85607473201E+02  0.47000000000E+01 0. -1.
        -11    1    1    2    0    0  0.47495491282E+02 -0.63505799506E+01 -0.21431869025E+02  0.52492633462E+02  0.00000000000E+00 0. -1.
         11    1    1    2    0    0  0.56387678425E+02  0.11414247407E+03 -0.72868879426E+02  0.14668997326E+03  0.00000000000E+00 0.  1.
<mgrwt>
<rscale>  0 0.18993667E+03</rscale>
<asrwt>0</asrwt>
<pdfrwt beam="2">  1        2 0.47347577E-01 0.19502837E+03</pdfrwt>
<pdfrwt beam="1">  1       -2 0.17153337E-01 0.19502837E+03</pdfrwt>
<totfact> 0.28608631E+03</totfact>
</mgrwt>
</event>
<event>
 6    1  0.9240440E-006  0.2567946E+03  0.7546771E-02  0.1111372E+00
         -1   -1    0    0    0  501 -0.00000000000E+00  0.00000000000E+00  0.10008327390E+03  0.10008327390E+03  0.00000000000E+00 0.  1.
          1   -1    0    0  501    0  0.00000000000E+00 -0.00000000000E+00 -0.63547159602E+03  0.63547159602E+03  0.00000000000E+00 0. -1.
          5    1    1    2  502    0  0.99350043093E+01  0.16708281771E+02 -0.75408488284E+02  0.78015390120E+02  0.47000000000E+01 0.  1.
         -5    1    1    2    0  502 -0.20458948684E+03  0.94613477173E+02 -0.25317938027E+03  0.33901394777E+03  0.47000000000E+01 0.  1.
        -11    1    1    2    0    0  0.11310377797E+03 -0.80454858982E+02 -0.18000535481E+03  0.22730459011E+03  0.00000000000E+00 0. -1.
         11    1    1    2    0    0  0.81550704565E+02 -0.30866899962E+02 -0.26795098751E+02  0.91220941923E+02  0.00000000000E+00 0.  1.
<mgrwt>
<rscale>  0 0.25308237E+03</rscale>
<asrwt>0</asrwt>
<pdfrwt beam="2">  1        1 0.97764858E-01 0.25679463E+03</pdfrwt>
<pdfrwt beam="1">  1       -1 0.15397427E-01 0.25679463E+03</pdfrwt>
<totfact> 0.10012809E+03</totfact>
</mgrwt>
</event>
<event>
 6    1  0.9240440E-006  0.1333817E+03  0.7546771E-02  0.1235636E+00
          1   -1    0    0  501    0  0.00000000000E+00  0.00000000000E+00  0.47593323768E+03  0.47593323768E+03  0.00000000000E+00 0. -1.
         -1   -1    0    0    0  501 -0.00000000000E+00 -0.00000000000E+00 -0.57007247236E+02  0.57007247236E+02  0.00000000000E+00 0.  1.
          5    1    1    2  502    0 -0.30052790726E+02  0.36509821365E+02  0.30695350560E+03  0.31061017673E+03  0.47000000000E+01 0. -1.
         -5    1    1    2    0  502  0.62232130068E+02 -0.28947249847E+01  0.10269896107E+03  0.12020975023E+03  0.47000000000E+01 0. -1.
        -11    1    1    2    0    0 -0.50059283641E+02 -0.29376066404E+02  0.37018507887E+02  0.68842247800E+02  0.00000000000E+00 0. -1.
         11    1    1    2    0    0  0.17879944299E+02 -0.42390299761E+01 -0.27744984116E+02  0.33278310157E+02  0.00000000000E+00 0.  1.
<mgrwt>
<rscale>  0 0.12463811E+03</rscale>
<asrwt>0</asrwt>
<pdfrwt beam="1">  1        1 0.73220496E-01 0.13338166E+03</pdfrwt>
<pdfrwt beam="2">  1       -1 0.87703460E-02 0.13338166E+03</pdfrwt>
<totfact> 0.34948302E+03</totfact>
</mgrwt>
</event>
<event>
 6    1  0.9240440E-006  0.1250631E+03  0.7546771E-02  0.1251831E+00
         -3   -1    0    0    0  501 -0.00000000000E+00  0.00000000000E+00  0.31734135135E+02  0.31734135135E+02  0.00000000000E+00 0.  1.
          3   -1    0    0  501    0  0.00000000000E+00 -0.00000000000E+00 -0.38093412901E+03  0.38093412901E+03  0.00000000000E+00 0. -1.
          5    1    1    2  502    0  0.48633291390E+01 -0.60289672695E+02 -0.17595144140E+03  0.18611688890E+03  0.47000000000E+01 0. -1.
         -5    1    1    2    0  502 -0.35356110632E+01  0.56514261364E+02 -0.73231069691E+02  0.92688952153E+02  0.47000000000E+01 0. -1.
        -11    1    1    2    0    0 -0.87744230937E+01  0.45607730856E+02 -0.54129148438E+02  0.71323350490E+02  0.00000000000E+00 0. -1.
         11    1    1    2    0    0  0.74467050179E+01 -0.41832319525E+02 -0.45888334339E+02  0.62539072594E+02  0.00000000000E+00 0.  1.
<mgrwt>
<rscale>  0 0.11485705E+03</rscale>
<asrwt>0</asrwt>
<pdfrwt beam="2">  1        3 0.58605246E-01 0.12506308E+03</pdfrwt>
<pdfrwt beam="1">  1       -3 0.48821750E-02 0.12506308E+03</pdfrwt>
<totfact> 0.15520783E+03</totfact>
</mgrwt>
</event>
<event>
 6    1  0.9240440E-006  0.2890786E+03  0.7546771E-02  0.1090831E+00
          2   -1    0    0  501    0  0.00000000000E+00  0.00000000000E+00  0.17518532155E+04  0.17518532155E+04  0.00000000000E+00 0. -1.
         -2   -1    0    0    0  501 -0.00000000000E+00 -0.00000000000E+00 -0.11925430969E+02  0.11925430969E+02  0.00000000000E+00 0.  1.
          5    1    1    2  502    0  0.29243216199E+02 -0.98619907354E+02  0.59443108551E+03  0.60328389439E+03  0.47000000000E+01 0.  1.
         -5    1    1    2    0  502 -0.29203959687E+02  0.12286055794E+02  0.58711166067E+03  0.58798470263E+03  0.47000000000E+01 0.  1.
        -11    1    1    2    0    0 -0.45774808231E+02  0.47415286467E+02  0.26853382700E+03  0.27650308986E+03  0.00000000000E+00 0.  1.
         11    1    1    2    0    0  0.45735551719E+02  0.38918565093E+02  0.28985121134E+03  0.29600695957E+03  0.00000000000E+00 0. -1.
<mgrwt>
<rscale>  0 0.28907857E+03</rscale>
<asrwt>0</asrwt>
<pdfrwt beam="1">  1        2 0.26951568E+00 0.28907857E+03</pdfrwt>
<pdfrwt beam="2">  1       -2 0.18346831E-02 0.28907857E+03</pdfrwt>
<totfact> 0.88137846E+03</totfact>
</mgrwt>
</event>
<event>
 6    1  0.9240440E-006  0.2332422E+03  0.7546771E-02  0.1124378E+00
          1   -1    0    0  501    0  0.00000000000E+00  0.00000000000E+00  0.84081005114E+02  0.84081005114E+02  0.00000000000E+00 0. -1.
         -1   -1    0    0    0  501 -0.00000000000E+00 -0.00000000000E+00 -0.16175449259E+03  0.16175449259E+03  0.00000000000E+00 0.  1.
          5    1    1    2  502    0 -0.33913937370E+02 -0.90517608449E+01 -0.49566207088E+02  0.60917882493E+02  0.47000000000E+01 0. -1.
         -5    1    1    2    0  502  0.70428518273E+02  0.28928959806E+02  0.92597933276E+01  0.76843312488E+02  0.47000000000E+01 0. -1.
        -11    1    1    2    0    0 -0.34254367869E+02  0.25670576514E+02  0.82252041102E+01  0.43588922897E+02  0.00000000000E+00 0. -1.
         11    1    1    2    0    0 -0.22602130340E+01 -0.45547775476E+02 -0.45592277823E+02  0.64485379823E+02  0.00000000000E+00 0.  1.
<mgrwt>
<rscale>  0 0.23324219E+03</rscale>
<asrwt>0</asrwt>
<pdfrwt beam="1">  1        1 0.12935539E-01 0.23324219E+03</pdfrwt>
<pdfrwt beam="2">  1       -1 0.24885306E-01 0.23324219E+03</pdfrwt>
<totfact> 0.62602147E+03</totfact>
</mgrwt>
</event>
<event>
 6    1  0.9240440E-006  0.1278532E+03  0.7546771E-02  0.1244595E+00
         -1   -1    0    0    0  501 -0.00000000000E+00  0.00000000000E+00  0.70895911777E+02  0.70895911777E+02  0.00000000000E+00 0.  1.
          1   -1    0    0  501    0  0.00000000000E+00 -0.00000000000E+00 -0.21018779007E+03  0.21018779007E+03  0.00000000000E+00 0. -1.
          5    1    1    2  502    0 -0.38059811397E+02 -0.19324776446E+02 -0.78437279036E+01  0.43653296504E+02  0.47000000000E+01 0. -1.
         -5    1    1    2    0  502  0.63447497811E+02  0.10640274734E+02 -0.12534962974E+03  0.14097311836E+03  0.47000000000E+01 0. -1.
        -11    1    1    2    0    0  0.20401083269E+02  0.14557726831E+02  0.29100187011E+02  0.38405110247E+02  0.00000000000E+00 0.  1.
         11    1    1    2    0    0 -0.45788769682E+02 -0.58732251201E+01 -0.35198707656E+02  0.58052176729E+02  0.00000000000E+00 0. -1.
<mgrwt>
<rscale>  0 0.11909679E+03</rscale>
<asrwt>0</asrwt>
<pdfrwt beam="2">  1        1 0.32336583E-01 0.12785321E+03</pdfrwt>
<pdfrwt beam="1">  1       -1 0.10907063E-01 0.12785321E+03</pdfrwt>
<totfact> 0.69318699E+03</totfact>
</mgrwt>
</event>
<event>
 6    1  0.9240440E-006  0.1381156E+03  0.7546771E-02  0.1226807E+00
         -1   -1    0    0    0  501 -0.00000000000E+00  0.00000000000E+00  0.36313480431E+02  0.36313480431E+02  0.00000000000E+00 0.  1.
          1   -1    0    0  501    0  0.00000000000E+00 -0.00000000000E+00 -0.53879700849E+03  0.53879700849E+03  0.00000000000E+00 0. -1.
          5    1    1    2  502    0 -0.58879646475E+02  0.16721403660E+02 -0.11901307835E+03  0.13391273624E+03  0.47000000000E+01 0.  1.
         -5    1    1    2    0  502  0.54183495747E+02  0.40819082479E+02 -0.28712056279E+03  0.29506330894E+03  0.47000000000E+01 0.  1.
        -11    1    1    2    0    0 -0.26410380639E+02 -0.22921691403E+02 -0.93133310616E+02  0.99482288315E+02  0.00000000000E+00 0.  1.
         11    1    1    2    0    0  0.31106531367E+02 -0.34618794736E+02 -0.32165763041E+01  0.46652155424E+02  0.00000000000E+00 0. -1.
<mgrwt>
<rscale>  0 0.13043805E+03</rscale>
<asrwt>0</asrwt>
<pdfrwt beam="2">  1        1 0.82891847E-01 0.13811558E+03</pdfrwt>
<pdfrwt beam="1">  1       -1 0.55866894E-02 0.13811558E+03</pdfrwt>
<totfact> 0.58535609E+03</totfact>
</mgrwt>
</event>
<event>
 6    1  0.9240440E-006  0.1754251E+03  0.7546771E-02  0.1178655E+00
         -2   -1    0    0    0  501 -0.00000000000E+00  0.00000000000E+00  0.26778287216E+02  0.26778287216E+02  0.00000000000E+00 0.  1.
          2   -1    0    0  501    0  0.00000000000E+00 -0.00000000000E+00 -0.11082823650E+04  0.11082823650E+04  0.00000000000E+00 0. -1.
          5    1    1    2  502    0  0.62947101337E+02 -0.39401920662E+02 -0.17134963555E+03  0.18680909111E+03  0.47000000000E+01 0. -1.
         -5    1    1    2    0  502 -0.56611748289E+02 -0.83518618036E+02 -0.22778665092E+03  0.24917684070E+03  0.47000000000E+01 0. -1.
        -11    1    1    2    0    0  0.35290816025E+02  0.24327400792E+02 -0.14732856690E+03  0.15343718829E+03  0.00000000000E+00 0. -1.
         11    1    1    2    0    0 -0.41626169074E+02  0.98593137906E+02 -0.53503922439E+03  0.54563753209E+03  0.00000000000E+00 0.  1.
<mgrwt>
<rscale>  0 0.16922808E+03</rscale>
<asrwt>0</asrwt>
<pdfrwt beam="2">  1        2 0.17050501E+00 0.17542508E+03</pdfrwt>
<pdfrwt beam="1">  1       -2 0.41197357E-02 0.17542508E+03</pdfrwt>
<totfact> 0.58491645E+03</totfact>
</mgrwt>
</event>
<event>
 6    1  0.9240440E-006  0.1986441E+03  0.7546771E-02  0.1169034E+00
         -1   -1    0    0    0  501 -0.00000000000E+00  0.00000000000E+00  0.82679897784E+03  0.82679897784E+03  0.00000000000E+00 0.  1.
          1   -1    0    0  501    0  0.00000000000E+00 -0.00000000000E+00 -0.32702215524E+02  0.32702215524E+02  0.00000000000E+00 0. -1.
          5    1    1    2  502    0  0.63463610746E+02  0.60712028180E+02  0.17687985242E+03  0.19754025525E+03  0.47000000000E+01 0. -1.
         -5    1    1    2    0  502  0.15540810480E+02 -0.10750904046E+03  0.29780866011E+03  0.31703595791E+03  0.47000000000E+01 0.  1.
        -11    1    1    2    0    0 -0.58132265550E+02  0.39173321606E+02  0.31443532473E+03  0.32215443946E+03  0.00000000000E+00 0.  1.
         11    1    1    2    0    0 -0.20872155676E+02  0.76236906721E+01  0.49729250554E+01  0.22770540741E+02  0.00000000000E+00 0. -1.
<mgrwt>
<rscale>  0 0.17873442E+03</rscale>
<asrwt>0</asrwt>
<pdfrwt beam="2">  1        1 0.50311107E-02 0.19864414E+03</pdfrwt>
<pdfrwt beam="1">  1       -1 0.12719983E+00 0.19864414E+03</pdfrwt>
<totfact> 0.94163583E+02</totfact>
</mgrwt>
</event>
<event>
 6    1  0.9240440E-006  0.4882609E+03  0.7546771E-02  0.1016889E+00
          1   -1    0    0  501    0  0.00000000000E+00  0.00000000000E+00  0.67606133955E+03  0.67606133955E+03  0.00000000000E+00 0. -1.
         -1   -1    0    0    0  501 -0.00000000000E+00 -0.00000000000E+00 -0.88157200422E+02  0.88157200422E+02  0.00000000000E+00 0.  1.
          5    1    1    2  502    0  0.56702254947E+02 -0.72649971231E+02  0.59734000468E+03  0.60442562423E+03  0.47000000000E+01 0. -1.
         -5    1    1    2    0  502  0.87619496120E+00  0.22682515768E+02  0.27943376686E+02  0.36306838746E+02  0.47000000000E+01 0.  1.
        -11    1    1    2    0    0 -0.12927035807E+02  0.34727775839E+02  0.25421259235E+02  0.44937368532E+02  0.00000000000E+00 0. -1.
         11    1    1    2    0    0 -0.44651414102E+02  0.15239679625E+02 -0.62800501471E+02  0.78548708464E+02  0.00000000000E+00 0.  1.
<mgrwt>
<rscale>  0 0.48826089E+03</rscale>
<asrwt>0</asrwt>
<pdfrwt beam="1">  1        1 0.10400943E+00 0.48826089E+03</pdfrwt>
<pdfrwt beam="2">  1       -1 0.13562647E-01 0.48826089E+03</pdfrwt>
<totfact> 0.11192650E+03</totfact>
</mgrwt>
</event>
<event>
 6    1  0.9240440E-006  0.1961508E+03  0.7546771E-02  0.1155301E+00
         -1   -1    0    0    0  501 -0.00000000000E+00  0.00000000000E+00  0.99357228079E+02  0.99357228079E+02  0.00000000000E+00 0.  1.
          1   -1    0    0  501    0  0.00000000000E+00 -0.00000000000E+00 -0.60644631013E+03  0.60644631013E+03  0.00000000000E+00 0. -1.
          5    1    1    2  502    0 -0.80076413496E+02  0.34390923822E+02 -0.10124943284E+03  0.13367312853E+03  0.47000000000E+01 0. -1.
         -5    1    1    2    0  502 -0.43298579324E+02  0.52950473213E+02 -0.37793940848E+03  0.38410780527E+03  0.47000000000E+01 0. -1.
        -11    1    1    2    0    0  0.87954700868E+02 -0.64253753208E+02  0.33063514434E+02  0.11383220192E+03  0.00000000000E+00 0.  1.
         11    1    1    2    0    0  0.35420291952E+02 -0.23087643826E+02 -0.60963755170E+02  0.74190402505E+02  0.00000000000E+00 0. -1.
<mgrwt>
<rscale>  0 0.19354700E+03</rscale>
<asrwt>0</asrwt>
<pdfrwt beam="2">  1        1 0.93299432E-01 0.19615083E+03</pdfrwt>
<pdfrwt beam="1">  1       -1 0.15285727E-01 0.19615083E+03</pdfrwt>
<totfact> 0.10808144E+03</totfact>
</mgrwt>
</event>
<event>
 6    1  0.9240440E-006  0.2741961E+03  0.7546771E-02  0.1100877E+00
          2   -1    0    0  501    0  0.00000000000E+00  0.00000000000E+00  0.12823283490E+04  0.12823283490E+04  0.00000000000E+00 0.  1.
         -2   -1    0    0    0  501 -0.00000000000E+00 -0.00000000000E+00 -0.64455665789E+02  0.64455665789E+02  0.00000000000E+00 0. -1.
          5    1    1    2  502    0 -0.47597033227E+01 -0.44197321802E+02  0.91428513634E+02  0.10177092480E+03  0.47000000000E+01 0. -1.
         -5    1    1    2    0  502  0.20097960180E+03 -0.10091633577E+03  0.77858990511E+03  0.81043274706E+03  0.47000000000E+01 0. -1.
        -11    1    1    2    0    0 -0.79887611101E+02  0.11549083030E+03  0.19032347352E+03  0.23652312120E+03  0.00000000000E+00 0. -1.
         11    1    1    2    0    0 -0.11633228738E+03  0.29622827275E+02  0.15753079098E+03  0.19805722175E+03  0.00000000000E+00 0.  1.
<mgrwt>
<rscale>  0 0.27070461E+03</rscale>
<asrwt>0</asrwt>
<pdfrwt beam="1">  1        2 0.19728127E+00 0.27419608E+03</pdfrwt>
<pdfrwt beam="2">  1       -2 0.99162572E-02 0.27419608E+03</pdfrwt>
<totfact> 0.12085717E+03</totfact>
</mgrwt>
</event>
<event>
 6    1  0.9240440E-006  0.3072706E+03  0.7546771E-02  0.1081662E+00
         -2   -1    0    0    0  501 -0.00000000000E+00  0.00000000000E+00  0.10182642327E+03  0.10182642327E+03  0.00000000000E+00 0.  1.
          2   -1    0    0  501    0  0.00000000000E+00 -0.00000000000E+00 -0.23180431174E+03  0.23180431174E+03  0.00000000000E+00 0. -1.
          5    1    1    2  502    0 -0.45988590944E+01 -0.27350218580E+02  0.96288269807E+01  0.29731940239E+02  0.47000000000E+01 0. -1.
         -5    1    1    2    0  502  0.86560083651E+02  0.19540842898E+02 -0.15650450597E+03  0.17997289522E+03  0.47000000000E+01 0. -1.
        -11    1    1    2    0    0 -0.25149409430E+02  0.46741611074E+02  0.28393831018E+00  0.53078730405E+02  0.00000000000E+00 0. -1.
         11    1    1    2    0    0 -0.56811815126E+02 -0.38932235392E+02  0.16613852221E+02  0.70847169147E+02  0.00000000000E+00 0.  1.
<mgrwt>
<rscale>  0 0.30727059E+03</rscale>
<asrwt>0</asrwt>
<pdfrwt beam="2">  1        2 0.35662202E-01 0.30727059E+03</pdfrwt>
<pdfrwt beam="1">  1       -2 0.15665604E-01 0.30727059E+03</pdfrwt>
<totfact> 0.46062639E+03</totfact>
</mgrwt>
</event>
<event>
 6    1  0.9240440E-006  0.2058159E+03  0.7546771E-02  0.1149003E+00
         -1   -1    0    0    0  501 -0.00000000000E+00  0.00000000000E+00  0.81931816368E+02  0.81931816368E+02  0.00000000000E+00 0.  1.
          1   -1    0    0  501    0  0.00000000000E+00 -0.00000000000E+00 -0.56960384106E+03  0.56960384106E+03  0.00000000000E+00 0. -1.
          5    1    1    2  502    0  0.56018068017E+02 -0.53223550587E+02 -0.60832225528E+02  0.98455167178E+02  0.47000000000E+01 0. -1.
         -5    1    1    2    0  502  0.16710275543E+02 -0.93229962558E+02 -0.32871424833E+03  0.34212016351E+03  0.47000000000E+01 0. -1.
        -11    1    1    2    0    0 -0.17729703680E+02  0.10178141172E+03 -0.19534841724E+02  0.10514470127E+03  0.00000000000E+00 0.  1.
         11    1    1    2    0    0 -0.54998639880E+02  0.44672101427E+02 -0.78590709107E+02  0.10581562547E+03  0.00000000000E+00 0. -1.
<mgrwt>
<rscale>  0 0.20087431E+03</rscale>
<asrwt>0</asrwt>
<pdfrwt beam="2">  1        1 0.87631361E-01 0.20581586E+03</pdfrwt>
<pdfrwt beam="1">  1       -1 0.12604895E-01 0.20581586E+03</pdfrwt>
<totfact> 0.15962168E+03</totfact>
</mgrwt>
</event>
<event>
 6    1  0.9240440E-006  0.1250060E+03  0.7546771E-02  0.1251115E+00
          1   -1    0    0  501    0  0.00000000000E+00  0.00000000000E+00  0.21700363463E+04  0.21700363463E+04  0.00000000000E+00 0. -1.
         -1   -1    0    0    0  501 -0.00000000000E+00 -0.00000000000E+00 -0.95773962619E+01  0.95773962619E+01  0.00000000000E+00 0.  1.
          5    1    1    2  502    0  0.45068599427E+02  0.27236320235E+02  0.43588224156E+03  0.43907677495E+03  0.47000000000E+01 0.  1.
         -5    1    1    2    0  502 -0.44175972196E+02 -0.26784193827E+02  0.14605724598E+04  0.14614933834E+04  0.47000000000E+01 0.  1.
        -11    1    1    2    0    0 -0.35464659839E+02  0.25137088101E+02  0.17313622414E+03  0.17850985240E+03  0.00000000000E+00 0.  1.
         11    1    1    2    0    0  0.34572032608E+02 -0.25589214508E+02  0.90868024612E+02  0.10053373182E+03  0.00000000000E+00 0. -1.
<mgrwt>
<rscale>  0 0.11526738E+03</rscale>
<asrwt>0</asrwt>
<pdfrwt beam="1">  1        1 0.33385135E+00 0.12500597E+03</pdfrwt>
<pdfrwt beam="2">  1       -1 0.14734473E-02 0.12500597E+03</pdfrwt>
<totfact> 0.27973849E+03</totfact>
</mgrwt>
</event>
<event>
 6    1  0.9240440E-006  0.1814287E+03  0.7546771E-02  0.1188669E+00
         -4   -1    0    0    0  501 -0.00000000000E+00  0.00000000000E+00  0.52149243091E+03  0.52149243091E+03  0.00000000000E+00 0.  1.
          4   -1    0    0  501    0  0.00000000000E+00 -0.00000000000E+00 -0.41348949176E+02  0.41348949176E+02  0.00000000000E+00 0. -1.
          5    1    1    2  502    0 -0.48665015930E+02 -0.36950395876E+01  0.29624467671E+02  0.57285566924E+02  0.47000000000E+01 0. -1.
         -5    1    1    2    0  502  0.10532648601E+03  0.21764669233E+02  0.30370263164E+03  0.32221847860E+03  0.47000000000E+01 0.  1.
        -11    1    1    2    0    0 -0.41152241603E+02 -0.54041000518E+02  0.11168458105E+03  0.13071871469E+03  0.00000000000E+00 0.  1.
         11    1    1    2    0    0 -0.15509228474E+02  0.35971370872E+02  0.35131801377E+02  0.52618619882E+02  0.00000000000E+00 0. -1.
<mgrwt>
<rscale>  0 0.16002460E+03</rscale>
<asrwt>0</asrwt>
<pdfrwt beam="2">  1        4 0.63613771E-02 0.18142868E+03</pdfrwt>
<pdfrwt beam="1">  1       -4 0.80229600E-01 0.18142868E+03</pdfrwt>
<totfact> 0.39913749E+02</totfact>
</mgrwt>
</event>
<event>
 6    1  0.9240440E-006  0.1378852E+03  0.7546771E-02  0.1227755E+00
          2   -1    0    0  501    0  0.00000000000E+00  0.00000000000E+00  0.39710572420E+02  0.39710572420E+02  0.00000000000E+00 0. -1.
         -2   -1    0    0    0  501 -0.00000000000E+00 -0.00000000000E+00 -0.41578003538E+03  0.41578003538E+03  0.00000000000E+00 0.  1.
          5    1    1    2  502    0  0.28126089083E+02 -0.43081284362E+02 -0.44874624171E+01  0.51858473448E+02  0.47000000000E+01 0. -1.
         -5    1    1    2    0  502  0.29980586647E+02  0.37252246060E+02 -0.13931831153E+03  0.14737112112E+03  0.47000000000E+01 0. -1.
        -11    1    1    2    0    0 -0.88565152355E+01  0.40828920488E+02 -0.55573411030E+02  0.69525841411E+02  0.00000000000E+00 0. -1.
         11    1    1    2    0    0 -0.49250160494E+02 -0.34999882186E+02 -0.17669027797E+03  0.18673517181E+03  0.00000000000E+00 0.  1.
<mgrwt>
<rscale>  0 0.12979843E+03</rscale>
<asrwt>0</asrwt>
<pdfrwt beam="1">  1        2 0.61093185E-02 0.13788521E+03</pdfrwt>
<pdfrwt beam="2">  1       -2 0.63966163E-01 0.13788521E+03</pdfrwt>
<totfact> 0.26761309E+03</totfact>
</mgrwt>
</event>
<event>
 6    1  0.9240440E-006  0.1540054E+03  0.7546771E-02  0.1204180E+00
         -2   -1    0    0    0  501 -0.00000000000E+00  0.00000000000E+00  0.37207110127E+02  0.37207110127E+02  0.00000000000E+00 0.  1.
          2   -1    0    0  501    0  0.00000000000E+00 -0.00000000000E+00 -0.59567048042E+03  0.59567048042E+03  0.00000000000E+00 0. -1.
          5    1    1    2  502    0  0.51754851631E+02 -0.87031183458E+02 -0.26302742260E+03  0.28188385303E+03  0.47000000000E+01 0. -1.
         -5    1    1    2    0  502  0.27572505937E+02  0.44576867588E+02 -0.14076519163E+03  0.15028063542E+03  0.47000000000E+01 0. -1.
        -11    1    1    2    0    0 -0.47373137079E+02  0.42503398829E+01 -0.11229528860E+02  0.48871073492E+02  0.00000000000E+00 0.  1.
         11    1    1    2    0    0 -0.31954220489E+02  0.38203975987E+02 -0.14344122721E+03  0.15184202861E+03  0.00000000000E+00 0. -1.
<mgrwt>
<rscale>  0 0.14702253E+03</rscale>
<asrwt>0</asrwt>
<pdfrwt beam="2">  1        2 0.91641610E-01 0.15400542E+03</pdfrwt>
<pdfrwt beam="1">  1       -2 0.57241709E-02 0.15400542E+03</pdfrwt>
<totfact> 0.78246476E+03</totfact>
</mgrwt>
</event>
<event>
 6    1  0.9240440E-006  0.1454909E+03  0.7546771E-02  0.1214300E+00
          2   -1    0    0  501    0  0.00000000000E+00  0.00000000000E+00  0.65749965130E+03  0.65749965130E+03  0.00000000000E+00 0. -1.
         -2   -1    0    0    0  501 -0.00000000000E+00 -0.00000000000E+00 -0.27765878182E+02  0.27765878182E+02  0.00000000000E+00 0.  1.
          5    1    1    2  502    0 -0.10136679987E+02 -0.59957351596E+02  0.71123369893E+02  0.93692369148E+02  0.47000000000E+01 0. -1.
         -5    1    1    2    0  502 -0.47271487799E+02  0.12569967449E+02  0.31734900198E+03  0.32113093388E+03  0.47000000000E+01 0. -1.
        -11    1    1    2    0    0  0.80715396831E+02  0.15565005179E+02  0.17464556109E+03  0.19302413497E+03  0.00000000000E+00 0. -1.
         11    1    1    2    0    0 -0.23307229045E+02  0.31822378967E+02  0.66615840156E+02  0.77418091481E+02  0.00000000000E+00 0.  1.
<mgrwt>
<rscale>  0 0.13928081E+03</rscale>
<asrwt>0</asrwt>
<pdfrwt beam="1">  1        2 0.10115378E+00 0.14549086E+03</pdfrwt>
<pdfrwt beam="2">  1       -2 0.42716741E-02 0.14549086E+03</pdfrwt>
<totfact> 0.10806354E+04</totfact>
</mgrwt>
</event>
<event>
 6    1  0.9240440E-006  0.1534632E+03  0.7546771E-02  0.1204021E+00
          3   -1    0    0  501    0  0.00000000000E+00  0.00000000000E+00  0.94289157137E+03  0.94289157137E+03  0.00000000000E+00 0. -1.
         -3   -1    0    0    0  501 -0.00000000000E+00 -0.00000000000E+00 -0.28269758528E+02  0.28269758528E+02  0.00000000000E+00 0.  1.
          5    1    1    2  502    0 -0.28539930991E+00  0.20624045456E+02  0.12357668150E+02  0.24499687056E+02  0.47000000000E+01 0. -1.
         -5    1    1    2    0  502  0.56386346888E+02  0.48492704044E+02  0.71489659145E+03  0.71876991376E+03  0.47000000000E+01 0. -1.
        -11    1    1    2    0    0 -0.33428879087E+02  0.16278968548E+02  0.31533804513E+02  0.48753211187E+02  0.00000000000E+00 0.  1.
         11    1    1    2    0    0 -0.22672068491E+02 -0.85395718048E+02  0.15583374873E+03  0.17913851790E+03  0.00000000000E+00 0. -1.
<mgrwt>
<rscale>  0 0.14714899E+03</rscale>
<asrwt>0</asrwt>
<pdfrwt beam="1">  1        3 0.14506022E+00 0.15346316E+03</pdfrwt>
<pdfrwt beam="2">  1       -3 0.43491943E-02 0.15346316E+03</pdfrwt>
<totfact> 0.25236281E+02</totfact>
</mgrwt>
</event>
<event>
 6    1  0.9240440E-006  0.2733326E+03  0.7546771E-02  0.1099387E+00
          1   -1    0    0  501    0  0.00000000000E+00  0.00000000000E+00  0.69228267711E+02  0.69228267711E+02  0.00000000000E+00 0. -1.
         -1   -1    0    0    0  501 -0.00000000000E+00 -0.00000000000E+00 -0.26979834227E+03  0.26979834227E+03  0.00000000000E+00 0.  1.
          5    1    1    2  502    0  0.16831797332E+02  0.46746844898E+02  0.44218788976E+02  0.66678093913E+02  0.47000000000E+01 0. -1.
         -5    1    1    2    0  502  0.28883514884E+01 -0.57758490393E+01 -0.67971039943E+02  0.68438697221E+02  0.47000000000E+01 0. -1.
        -11    1    1    2    0    0 -0.35042630504E+02 -0.61601154791E+02 -0.15407645060E+03  0.16959434205E+03  0.00000000000E+00 0. -1.
         11    1    1    2    0    0  0.15322481684E+02  0.20630158933E+02 -0.22741372990E+02  0.34315476800E+02  0.00000000000E+00 0.  1.
<mgrwt>
<rscale>  0 0.27333256E+03</rscale>
<asrwt>0</asrwt>
<pdfrwt beam="1">  1        1 0.10650503E-01 0.27333256E+03</pdfrwt>
<pdfrwt beam="2">  1       -1 0.41507437E-01 0.27333256E+03</pdfrwt>
<totfact> 0.33875796E+03</totfact>
</mgrwt>
</event>
<event>
 6    1  0.9240440E-006  0.1808362E+03  0.7546771E-02  0.1172531E+00
         -1   -1    0    0    0  501 -0.00000000000E+00  0.00000000000E+00  0.23704510610E+03  0.23704510610E+03  0.00000000000E+00 0.  1.
          1   -1    0    0  501    0  0.00000000000E+00 -0.00000000000E+00 -0.12318563259E+03  0.12318563259E+03  0.00000000000E+00 0. -1.
          5    1    1    2  502    0  0.45169102919E+02 -0.58696651095E+02 -0.38650900788E+02  0.83675126770E+02  0.47000000000E+01 0.  1.
         -5    1    1    2    0  502  0.56575379099E+02 -0.23311206280E+02  0.81757283659E+02  0.10222783031E+03  0.47000000000E+01 0.  1.
        -11    1    1    2    0    0 -0.69132936010E+01  0.28067395386E+02  0.57590576433E+02  0.64437929871E+02  0.00000000000E+00 0.  1.
         11    1    1    2    0    0 -0.94831188417E+02  0.53940461988E+02  0.13162514201E+02  0.10988985174E+03  0.00000000000E+00 0. -1.
<mgrwt>
<rscale>  0 0.17520016E+03</rscale>
<asrwt>0</asrwt>
<pdfrwt beam="2">  1        1 0.18951636E-01 0.18083625E+03</pdfrwt>
<pdfrwt beam="1">  1       -1 0.36468478E-01 0.18083625E+03</pdfrwt>
<totfact> 0.19630510E+03</totfact>
</mgrwt>
</event>
<event>
 6    1  0.9240440E-006  0.1285492E+03  0.7546771E-02  0.1243607E+00
          3   -1    0    0  501    0  0.00000000000E+00  0.00000000000E+00  0.12186142174E+03  0.12186142174E+03  0.00000000000E+00 0. -1.
         -3   -1    0    0    0  501 -0.00000000000E+00 -0.00000000000E+00 -0.28328946327E+03  0.28328946327E+03  0.00000000000E+00 0.  1.
          5    1    1    2  502    0  0.37180206450E+02  0.45865801438E+02  0.42726305936E+02  0.73031956786E+02  0.47000000000E+01 0.  1.
         -5    1    1    2    0  502 -0.15625731192E+02 -0.66668540491E+02  0.32913630594E+02  0.76120002925E+02  0.47000000000E+01 0.  1.
        -11    1    1    2    0    0  0.21204895524E+02  0.39111197192E+02 -0.15916697246E+03  0.16526783856E+03  0.00000000000E+00 0.  1.
         11    1    1    2    0    0 -0.42759370782E+02 -0.18308458139E+02 -0.77901005591E+02  0.90731086741E+02  0.00000000000E+00 0. -1.
<mgrwt>
<rscale>  0 0.11969111E+03</rscale>
<asrwt>0</asrwt>
<pdfrwt beam="1">  1        3 0.18747911E-01 0.12854924E+03</pdfrwt>
<pdfrwt beam="2">  1       -3 0.43582994E-01 0.12854924E+03</pdfrwt>
<totfact> 0.30550920E+02</totfact>
</mgrwt>
</event>
<event>
 6    1  0.9240440E-006  0.1555241E+03  0.7546771E-02  0.1202100E+00
          1   -1    0    0  501    0  0.00000000000E+00  0.00000000000E+00  0.58748097428E+03  0.58748097428E+03  0.00000000000E+00 0. -1.
         -1   -1    0    0    0  501 -0.00000000000E+00 -0.00000000000E+00 -0.42495703544E+02  0.42495703544E+02  0.00000000000E+00 0.  1.
          5    1    1    2  502    0 -0.38230935868E+02  0.59877015058E+02  0.25736649727E+03  0.26703270457E+03  0.47000000000E+01 0.  1.
         -5    1    1    2    0  502  0.75575581570E+02  0.24790833271E+02  0.16978404137E+03  0.18754989908E+03  0.47000000000E+01 0.  1.
        -11    1    1    2    0    0 -0.56336266948E+02 -0.90766254178E+02  0.11161569445E+03  0.15450032725E+03  0.00000000000E+00 0. -1.
         11    1    1    2    0    0  0.18991621247E+02  0.60984058490E+01  0.62190376452E+01  0.20893746928E+02  0.00000000000E+00 0.  1.
<mgrwt>
<rscale>  0 0.14868381E+03</rscale>
<asrwt>0</asrwt>
<pdfrwt beam="1">  1        1 0.90381683E-01 0.15552415E+03</pdfrwt>
<pdfrwt beam="2">  1       -1 0.65378010E-02 0.15552415E+03</pdfrwt>
<totfact> 0.41451840E+03</totfact>
</mgrwt>
</event>
<event>
 6    1  0.9240440E-006  0.1345999E+03  0.7546771E-02  0.1232871E+00
          1   -1    0    0  501    0  0.00000000000E+00  0.00000000000E+00  0.63032368918E+03  0.63032368918E+03  0.00000000000E+00 0. -1.
         -1   -1    0    0    0  501 -0.00000000000E+00 -0.00000000000E+00 -0.23186723043E+02  0.23186723043E+02  0.00000000000E+00 0.  1.
          5    1    1    2  502    0  0.30030935476E+02  0.82222700078E+02  0.30171780179E+03  0.31419444841E+03  0.47000000000E+01 0.  1.
         -5    1    1    2    0  502  0.58387094468E+00 -0.42788322735E+02  0.85034990644E+02  0.95311180360E+02  0.47000000000E+01 0.  1.
        -11    1    1    2    0    0 -0.52686947714E+02 -0.26108970021E+01  0.16902334066E+03  0.17706388941E+03  0.00000000000E+00 0. -1.
         11    1    1    2    0    0  0.22072141293E+02 -0.36823480341E+02  0.51360833048E+02  0.66940894056E+02  0.00000000000E+00 0.  1.
<mgrwt>
<rscale>  0 0.12641692E+03</rscale>
<asrwt>0</asrwt>
<pdfrwt beam="1">  1        1 0.96972863E-01 0.13459992E+03</pdfrwt>
<pdfrwt beam="2">  1       -1 0.35671886E-02 0.13459992E+03</pdfrwt>
<totfact> 0.91586721E+03</totfact>
</mgrwt>
</event>
<event>
 6    1  0.9240440E-006  0.1555555E+03  0.7546771E-02  0.1201738E+00
          2   -1    0    0  501    0  0.00000000000E+00  0.00000000000E+00  0.13862765036E+03  0.13862765036E+03  0.00000000000E+00 0.  1.
         -2   -1    0    0    0  501 -0.00000000000E+00 -0.00000000000E+00 -0.18827649629E+03  0.18827649629E+03  0.00000000000E+00 0. -1.
          5    1    1    2  502    0  0.21042882007E+02 -0.22382926596E+02  0.85218894196E+00  0.31090424767E+02  0.47000000000E+01 0.  1.
         -5    1    1    2    0  502 -0.69359889658E+02  0.10136128445E+03  0.48078485212E+02  0.13197929769E+03  0.47000000000E+01 0.  1.
        -11    1    1    2    0    0  0.46851076702E+02 -0.98678409140E+02 -0.72450780548E+02  0.13107847810E+03  0.00000000000E+00 0.  1.
         11    1    1    2    0    0  0.14659309487E+01  0.19700051286E+02 -0.26128739538E+02  0.32755946087E+02  0.00000000000E+00 0. -1.
<mgrwt>
<rscale>  0 0.14897524E+03</rscale>
<asrwt>0</asrwt>
<pdfrwt beam="1">  1        2 0.21327331E-01 0.15555553E+03</pdfrwt>
<pdfrwt beam="2">  1       -2 0.28965615E-01 0.15555553E+03</pdfrwt>
<totfact> 0.27334761E+03</totfact>
</mgrwt>
</event>
<event>
 6    1  0.9240440E-006  0.1518053E+03  0.7546771E-02  0.1209015E+00
          2   -1    0    0  501    0  0.00000000000E+00  0.00000000000E+00  0.68460427733E+03  0.68460427733E+03  0.00000000000E+00 0. -1.
         -2   -1    0    0    0  501 -0.00000000000E+00 -0.00000000000E+00 -0.27867234116E+02  0.27867234116E+02  0.00000000000E+00 0.  1.
          5    1    1    2  502    0  0.59710762302E+02 -0.23363662093E+02  0.35480723098E+03  0.36058493729E+03  0.47000000000E+01 0. -1.
         -5    1    1    2    0  502  0.21010924404E+02  0.53440806952E+02  0.70772748005E+02  0.91259249680E+02  0.47000000000E+01 0. -1.
        -11    1    1    2    0    0 -0.38859436696E+02 -0.51730512088E+02  0.83514227229E+02  0.10564434604E+03  0.00000000000E+00 0.  1.
         11    1    1    2    0    0 -0.41862250010E+02  0.21653367229E+02  0.14764283700E+03  0.15498297844E+03  0.00000000000E+00 0. -1.
<mgrwt>
<rscale>  0 0.14325509E+03</rscale>
<asrwt>0</asrwt>
<pdfrwt beam="1">  1        2 0.10532372E+00 0.15180531E+03</pdfrwt>
<pdfrwt beam="2">  1       -2 0.42872673E-02 0.15180531E+03</pdfrwt>
<totfact> 0.10276473E+04</totfact>
</mgrwt>
</event>
<event>
 6    1  0.9240440E-006  0.1579420E+03  0.7546771E-02  0.1211343E+00
          2   -1    0    0  501    0  0.00000000000E+00  0.00000000000E+00  0.26534644883E+02  0.26534644883E+02  0.00000000000E+00 0. -1.
         -2   -1    0    0    0  501 -0.00000000000E+00 -0.00000000000E+00 -0.70156061813E+03  0.70156061813E+03  0.00000000000E+00 0.  1.
          5    1    1    2  502    0 -0.69199386655E+01  0.76198111070E+02 -0.56166887377E+02  0.95030768278E+02  0.47000000000E+01 0. -1.
         -5    1    1    2    0  502  0.20944745200E+01 -0.19582150694E+02 -0.23796110398E+03  0.23882090456E+03  0.47000000000E+01 0.  1.
        -11    1    1    2    0    0  0.26307107518E+02 -0.70888540627E+02 -0.27014401600E+03  0.28052635969E+03  0.00000000000E+00 0.  1.
         11    1    1    2    0    0 -0.21481643373E+02  0.14272580251E+02 -0.11075396590E+03  0.11371723049E+03  0.00000000000E+00 0. -1.
<mgrwt>
<rscale>  0 0.14148587E+03</rscale>
<asrwt>0</asrwt>
<pdfrwt beam="1">  1        2 0.40822531E-02 0.15794196E+03</pdfrwt>
<pdfrwt beam="2">  1       -2 0.10793240E+00 0.15794196E+03</pdfrwt>
<totfact> 0.14372765E+03</totfact>
</mgrwt>
</event>
<event>
 6    1  0.9240440E-006  0.1613142E+03  0.7546771E-02  0.1194262E+00
          1   -1    0    0  501    0  0.00000000000E+00  0.00000000000E+00  0.10712629493E+04  0.10712629493E+04  0.00000000000E+00 0. -1.
         -1   -1    0    0    0  501 -0.00000000000E+00 -0.00000000000E+00 -0.21608982852E+02  0.21608982852E+02  0.00000000000E+00 0.  1.
          5    1    1    2  502    0 -0.27017192679E+02  0.18187775081E+02  0.33587411720E+03  0.33748220171E+03  0.47000000000E+01 0.  1.
         -5    1    1    2    0  502  0.89101047080E+02  0.62696543839E+02  0.32553921030E+03  0.34331868671E+03  0.47000000000E+01 0.  1.
        -11    1    1    2    0    0 -0.32643270707E+02 -0.95364692272E+02  0.24119569497E+03  0.26141034969E+03  0.00000000000E+00 0. -1.
         11    1    1    2    0    0 -0.29440583695E+02  0.14480373352E+02  0.14704494393E+03  0.15066069400E+03  0.00000000000E+00 0.  1.
<mgrwt>
<rscale>  0 0.15516837E+03</rscale>
<asrwt>0</asrwt>
<pdfrwt beam="1">  1        1 0.16480964E+00 0.16131417E+03</pdfrwt>
<pdfrwt beam="2">  1       -1 0.33244597E-02 0.16131417E+03</pdfrwt>
<totfact> 0.45168724E+03</totfact>
</mgrwt>
</event>
<event>
 6    1  0.9240440E-006  0.1503163E+03  0.7546771E-02  0.1210918E+00
         -1   -1    0    0    0  501 -0.00000000000E+00  0.00000000000E+00  0.18370218442E+02  0.18370218442E+02  0.00000000000E+00 0.  1.
          1   -1    0    0  501    0  0.00000000000E+00 -0.00000000000E+00 -0.10419362385E+04  0.10419362385E+04  0.00000000000E+00 0. -1.
          5    1    1    2  502    0 -0.36374658085E+02 -0.42026390293E+02 -0.38399902381E+03  0.38802921735E+03  0.47000000000E+01 0.  1.
         -5    1    1    2    0  502  0.82362658582E+02 -0.27649558605E+02 -0.30443483638E+03  0.31662401239E+03  0.47000000000E+01 0.  1.
        -11    1    1    2    0    0 -0.66292966692E+02  0.39771481657E+02 -0.27337154772E+03  0.28409246961E+03  0.00000000000E+00 0.  1.
         11    1    1    2    0    0  0.20304966195E+02  0.29904467241E+02 -0.61760612102E+02  0.71560757545E+02  0.00000000000E+00 0. -1.
<mgrwt>
<rscale>  0 0.14180694E+03</rscale>
<asrwt>0</asrwt>
<pdfrwt beam="2">  1        1 0.16029792E+00 0.15031631E+03</pdfrwt>
<pdfrwt beam="1">  1       -1 0.28261867E-02 0.15031631E+03</pdfrwt>
<totfact> 0.59967371E+03</totfact>
</mgrwt>
</event>
<event>
 6    1  0.9240440E-006  0.2798118E+03  0.7546771E-02  0.1095792E+00
          2   -1    0    0  501    0  0.00000000000E+00  0.00000000000E+00  0.24396423164E+03  0.24396423164E+03  0.00000000000E+00 0. -1.
         -2   -1    0    0    0  501 -0.00000000000E+00 -0.00000000000E+00 -0.80231674674E+02  0.80231674674E+02  0.00000000000E+00 0.  1.
          5    1    1    2  502    0 -0.23722216692E+01 -0.36579203813E+01  0.11612479196E+03  0.11630161273E+03  0.47000000000E+01 0. -1.
         -5    1    1    2    0  502  0.80428880417E+02 -0.10866098486E+02  0.17497140441E+02  0.83157181441E+02  0.47000000000E+01 0. -1.
        -11    1    1    2    0    0  0.10608367172E+02 -0.21633368029E+02 -0.82874292919E+00  0.24108647436E+02  0.00000000000E+00 0.  1.
         11    1    1    2    0    0 -0.88665025920E+02  0.36157386897E+02  0.30939367503E+02  0.10062846471E+03  0.00000000000E+00 0. -1.
<mgrwt>
<rscale>  0 0.27981179E+03</rscale>
<asrwt>0</asrwt>
<pdfrwt beam="1">  1        2 0.37532958E-01 0.27981179E+03</pdfrwt>
<pdfrwt beam="2">  1       -2 0.12343335E-01 0.27981179E+03</pdfrwt>
<totfact> 0.64258564E+03</totfact>
</mgrwt>
</event>
<event>
 6    1  0.9240440E-006  0.2996651E+03  0.7546771E-02  0.1085408E+00
         -1   -1    0    0    0  501 -0.00000000000E+00  0.00000000000E+00  0.19584498196E+02  0.19584498196E+02  0.00000000000E+00 0.  1.
          1   -1    0    0  501    0  0.00000000000E+00 -0.00000000000E+00 -0.11463042710E+04  0.11463042710E+04  0.00000000000E+00 0. -1.
          5    1    1    2  502    0 -0.16204613789E+02  0.27619963055E+02 -0.28740267153E+03  0.28921935874E+03  0.47000000000E+01 0. -1.
         -5    1    1    2    0  502  0.11200370746E+03 -0.33935494015E+02 -0.46619626369E+03  0.48068440220E+03  0.47000000000E+01 0. -1.
        -11    1    1    2    0    0 -0.35938069515E+02 -0.35460671363E+02 -0.85948886553E+02  0.99680565576E+02  0.00000000000E+00 0.  1.
         11    1    1    2    0    0 -0.59861024153E+02  0.41776202323E+02 -0.28717195098E+03  0.29630444263E+03  0.00000000000E+00 0. -1.
<mgrwt>
<rscale>  0 0.29966511E+03</rscale>
<asrwt>0</asrwt>
<pdfrwt beam="2">  1        1 0.17635455E+00 0.29966511E+03</pdfrwt>
<pdfrwt beam="1">  1       -1 0.30129990E-02 0.29966511E+03</pdfrwt>
<totfact> 0.46914368E+03</totfact>
</mgrwt>
</event>
<event>
 6    1  0.9240440E-006  0.1265147E+03  0.7546771E-02  0.1248774E+00
          2   -1    0    0  501    0  0.00000000000E+00  0.00000000000E+00  0.14570518418E+03  0.14570518418E+03  0.00000000000E+00 0.  1.
         -2   -1    0    0    0  501 -0.00000000000E+00 -0.00000000000E+00 -0.83751676945E+02  0.83751676945E+02  0.00000000000E+00 0. -1.
          5    1    1    2  502    0 -0.10180250885E+02 -0.69122796314E+02  0.28732578545E+02  0.75691806348E+02  0.47000000000E+01 0.  1.
         -5    1    1    2    0  502  0.20320268767E+02  0.52463312960E+02  0.25918068534E+02  0.62122047665E+02  0.47000000000E+01 0.  1.
        -11    1    1    2    0    0 -0.44729206863E+01 -0.26642325503E+02  0.31675431265E+02  0.41631159886E+02  0.00000000000E+00 0.  1.
         11    1    1    2    0    0 -0.56670971955E+01  0.43301808857E+02 -0.24372571108E+02  0.50011847229E+02  0.00000000000E+00 0. -1.
<mgrwt>
<rscale>  0 0.11662313E+03</rscale>
<asrwt>0</asrwt>
<pdfrwt beam="1">  1        2 0.22416182E-01 0.12651468E+03</pdfrwt>
<pdfrwt beam="2">  1       -2 0.12884873E-01 0.12651468E+03</pdfrwt>
<totfact> 0.10028923E+04</totfact>
</mgrwt>
</event>
<event>
 6    1  0.9240440E-006  0.1451849E+03  0.7546771E-02  0.1217909E+00
          1   -1    0    0  501    0  0.00000000000E+00  0.00000000000E+00  0.11924212566E+04  0.11924212566E+04  0.00000000000E+00 0. -1.
         -1   -1    0    0    0  501 -0.00000000000E+00 -0.00000000000E+00 -0.19774733038E+02  0.19774733038E+02  0.00000000000E+00 0.  1.
          5    1    1    2  502    0  0.49377723774E+02 -0.16566394242E+02  0.21102647114E+03  0.21740944447E+03  0.47000000000E+01 0. -1.
         -5    1    1    2    0  502 -0.13803048239E+02  0.81218533084E+02  0.74926913797E+03  0.75379924739E+03  0.47000000000E+01 0. -1.
        -11    1    1    2    0    0 -0.21047756884E+01  0.13100013198E+02  0.98947543537E+00  0.13304867084E+02  0.00000000000E+00 0.  1.
         11    1    1    2    0    0 -0.33469899847E+02 -0.77752152040E+02  0.21136143905E+03  0.22768243072E+03  0.00000000000E+00 0. -1.
<mgrwt>
<rscale>  0 0.13664972E+03</rscale>
<asrwt>0</asrwt>
<pdfrwt beam="1">  1        1 0.18344937E+00 0.14518494E+03</pdfrwt>
<pdfrwt beam="2">  1       -1 0.30422676E-02 0.14518494E+03</pdfrwt>
<totfact> 0.42154870E+03</totfact>
</mgrwt>
</event>
<event>
 6    1  0.9240440E-006  0.2422663E+03  0.7546771E-02  0.1118292E+00
         -3   -1    0    0    0  501 -0.00000000000E+00  0.00000000000E+00  0.39097089252E+03  0.39097089252E+03  0.00000000000E+00 0.  1.
          3   -1    0    0  501    0  0.00000000000E+00 -0.00000000000E+00 -0.37530250128E+02  0.37530250128E+02  0.00000000000E+00 0. -1.
          5    1    1    2  502    0  0.20886934377E+02 -0.50589790619E+02  0.19628984155E+03  0.20383175130E+03  0.47000000000E+01 0. -1.
         -5    1    1    2    0  502 -0.32208903453E+01  0.18073135576E+01 -0.18596261544E+02  0.19533342272E+02  0.47000000000E+01 0. -1.
        -11    1    1    2    0    0 -0.27659746485E+02  0.62285472477E+02  0.17557328914E+03  0.18833619279E+03  0.00000000000E+00 0.  1.
         11    1    1    2    0    0  0.99937024529E+01 -0.13502995416E+02  0.17377324838E+00  0.16799856281E+02  0.00000000000E+00 0. -1.
<mgrwt>
<rscale>  0 0.24226626E+03</rscale>
<asrwt>0</asrwt>
<pdfrwt beam="2">  1        3 0.57738849E-02 0.24226626E+03</pdfrwt>
<pdfrwt beam="1">  1       -3 0.60149365E-01 0.24226626E+03</pdfrwt>
<totfact> 0.12432449E+03</totfact>
</mgrwt>
</event>
<event>
 6    1  0.9240440E-006  0.1283599E+03  0.7546771E-02  0.1245012E+00
         -1   -1    0    0    0  501 -0.00000000000E+00  0.00000000000E+00  0.64430134999E+02  0.64430134999E+02  0.00000000000E+00 0.  1.
          1   -1    0    0  501    0  0.00000000000E+00 -0.00000000000E+00 -0.19243080333E+03  0.19243080333E+03  0.00000000000E+00 0. -1.
          5    1    1    2  502    0 -0.24217184383E+02  0.32492917412E+02  0.85523132399E+01  0.41683255189E+02  0.47000000000E+01 0.  1.
         -5    1    1    2    0  502  0.25892948979E+02 -0.61655813996E+02 -0.83046215571E+02  0.10672697938E+03  0.47000000000E+01 0.  1.
        -11    1    1    2    0    0 -0.35747029869E+02  0.44405709396E+02 -0.32165759713E+02  0.65454971311E+02  0.00000000000E+00 0.  1.
         11    1    1    2    0    0  0.34071265272E+02 -0.15242812813E+02 -0.21341006284E+02  0.42995732450E+02  0.00000000000E+00 0. -1.
<mgrwt>
<rscale>  0 0.11884668E+03</rscale>
<asrwt>0</asrwt>
<pdfrwt beam="2">  1        1 0.29604739E-01 0.12835987E+03</pdfrwt>
<pdfrwt beam="1">  1       -1 0.99123285E-02 0.12835987E+03</pdfrwt>
<totfact> 0.89526831E+03</totfact>
</mgrwt>
</event>
<event>
 6    1  0.9240440E-006  0.1261255E+03  0.7546771E-02  0.1280758E+00
         -1   -1    0    0    0  501 -0.00000000000E+00  0.00000000000E+00  0.11134942763E+03  0.11134942763E+03  0.00000000000E+00 0.  1.
          1   -1    0    0  501    0  0.00000000000E+00 -0.00000000000E+00 -0.69536307755E+02  0.69536307755E+02  0.00000000000E+00 0. -1.
          5    1    1    2  502    0 -0.27763116955E+02  0.61322313439E+02  0.35866847488E+01  0.67573449639E+02  0.47000000000E+01 0. -1.
         -5    1    1    2    0  502  0.33228593626E+02 -0.46399989671E+02  0.20556082882E+02  0.60841934710E+02  0.47000000000E+01 0. -1.
        -11    1    1    2    0    0 -0.70659084673E+01  0.16383119054E+02  0.87945252810E+01  0.19891639634E+02  0.00000000000E+00 0.  1.
         11    1    1    2    0    0  0.16004317958E+01 -0.31305442822E+02  0.88758269606E+01  0.32578711399E+02  0.00000000000E+00 0. -1.
<mgrwt>
<rscale>  0 0.99780529E+02</rscale>
<asrwt>0</asrwt>
<pdfrwt beam="2">  1        1 0.10697893E-01 0.12612548E+03</pdfrwt>
<pdfrwt beam="1">  1       -1 0.17130681E-01 0.12612548E+03</pdfrwt>
<totfact> 0.14071704E+04</totfact>
</mgrwt>
</event>
<event>
 6    1  0.9240440E-006  0.1518444E+03  0.7546771E-02  0.1206705E+00
         -1   -1    0    0    0  501 -0.00000000000E+00  0.00000000000E+00  0.17647101690E+02  0.17647101690E+02  0.00000000000E+00 0.  1.
          1   -1    0    0  501    0  0.00000000000E+00 -0.00000000000E+00 -0.13816007993E+04  0.13816007993E+04  0.00000000000E+00 0. -1.
          5    1    1    2  502    0  0.74144641164E+02 -0.17637689808E+02 -0.49213248045E+03  0.49802106806E+03  0.47000000000E+01 0.  1.
         -5    1    1    2    0  502 -0.41781602146E+02 -0.62265776939E+02 -0.55595638103E+03  0.56101008624E+03  0.47000000000E+01 0.  1.
        -11    1    1    2    0    0 -0.31922322684E+02  0.69748756130E+02 -0.32013162865E+03  0.32919323099E+03  0.00000000000E+00 0. -1.
         11    1    1    2    0    0 -0.44071633361E+00  0.10154710616E+02  0.42667925678E+01  0.11023515655E+02  0.00000000000E+00 0.  1.
<mgrwt>
<rscale>  0 0.14503922E+03</rscale>
<asrwt>0</asrwt>
<pdfrwt beam="2">  1        1 0.21255399E+00 0.15184441E+03</pdfrwt>
<pdfrwt beam="1">  1       -1 0.27149385E-02 0.15184441E+03</pdfrwt>
<totfact> 0.37162773E+03</totfact>
</mgrwt>
</event>
<event>
 6    1  0.9240440E-006  0.3262261E+03  0.7546771E-02  0.1088500E+00
          3   -1    0    0  501    0  0.00000000000E+00  0.00000000000E+00  0.72153351173E+02  0.72153351173E+02  0.00000000000E+00 0. -1.
         -3   -1    0    0    0  501 -0.00000000000E+00 -0.00000000000E+00 -0.11579884549E+04  0.11579884549E+04  0.00000000000E+00 0.  1.
          5    1    1    2  502    0  0.19452936976E+02 -0.14911466356E+03 -0.65843770649E+02  0.16422877878E+03  0.47000000000E+01 0. -1.
         -5    1    1    2    0  502 -0.88593208699E+02 -0.31469173657E+02 -0.36061188407E+03  0.37269570222E+03  0.47000000000E+01 0.  1.
        -11    1    1    2    0    0  0.55430272650E+02  0.17836580555E+03 -0.65037791288E+03  0.67666705645E+03  0.00000000000E+00 0.  1.
         11    1    1    2    0    0  0.13709999073E+02  0.22180316663E+01 -0.90015361114E+01  0.16550268621E+02  0.00000000000E+00 0. -1.
<mgrwt>
<rscale>  0 0.29356918E+03</rscale>
<asrwt>0</asrwt>
<pdfrwt beam="1">  1        3 0.11100515E-01 0.32622611E+03</pdfrwt>
<pdfrwt beam="2">  1       -3 0.17815207E+00 0.32622611E+03</pdfrwt>
<totfact> 0.34048202E+01</totfact>
</mgrwt>
</event>
<event>
 6    1  0.9240440E-006  0.1467570E+03  0.7546771E-02  0.1214723E+00
         -2   -1    0    0    0  501 -0.00000000000E+00  0.00000000000E+00  0.13549355532E+02  0.13549355532E+02  0.00000000000E+00 0.  1.
          2   -1    0    0  501    0  0.00000000000E+00 -0.00000000000E+00 -0.13815356501E+04  0.13815356501E+04  0.00000000000E+00 0. -1.
          5    1    1    2  502    0  0.12305667436E+02  0.18184680321E+02 -0.31932779700E+02  0.39037219020E+02  0.47000000000E+01 0.  1.
         -5    1    1    2    0  502  0.24990669151E+02 -0.85427975227E+02 -0.89689890206E+03  0.90131692707E+03  0.47000000000E+01 0.  1.
        -11    1    1    2    0    0  0.21991369863E+01 -0.10614610155E+02 -0.50932269798E+01  0.11976940899E+02  0.00000000000E+00 0.  1.
         11    1    1    2    0    0 -0.39495473573E+02  0.77857905062E+02 -0.43406138586E+03  0.44275391868E+03  0.00000000000E+00 0. -1.
<mgrwt>
<rscale>  0 0.13896879E+03</rscale>
<asrwt>0</asrwt>
<pdfrwt beam="2">  1        2 0.21254402E+00 0.14675703E+03</pdfrwt>
<pdfrwt beam="1">  1       -2 0.20845155E-02 0.14675703E+03</pdfrwt>
<totfact> 0.11212611E+04</totfact>
</mgrwt>
</event>
<event>
 6    1  0.9240440E-006  0.2285657E+03  0.7546771E-02  0.1130857E+00
          2   -1    0    0  501    0  0.00000000000E+00  0.00000000000E+00  0.59568772320E+03  0.59568772320E+03  0.00000000000E+00 0. -1.
         -2   -1    0    0    0  501 -0.00000000000E+00 -0.00000000000E+00 -0.82563411970E+02  0.82563411970E+02  0.00000000000E+00 0.  1.
          5    1    1    2  502    0 -0.16862856564E+02 -0.18779650525E+03  0.25878595431E+03  0.32022514496E+03  0.47000000000E+01 0.  1.
         -5    1    1    2    0  502 -0.39335218649E+02  0.48956977287E+01  0.51546918886E+02  0.65195108169E+02  0.47000000000E+01 0.  1.
        -11    1    1    2    0    0  0.57499113540E+02  0.15654982548E+03  0.20730690205E+03  0.26606417939E+03  0.00000000000E+00 0. -1.
         11    1    1    2    0    0 -0.13010383258E+01  0.26350982044E+02 -0.45154640206E+01  0.26766702650E+02  0.00000000000E+00 0.  1.
<mgrwt>
<rscale>  0 0.22410743E+03</rscale>
<asrwt>0</asrwt>
<pdfrwt beam="1">  1        2 0.91644262E-01 0.22856570E+03</pdfrwt>
<pdfrwt beam="2">  1       -2 0.12702064E-01 0.22856570E+03</pdfrwt>
<totfact> 0.22802967E+03</totfact>
</mgrwt>
</event>
<event>
 6    1  0.9240440E-006  0.1531110E+03  0.7546771E-02  0.1205916E+00
         -1   -1    0    0    0  501 -0.00000000000E+00  0.00000000000E+00  0.52385246120E+02  0.52385246120E+02  0.00000000000E+00 0.  1.
          1   -1    0    0  501    0  0.00000000000E+00 -0.00000000000E+00 -0.37019428107E+03  0.37019428107E+03  0.00000000000E+00 0. -1.
          5    1    1    2  502    0  0.23504920246E+02 -0.44698848039E+02 -0.10558598893E+03  0.11713649880E+03  0.47000000000E+01 0.  1.
         -5    1    1    2    0  502 -0.90827105944E+02 -0.12628439417E+02 -0.67567219202E+02  0.11400201650E+03  0.47000000000E+01 0.  1.
        -11    1    1    2    0    0  0.67079605354E+01  0.60330583109E+02 -0.96336492656E+02  0.11386613109E+03  0.00000000000E+00 0.  1.
         11    1    1    2    0    0  0.60614225163E+02 -0.30032956523E+01 -0.48319334160E+02  0.77574880796E+02  0.00000000000E+00 0. -1.
<mgrwt>
<rscale>  0 0.14565534E+03</rscale>
<asrwt>0</asrwt>
<pdfrwt beam="2">  1        1 0.56952969E-01 0.15311100E+03</pdfrwt>
<pdfrwt beam="1">  1       -1 0.80592683E-02 0.15311100E+03</pdfrwt>
<totfact> 0.55045030E+03</totfact>
</mgrwt>
</event>
<event>
 6    1  0.9240440E-006  0.1413584E+03  0.7546771E-02  0.1222405E+00
          1   -1    0    0  501    0  0.00000000000E+00  0.00000000000E+00  0.50861358467E+03  0.50861358467E+03  0.00000000000E+00 0. -1.
         -1   -1    0    0    0  501 -0.00000000000E+00 -0.00000000000E+00 -0.38307185868E+02  0.38307185868E+02  0.00000000000E+00 0.  1.
          5    1    1    2  502    0 -0.20175473709E+02 -0.12608138444E+02  0.22442699983E+03  0.22573343383E+03  0.47000000000E+01 0. -1.
         -5    1    1    2    0  502  0.85274694652E+02  0.23622441593E+02  0.14646775073E+03  0.17118611304E+03  0.47000000000E+01 0. -1.
        -11    1    1    2    0    0 -0.11357804334E+02  0.17425824493E+02 -0.11314908776E+02  0.23678814142E+02  0.00000000000E+00 0.  1.
         11    1    1    2    0    0 -0.53741416609E+02 -0.28440127643E+02  0.11072655701E+03  0.12632240952E+03  0.00000000000E+00 0. -1.
<mgrwt>
<rscale>  0 0.13346390E+03</rscale>
<asrwt>0</asrwt>
<pdfrwt beam="1">  1        1 0.78248239E-01 0.14135845E+03</pdfrwt>
<pdfrwt beam="2">  1       -1 0.58934136E-02 0.14135845E+03</pdfrwt>
<totfact> 0.58401209E+03</totfact>
</mgrwt>
</event>
<event>
 6    1  0.9240440E-006  0.1285274E+03  0.7546771E-02  0.1243958E+00
          2   -1    0    0  501    0  0.00000000000E+00  0.00000000000E+00  0.16950770710E+03  0.16950770710E+03  0.00000000000E+00 0. -1.
         -2   -1    0    0    0  501 -0.00000000000E+00 -0.00000000000E+00 -0.80468626069E+02  0.80468626069E+02  0.00000000000E+00 0.  1.
          5    1    1    2  502    0 -0.18830181635E+02  0.21116601224E+02 -0.21447231632E+02  0.35812851497E+02  0.47000000000E+01 0. -1.
         -5    1    1    2    0  502  0.11986199821E+02 -0.50226029140E+02  0.10608888066E+03  0.11808159716E+03  0.47000000000E+01 0. -1.
        -11    1    1    2    0    0  0.11166544666E+02 -0.29135514959E+02  0.18126041314E+02  0.36084945966E+02  0.00000000000E+00 0. -1.
         11    1    1    2    0    0 -0.43225628521E+01  0.58244942875E+02 -0.13728609313E+02  0.59996938537E+02  0.00000000000E+00 0.  1.
<mgrwt>
<rscale>  0 0.11947948E+03</rscale>
<asrwt>0</asrwt>
<pdfrwt beam="1">  1        2 0.26078109E-01 0.12852740E+03</pdfrwt>
<pdfrwt beam="2">  1       -2 0.12379789E-01 0.12852740E+03</pdfrwt>
<totfact> 0.90577124E+03</totfact>
</mgrwt>
</event>
<event>
 6    1  0.9240440E-006  0.3702564E+03  0.7546771E-02  0.1054595E+00
         -1   -1    0    0    0  501 -0.00000000000E+00  0.00000000000E+00  0.41734546467E+02  0.41734546467E+02  0.00000000000E+00 0.  1.
          1   -1    0    0  501    0  0.00000000000E+00 -0.00000000000E+00 -0.82120111105E+03  0.82120111105E+03  0.00000000000E+00 0. -1.
          5    1    1    2  502    0 -0.17998524460E+01 -0.20325701914E+02 -0.21660139377E+03  0.21761118402E+03  0.47000000000E+01 0.  1.
         -5    1    1    2    0  502  0.83321848848E+02 -0.10527617453E+03 -0.18259913033E+03  0.22669392541E+03  0.47000000000E+01 0.  1.
        -11    1    1    2    0    0 -0.94103738156E+02  0.79654731619E+02 -0.31116239796E+03  0.33469751673E+03  0.00000000000E+00 0. -1.
         11    1    1    2    0    0  0.12581741753E+02  0.45947144823E+02 -0.69103642526E+02  0.83933031360E+02  0.00000000000E+00 0.  1.
<mgrwt>
<rscale>  0 0.37025643E+03</rscale>
<asrwt>0</asrwt>
<pdfrwt beam="2">  1        1 0.12633863E+00 0.37025643E+03</pdfrwt>
<pdfrwt beam="1">  1       -1 0.64206994E-02 0.37025643E+03</pdfrwt>
<totfact> 0.26741825E+03</totfact>
</mgrwt>
</event>
<event>
 6    1  0.9240440E-006  0.2554313E+03  0.7546771E-02  0.1109920E+00
         -1   -1    0    0    0  501 -0.00000000000E+00  0.00000000000E+00  0.13435278634E+03  0.13435278634E+03  0.00000000000E+00 0.  1.
          1   -1    0    0  501    0  0.00000000000E+00 -0.00000000000E+00 -0.12140642701E+03  0.12140642701E+03  0.00000000000E+00 0. -1.
          5    1    1    2  502    0 -0.75260067517E+01  0.21961859057E+02 -0.50178843326E+02  0.55488470410E+02  0.47000000000E+01 0.  1.
         -5    1    1    2    0  502  0.31419433180E+02 -0.74750709286E+02  0.24117510677E+02  0.84726581669E+02  0.47000000000E+01 0.  1.
        -11    1    1    2    0    0  0.29618645024E+02  0.36628593325E+02 -0.47448531408E+00  0.47107781930E+02  0.00000000000E+00 0. -1.
         11    1    1    2    0    0 -0.53512071453E+02  0.16160256903E+02  0.39482177290E+02  0.68436379345E+02  0.00000000000E+00 0.  1.
<mgrwt>
<rscale>  0 0.25543134E+03</rscale>
<asrwt>0</asrwt>
<pdfrwt beam="2">  1        1 0.18677912E-01 0.25543134E+03</pdfrwt>
<pdfrwt beam="1">  1       -1 0.20669659E-01 0.25543134E+03</pdfrwt>
<totfact> 0.52749109E+03</totfact>
</mgrwt>
</event>
<event>
 6    1  0.9240440E-006  0.1371627E+03  0.7546771E-02  0.1229148E+00
         -1   -1    0    0    0  501 -0.00000000000E+00  0.00000000000E+00  0.73221089240E+03  0.73221089240E+03  0.00000000000E+00 0.  1.
          1   -1    0    0  501    0  0.00000000000E+00 -0.00000000000E+00 -0.20360669816E+02  0.20360669816E+02  0.00000000000E+00 0. -1.
          5    1    1    2  502    0  0.38950096543E+02  0.36877617778E+02  0.13266440839E+03  0.14317473229E+03  0.47000000000E+01 0.  1.
         -5    1    1    2    0  502 -0.54140387800E+01 -0.82315437728E+02  0.25347642054E+03  0.26660369254E+03  0.47000000000E+01 0.  1.
        -11    1    1    2    0    0 -0.89220143202E+01  0.69848531513E+02  0.24582087090E+03  0.25570748965E+03  0.00000000000E+00 0.  1.
         11    1    1    2    0    0 -0.24614043442E+02 -0.24410711563E+02  0.79888522754E+02  0.87085647735E+02  0.00000000000E+00 0. -1.
<mgrwt>
<rscale>  0 0.12886586E+03</rscale>
<asrwt>0</asrwt>
<pdfrwt beam="2">  1        1 0.31324113E-02 0.13716274E+03</pdfrwt>
<pdfrwt beam="1">  1       -1 0.11264781E+00 0.13716274E+03</pdfrwt>
<totfact> 0.23828725E+03</totfact>
</mgrwt>
</event>
<event>
 6    1  0.9240440E-006  0.1584340E+03  0.7546771E-02  0.1198385E+00
          1   -1    0    0  501    0  0.00000000000E+00  0.00000000000E+00  0.73654981637E+03  0.73654981637E+03  0.00000000000E+00 0. -1.
         -1   -1    0    0    0  501 -0.00000000000E+00 -0.00000000000E+00 -0.35617416586E+02  0.35617416586E+02  0.00000000000E+00 0.  1.
          5    1    1    2  502    0 -0.14493509709E+02  0.96270955684E+02  0.41343211052E+03  0.42476624011E+03  0.47000000000E+01 0. -1.
         -5    1    1    2    0  502 -0.49891503245E+02 -0.23277720473E+02  0.12913659185E+03  0.14046125345E+03  0.47000000000E+01 0. -1.
        -11    1    1    2    0    0  0.81839626610E+02 -0.59148203127E+02  0.15413105226E+03  0.18426235559E+03  0.00000000000E+00 0. -1.
         11    1    1    2    0    0 -0.17454613655E+02 -0.13845032085E+02  0.42326451596E+01  0.22677383807E+02  0.00000000000E+00 0.  1.
<mgrwt>
<rscale>  0 0.15171227E+03</rscale>
<asrwt>0</asrwt>
<pdfrwt beam="1">  1        1 0.11331535E+00 0.15843397E+03</pdfrwt>
<pdfrwt beam="2">  1       -1 0.54796031E-02 0.15843397E+03</pdfrwt>
<totfact> 0.39277367E+03</totfact>
</mgrwt>
</event>
<event>
 6    1  0.9240440E-006  0.1618918E+03  0.7546771E-02  0.1193652E+00
          2   -1    0    0  501    0  0.00000000000E+00  0.00000000000E+00  0.14461396890E+04  0.14461396890E+04  0.00000000000E+00 0. -1.
         -2   -1    0    0    0  501 -0.00000000000E+00 -0.00000000000E+00 -0.17143060292E+02  0.17143060292E+02  0.00000000000E+00 0.  1.
          5    1    1    2  502    0  0.79624517019E+02  0.26916868178E+02  0.64292532747E+03  0.64841317708E+03  0.47000000000E+01 0.  1.
         -5    1    1    2    0  502  0.12962202762E+02 -0.71780093367E+02  0.34142766187E+03  0.34916377073E+03  0.47000000000E+01 0.  1.
        -11    1    1    2    0    0 -0.55508593353E+02 -0.22107252132E+02  0.23654292108E+03  0.24397231000E+03  0.00000000000E+00 0.  1.
         11    1    1    2    0    0 -0.37078126427E+02  0.66970477321E+02  0.20810071824E+03  0.22173349143E+03  0.00000000000E+00 0. -1.
<mgrwt>
<rscale>  0 0.15568886E+03</rscale>
<asrwt>0</asrwt>
<pdfrwt beam="1">  1        2 0.22248293E+00 0.16189181E+03</pdfrwt>
<pdfrwt beam="2">  1       -2 0.26373950E-02 0.16189181E+03</pdfrwt>
<totfact> 0.73732460E+03</totfact>
</mgrwt>
</event>
<event>
 6    1  0.9240440E-006  0.1349427E+03  0.7546771E-02  0.1232015E+00
          2   -1    0    0  501    0  0.00000000000E+00  0.00000000000E+00  0.30116350997E+03  0.30116350997E+03  0.00000000000E+00 0. -1.
         -2   -1    0    0    0  501 -0.00000000000E+00 -0.00000000000E+00 -0.48435073498E+02  0.48435073498E+02  0.00000000000E+00 0.  1.
          5    1    1    2  502    0  0.44932273813E+02  0.73739868765E+02  0.71849085159E+02  0.11243157258E+03  0.47000000000E+01 0.  1.
         -5    1    1    2    0  502 -0.14658653106E+01 -0.47354611372E+02  0.55384602573E+02  0.73035280389E+02  0.47000000000E+01 0.  1.
        -11    1    1    2    0    0 -0.14506938214E+02  0.18516541490E+02 -0.41704781599E+01  0.23889463224E+02  0.00000000000E+00 0.  1.
         11    1    1    2    0    0 -0.28959470289E+02 -0.44901798882E+02  0.12966522690E+03  0.14024226727E+03  0.00000000000E+00 0. -1.
<mgrwt>
<rscale>  0 0.12697474E+03</rscale>
<asrwt>0</asrwt>
<pdfrwt beam="1">  1        2 0.46332846E-01 0.13494274E+03</pdfrwt>
<pdfrwt beam="2">  1       -2 0.74515500E-02 0.13494274E+03</pdfrwt>
<totfact> 0.10867852E+04</totfact>
</mgrwt>
</event>
<event>
 6    1  0.9240440E-006  0.1342259E+03  0.7546771E-02  0.1234297E+00
         -2   -1    0    0    0  501 -0.00000000000E+00  0.00000000000E+00  0.10794494718E+03  0.10794494718E+03  0.00000000000E+00 0.  1.
          2   -1    0    0  501    0  0.00000000000E+00 -0.00000000000E+00 -0.16168356508E+03  0.16168356508E+03  0.00000000000E+00 0. -1.
          5    1    1    2  502    0 -0.73023301391E+02  0.22033066905E+02 -0.88951823491E+02  0.11727052266E+03  0.47000000000E+01 0.  1.
         -5    1    1    2    0  502  0.25961368344E+02 -0.35031369945E+02 -0.18304687157E+00  0.43855592946E+02  0.47000000000E+01 0.  1.
        -11    1    1    2    0    0  0.41652371336E+02 -0.21351813286E+01  0.63591542774E+02  0.76048427660E+02  0.00000000000E+00 0.  1.
         11    1    1    2    0    0  0.54095617102E+01  0.15133484369E+02 -0.28195290314E+02  0.32453968985E+02  0.00000000000E+00 0. -1.
<mgrwt>
<rscale>  0 0.12549564E+03</rscale>
<asrwt>0</asrwt>
<pdfrwt beam="2">  1        2 0.24874395E-01 0.13422593E+03</pdfrwt>
<pdfrwt beam="1">  1       -2 0.16606915E-01 0.13422593E+03</pdfrwt>
<totfact> 0.59381450E+03</totfact>
</mgrwt>
</event>
<event>
 6    1  0.9240440E-006  0.1283942E+03  0.7546771E-02  0.1244112E+00
         -2   -1    0    0    0  501 -0.00000000000E+00  0.00000000000E+00  0.13861563279E+02  0.13861563279E+02  0.00000000000E+00 0.  1.
          2   -1    0    0  501    0  0.00000000000E+00 -0.00000000000E+00 -0.10351861835E+04  0.10351861835E+04  0.00000000000E+00 0. -1.
          5    1    1    2  502    0  0.27266876585E+02  0.50027004714E+02 -0.58992492608E+03  0.59268852880E+03  0.47000000000E+01 0. -1.
         -5    1    1    2    0  502  0.20159910263E+01 -0.52284461301E+02 -0.16760778229E+03  0.17564790860E+03  0.47000000000E+01 0. -1.
        -11    1    1    2    0    0 -0.11349757952E+01 -0.37004046366E+02 -0.18192455657E+03  0.18565325718E+03  0.00000000000E+00 0. -1.
         11    1    1    2    0    0 -0.28147891816E+02  0.39261502953E+02 -0.81867355326E+02  0.95058052241E+02  0.00000000000E+00 0.  1.
<mgrwt>
<rscale>  0 0.11938707E+03</rscale>
<asrwt>0</asrwt>
<pdfrwt beam="2">  1        2 0.15925941E+00 0.12839422E+03</pdfrwt>
<pdfrwt beam="1">  1       -2 0.21325482E-02 0.12839422E+03</pdfrwt>
<totfact> 0.16752001E+04</totfact>
</mgrwt>
</event>
<event>
 6    1  0.9240440E-006  0.1611424E+03  0.7546771E-02  0.1194798E+00
         -2   -1    0    0    0  501 -0.00000000000E+00  0.00000000000E+00  0.62027589870E+02  0.62027589870E+02  0.00000000000E+00 0.  1.
          2   -1    0    0  501    0  0.00000000000E+00 -0.00000000000E+00 -0.53534692666E+03  0.53534692666E+03  0.00000000000E+00 0. -1.
          5    1    1    2  502    0  0.13305307451E+02 -0.17319816274E+02 -0.90305220065E-01  0.22340666891E+02  0.47000000000E+01 0. -1.
         -5    1    1    2    0  502  0.48162387099E+02 -0.63702753428E+02 -0.42092295343E+03  0.42845755805E+03  0.47000000000E+01 0. -1.
        -11    1    1    2    0    0 -0.21147781907E+02  0.82733381877E+02 -0.66662466495E+01  0.85653254467E+02  0.00000000000E+00 0.  1.
         11    1    1    2    0    0 -0.40319912642E+02 -0.17108121748E+01 -0.45639831491E+02  0.60923037123E+02  0.00000000000E+00 0. -1.
<mgrwt>
<rscale>  0 0.15471369E+03</rscale>
<asrwt>0</asrwt>
<pdfrwt beam="2">  1        2 0.82361065E-01 0.16114241E+03</pdfrwt>
<pdfrwt beam="1">  1       -2 0.95427062E-02 0.16114241E+03</pdfrwt>
<totfact> 0.40219926E+03</totfact>
</mgrwt>
</event>
<event>
 6    1  0.9240440E-006  0.1408960E+03  0.7546771E-02  0.1223299E+00
         -1   -1    0    0    0  501 -0.00000000000E+00  0.00000000000E+00  0.18053803692E+03  0.18053803692E+03  0.00000000000E+00 0.  1.
          1   -1    0    0  501    0  0.00000000000E+00 -0.00000000000E+00 -0.92755499135E+02  0.92755499135E+02  0.00000000000E+00 0. -1.
          5    1    1    2  502    0  0.68595826981E+02  0.58677183283E+02  0.48103350178E+02  0.10239346471E+03  0.47000000000E+01 0.  1.
         -5    1    1    2    0  502 -0.22414240492E+02 -0.12914306102E+02 -0.29738460284E+02  0.39694376163E+02  0.47000000000E+01 0.  1.
        -11    1    1    2    0    0  0.24115175135E+02 -0.25166723627E+02  0.83603535506E+01  0.35844123108E+02  0.00000000000E+00 0.  1.
         11    1    1    2    0    0 -0.70296761624E+02 -0.20596153554E+02  0.61057294345E+02  0.95361572076E+02  0.00000000000E+00 0. -1.
<mgrwt>
<rscale>  0 0.13284180E+03</rscale>
<asrwt>0</asrwt>
<pdfrwt beam="2">  1        1 0.14270077E-01 0.14089601E+03</pdfrwt>
<pdfrwt beam="1">  1       -1 0.27775082E-01 0.14089601E+03</pdfrwt>
<totfact> 0.44493373E+03</totfact>
</mgrwt>
</event>
<event>
 6    1  0.9240440E-006  0.1621877E+03  0.7546771E-02  0.1193545E+00
          2   -1    0    0  501    0  0.00000000000E+00  0.00000000000E+00  0.98145440445E+03  0.98145440445E+03  0.00000000000E+00 0. -1.
         -2   -1    0    0    0  501 -0.00000000000E+00 -0.00000000000E+00 -0.27351928258E+02  0.27351928258E+02  0.00000000000E+00 0.  1.
          5    1    1    2  502    0 -0.47559091814E+02 -0.25565589531E+02  0.17348853157E+03  0.18175760553E+03  0.47000000000E+01 0.  1.
         -5    1    1    2    0  502  0.72346587358E+02 -0.74763487335E+02  0.53735967764E+03  0.54735831125E+03  0.47000000000E+01 0.  1.
        -11    1    1    2    0    0  0.15289870432E+02  0.25739639019E+02  0.10034935808E+02  0.31575450770E+02  0.00000000000E+00 0.  1.
         11    1    1    2    0    0 -0.40077365976E+02  0.74589437846E+02  0.23321933118E+03  0.24811496516E+03  0.00000000000E+00 0. -1.
<mgrwt>
<rscale>  0 0.15578008E+03</rscale>
<asrwt>0</asrwt>
<pdfrwt beam="1">  1        2 0.15099296E+00 0.16218768E+03</pdfrwt>
<pdfrwt beam="2">  1       -2 0.42079897E-02 0.16218768E+03</pdfrwt>
<totfact> 0.67149864E+03</totfact>
</mgrwt>
</event>
<event>
 6    1  0.9240440E-006  0.3734561E+03  0.7546771E-02  0.1053379E+00
         -2   -1    0    0    0  501 -0.00000000000E+00  0.00000000000E+00  0.70731619994E+02  0.70731619994E+02  0.00000000000E+00 0.  1.
          2   -1    0    0  501    0  0.00000000000E+00 -0.00000000000E+00 -0.49295294138E+03  0.49295294138E+03  0.00000000000E+00 0. -1.
          5    1    1    2  502    0  0.49311689888E+02 -0.15425597925E+03 -0.16526004210E+03  0.23142930110E+03  0.47000000000E+01 0.  1.
         -5    1    1    2    0  502 -0.57059491172E+00  0.11756392819E+02 -0.86676137494E+02  0.87597837653E+02  0.47000000000E+01 0.  1.
        -11    1    1    2    0    0 -0.32658968936E+02  0.65099026860E+02 -0.21109317000E+02  0.75829379625E+02  0.00000000000E+00 0.  1.
         11    1    1    2    0    0 -0.16082126040E+02  0.77400559566E+02 -0.14917582480E+03  0.16882804300E+03  0.00000000000E+00 0. -1.
<mgrwt>
<rscale>  0 0.37345608E+03</rscale>
<asrwt>0</asrwt>
<pdfrwt beam="2">  1        2 0.75838914E-01 0.37345608E+03</pdfrwt>
<pdfrwt beam="1">  1       -2 0.10881788E-01 0.37345608E+03</pdfrwt>
<totfact> 0.36829864E+03</totfact>
</mgrwt>
</event>
<event>
 6    1  0.9240440E-006  0.1615197E+03  0.7546771E-02  0.1195179E+00
         -2   -1    0    0    0  501 -0.00000000000E+00  0.00000000000E+00  0.76185159337E+02  0.76185159337E+02  0.00000000000E+00 0.  1.
          2   -1    0    0  501    0  0.00000000000E+00 -0.00000000000E+00 -0.43362946210E+03  0.43362946210E+03  0.00000000000E+00 0. -1.
          5    1    1    2  502    0 -0.76221933327E+02  0.44870432687E+02 -0.22705771776E+03  0.24372204670E+03  0.47000000000E+01 0. -1.
         -5    1    1    2    0  502 -0.24112294557E+02 -0.64809316292E+02 -0.10958059862E+03  0.12965973862E+03  0.47000000000E+01 0. -1.
        -11    1    1    2    0    0  0.27249393165E+02  0.49026018960E+02 -0.11074792821E+02  0.57172816958E+02  0.00000000000E+00 0.  1.
         11    1    1    2    0    0  0.73084834719E+02 -0.29087135355E+02 -0.97311935641E+01  0.79260019160E+02  0.00000000000E+00 0. -1.
<mgrwt>
<rscale>  0 0.15439078E+03</rscale>
<asrwt>0</asrwt>
<pdfrwt beam="2">  1        2 0.66712227E-01 0.16151966E+03</pdfrwt>
<pdfrwt beam="1">  1       -2 0.11720793E-01 0.16151966E+03</pdfrwt>
<totfact> 0.36606710E+03</totfact>
</mgrwt>
</event>
<event>
 6    1  0.9240440E-006  0.3140372E+03  0.7546771E-02  0.1078427E+00
         -1   -1    0    0    0  501 -0.00000000000E+00  0.00000000000E+00  0.34490934497E+02  0.34490934497E+02  0.00000000000E+00 0.  1.
          1   -1    0    0  501    0  0.00000000000E+00 -0.00000000000E+00 -0.71482107807E+03  0.71482107807E+03  0.00000000000E+00 0. -1.
          5    1    1    2  502    0  0.37715302961E+02 -0.10923987679E+03 -0.48112103216E+03  0.49482858886E+03  0.47000000000E+01 0.  1.
         -5    1    1    2    0  502 -0.34113678446E+01  0.29305890947E+02 -0.56078277953E+02  0.63540034096E+02  0.47000000000E+01 0.  1.
        -11    1    1    2    0    0  0.21996648953E+02  0.63486966841E+02 -0.67576275162E+02  0.95294283610E+02  0.00000000000E+00 0.  1.
         11    1    1    2    0    0 -0.56300584069E+02  0.16447019004E+02 -0.75554558294E+02  0.95649106005E+02  0.00000000000E+00 0. -1.
<mgrwt>
<rscale>  0 0.31403724E+03</rscale>
<asrwt>0</asrwt>
<pdfrwt beam="2">  1        1 0.10997247E+00 0.31403724E+03</pdfrwt>
<pdfrwt beam="1">  1       -1 0.53062976E-02 0.31403724E+03</pdfrwt>
<totfact> 0.44035419E+03</totfact>
</mgrwt>
</event>
<event>
 6    1  0.9240440E-006  0.1773527E+03  0.7546771E-02  0.1176225E+00
         -2   -1    0    0    0  501 -0.00000000000E+00  0.00000000000E+00  0.43734594459E+02  0.43734594459E+02  0.00000000000E+00 0.  1.
          2   -1    0    0  501    0  0.00000000000E+00 -0.00000000000E+00 -0.85130278226E+03  0.85130278226E+03  0.00000000000E+00 0. -1.
          5    1    1    2  502    0 -0.26034257249E+02 -0.11612865659E+03 -0.31573328233E+03  0.33745109720E+03  0.47000000000E+01 0. -1.
         -5    1    1    2    0  502 -0.36064505558E+02  0.67093973269E+01 -0.33438957696E+03  0.33642851210E+03  0.47000000000E+01 0. -1.
        -11    1    1    2    0    0  0.43104794640E+02  0.95210831203E+02 -0.16581480266E+03  0.19600427159E+03  0.00000000000E+00 0. -1.
         11    1    1    2    0    0  0.18993968167E+02  0.14208428062E+02  0.83694741532E+01  0.25153495827E+02  0.00000000000E+00 0.  1.
<mgrwt>
<rscale>  0 0.17156531E+03</rscale>
<asrwt>0</asrwt>
<pdfrwt beam="2">  1        2 0.13096965E+00 0.17735274E+03</pdfrwt>
<pdfrwt beam="1">  1       -2 0.67283995E-02 0.17735274E+03</pdfrwt>
<totfact> 0.39971027E+03</totfact>
</mgrwt>
</event>
<event>
 6    1  0.1883241E-005  0.4884739E+03  0.7546771E-02  0.1016832E+00
         -1   -1    0    0    0  501 -0.00000000000E+00  0.00000000000E+00  0.27599012468E+02  0.27599012468E+02  0.00000000000E+00 0.  1.
          1   -1    0    0  501    0  0.00000000000E+00 -0.00000000000E+00 -0.21613706449E+04  0.21613706449E+04  0.00000000000E+00 0. -1.
          5    1    1    2  502    0 -0.18670610516E+03 -0.79215003496E+02 -0.13077095541E+04  0.13233520145E+04  0.47000000000E+01 0.  1.
         -5    1    1    2    0  502  0.16524820919E+02 -0.47782339222E+01 -0.27638313706E+03  0.27695781209E+03  0.47000000000E+01 0.  1.
        -11    1    1    2    0    0  0.31493658863E+02  0.29282856820E+02 -0.44264037530E+02  0.61714190188E+02  0.00000000000E+00 0.  1.
         11    1    1    2    0    0  0.13868762538E+03  0.54710380598E+02 -0.50541490372E+03  0.52694564054E+03  0.00000000000E+00 0. -1.
<mgrwt>
<rscale>  0 0.48847393E+03</rscale>
<asrwt>0</asrwt>
<pdfrwt beam="2">  1        1 0.33251859E+00 0.48847393E+03</pdfrwt>
<pdfrwt beam="1">  1       -1 0.42460015E-02 0.48847393E+03</pdfrwt>
<totfact> 0.58159173E+02</totfact>
</mgrwt>
</event>
<event>
 6    1  0.9240440E-006  0.2510391E+03  0.7546771E-02  0.1114716E+00
         -2   -1    0    0    0  501 -0.00000000000E+00  0.00000000000E+00  0.15055899856E+03  0.15055899856E+03  0.00000000000E+00 0.  1.
          2   -1    0    0  501    0  0.00000000000E+00 -0.00000000000E+00 -0.40290952683E+03  0.40290952683E+03  0.00000000000E+00 0. -1.
          5    1    1    2  502    0 -0.50059840409E+01 -0.42085022702E+01 -0.59448585909E+02  0.59991630535E+02  0.47000000000E+01 0. -1.
         -5    1    1    2    0  502 -0.18444928329E+03  0.11146053334E+03 -0.10195557923E+03  0.23845758267E+03  0.47000000000E+01 0. -1.
        -11    1    1    2    0    0  0.10769672839E+03 -0.11097712499E+03 -0.44515511535E+02  0.16092277136E+03  0.00000000000E+00 0. -1.
         11    1    1    2    0    0  0.81758538945E+02  0.37250939245E+01 -0.46430851600E+02  0.94096540827E+02  0.00000000000E+00 0.  1.
<mgrwt>
<rscale>  0 0.24777916E+03</rscale>
<asrwt>0</asrwt>
<pdfrwt beam="2">  1        2 0.61986080E-01 0.25103910E+03</pdfrwt>
<pdfrwt beam="1">  1       -2 0.23162923E-01 0.25103910E+03</pdfrwt>
<totfact> 0.12876416E+03</totfact>
</mgrwt>
</event>
<event>
 6    1  0.9240440E-006  0.1253918E+03  0.7546771E-02  0.1250746E+00
         -1   -1    0    0    0  501 -0.00000000000E+00  0.00000000000E+00  0.17403918642E+03  0.17403918642E+03  0.00000000000E+00 0.  1.
          1   -1    0    0  501    0  0.00000000000E+00 -0.00000000000E+00 -0.66825052778E+02  0.66825052778E+02  0.00000000000E+00 0. -1.
          5    1    1    2  502    0 -0.42433902607E+02  0.12520107134E+01  0.72789200158E+02  0.84395268120E+02  0.47000000000E+01 0. -1.
         -5    1    1    2    0  502  0.51948312937E+02 -0.39864844866E+01 -0.13912660074E+02  0.54131057499E+02  0.47000000000E+01 0. -1.
        -11    1    1    2    0    0 -0.23739631898E+02  0.93012244977E+01  0.70629540520E+02  0.75090711102E+02  0.00000000000E+00 0.  1.
         11    1    1    2    0    0  0.14225221567E+02 -0.65667507245E+01 -0.22291946960E+02  0.27247202480E+02  0.00000000000E+00 0. -1.
<mgrwt>
<rscale>  0 0.11547997E+03</rscale>
<asrwt>0</asrwt>
<pdfrwt beam="2">  1        1 0.10280777E-01 0.12539177E+03</pdfrwt>
<pdfrwt beam="1">  1       -1 0.26775259E-01 0.12539177E+03</pdfrwt>
<totfact> 0.72084486E+03</totfact>
</mgrwt>
</event>
<event>
 6    1  0.9240440E-006  0.1350729E+03  0.7546771E-02  0.1234353E+00
         -2   -1    0    0    0  501 -0.00000000000E+00  0.00000000000E+00  0.16526892701E+03  0.16526892701E+03  0.00000000000E+00 0.  1.
          2   -1    0    0  501    0  0.00000000000E+00 -0.00000000000E+00 -0.92751286150E+02  0.92751286150E+02  0.00000000000E+00 0. -1.
          5    1    1    2  502    0  0.53044458777E+01  0.38292941911E+02 -0.54037763538E+02  0.66608230981E+02  0.47000000000E+01 0.  1.
         -5    1    1    2    0  502 -0.39410543930E+02 -0.13543014011E+00  0.55800454559E+02  0.68476200560E+02  0.47000000000E+01 0.  1.
        -11    1    1    2    0    0 -0.14649274953E+02  0.19535573801E+02  0.11815937987E+02  0.27126671209E+02  0.00000000000E+00 0. -1.
         11    1    1    2    0    0  0.48755373005E+02 -0.57693085572E+02  0.58939011853E+02  0.95809110411E+02  0.00000000000E+00 0.  1.
<mgrwt>
<rscale>  0 0.12545955E+03</rscale>
<asrwt>0</asrwt>
<pdfrwt beam="2">  1        2 0.14269429E-01 0.13507293E+03</pdfrwt>
<pdfrwt beam="1">  1       -2 0.25425989E-01 0.13507293E+03</pdfrwt>
<totfact> 0.54257751E+03</totfact>
</mgrwt>
</event>
<event>
 6    1  0.9240440E-006  0.1799883E+03  0.7546771E-02  0.1173342E+00
          2   -1    0    0  501    0  0.00000000000E+00  0.00000000000E+00  0.23644145085E+04  0.23644145085E+04  0.00000000000E+00 0. -1.
         -2   -1    0    0    0  501 -0.00000000000E+00 -0.00000000000E+00 -0.12499984031E+02  0.12499984031E+02  0.00000000000E+00 0.  1.
          5    1    1    2  502    0  0.12941107885E+03 -0.43693398640E+01  0.10583564285E+04  0.10662582887E+04  0.47000000000E+01 0. -1.
         -5    1    1    2    0  502 -0.11359965739E+02 -0.48866255920E+02  0.39527826616E+03  0.39847704763E+03  0.47000000000E+01 0. -1.
        -11    1    1    2    0    0 -0.69796301345E+01 -0.21764103637E+02  0.89616345708E+02  0.92485030475E+02  0.00000000000E+00 0.  1.
         11    1    1    2    0    0 -0.11107148297E+03  0.74999699421E+02  0.80866348407E+03  0.81969412571E+03  0.00000000000E+00 0. -1.
<mgrwt>
<rscale>  0 0.17439377E+03</rscale>
<asrwt>0</asrwt>
<pdfrwt beam="1">  1        2 0.36375572E+00 0.17998828E+03</pdfrwt>
<pdfrwt beam="2">  1       -2 0.19230763E-02 0.17998828E+03</pdfrwt>
<totfact> 0.39025753E+03</totfact>
</mgrwt>
</event>
<event>
 6    1  0.9240440E-006  0.5494461E+03  0.7546771E-02  0.1001622E+00
         -4   -1    0    0    0  501 -0.00000000000E+00  0.00000000000E+00  0.28633471360E+03  0.28633471360E+03  0.00000000000E+00 0.  1.
          4   -1    0    0  501    0  0.00000000000E+00 -0.00000000000E+00 -0.26358230893E+03  0.26358230893E+03  0.00000000000E+00 0. -1.
          5    1    1    2  502    0  0.11807282859E+03 -0.11331912380E+03 -0.15160499286E+03  0.22313354864E+03  0.47000000000E+01 0.  1.
         -5    1    1    2    0  502  0.35450548550E+02  0.28697336094E+02 -0.12311799779E+02  0.47475771771E+02  0.47000000000E+01 0.  1.
        -11    1    1    2    0    0 -0.14584081149E+03  0.32609963501E+02  0.16450832264E+03  0.22225197464E+03  0.00000000000E+00 0.  1.
         11    1    1    2    0    0 -0.76825656576E+01  0.52011824205E+02  0.22160874667E+02  0.57055727479E+02  0.00000000000E+00 0. -1.
<mgrwt>
<rscale>  0 0.54944614E+03</rscale>
<asrwt>0</asrwt>
<pdfrwt beam="2">  1        4 0.40551125E-01 0.54944614E+03</pdfrwt>
<pdfrwt beam="1">  1       -4 0.44051494E-01 0.54944614E+03</pdfrwt>
<totfact> 0.58267829E+01</totfact>
</mgrwt>
</event>
<event>
 6    1  0.9240440E-006  0.1650523E+03  0.7546771E-02  0.1194169E+00
         -1   -1    0    0    0  501 -0.00000000000E+00  0.00000000000E+00  0.70812360806E+02  0.70812360806E+02  0.00000000000E+00 0.  1.
          1   -1    0    0  501    0  0.00000000000E+00 -0.00000000000E+00 -0.47130569485E+03  0.47130569485E+03  0.00000000000E+00 0. -1.
          5    1    1    2  502    0  0.77959816630E+02  0.50376519886E+02 -0.29206806613E+03  0.30649856773E+03  0.47000000000E+01 0. -1.
         -5    1    1    2    0  502  0.13143014812E+02 -0.60033577667E+02 -0.83921038526E+02  0.10412300415E+03  0.47000000000E+01 0.  1.
        -11    1    1    2    0    0 -0.29364727652E+02 -0.40009746941E+02 -0.14006052857E+02  0.51567786427E+02  0.00000000000E+00 0. -1.
         11    1    1    2    0    0 -0.61738103789E+02  0.49666804721E+02 -0.10498176533E+02  0.79928697357E+02  0.00000000000E+00 0.  1.
<mgrwt>
<rscale>  0 0.15524803E+03</rscale>
<asrwt>0</asrwt>
<pdfrwt beam="2">  1        1 0.72508570E-01 0.16505232E+03</pdfrwt>
<pdfrwt beam="1">  1       -1 0.10894209E-01 0.16505232E+03</pdfrwt>
<totfact> 0.25616302E+03</totfact>
</mgrwt>
</event>
<event>
 6    1  0.9240440E-006  0.2498305E+03  0.7546771E-02  0.1115778E+00
         -2   -1    0    0    0  501 -0.00000000000E+00  0.00000000000E+00  0.10959226610E+03  0.10959226610E+03  0.00000000000E+00 0. -1.
          2   -1    0    0  501    0  0.00000000000E+00 -0.00000000000E+00 -0.67663544787E+03  0.67663544787E+03  0.00000000000E+00 0.  1.
          5    1    1    2  502    0  0.43938062246E+02  0.32093320625E+02 -0.39242870365E+02  0.67250482653E+02  0.47000000000E+01 0.  1.
         -5    1    1    2    0  502  0.17237533224E+03 -0.31758826734E+02 -0.42953682235E+03  0.46394595590E+03  0.47000000000E+01 0.  1.
        -11    1    1    2    0    0 -0.55839899857E+02 -0.36841968829E+02 -0.81273465056E+01  0.67390495208E+02  0.00000000000E+00 0. -1.
         11    1    1    2    0    0 -0.16047349463E+03  0.36507474938E+02 -0.90136142540E+02  0.18764078021E+03  0.00000000000E+00 0.  1.
<mgrwt>
<rscale>  0 0.24612645E+03</rscale>
<asrwt>0</asrwt>
<pdfrwt beam="2">  1        2 0.10409776E+00 0.24983045E+03</pdfrwt>
<pdfrwt beam="1">  1       -2 0.16860349E-01 0.24983045E+03</pdfrwt>
<totfact> 0.12306318E+03</totfact>
</mgrwt>
</event>
<event>
 6    1  0.9240440E-006  0.2623721E+03  0.7546771E-02  0.1107833E+00
         -3   -1    0    0    0  501 -0.00000000000E+00  0.00000000000E+00  0.20785478111E+03  0.20785478111E+03  0.00000000000E+00 0.  1.
          3   -1    0    0  501    0  0.00000000000E+00 -0.00000000000E+00 -0.49421512343E+03  0.49421512343E+03  0.00000000000E+00 0. -1.
          5    1    1    2  502    0  0.61797828202E+02 -0.67695153546E+02 -0.22650909837E+03  0.24439735479E+03  0.47000000000E+01 0.  1.
         -5    1    1    2    0  502  0.14645497208E+03 -0.31530555449E+02 -0.13104385758E+03  0.19909248450E+03  0.47000000000E+01 0.  1.
        -11    1    1    2    0    0 -0.15828500974E+03  0.36609832087E+02  0.20434170642E+02  0.16374363939E+03  0.00000000000E+00 0. -1.
         11    1    1    2    0    0 -0.49967790550E+02  0.62615876908E+02  0.50758442999E+02  0.94836425855E+02  0.00000000000E+00 0.  1.
<mgrwt>
<rscale>  0 0.25885565E+03</rscale>
<asrwt>0</asrwt>
<pdfrwt beam="2">  1        3 0.76033096E-01 0.26237210E+03</pdfrwt>
<pdfrwt beam="1">  1       -3 0.31977658E-01 0.26237210E+03</pdfrwt>
<totfact> 0.39489083E+01</totfact>
</mgrwt>
</event>
<event>
 6    1  0.9240440E-006  0.1296235E+03  0.7546771E-02  0.1241609E+00
          2   -1    0    0  501    0  0.00000000000E+00  0.00000000000E+00  0.53193731379E+03  0.53193731379E+03  0.00000000000E+00 0. -1.
         -2   -1    0    0    0  501 -0.00000000000E+00 -0.00000000000E+00 -0.27040127046E+02  0.27040127046E+02  0.00000000000E+00 0.  1.
          5    1    1    2  502    0 -0.13732825124E+02 -0.19922231672E+02  0.87026803840E+01  0.26140245725E+02  0.47000000000E+01 0. -1.
         -5    1    1    2    0  502  0.21316261559E+02  0.53367049830E+02  0.36219883647E+03  0.36675947452E+03  0.47000000000E+01 0. -1.
        -11    1    1    2    0    0  0.17626312813E+02 -0.40755298126E+02  0.13254980986E+03  0.13978960377E+03  0.00000000000E+00 0. -1.
         11    1    1    2    0    0 -0.25209749247E+02  0.73104799677E+01  0.14458600327E+01  0.26288116816E+02  0.00000000000E+00 0.  1.
<mgrwt>
<rscale>  0 0.12090633E+03</rscale>
<asrwt>0</asrwt>
<pdfrwt beam="1">  1        2 0.81836502E-01 0.12962351E+03</pdfrwt>
<pdfrwt beam="2">  1       -2 0.41600199E-02 0.12962351E+03</pdfrwt>
<totfact> 0.14183206E+04</totfact>
</mgrwt>
</event>
<event>
 6    1  0.1519188E-005  0.1834837E+03  0.7546771E-02  0.1169396E+00
         -3   -1    0    0    0  501 -0.00000000000E+00  0.00000000000E+00  0.17155957236E+03  0.17155957236E+03  0.00000000000E+00 0.  1.
          3   -1    0    0  501    0  0.00000000000E+00 -0.00000000000E+00 -0.18062006988E+03  0.18062006988E+03  0.00000000000E+00 0. -1.
          5    1    1    2  502    0 -0.16347950845E+02 -0.11318873753E+03  0.21795690196E+02  0.11651647056E+03  0.47000000000E+01 0. -1.
         -5    1    1    2    0  502 -0.41928313305E+02 -0.78317467282E+01 -0.55307730082E+02  0.70002533670E+02  0.47000000000E+01 0. -1.
        -11    1    1    2    0    0  0.28018504337E+02  0.43980438202E+02  0.56515451907E+02  0.76898061315E+02  0.00000000000E+00 0.  1.
         11    1    1    2    0    0  0.30257759812E+02  0.77040046060E+02 -0.32063909538E+02  0.88762576690E+02  0.00000000000E+00 0. -1.
<mgrwt>
<rscale>  0 0.17836402E+03</rscale>
<asrwt>0</asrwt>
<pdfrwt beam="2">  1        3 0.27787703E-01 0.18348374E+03</pdfrwt>
<pdfrwt beam="1">  1       -3 0.26393780E-01 0.18348374E+03</pdfrwt>
<totfact> 0.40690292E+02</totfact>
</mgrwt>
</event>
<event>
 6    1  0.9240440E-006  0.1258994E+03  0.7546771E-02  0.1274833E+00
         -1   -1    0    0    0  501 -0.00000000000E+00  0.00000000000E+00  0.70809723261E+02  0.70809723261E+02  0.00000000000E+00 0.  1.
          1   -1    0    0  501    0  0.00000000000E+00 -0.00000000000E+00 -0.13666511844E+03  0.13666511844E+03  0.00000000000E+00 0. -1.
          5    1    1    2  502    0 -0.18727119882E+02 -0.59913750416E+02 -0.44179623578E+02  0.76904431911E+02  0.47000000000E+01 0.  1.
         -5    1    1    2    0  502  0.39104966375E+01  0.62510871253E+02 -0.36971546141E+02  0.72882688155E+02  0.47000000000E+01 0.  1.
        -11    1    1    2    0    0  0.30639194448E+02  0.43492504187E+01  0.23208337780E+02  0.38682077997E+02  0.00000000000E+00 0.  1.
         11    1    1    2    0    0 -0.15822571203E+02 -0.69463712554E+01 -0.79125632412E+01  0.19005643639E+02  0.00000000000E+00 0. -1.
<mgrwt>
<rscale>  0 0.10264348E+03</rscale>
<asrwt>0</asrwt>
<pdfrwt beam="2">  1        1 0.21025402E-01 0.12589944E+03</pdfrwt>
<pdfrwt beam="1">  1       -1 0.10893804E-01 0.12589944E+03</pdfrwt>
<totfact> 0.11880801E+04</totfact>
</mgrwt>
</event>
<event>
 6    1  0.9240440E-006  0.2645386E+03  0.7546771E-02  0.1104447E+00
          3   -1    0    0  501    0  0.00000000000E+00  0.00000000000E+00  0.26449468482E+03  0.26449468482E+03  0.00000000000E+00 0. -1.
         -3   -1    0    0    0  501 -0.00000000000E+00 -0.00000000000E+00 -0.66145636114E+02  0.66145636114E+02  0.00000000000E+00 0.  1.
          5    1    1    2  502    0  0.18653000004E+01  0.13195025396E+02  0.62030795436E+02  0.63619946728E+02  0.47000000000E+01 0. -1.
         -5    1    1    2    0  502  0.53972017648E+02 -0.74422248586E+02  0.12186107538E+02  0.92856022909E+02  0.47000000000E+01 0.  1.
        -11    1    1    2    0    0 -0.53205822318E+02  0.25872342876E+01  0.24740828770E+02  0.58733822607E+02  0.00000000000E+00 0. -1.
         11    1    1    2    0    0 -0.26314953302E+01  0.58639988902E+02  0.99391316962E+02  0.11543052869E+03  0.00000000000E+00 0.  1.
<mgrwt>
<rscale>  0 0.26453861E+03</rscale>
<asrwt>0</asrwt>
<pdfrwt beam="1">  1        3 0.40691489E-01 0.26453861E+03</pdfrwt>
<pdfrwt beam="2">  1       -3 0.10176252E-01 0.26453861E+03</pdfrwt>
<totfact> 0.10904623E+03</totfact>
</mgrwt>
</event>
<event>
 6    1  0.9240440E-006  0.1141336E+03  0.7546771E-02  0.1261138E+00
          1   -1    0    0  501    0  0.00000000000E+00  0.00000000000E+00  0.27018692689E+04  0.27018692689E+04  0.00000000000E+00 0. -1.
         -1   -1    0    0    0  501 -0.00000000000E+00 -0.00000000000E+00 -0.19475390809E+02  0.19475390809E+02  0.00000000000E+00 0.  1.
          5    1    1    2  502    0 -0.18882017854E+02  0.43607724967E+02  0.22952883637E+04  0.22957850350E+04  0.47000000000E+01 0. -1.
         -5    1    1    2    0  502  0.28647075060E+02 -0.16782732399E+02  0.27510954391E+03  0.27714556855E+03  0.47000000000E+01 0.  1.
        -11    1    1    2    0    0 -0.42568357415E+02 -0.43197915070E+02  0.66975484080E+02  0.90353972725E+02  0.00000000000E+00 0.  1.
         11    1    1    2    0    0  0.32803300209E+02  0.16372922502E+02  0.45020486402E+02  0.58060083463E+02  0.00000000000E+00 0. -1.
<mgrwt>
<rscale>  0 0.10969380E+03</rscale>
<asrwt>0</asrwt>
<pdfrwt beam="1">  1        1 0.41567190E+00 0.11413364E+03</pdfrwt>
<pdfrwt beam="2">  1       -1 0.29962161E-02 0.11413364E+03</pdfrwt>
<totfact> 0.45662162E+02</totfact>
</mgrwt>
</event>
<event>
 6    1  0.9240440E-006  0.1337802E+03  0.7546771E-02  0.1234550E+00
         -3   -1    0    0    0  501 -0.00000000000E+00  0.00000000000E+00  0.14906208246E+03  0.14906208246E+03  0.00000000000E+00 0.  1.
          3   -1    0    0  501    0  0.00000000000E+00 -0.00000000000E+00 -0.94321959514E+02  0.94321959514E+02  0.00000000000E+00 0. -1.
          5    1    1    2  502    0  0.76116598734E+01 -0.37263020464E+02 -0.29178971619E+02  0.48166092273E+02  0.47000000000E+01 0. -1.
         -5    1    1    2    0  502 -0.55065743866E+02  0.41971865370E+02  0.53920493177E+02  0.87882781104E+02  0.47000000000E+01 0. -1.
        -11    1    1    2    0    0  0.64346619875E+02  0.21832293025E+02  0.33356792267E+02  0.75695522314E+02  0.00000000000E+00 0.  1.
         11    1    1    2    0    0 -0.16892535883E+02 -0.26541137930E+02 -0.33581908751E+01  0.31639646287E+02  0.00000000000E+00 0. -1.
<mgrwt>
<rscale>  0 0.12533266E+03</rscale>
<asrwt>0</asrwt>
<pdfrwt beam="2">  1        3 0.14511071E-01 0.13378024E+03</pdfrwt>
<pdfrwt beam="1">  1       -3 0.22932628E-01 0.13378024E+03</pdfrwt>
<totfact> 0.15820127E+03</totfact>
</mgrwt>
</event>
<event>
 6    1  0.9240440E-006  0.1647208E+03  0.7546771E-02  0.1189743E+00
          2   -1    0    0  501    0  0.00000000000E+00  0.00000000000E+00  0.59434201294E+03  0.59434201294E+03  0.00000000000E+00 0. -1.
         -2   -1    0    0    0  501 -0.00000000000E+00 -0.00000000000E+00 -0.41869754006E+02  0.41869754006E+02  0.00000000000E+00 0.  1.
          5    1    1    2  502    0 -0.68735286317E+02 -0.26764262814E+01  0.12911184362E+03  0.14636823770E+03  0.47000000000E+01 0. -1.
         -5    1    1    2    0  502  0.11837511893E+02  0.93620282913E+02  0.23423115402E+03  0.25256921343E+03  0.47000000000E+01 0. -1.
        -11    1    1    2    0    0  0.10655154954E+02 -0.47117633648E+02  0.16015914628E+03  0.16728585076E+03  0.00000000000E+00 0. -1.
         11    1    1    2    0    0  0.46242619470E+02 -0.43826222984E+02  0.28970115005E+02  0.69988465049E+02  0.00000000000E+00 0.  1.
<mgrwt>
<rscale>  0 0.15907722E+03</rscale>
<asrwt>0</asrwt>
<pdfrwt beam="1">  1        2 0.91437227E-01 0.16472084E+03</pdfrwt>
<pdfrwt beam="2">  1       -2 0.64415011E-02 0.16472084E+03</pdfrwt>
<totfact> 0.65773617E+03</totfact>
</mgrwt>
</event>
<event>
 6    1  0.9240440E-006  0.1267265E+03  0.7546771E-02  0.1249098E+00
         -1   -1    0    0    0  501 -0.00000000000E+00  0.00000000000E+00  0.14985811888E+03  0.14985811888E+03  0.00000000000E+00 0.  1.
          1   -1    0    0  501    0  0.00000000000E+00 -0.00000000000E+00 -0.78625102736E+02  0.78625102736E+02  0.00000000000E+00 0. -1.
          5    1    1    2  502    0 -0.21623631387E+02 -0.61137118958E+02  0.61102875652E+01  0.65305086807E+02  0.47000000000E+01 0. -1.
         -5    1    1    2    0  502  0.11465115087E+01  0.57194546089E+02  0.38184412482E+02  0.68939610875E+02  0.47000000000E+01 0. -1.
        -11    1    1    2    0    0 -0.21152280231E+02 -0.26809826853E+02 -0.32795749564E+01  0.34306579351E+02  0.00000000000E+00 0. -1.
         11    1    1    2    0    0  0.41629400109E+02  0.30752399722E+02  0.30217891057E+02  0.59931944587E+02  0.00000000000E+00 0.  1.
<mgrwt>
<rscale>  0 0.11643411E+03</rscale>
<asrwt>0</asrwt>
<pdfrwt beam="2">  1        1 0.12096170E-01 0.12672655E+03</pdfrwt>
<pdfrwt beam="1">  1       -1 0.23055095E-01 0.12672655E+03</pdfrwt>
<totfact> 0.74437908E+03</totfact>
</mgrwt>
</event>
<event>
 6    1  0.9240440E-006  0.1259629E+03  0.7546771E-02  0.1249492E+00
         -1   -1    0    0    0  501 -0.00000000000E+00  0.00000000000E+00  0.27645644139E+03  0.27645644139E+03  0.00000000000E+00 0.  1.
          1   -1    0    0  501    0  0.00000000000E+00 -0.00000000000E+00 -0.42661047974E+02  0.42661047974E+02  0.00000000000E+00 0. -1.
          5    1    1    2  502    0 -0.51412158342E+02  0.40085178266E+02  0.42939075856E+02  0.78204128902E+02  0.47000000000E+01 0.  1.
         -5    1    1    2    0  502  0.46676098942E+02 -0.25232086083E+02  0.92613924433E+02  0.10683981177E+03  0.47000000000E+01 0.  1.
        -11    1    1    2    0    0  0.84260064060E+01  0.15676184629E+02  0.10159299851E+03  0.10314008772E+03  0.00000000000E+00 0.  1.
         11    1    1    2    0    0 -0.36899470058E+01 -0.30529276811E+02 -0.33506053794E+01  0.30933460976E+02  0.00000000000E+00 0. -1.
<mgrwt>
<rscale>  0 0.11620488E+03</rscale>
<asrwt>0</asrwt>
<pdfrwt beam="2">  1        1 0.65632383E-02 0.12596287E+03</pdfrwt>
<pdfrwt beam="1">  1       -1 0.42531759E-01 0.12596287E+03</pdfrwt>
<totfact> 0.59641579E+03</totfact>
</mgrwt>
</event>
<event>
 6    1  0.9240440E-006  0.1661142E+03  0.7546771E-02  0.1190584E+00
         -2   -1    0    0    0  501 -0.00000000000E+00  0.00000000000E+00  0.49376157431E+02  0.49376157431E+02  0.00000000000E+00 0.  1.
          2   -1    0    0  501    0  0.00000000000E+00 -0.00000000000E+00 -0.46563591059E+03  0.46563591059E+03  0.00000000000E+00 0. -1.
          5    1    1    2  502    0 -0.28597131806E+02  0.84567119502E+02 -0.12696984077E+03  0.15528304516E+03  0.47000000000E+01 0. -1.
         -5    1    1    2    0  502  0.75067704945E+02  0.14479476917E+02 -0.98817793441E+02  0.12502744450E+03  0.47000000000E+01 0. -1.
        -11    1    1    2    0    0 -0.60342843900E+02 -0.10532761069E+03 -0.17512127305E+03  0.21307891650E+03  0.00000000000E+00 0.  1.
         11    1    1    2    0    0  0.13872270762E+02  0.62810142659E+01 -0.15350845907E+02  0.21622661870E+02  0.00000000000E+00 0. -1.
<mgrwt>
<rscale>  0 0.15833967E+03</rscale>
<asrwt>0</asrwt>
<pdfrwt beam="2">  1        2 0.71636296E-01 0.16611416E+03</pdfrwt>
<pdfrwt beam="1">  1       -2 0.75963317E-02 0.16611416E+03</pdfrwt>
<totfact> 0.67061784E+03</totfact>
</mgrwt>
</event>
<event>
 6    1  0.9240440E-006  0.1950977E+03  0.7546771E-02  0.1161785E+00
          2   -1    0    0  501    0  0.00000000000E+00  0.00000000000E+00  0.56899529712E+03  0.56899529712E+03  0.00000000000E+00 0. -1.
         -2   -1    0    0    0  501 -0.00000000000E+00 -0.00000000000E+00 -0.56186658439E+02  0.56186658439E+02  0.00000000000E+00 0.  1.
          5    1    1    2  502    0  0.33081186417E+02  0.16882719546E+02  0.54484993855E+02  0.66106699127E+02  0.47000000000E+01 0.  1.
         -5    1    1    2    0  502 -0.11309456197E+03  0.10974645397E+03  0.23183481069E+03  0.28036428723E+03  0.47000000000E+01 0.  1.
        -11    1    1    2    0    0  0.45355878142E+02 -0.11773719375E+03  0.18493745722E+03  0.22387734490E+03  0.00000000000E+00 0. -1.
         11    1    1    2    0    0  0.34657497413E+02 -0.88919797664E+01  0.41551376916E+02  0.54833624308E+02  0.00000000000E+00 0.  1.
<mgrwt>
<rscale>  0 0.18636049E+03</rscale>
<asrwt>0</asrwt>
<pdfrwt beam="1">  1        2 0.87537734E-01 0.19509770E+03</pdfrwt>
<pdfrwt beam="2">  1       -2 0.86441017E-02 0.19509770E+03</pdfrwt>
<totfact> 0.44189562E+03</totfact>
</mgrwt>
</event>
<event>
 6    1  0.9240440E-006  0.1946319E+03  0.7546771E-02  0.1158524E+00
          2   -1    0    0  501    0  0.00000000000E+00  0.00000000000E+00  0.20320871847E+03  0.20320871847E+03  0.00000000000E+00 0. -1.
         -2   -1    0    0    0  501 -0.00000000000E+00 -0.00000000000E+00 -0.17173826766E+03  0.17173826766E+03  0.00000000000E+00 0.  1.
          5    1    1    2  502    0 -0.35415702132E+02 -0.69089596659E+02 -0.43961663256E+02  0.89344066173E+02  0.47000000000E+01 0. -1.
         -5    1    1    2    0  502 -0.31750945723E+02 -0.64124526694E+02  0.82067944939E+02  0.10898309532E+03  0.47000000000E+01 0. -1.
        -11    1    1    2    0    0  0.12201314684E+02  0.11519324198E+03 -0.19223660600E+02  0.11742190683E+03  0.00000000000E+00 0.  1.
         11    1    1    2    0    0  0.54965333171E+02  0.18020881377E+02  0.12587829729E+02  0.59197917814E+02  0.00000000000E+00 0. -1.
<mgrwt>
<rscale>  0 0.18993005E+03</rscale>
<asrwt>0</asrwt>
<pdfrwt beam="1">  1        2 0.31262880E-01 0.19463189E+03</pdfrwt>
<pdfrwt beam="2">  1       -2 0.26421272E-01 0.19463189E+03</pdfrwt>
<totfact> 0.21279931E+03</totfact>
</mgrwt>
</event>
<event>
 6    1  0.9240440E-006  0.1271602E+03  0.7546771E-02  0.1247217E+00
         -2   -1    0    0    0  501 -0.00000000000E+00  0.00000000000E+00  0.33762444750E+02  0.33762444750E+02  0.00000000000E+00 0.  1.
          2   -1    0    0  501    0  0.00000000000E+00 -0.00000000000E+00 -0.36437018462E+03  0.36437018462E+03  0.00000000000E+00 0. -1.
          5    1    1    2  502    0  0.14157099447E+02 -0.70897834524E+01  0.12523088307E+02  0.20726944659E+02  0.47000000000E+01 0.  1.
         -5    1    1    2    0  502 -0.19321689307E+02 -0.15660065615E+02 -0.22854641233E+03  0.22994372773E+03  0.47000000000E+01 0.  1.
        -11    1    1    2    0    0  0.27916600601E+02  0.20682632926E+02 -0.11919522478E+03  0.12415558588E+03  0.00000000000E+00 0. -1.
         11    1    1    2    0    0 -0.22752010741E+02  0.20672161411E+01  0.46108089296E+01  0.23306371110E+02  0.00000000000E+00 0.  1.
<mgrwt>
<rscale>  0 0.11753657E+03</rscale>
<asrwt>0</asrwt>
<pdfrwt beam="2">  1        2 0.56056953E-01 0.12716017E+03</pdfrwt>
<pdfrwt beam="1">  1       -2 0.51942221E-02 0.12716017E+03</pdfrwt>
<totfact> 0.15287610E+04</totfact>
</mgrwt>
</event>
<event>
 6    1  0.9240440E-006  0.1332048E+03  0.7546771E-02  0.1236098E+00
         -2   -1    0    0    0  501 -0.00000000000E+00  0.00000000000E+00  0.41808012705E+03  0.41808012705E+03  0.00000000000E+00 0.  1.
          2   -1    0    0  501    0  0.00000000000E+00 -0.00000000000E+00 -0.35305666124E+02  0.35305666124E+02  0.00000000000E+00 0. -1.
          5    1    1    2  502    0  0.14643708125E+02  0.28190260920E+02  0.11151278875E+03  0.11604447877E+03  0.47000000000E+01 0.  1.
         -5    1    1    2    0  502 -0.24596657524E+02 -0.73125973987E+02  0.44850245773E+02  0.89364636064E+02  0.47000000000E+01 0.  1.
        -11    1    1    2    0    0 -0.31048760057E+02  0.14437752594E+02  0.31668103272E+02  0.46640572101E+02  0.00000000000E+00 0. -1.
         11    1    1    2    0    0  0.41001709455E+02  0.30497960473E+02  0.19474332314E+03  0.20133610624E+03  0.00000000000E+00 0.  1.
<mgrwt>
<rscale>  0 0.12434428E+03</rscale>
<asrwt>0</asrwt>
<pdfrwt beam="2">  1        2 0.54316413E-02 0.13320475E+03</pdfrwt>
<pdfrwt beam="1">  1       -2 0.64320016E-01 0.13320475E+03</pdfrwt>
<totfact> 0.30725536E+03</totfact>
</mgrwt>
</event>
<event>
 6    1  0.9240440E-006  0.1298781E+03  0.7546771E-02  0.1250008E+00
         -4   -1    0    0    0  501 -0.00000000000E+00  0.00000000000E+00  0.44144537597E+02  0.44144537597E+02  0.00000000000E+00 0.  1.
          4   -1    0    0  501    0  0.00000000000E+00 -0.00000000000E+00 -0.32255987013E+03  0.32255987013E+03  0.00000000000E+00 0. -1.
          5    1    1    2  502    0 -0.20146860874E+02  0.44160271217E+02 -0.21212002074E+03  0.21765343727E+03  0.47000000000E+01 0. -1.
         -5    1    1    2    0  502 -0.14955428238E+02 -0.47640890835E+02 -0.33873708635E+02  0.60521380106E+02  0.47000000000E+01 0. -1.
        -11    1    1    2    0    0 -0.43778854393E+01  0.29793436229E+02 -0.27585749962E+02  0.40838564179E+02  0.00000000000E+00 0. -1.
         11    1    1    2    0    0  0.39480174551E+02 -0.26312816611E+02 -0.48358531899E+01  0.47691026165E+02  0.00000000000E+00 0.  1.
<mgrwt>
<rscale>  0 0.11590608E+03</rscale>
<asrwt>0</asrwt>
<pdfrwt beam="2">  1        4 0.49624595E-01 0.12987807E+03</pdfrwt>
<pdfrwt beam="1">  1       -4 0.67914673E-02 0.12987807E+03</pdfrwt>
<totfact> 0.93449124E+02</totfact>
</mgrwt>
</event>
<event>
 6    1  0.9240440E-006  0.1287974E+03  0.7546771E-02  0.1249510E+00
         -2   -1    0    0    0  501 -0.00000000000E+00  0.00000000000E+00  0.47710979526E+02  0.47710979526E+02  0.00000000000E+00 0.  1.
          2   -1    0    0  501    0  0.00000000000E+00 -0.00000000000E+00 -0.24187137663E+03  0.24187137663E+03  0.00000000000E+00 0. -1.
          5    1    1    2  502    0  0.59061582299E+02  0.30527463774E+02 -0.53877132239E+02  0.85703161707E+02  0.47000000000E+01 0. -1.
         -5    1    1    2    0  502 -0.35515015612E+02 -0.50780141426E+02 -0.51063066936E+02  0.80432990135E+02  0.47000000000E+01 0. -1.
        -11    1    1    2    0    0  0.23057350025E+02  0.87018745381E+01 -0.65316053872E+02  0.69810822256E+02  0.00000000000E+00 0. -1.
         11    1    1    2    0    0 -0.46603916712E+02  0.11550803114E+02 -0.23904144056E+02  0.53635382058E+02  0.00000000000E+00 0.  1.
<mgrwt>
<rscale>  0 0.11619495E+03</rscale>
<asrwt>0</asrwt>
<pdfrwt beam="2">  1        2 0.37210981E-01 0.12879742E+03</pdfrwt>
<pdfrwt beam="1">  1       -2 0.73401507E-02 0.12879742E+03</pdfrwt>
<totfact> 0.13981443E+04</totfact>
</mgrwt>
</event>
<event>
 6    1  0.9240440E-006  0.2543561E+03  0.7546771E-02  0.1112984E+00
         -1   -1    0    0    0  501 -0.00000000000E+00  0.00000000000E+00  0.30305635073E+03  0.30305635073E+03  0.00000000000E+00 0.  1.
          1   -1    0    0  501    0  0.00000000000E+00 -0.00000000000E+00 -0.20243817588E+03  0.20243817588E+03  0.00000000000E+00 0. -1.
          5    1    1    2  502    0 -0.69481620751E+02  0.14829192600E+03  0.69414067385E+01  0.16397702298E+03  0.47000000000E+01 0.  1.
         -5    1    1    2    0  502  0.51557494635E+02  0.72508210293E+02  0.23887454547E+02  0.92240535003E+02  0.47000000000E+01 0.  1.
        -11    1    1    2    0    0 -0.83904217343E+00 -0.10637899881E+03 -0.12472063217E+02  0.10711091326E+03  0.00000000000E+00 0.  1.
         11    1    1    2    0    0  0.18763168290E+02 -0.11442113748E+03  0.82261376786E+02  0.14216605537E+03  0.00000000000E+00 0. -1.
<mgrwt>
<rscale>  0 0.25050768E+03</rscale>
<asrwt>0</asrwt>
<pdfrwt beam="2">  1        1 0.31144335E-01 0.25435609E+03</pdfrwt>
<pdfrwt beam="1">  1       -1 0.46624054E-01 0.25435609E+03</pdfrwt>
<totfact> 0.67695323E+02</totfact>
</mgrwt>
</event>
<event>
 6    1  0.9240440E-006  0.1356446E+03  0.7546771E-02  0.1231877E+00
          2   -1    0    0  501    0  0.00000000000E+00  0.00000000000E+00  0.14095108530E+03  0.14095108530E+03  0.00000000000E+00 0. -1.
         -2   -1    0    0    0  501 -0.00000000000E+00 -0.00000000000E+00 -0.11550241478E+03  0.11550241478E+03  0.00000000000E+00 0.  1.
          5    1    1    2  502    0 -0.16270008456E+02  0.67908076529E+02  0.31013641441E+02  0.76551655687E+02  0.47000000000E+01 0. -1.
         -5    1    1    2    0  502 -0.34887065361E+02 -0.55391428272E+02  0.26298445499E+02  0.70703719075E+02  0.47000000000E+01 0. -1.
        -11    1    1    2    0    0  0.54426211835E+02 -0.27179008798E+02 -0.54735056692E+02  0.81834207304E+02  0.00000000000E+00 0.  1.
         11    1    1    2    0    0 -0.32691380187E+01  0.14662360541E+02  0.22871640276E+02  0.27363918011E+02  0.00000000000E+00 0. -1.
<mgrwt>
<rscale>  0 0.12706469E+03</rscale>
<asrwt>0</asrwt>
<pdfrwt beam="1">  1        2 0.21684782E-01 0.13564465E+03</pdfrwt>
<pdfrwt beam="2">  1       -2 0.17769602E-01 0.13564465E+03</pdfrwt>
<totfact> 0.61864385E+03</totfact>
</mgrwt>
</event>
<event>
 6    1  0.9240440E-006  0.2207074E+03  0.7546771E-02  0.1136742E+00
          2   -1    0    0  501    0  0.00000000000E+00  0.00000000000E+00  0.64602298983E+03  0.64602298983E+03  0.00000000000E+00 0.  1.
         -2   -1    0    0    0  501 -0.00000000000E+00 -0.00000000000E+00 -0.69575197851E+02  0.69575197851E+02  0.00000000000E+00 0. -1.
          5    1    1    2  502    0 -0.68527635886E+02  0.14971730457E+03  0.18596763546E+03  0.24842978808E+03  0.47000000000E+01 0. -1.
         -5    1    1    2    0  502 -0.48896543125E+02 -0.10805843185E+02  0.10829325408E+03  0.11940333770E+03  0.47000000000E+01 0. -1.
        -11    1    1    2    0    0  0.14639819191E+02 -0.43468386408E+02  0.14294327743E+03  0.15012196870E+03  0.00000000000E+00 0.  1.
         11    1    1    2    0    0  0.10278435982E+03 -0.95443074972E+02  0.13924362502E+03  0.19764309321E+03  0.00000000000E+00 0. -1.
<mgrwt>
<rscale>  0 0.21620759E+03</rscale>
<asrwt>0</asrwt>
<pdfrwt beam="1">  1        2 0.99388148E-01 0.22070736E+03</pdfrwt>
<pdfrwt beam="2">  1       -2 0.10703877E-01 0.22070736E+03</pdfrwt>
<totfact> 0.27301003E+03</totfact>
</mgrwt>
</event>
<event>
 6    1  0.2600828E-005  0.3591792E+03  0.7546771E-02  0.1058909E+00
         -1   -1    0    0    0  501 -0.00000000000E+00  0.00000000000E+00  0.35481391397E+02  0.35481391397E+02  0.00000000000E+00 0.  1.
          1   -1    0    0  501    0  0.00000000000E+00 -0.00000000000E+00 -0.90899565008E+03  0.90899565008E+03  0.00000000000E+00 0. -1.
          5    1    1    2  502    0 -0.11399864359E+03 -0.86323811438E+02 -0.45455457649E+03  0.47653902691E+03  0.47000000000E+01 0. -1.
         -5    1    1    2    0  502 -0.13719108750E+02  0.38912169163E+02 -0.11442049327E+03  0.12172308793E+03  0.47000000000E+01 0. -1.
        -11    1    1    2    0    0  0.67565458628E+02  0.18280755958E+02 -0.58385070018E+02  0.91148744582E+02  0.00000000000E+00 0.  1.
         11    1    1    2    0    0  0.60152293708E+02  0.29130886317E+02 -0.24615411891E+03  0.25506618206E+03  0.00000000000E+00 0. -1.
<mgrwt>
<rscale>  0 0.35917923E+03</rscale>
<asrwt>0</asrwt>
<pdfrwt beam="2">  1        1 0.13984549E+00 0.35917923E+03</pdfrwt>
<pdfrwt beam="1">  1       -1 0.54586755E-02 0.35917923E+03</pdfrwt>
<totfact> 0.29047219E+03</totfact>
</mgrwt>
</event>
<event>
 6    1  0.9240440E-006  0.1345128E+03  0.7546771E-02  0.1231881E+00
         -2   -1    0    0    0  501 -0.00000000000E+00  0.00000000000E+00  0.19380529050E+02  0.19380529050E+02  0.00000000000E+00 0.  1.
          2   -1    0    0  501    0  0.00000000000E+00 -0.00000000000E+00 -0.75460196850E+03  0.75460196850E+03  0.00000000000E+00 0. -1.
          5    1    1    2  502    0  0.53917451589E+02  0.50706504720E+02 -0.18156655261E+03  0.19612940686E+03  0.47000000000E+01 0.  1.
         -5    1    1    2    0  502 -0.57816022683E+02 -0.37627562271E+01 -0.21003321711E+03  0.21792864223E+03  0.47000000000E+01 0.  1.
        -11    1    1    2    0    0  0.17051672386E+02  0.23025523010E+02 -0.48448712458E+02  0.56286872180E+02  0.00000000000E+00 0. -1.
         11    1    1    2    0    0 -0.13153101293E+02 -0.69969271503E+02 -0.29517295727E+03  0.30363757628E+03  0.00000000000E+00 0.  1.
<mgrwt>
<rscale>  0 0.12706237E+03</rscale>
<asrwt>0</asrwt>
<pdfrwt beam="2">  1        2 0.11609260E+00 0.13451278E+03</pdfrwt>
<pdfrwt beam="1">  1       -2 0.29816201E-02 0.13451278E+03</pdfrwt>
<totfact> 0.15532535E+04</totfact>
</mgrwt>
</event>
<event>
 6    1  0.9240440E-006  0.1379361E+03  0.7546771E-02  0.1226829E+00
         -1   -1    0    0    0  501 -0.00000000000E+00  0.00000000000E+00  0.33688737924E+03  0.33688737924E+03  0.00000000000E+00 0.  1.
          1   -1    0    0  501    0  0.00000000000E+00 -0.00000000000E+00 -0.50175728536E+02  0.50175728536E+02  0.00000000000E+00 0. -1.
          5    1    1    2  502    0  0.59194900099E+02 -0.35410727162E+01  0.74476783465E+02  0.95317661895E+02  0.47000000000E+01 0. -1.
         -5    1    1    2    0  502 -0.39539562256E+02  0.58441030579E+02  0.26044440087E+02  0.75360028516E+02  0.47000000000E+01 0. -1.
        -11    1    1    2    0    0 -0.31864234033E+02  0.13379810518E+02  0.31107768024E+02  0.46497763080E+02  0.00000000000E+00 0. -1.
         11    1    1    2    0    0  0.12208896190E+02 -0.68279768381E+02  0.15508265913E+03  0.16988765429E+03  0.00000000000E+00 0.  1.
<mgrwt>
<rscale>  0 0.13042360E+03</rscale>
<asrwt>0</asrwt>
<pdfrwt beam="2">  1        1 0.77193431E-02 0.13793606E+03</pdfrwt>
<pdfrwt beam="1">  1       -1 0.51828826E-01 0.13793606E+03</pdfrwt>
<totfact> 0.33763920E+03</totfact>
</mgrwt>
</event>
<event>
 6    1  0.9240440E-006  0.1526628E+03  0.7546771E-02  0.1205365E+00
         -3   -1    0    0    0  501 -0.00000000000E+00  0.00000000000E+00  0.35616414195E+03  0.35616414195E+03  0.00000000000E+00 0.  1.
          3   -1    0    0  501    0  0.00000000000E+00 -0.00000000000E+00 -0.55305573466E+02  0.55305573466E+02  0.00000000000E+00 0. -1.
          5    1    1    2  502    0 -0.24642559584E+02 -0.12252038031E+02  0.12521842987E+03  0.12829307603E+03  0.47000000000E+01 0. -1.
         -5    1    1    2    0  502 -0.24646198670E+02  0.84715967325E+02  0.41029162954E+02  0.97415155091E+02  0.47000000000E+01 0. -1.
        -11    1    1    2    0    0 -0.24343638219E+02 -0.16289533007E+02  0.60237254703E+02  0.66981254553E+02  0.00000000000E+00 0.  1.
         11    1    1    2    0    0  0.73632396473E+02 -0.56174396286E+02  0.74373720962E+02  0.11878022974E+03  0.00000000000E+00 0. -1.
<mgrwt>
<rscale>  0 0.14608753E+03</rscale>
<asrwt>0</asrwt>
<pdfrwt beam="2">  1        3 0.85085500E-02 0.15266284E+03</pdfrwt>
<pdfrwt beam="1">  1       -3 0.54794482E-01 0.15266284E+03</pdfrwt>
<totfact> 0.75259109E+02</totfact>
</mgrwt>
</event>
<event>
 6    1  0.9240440E-006  0.1601777E+03  0.7546771E-02  0.1196155E+00
          1   -1    0    0  501    0  0.00000000000E+00  0.00000000000E+00  0.29719514130E+03  0.29719514130E+03  0.00000000000E+00 0. -1.
         -1   -1    0    0    0  501 -0.00000000000E+00 -0.00000000000E+00 -0.79241568081E+02  0.79241568081E+02  0.00000000000E+00 0.  1.
          5    1    1    2  502    0  0.55551206147E+02  0.56398547897E+02  0.11487586945E+03  0.13958971341E+03  0.47000000000E+01 0. -1.
         -5    1    1    2    0  502  0.44497615290E+02 -0.61172724962E+02  0.53271218275E+02  0.92639369289E+02  0.47000000000E+01 0. -1.
        -11    1    1    2    0    0 -0.85069183478E+02 -0.26689010200E+02  0.76092294993E+01  0.89481671960E+02  0.00000000000E+00 0.  1.
         11    1    1    2    0    0 -0.14979637958E+02  0.31463187265E+02  0.42197255993E+02  0.54725954716E+02  0.00000000000E+00 0. -1.
<mgrwt>
<rscale>  0 0.15356877E+03</rscale>
<asrwt>0</asrwt>
<pdfrwt beam="1">  1        1 0.45722329E-01 0.16017773E+03</pdfrwt>
<pdfrwt beam="2">  1       -1 0.12191011E-01 0.16017773E+03</pdfrwt>
<totfact> 0.38520017E+03</totfact>
</mgrwt>
</event>
<event>
 6    1  0.9240440E-006  0.1308321E+03  0.7546771E-02  0.1240429E+00
          1   -1    0    0  501    0  0.00000000000E+00  0.00000000000E+00  0.21264439657E+03  0.21264439657E+03  0.00000000000E+00 0. -1.
         -1   -1    0    0    0  501 -0.00000000000E+00 -0.00000000000E+00 -0.63812419609E+02  0.63812419609E+02  0.00000000000E+00 0.  1.
          5    1    1    2  502    0  0.20767062001E+02 -0.40857683365E+02  0.46011414468E+02  0.65113450342E+02  0.47000000000E+01 0.  1.
         -5    1    1    2    0  502 -0.43546846997E+02  0.72071569510E+02  0.65267923609E+02  0.10664253779E+03  0.47000000000E+01 0.  1.
        -11    1    1    2    0    0  0.17029397002E+02 -0.19928229933E+02 -0.27754621614E+02  0.38176612363E+02  0.00000000000E+00 0.  1.
         11    1    1    2    0    0  0.57503879935E+01 -0.11285656212E+02  0.65307260498E+02  0.66524215681E+02  0.00000000000E+00 0. -1.
<mgrwt>
<rscale>  0 0.12163198E+03</rscale>
<asrwt>0</asrwt>
<pdfrwt beam="1">  1        1 0.32714522E-01 0.13083206E+03</pdfrwt>
<pdfrwt beam="2">  1       -1 0.98172955E-02 0.13083206E+03</pdfrwt>
<totfact> 0.80380316E+03</totfact>
</mgrwt>
</event>
<event>
 6    1  0.9240440E-006  0.1313909E+03  0.7546771E-02  0.1238885E+00
         -1   -1    0    0    0  501 -0.00000000000E+00  0.00000000000E+00  0.81733821525E+02  0.81733821525E+02  0.00000000000E+00 0.  1.
          1   -1    0    0  501    0  0.00000000000E+00 -0.00000000000E+00 -0.16639682461E+03  0.16639682461E+03  0.00000000000E+00 0. -1.
          5    1    1    2  502    0  0.62995205076E+02  0.34400836099E+02 -0.15161932516E-01  0.71929852056E+02  0.47000000000E+01 0. -1.
         -5    1    1    2    0  502 -0.23057725265E+02 -0.28015242617E+02 -0.65180187710E+02  0.74746634594E+02  0.47000000000E+01 0. -1.
        -11    1    1    2    0    0 -0.47052368242E+02  0.30998295572E+02  0.44273807473E+01  0.56519212538E+02  0.00000000000E+00 0.  1.
         11    1    1    2    0    0  0.71148884310E+01 -0.37383889054E+02 -0.23895034189E+02  0.44934946947E+02  0.00000000000E+00 0. -1.
<mgrwt>
<rscale>  0 0.12258992E+03</rscale>
<asrwt>0</asrwt>
<pdfrwt beam="2">  1        1 0.25599511E-01 0.13139086E+03</pdfrwt>
<pdfrwt beam="1">  1       -1 0.12574434E-01 0.13139086E+03</pdfrwt>
<totfact> 0.74633446E+03</totfact>
</mgrwt>
</event>
<event>
 6    1  0.9240440E-006  0.1261927E+03  0.7546771E-02  0.1256822E+00
          1   -1    0    0  501    0  0.00000000000E+00  0.00000000000E+00  0.68218012142E+03  0.68218012142E+03  0.00000000000E+00 0. -1.
         -1   -1    0    0    0  501 -0.00000000000E+00 -0.00000000000E+00 -0.26161976006E+02  0.26161976006E+02  0.00000000000E+00 0.  1.
          5    1    1    2  502    0  0.37983553068E+02 -0.62418049506E+01  0.51944400375E+03  0.52088950216E+03  0.47000000000E+01 0. -1.
         -5    1    1    2    0  502 -0.44009610707E+02  0.63663772456E+00  0.77527245703E+02  0.89273820175E+02  0.47000000000E+01 0.  1.
        -11    1    1    2    0    0 -0.10815213329E+02  0.37953470190E+02  0.42910159130E+02  0.58298511948E+02  0.00000000000E+00 0.  1.
         11    1    1    2    0    0  0.16841270969E+02 -0.32348302964E+02  0.16136736830E+02  0.39880263139E+02  0.00000000000E+00 0. -1.
<mgrwt>
<rscale>  0 0.11204889E+03</rscale>
<asrwt>0</asrwt>
<pdfrwt beam="1">  1        1 0.10495077E+00 0.12619274E+03</pdfrwt>
<pdfrwt beam="2">  1       -1 0.40249199E-02 0.12619274E+03</pdfrwt>
<totfact> 0.68455709E+03</totfact>
</mgrwt>
</event>
<event>
 6    1  0.9240440E-006  0.1502826E+03  0.7546771E-02  0.1209159E+00
         -1   -1    0    0    0  501 -0.00000000000E+00  0.00000000000E+00  0.23992289192E+02  0.23992289192E+02  0.00000000000E+00 0.  1.
          1   -1    0    0  501    0  0.00000000000E+00 -0.00000000000E+00 -0.78226961302E+03  0.78226961302E+03  0.00000000000E+00 0. -1.
          5    1    1    2  502    0  0.29788134059E+02  0.34600275028E+02 -0.69932746968E+02  0.83649214349E+02  0.47000000000E+01 0.  1.
         -5    1    1    2    0  502 -0.91174891018E+02  0.21890473546E+02 -0.34965932824E+03  0.36204390536E+03  0.47000000000E+01 0.  1.
        -11    1    1    2    0    0  0.77912315757E+02 -0.49626138163E+02 -0.32546549308E+03  0.33832066110E+03  0.00000000000E+00 0.  1.
         11    1    1    2    0    0 -0.16525558798E+02 -0.68646104111E+01 -0.13219755536E+02  0.22248121406E+02  0.00000000000E+00 0. -1.
<mgrwt>
<rscale>  0 0.14314477E+03</rscale>
<asrwt>0</asrwt>
<pdfrwt beam="2">  1        1 0.12034918E+00 0.15028256E+03</pdfrwt>
<pdfrwt beam="1">  1       -1 0.36911211E-02 0.15028256E+03</pdfrwt>
<totfact> 0.64296025E+03</totfact>
</mgrwt>
</event>
<event>
 6    1  0.9240440E-006  0.1735930E+03  0.7546771E-02  0.1179629E+00
          2   -1    0    0  501    0  0.00000000000E+00  0.00000000000E+00  0.13775498975E+04  0.13775498975E+04  0.00000000000E+00 0. -1.
         -2   -1    0    0    0  501 -0.00000000000E+00 -0.00000000000E+00 -0.21257230536E+02  0.21257230536E+02  0.00000000000E+00 0.  1.
          5    1    1    2  502    0  0.12831838472E+02 -0.98800589356E+02  0.34145715582E+03  0.35572642831E+03  0.47000000000E+01 0.  1.
         -5    1    1    2    0  502  0.46664367498E+02 -0.59365706290E+01  0.58116633323E+03  0.58308593101E+03  0.47000000000E+01 0.  1.
        -11    1    1    2    0    0 -0.34154778349E+02  0.67832389699E+02  0.39045519334E+03  0.39777259833E+03  0.00000000000E+00 0. -1.
         11    1    1    2    0    0 -0.25341427621E+02  0.36904770286E+02  0.43213984549E+02  0.62222170360E+02  0.00000000000E+00 0.  1.
<mgrwt>
<rscale>  0 0.16830355E+03</rscale>
<asrwt>0</asrwt>
<pdfrwt beam="1">  1        2 0.21193068E+00 0.17359304E+03</pdfrwt>
<pdfrwt beam="2">  1       -2 0.32703442E-02 0.17359304E+03</pdfrwt>
<totfact> 0.58499917E+03</totfact>
</mgrwt>
</event>
<event>
 6    1  0.9240440E-006  0.1400524E+03  0.7546771E-02  0.1224366E+00
          1   -1    0    0  501    0  0.00000000000E+00  0.00000000000E+00  0.22129914453E+04  0.22129914453E+04  0.00000000000E+00 0. -1.
         -1   -1    0    0    0  501 -0.00000000000E+00 -0.00000000000E+00 -0.11017832862E+02  0.11017832862E+02  0.00000000000E+00 0.  1.
          5    1    1    2  502    0  0.10266483288E+02  0.63365098076E+02  0.40415906443E+03  0.40925197091E+03  0.47000000000E+01 0.  1.
         -5    1    1    2    0  502  0.22867987155E+02 -0.95964763053E+01  0.14386360481E+04  0.14388574655E+04  0.47000000000E+01 0.  1.
        -11    1    1    2    0    0 -0.94006049913E+01  0.25513659616E+02  0.69435152913E+02  0.74569153551E+02  0.00000000000E+00 0.  1.
         11    1    1    2    0    0 -0.23733865452E+02 -0.79282281386E+02  0.28974334700E+03  0.30133068818E+03  0.00000000000E+00 0. -1.
<mgrwt>
<rscale>  0 0.13210474E+03</rscale>
<asrwt>0</asrwt>
<pdfrwt beam="1">  1        1 0.34045987E+00 0.14005236E+03</pdfrwt>
<pdfrwt beam="2">  1       -1 0.16950530E-02 0.14005236E+03</pdfrwt>
<totfact> 0.21483895E+03</totfact>
</mgrwt>
</event>
<event>
 6    1  0.9240440E-006  0.1674368E+03  0.7546771E-02  0.1186907E+00
          2   -1    0    0  501    0  0.00000000000E+00  0.00000000000E+00  0.18192466881E+03  0.18192466881E+03  0.00000000000E+00 0. -1.
         -2   -1    0    0    0  501 -0.00000000000E+00 -0.00000000000E+00 -0.18898542551E+03  0.18898542551E+03  0.00000000000E+00 0.  1.
          5    1    1    2  502    0 -0.50648050574E+02 -0.68777695834E+01  0.63885406843E+02  0.81950985039E+02  0.47000000000E+01 0.  1.
         -5    1    1    2    0  502  0.28429183365E+02 -0.10228627815E+03  0.31921358071E+02  0.11095838980E+03  0.47000000000E+01 0.  1.
        -11    1    1    2    0    0  0.51429389759E+02  0.72918657754E+02 -0.95795744755E+02  0.13091576487E+03  0.00000000000E+00 0.  1.
         11    1    1    2    0    0 -0.29210522550E+02  0.36245389983E+02 -0.70717768608E+01  0.47084954610E+02  0.00000000000E+00 0. -1.
<mgrwt>
<rscale>  0 0.16159579E+03</rscale>
<asrwt>0</asrwt>
<pdfrwt beam="1">  1        2 0.27988411E-01 0.16743683E+03</pdfrwt>
<pdfrwt beam="2">  1       -2 0.29074681E-01 0.16743683E+03</pdfrwt>
<totfact> 0.20133826E+03</totfact>
</mgrwt>
</event>
<event>
 6    1  0.9240440E-006  0.1339042E+03  0.7546771E-02  0.1234157E+00
         -2   -1    0    0    0  501 -0.00000000000E+00  0.00000000000E+00  0.56891942619E+02  0.56891942619E+02  0.00000000000E+00 0.  1.
          2   -1    0    0  501    0  0.00000000000E+00 -0.00000000000E+00 -0.24788336776E+03  0.24788336776E+03  0.00000000000E+00 0. -1.
          5    1    1    2  502    0 -0.44606480587E+02 -0.60848120109E+02 -0.71089507745E+02  0.10376916663E+03  0.47000000000E+01 0.  1.
         -5    1    1    2    0  502  0.55410889920E+02  0.14064449676E+02 -0.36340564877E+02  0.67903623776E+02  0.47000000000E+01 0.  1.
        -11    1    1    2    0    0 -0.21289463127E+02  0.61387150420E+02 -0.92488900238E+02  0.11303017360E+03  0.00000000000E+00 0. -1.
         11    1    1    2    0    0  0.10485053795E+02 -0.14603479986E+02  0.89275477169E+01  0.20072346376E+02  0.00000000000E+00 0.  1.
<mgrwt>
<rscale>  0 0.12558555E+03</rscale>
<asrwt>0</asrwt>
<pdfrwt beam="2">  1        2 0.38135903E-01 0.13390417E+03</pdfrwt>
<pdfrwt beam="1">  1       -2 0.87526065E-02 0.13390417E+03</pdfrwt>
<totfact> 0.10414159E+04</totfact>
</mgrwt>
</event>
<event>
 6    1  0.9240440E-006  0.1438169E+03  0.7546771E-02  0.1212883E+00
          1   -1    0    0  501    0  0.00000000000E+00  0.00000000000E+00  0.12561571234E+04  0.12561571234E+04  0.00000000000E+00 0. -1.
         -1   -1    0    0    0  501 -0.00000000000E+00 -0.00000000000E+00 -0.98032724624E+02  0.98032724624E+02  0.00000000000E+00 0.  1.
          5    1    1    2  502    0 -0.18184812111E+02  0.12659097348E+02  0.11801311193E+04  0.11803484608E+04  0.47000000000E+01 0. -1.
         -5    1    1    2    0  502 -0.14710222887E+02 -0.16457476643E+02  0.26433788033E+02  0.34757363890E+02  0.47000000000E+01 0.  1.
        -11    1    1    2    0    0 -0.92783246345E+01  0.56410196999E+02 -0.42810694942E+02  0.71420957953E+02  0.00000000000E+00 0.  1.
         11    1    1    2    0    0  0.42173359632E+02 -0.52611817705E+02 -0.56298135636E+01  0.67663065446E+02  0.00000000000E+00 0. -1.
<mgrwt>
<rscale>  0 0.14033200E+03</rscale>
<asrwt>0</asrwt>
<pdfrwt beam="1">  1        1 0.19325493E+00 0.14381686E+03</pdfrwt>
<pdfrwt beam="2">  1       -1 0.15081959E-01 0.14381686E+03</pdfrwt>
<totfact> 0.34313065E+02</totfact>
</mgrwt>
</event>
<event>
 6    1  0.9240440E-006  0.1601858E+03  0.7546771E-02  0.1195744E+00
         -2   -1    0    0    0  501 -0.00000000000E+00  0.00000000000E+00  0.15805994477E+03  0.15805994477E+03  0.00000000000E+00 0.  1.
          2   -1    0    0  501    0  0.00000000000E+00 -0.00000000000E+00 -0.14400948927E+03  0.14400948927E+03  0.00000000000E+00 0. -1.
          5    1    1    2  502    0  0.47708018526E+02  0.18907545332E+02  0.61608464843E+01  0.51899868319E+02  0.47000000000E+01 0. -1.
         -5    1    1    2    0  502  0.13053522001E+01 -0.10627228514E+03 -0.25951930092E+02  0.10950385933E+03  0.47000000000E+01 0. -1.
        -11    1    1    2    0    0 -0.67449220013E+02  0.30005713199E+02  0.31805346966E+02  0.80382337615E+02  0.00000000000E+00 0.  1.
         11    1    1    2    0    0  0.18435849287E+02  0.57359026607E+02  0.20361921398E+01  0.60283368773E+02  0.00000000000E+00 0. -1.
<mgrwt>
<rscale>  0 0.15391406E+03</rscale>
<asrwt>0</asrwt>
<pdfrwt beam="2">  1        2 0.22155306E-01 0.16018576E+03</pdfrwt>
<pdfrwt beam="1">  1       -2 0.24316914E-01 0.16018576E+03</pdfrwt>
<totfact> 0.35737728E+03</totfact>
</mgrwt>
</event>
<event>
 6    1  0.9240440E-006  0.1287020E+03  0.7546771E-02  0.1243642E+00
          1   -1    0    0  501    0  0.00000000000E+00  0.00000000000E+00  0.68886654172E+02  0.68886654172E+02  0.00000000000E+00 0. -1.
         -1   -1    0    0    0  501 -0.00000000000E+00 -0.00000000000E+00 -0.20286416686E+03  0.20286416686E+03  0.00000000000E+00 0.  1.
          5    1    1    2  502    0  0.20701394643E+02 -0.36747806865E+02 -0.50682574415E+02  0.66104178377E+02  0.47000000000E+01 0.  1.
         -5    1    1    2    0  502 -0.74816196062E+01  0.64426715997E+02  0.16439318453E+02  0.67075461663E+02  0.47000000000E+01 0.  1.
        -11    1    1    2    0    0  0.20423516876E+02  0.25817081782E+02 -0.31362605866E+02  0.45467073801E+02  0.00000000000E+00 0.  1.
         11    1    1    2    0    0 -0.33643291913E+02 -0.53495990914E+02 -0.68371650862E+02  0.93104107193E+02  0.00000000000E+00 0. -1.
<mgrwt>
<rscale>  0 0.11967031E+03</rscale>
<asrwt>0</asrwt>
<pdfrwt beam="1">  1        1 0.10597947E-01 0.12870204E+03</pdfrwt>
<pdfrwt beam="2">  1       -1 0.31209872E-01 0.12870204E+03</pdfrwt>
<totfact> 0.53723513E+03</totfact>
</mgrwt>
</event>
<event>
 6    1  0.9240440E-006  0.1662568E+03  0.7546771E-02  0.1189168E+00
         -2   -1    0    0    0  501 -0.00000000000E+00  0.00000000000E+00  0.36170455886E+02  0.36170455886E+02  0.00000000000E+00 0.  1.
          2   -1    0    0  501    0  0.00000000000E+00 -0.00000000000E+00 -0.66104937680E+03  0.66104937680E+03  0.00000000000E+00 0. -1.
          5    1    1    2  502    0 -0.67695894136E+02 -0.10766016928E+03 -0.24562122721E+03  0.27663210838E+03  0.47000000000E+01 0.  1.
         -5    1    1    2    0  502  0.32437594699E+02  0.39021871822E+01 -0.13024926815E+03  0.13436661217E+03  0.47000000000E+01 0.  1.
        -11    1    1    2    0    0  0.65394029570E+02  0.73530682438E+02 -0.17687823565E+03  0.20240812881E+03  0.00000000000E+00 0. -1.
         11    1    1    2    0    0 -0.30135730133E+02  0.30227299664E+02 -0.72130189913E+02  0.83812983317E+02  0.00000000000E+00 0.  1.
<mgrwt>
<rscale>  0 0.15958366E+03</rscale>
<asrwt>0</asrwt>
<pdfrwt beam="2">  1        2 0.10169991E+00 0.16625679E+03</pdfrwt>
<pdfrwt beam="1">  1       -2 0.55646853E-02 0.16625679E+03</pdfrwt>
<totfact> 0.72692342E+03</totfact>
</mgrwt>
</event>
<event>
 6    1  0.9240440E-006  0.3541028E+03  0.7546771E-02  0.1060944E+00
          3   -1    0    0  501    0  0.00000000000E+00  0.00000000000E+00  0.95138779057E+02  0.95138779057E+02  0.00000000000E+00 0. -1.
         -3   -1    0    0    0  501 -0.00000000000E+00 -0.00000000000E+00 -0.32948914411E+03  0.32948914411E+03  0.00000000000E+00 0.  1.
          5    1    1    2  502    0  0.10203392187E+02  0.18110016793E+01  0.45921366798E+02  0.47310156075E+02  0.47000000000E+01 0. -1.
         -5    1    1    2    0  502 -0.98353462164E+02  0.39599389648E+01 -0.38813835124E+02  0.10591358946E+03  0.47000000000E+01 0. -1.
        -11    1    1    2    0    0  0.44517282540E+02  0.40471245563E+02 -0.12485025832E+03  0.13859039348E+03  0.00000000000E+00 0. -1.
         11    1    1    2    0    0  0.43632787437E+02 -0.46242186207E+02 -0.11660763841E+03  0.13281378415E+03  0.00000000000E+00 0.  1.
<mgrwt>
<rscale>  0 0.35410278E+03</rscale>
<asrwt>0</asrwt>
<pdfrwt beam="1">  1        3 0.14636735E-01 0.35410278E+03</pdfrwt>
<pdfrwt beam="2">  1       -3 0.50690639E-01 0.35410278E+03</pdfrwt>
<totfact> 0.38987654E+02</totfact>
</mgrwt>
</event>
<event>
 6    1  0.9240440E-006  0.1845647E+03  0.7546771E-02  0.1168251E+00
          2   -1    0    0  501    0  0.00000000000E+00  0.00000000000E+00  0.10511852555E+03  0.10511852555E+03  0.00000000000E+00 0. -1.
         -2   -1    0    0    0  501 -0.00000000000E+00 -0.00000000000E+00 -0.34736894608E+03  0.34736894608E+03  0.00000000000E+00 0.  1.
          5    1    1    2  502    0  0.40918731606E+02  0.60651863192E+02  0.44377745775E+02  0.85699856622E+02  0.47000000000E+01 0. -1.
         -5    1    1    2    0  502  0.23344766898E+02  0.58969500380E+02 -0.80122959185E+02  0.10229447055E+03  0.47000000000E+01 0. -1.
        -11    1    1    2    0    0 -0.75818029342E+02 -0.64779515896E+02 -0.86364342259E+02  0.13192254874E+03  0.00000000000E+00 0. -1.
         11    1    1    2    0    0  0.11554530837E+02 -0.54841847676E+02 -0.12014086486E+03  0.13257059572E+03  0.00000000000E+00 0.  1.
<mgrwt>
<rscale>  0 0.17953792E+03</rscale>
<asrwt>0</asrwt>
<pdfrwt beam="1">  1        2 0.16172081E-01 0.18456475E+03</pdfrwt>
<pdfrwt beam="2">  1       -2 0.53441376E-01 0.18456475E+03</pdfrwt>
<totfact> 0.11822286E+03</totfact>
</mgrwt>
</event>
<event>
 6    1  0.9240440E-006  0.3467271E+03  0.7546771E-02  0.1063966E+00
          1   -1    0    0  501    0  0.00000000000E+00  0.00000000000E+00  0.41462363987E+03  0.41462363987E+03  0.00000000000E+00 0. -1.
         -1   -1    0    0    0  501 -0.00000000000E+00 -0.00000000000E+00 -0.72487237365E+02  0.72487237365E+02  0.00000000000E+00 0.  1.
          5    1    1    2  502    0 -0.77485216939E+01 -0.24710084760E+02  0.42297955862E+02  0.49818018300E+02  0.47000000000E+01 0. -1.
         -5    1    1    2    0  502  0.81041026048E+02  0.12641718724E+03  0.18746947690E+03  0.24024122856E+03  0.47000000000E+01 0. -1.
        -11    1    1    2    0    0  0.37238142243E+01 -0.35196296573E+02 -0.11062408957E+02  0.37081302252E+02  0.00000000000E+00 0.  1.
         11    1    1    2    0    0 -0.77016318578E+02 -0.66510805910E+02  0.12343137871E+03  0.15997032812E+03  0.00000000000E+00 0. -1.
<mgrwt>
<rscale>  0 0.34672711E+03</rscale>
<asrwt>0</asrwt>
<pdfrwt beam="1">  1        1 0.63788251E-01 0.34672711E+03</pdfrwt>
<pdfrwt beam="2">  1       -1 0.11151883E-01 0.34672711E+03</pdfrwt>
<totfact> 0.29806296E+03</totfact>
</mgrwt>
</event>
<event>
 6    1  0.9240440E-006  0.4953573E+03  0.7546771E-02  0.1014998E+00
         -1   -1    0    0    0  501 -0.00000000000E+00  0.00000000000E+00  0.30974775044E+03  0.30974775044E+03  0.00000000000E+00 0.  1.
          1   -1    0    0  501    0  0.00000000000E+00 -0.00000000000E+00 -0.19804733766E+03  0.19804733766E+03  0.00000000000E+00 0. -1.
          5    1    1    2  502    0 -0.95491158976E+02  0.13941387412E+02 -0.69961936300E+02  0.11928824861E+03  0.47000000000E+01 0. -1.
         -5    1    1    2    0  502  0.17688523974E+01  0.74316397932E+02 -0.33945759649E+01  0.74563187877E+02  0.47000000000E+01 0. -1.
        -11    1    1    2    0    0 -0.64279109071E+02 -0.32301718356E+02  0.10726351191E+03  0.12915365213E+03  0.00000000000E+00 0.  1.
         11    1    1    2    0    0  0.15800141565E+03 -0.55956066989E+02  0.77793413139E+02  0.18478999948E+03  0.00000000000E+00 0. -1.
<mgrwt>
<rscale>  0 0.49535731E+03</rscale>
<asrwt>0</asrwt>
<pdfrwt beam="2">  1        1 0.30468821E-01 0.49535731E+03</pdfrwt>
<pdfrwt beam="1">  1       -1 0.47653500E-01 0.49535731E+03</pdfrwt>
<totfact> 0.66791400E+02</totfact>
</mgrwt>
</event>
<event>
 6    1  0.9240440E-006  0.1422846E+03  0.7546771E-02  0.1226167E+00
          2   -1    0    0  501    0  0.00000000000E+00  0.00000000000E+00  0.91139418967E+02  0.91139418967E+02  0.00000000000E+00 0. -1.
         -2   -1    0    0    0  501 -0.00000000000E+00 -0.00000000000E+00 -0.18090652350E+03  0.18090652350E+03  0.00000000000E+00 0.  1.
          5    1    1    2  502    0 -0.16334685031E+02  0.22233122573E+02 -0.63366706349E+02  0.69271661940E+02  0.47000000000E+01 0. -1.
         -5    1    1    2    0  502  0.20476780443E+02  0.45630759384E+02  0.53458099668E+02  0.73357502407E+02  0.47000000000E+01 0. -1.
        -11    1    1    2    0    0 -0.38648145543E+02 -0.41812213046E+02 -0.33664462350E+02  0.66145569307E+02  0.00000000000E+00 0. -1.
         11    1    1    2    0    0  0.34506050130E+02 -0.26051668911E+02 -0.46194035504E+02  0.63271208814E+02  0.00000000000E+00 0.  1.
<mgrwt>
<rscale>  0 0.13087226E+03</rscale>
<asrwt>0</asrwt>
<pdfrwt beam="1">  1        2 0.14021449E-01 0.14228457E+03</pdfrwt>
<pdfrwt beam="2">  1       -2 0.27831773E-01 0.14228457E+03</pdfrwt>
<totfact> 0.47388359E+03</totfact>
</mgrwt>
</event>
<event>
 6    1  0.9240440E-006  0.1257461E+03  0.7546771E-02  0.1248695E+00
         -4   -1    0    0    0  501 -0.00000000000E+00  0.00000000000E+00  0.13679707021E+03  0.13679707021E+03  0.00000000000E+00 0.  1.
          4   -1    0    0  501    0  0.00000000000E+00 -0.00000000000E+00 -0.87639274191E+02  0.87639274191E+02  0.00000000000E+00 0. -1.
          5    1    1    2  502    0 -0.34877380807E+02 -0.21005095667E+02 -0.36903520541E+02  0.55150753071E+02  0.47000000000E+01 0.  1.
         -5    1    1    2    0  502  0.21195513224E+02  0.21765666654E+02  0.67638400189E+02  0.74296952871E+02  0.47000000000E+01 0.  1.
        -11    1    1    2    0    0  0.47714667222E+00 -0.40120668398E+02  0.31986523715E+02  0.51313091907E+02  0.00000000000E+00 0.  1.
         11    1    1    2    0    0  0.13204720910E+02  0.39360097412E+02 -0.13563607342E+02  0.43675546553E+02  0.00000000000E+00 0. -1.
<mgrwt>
<rscale>  0 0.11666949E+03</rscale>
<asrwt>0</asrwt>
<pdfrwt beam="2">  1        4 0.13482965E-01 0.12574608E+03</pdfrwt>
<pdfrwt beam="1">  1       -4 0.21045703E-01 0.12574608E+03</pdfrwt>
<totfact> 0.15115767E+03</totfact>
</mgrwt>
</event>
<event>
 6    1  0.9240440E-006  0.1347031E+03  0.7546771E-02  0.1233344E+00
          4   -1    0    0  501    0  0.00000000000E+00  0.00000000000E+00  0.44742126218E+03  0.44742126218E+03  0.00000000000E+00 0.  1.
         -4   -1    0    0    0  501 -0.00000000000E+00 -0.00000000000E+00 -0.45466821704E+02  0.45466821704E+02  0.00000000000E+00 0. -1.
          5    1    1    2  502    0 -0.50348530180E+02  0.32674965546E+02  0.63974761293E+02  0.87849234187E+02  0.47000000000E+01 0.  1.
         -5    1    1    2    0  502  0.12790034879E+01 -0.22069861450E+02  0.29016299926E+03  0.29104187117E+03  0.47000000000E+01 0.  1.
        -11    1    1    2    0    0  0.80099401767E+00  0.30946425877E+02  0.38855844470E+02  0.49679970969E+02  0.00000000000E+00 0.  1.
         11    1    1    2    0    0  0.48268532674E+02 -0.41551529972E+02  0.89608354540E+01  0.64317007561E+02  0.00000000000E+00 0. -1.
<mgrwt>
<rscale>  0 0.12611046E+03</rscale>
<asrwt>0</asrwt>
<pdfrwt beam="1">  1        4 0.68834038E-01 0.13470307E+03</pdfrwt>
<pdfrwt beam="2">  1       -4 0.69948959E-02 0.13470307E+03</pdfrwt>
<totfact> 0.45265595E+02</totfact>
</mgrwt>
</event>
<event>
 6    1  0.9240440E-006  0.2264479E+03  0.7546771E-02  0.1163586E+00
          2   -1    0    0  501    0  0.00000000000E+00  0.00000000000E+00  0.14323194137E+04  0.14323194137E+04  0.00000000000E+00 0. -1.
         -2   -1    0    0    0  501 -0.00000000000E+00 -0.00000000000E+00 -0.40029452607E+02  0.40029452607E+02  0.00000000000E+00 0.  1.
          5    1    1    2  502    0  0.21422326185E+02 -0.74109929383E+02  0.93217287871E+03  0.93537135058E+03  0.47000000000E+01 0. -1.
         -5    1    1    2    0  502 -0.33154962226E+02  0.10976025868E+03  0.40940460024E+03  0.42518323415E+03  0.47000000000E+01 0.  1.
        -11    1    1    2    0    0  0.43827416315E+02 -0.48000663312E+02  0.29422183276E+02  0.71348237315E+02  0.00000000000E+00 0.  1.
         11    1    1    2    0    0 -0.32094780273E+02  0.12350334012E+02  0.21290298894E+02  0.40446044281E+02  0.00000000000E+00 0. -1.
<mgrwt>
<rscale>  0 0.18442684E+03</rscale>
<asrwt>0</asrwt>
<pdfrwt beam="1">  1        2 0.22035679E+00 0.22644789E+03</pdfrwt>
<pdfrwt beam="2">  1       -2 0.61583784E-02 0.22644789E+03</pdfrwt>
<totfact> 0.21113556E+03</totfact>
</mgrwt>
</event>
<event>
 6    1  0.9240440E-006  0.1377112E+03  0.7546771E-02  0.1228669E+00
         -2   -1    0    0    0  501 -0.00000000000E+00  0.00000000000E+00  0.54524377303E+02  0.54524377303E+02  0.00000000000E+00 0.  1.
          2   -1    0    0  501    0  0.00000000000E+00 -0.00000000000E+00 -0.27560445612E+03  0.27560445612E+03  0.00000000000E+00 0. -1.
          5    1    1    2  502    0 -0.40432864034E+02 -0.19325047829E+02 -0.23921158142E+02  0.51015544439E+02  0.47000000000E+01 0. -1.
         -5    1    1    2    0  502  0.86225857012E+02 -0.15894916811E+02 -0.11389938882E+03  0.14381483780E+03  0.47000000000E+01 0. -1.
        -11    1    1    2    0    0 -0.46976259322E+00  0.51171281512E+02 -0.17975049549E+02  0.54238576076E+02  0.00000000000E+00 0.  1.
         11    1    1    2    0    0 -0.45323230385E+02 -0.15951316872E+02 -0.65284482312E+02  0.81059875112E+02  0.00000000000E+00 0. -1.
<mgrwt>
<rscale>  0 0.12918551E+03</rscale>
<asrwt>0</asrwt>
<pdfrwt beam="2">  1        2 0.42400685E-01 0.13771120E+03</pdfrwt>
<pdfrwt beam="1">  1       -2 0.83883658E-02 0.13771120E+03</pdfrwt>
<totfact> 0.99598684E+03</totfact>
</mgrwt>
</event>
<event>
 6    1  0.9240440E-006  0.1900072E+03  0.7546771E-02  0.1163497E+00
          1   -1    0    0  501    0  0.00000000000E+00  0.00000000000E+00  0.79149306017E+02  0.79149306017E+02  0.00000000000E+00 0. -1.
         -1   -1    0    0    0  501 -0.00000000000E+00 -0.00000000000E+00 -0.41190323135E+03  0.41190323135E+03  0.00000000000E+00 0.  1.
          5    1    1    2  502    0 -0.10312887118E+03 -0.47656157624E+02 -0.65542512294E+02  0.13124246397E+03  0.47000000000E+01 0. -1.
         -5    1    1    2    0  502 -0.39988094743E+02  0.59547256144E+02 -0.83975852944E+02  0.11053939259E+03  0.47000000000E+01 0.  1.
        -11    1    1    2    0    0  0.71506465387E+02  0.13261636355E+02 -0.30788808085E+02  0.78974656025E+02  0.00000000000E+00 0. -1.
         11    1    1    2    0    0  0.71610500539E+02 -0.25152734875E+02 -0.15244675201E+03  0.17029602478E+03  0.00000000000E+00 0.  1.
<mgrwt>
<rscale>  0 0.18452211E+03</rscale>
<asrwt>0</asrwt>
<pdfrwt beam="1">  1        1 0.12176816E-01 0.19000717E+03</pdfrwt>
<pdfrwt beam="2">  1       -1 0.63369728E-01 0.19000717E+03</pdfrwt>
<totfact> 0.12737861E+03</totfact>
</mgrwt>
</event>
<event>
 6    1  0.9240440E-006  0.1397045E+03  0.7546771E-02  0.1224440E+00
         -1   -1    0    0    0  501 -0.00000000000E+00  0.00000000000E+00  0.18814866624E+03  0.18814866624E+03  0.00000000000E+00 0.  1.
          1   -1    0    0  501    0  0.00000000000E+00 -0.00000000000E+00 -0.23191670676E+03  0.23191670676E+03  0.00000000000E+00 0. -1.
          5    1    1    2  502    0 -0.24933578257E+02 -0.34030157534E+02 -0.22252026471E+02  0.47926794475E+02  0.47000000000E+01 0. -1.
         -5    1    1    2    0  502  0.83548866672E+02  0.12661348370E+02 -0.16795127960E+03  0.18807031979E+03  0.47000000000E+01 0. -1.
        -11    1    1    2    0    0  0.17164627097E+01 -0.20660361880E+02  0.87250412502E+02  0.89679603473E+02  0.00000000000E+00 0.  1.
         11    1    1    2    0    0 -0.60331751124E+02  0.42029171044E+02  0.59184853051E+02  0.94388655266E+02  0.00000000000E+00 0. -1.
<mgrwt>
<rscale>  0 0.13205378E+03</rscale>
<asrwt>0</asrwt>
<pdfrwt beam="2">  1        1 0.35679493E-01 0.13970447E+03</pdfrwt>
<pdfrwt beam="1">  1       -1 0.28945949E-01 0.13970447E+03</pdfrwt>
<totfact> 0.13021815E+03</totfact>
</mgrwt>
</event>
<event>
 6    1  0.9240440E-006  0.1370675E+03  0.7546771E-02  0.1228126E+00
          1   -1    0    0  501    0  0.00000000000E+00  0.00000000000E+00  0.53426927498E+02  0.53426927498E+02  0.00000000000E+00 0. -1.
         -1   -1    0    0    0  501 -0.00000000000E+00 -0.00000000000E+00 -0.37499282264E+03  0.37499282264E+03  0.00000000000E+00 0.  1.
          5    1    1    2  502    0 -0.16438387372E+02  0.45927796785E+02 -0.54693029971E+02  0.73437052122E+02  0.47000000000E+01 0.  1.
         -5    1    1    2    0  502 -0.33937935952E+02 -0.71057690736E+02 -0.14883252212E+02  0.80278142142E+02  0.47000000000E+01 0.  1.
        -11    1    1    2    0    0  0.40073421987E+02  0.59800412947E+02 -0.18615495252E+03  0.19958866423E+03  0.00000000000E+00 0. -1.
         11    1    1    2    0    0  0.10302901337E+02 -0.34670518996E+02 -0.65834660434E+02  0.75115891647E+02  0.00000000000E+00 0.  1.
<mgrwt>
<rscale>  0 0.12954918E+03</rscale>
<asrwt>0</asrwt>
<pdfrwt beam="1">  1        1 0.82195274E-02 0.13706751E+03</pdfrwt>
<pdfrwt beam="2">  1       -1 0.57691203E-01 0.13706751E+03</pdfrwt>
<totfact> 0.25419026E+03</totfact>
</mgrwt>
</event>
<event>
 6    1  0.9240440E-006  0.1380306E+03  0.7546771E-02  0.1232272E+00
          3   -1    0    0  501    0  0.00000000000E+00  0.00000000000E+00  0.88455999564E+02  0.88455999564E+02  0.00000000000E+00 0. -1.
         -3   -1    0    0    0  501 -0.00000000000E+00 -0.00000000000E+00 -0.16902777340E+03  0.16902777340E+03  0.00000000000E+00 0.  1.
          5    1    1    2  502    0  0.45480248348E+02  0.82355551397E+02  0.10819711373E+02  0.94815853051E+02  0.47000000000E+01 0. -1.
         -5    1    1    2    0  502 -0.20967846682E+02 -0.29188657801E+02 -0.24807208824E+02  0.43921702476E+02  0.47000000000E+01 0. -1.
        -11    1    1    2    0    0 -0.53048725441E+02 -0.27321175011E+02 -0.37247017651E+02  0.70341696019E+02  0.00000000000E+00 0.  1.
         11    1    1    2    0    0  0.28536323775E+02 -0.25845718584E+02 -0.29337258735E+02  0.48404521419E+02  0.00000000000E+00 0. -1.
<mgrwt>
<rscale>  0 0.12680729E+03</rscale>
<asrwt>0</asrwt>
<pdfrwt beam="1">  1        3 0.13608616E-01 0.13803065E+03</pdfrwt>
<pdfrwt beam="2">  1       -3 0.26004272E-01 0.13803065E+03</pdfrwt>
<totfact> 0.14141333E+03</totfact>
</mgrwt>
</event>
<event>
 6    1  0.9240440E-006  0.1182156E+03  0.7546771E-02  0.1253759E+00
         -1   -1    0    0    0  501 -0.00000000000E+00  0.00000000000E+00  0.13531650083E+03  0.13531650083E+03  0.00000000000E+00 0.  1.
          1   -1    0    0  501    0  0.00000000000E+00 -0.00000000000E+00 -0.93096573503E+02  0.93096573503E+02  0.00000000000E+00 0. -1.
          5    1    1    2  502    0  0.51819957609E+02  0.30124736661E+02 -0.40552001251E+02  0.72521462830E+02  0.47000000000E+01 0. -1.
         -5    1    1    2    0  502 -0.19890100405E+02 -0.10159000251E+02  0.39590400515E+02  0.45698043647E+02  0.47000000000E+01 0.  1.
        -11    1    1    2    0    0 -0.55567540221E+02 -0.41224077652E+02  0.24978759850E+02  0.73560278332E+02  0.00000000000E+00 0.  1.
         11    1    1    2    0    0  0.23637683017E+02  0.21258341243E+02  0.18202768213E+02  0.36633289525E+02  0.00000000000E+00 0. -1.
<mgrwt>
<rscale>  0 0.11376130E+03</rscale>
<asrwt>0</asrwt>
<pdfrwt beam="2">  1        1 0.14322550E-01 0.11821560E+03</pdfrwt>
<pdfrwt beam="1">  1       -1 0.20817923E-01 0.11821560E+03</pdfrwt>
<totfact> 0.70087713E+03</totfact>
</mgrwt>
</event>
<event>
 6    1  0.9240440E-006  0.1267907E+03  0.7546771E-02  0.1247540E+00
         -1   -1    0    0    0  501 -0.00000000000E+00  0.00000000000E+00  0.38114666089E+03  0.38114666089E+03  0.00000000000E+00 0.  1.
          1   -1    0    0  501    0  0.00000000000E+00 -0.00000000000E+00 -0.38957732428E+02  0.38957732428E+02  0.00000000000E+00 0. -1.
          5    1    1    2  502    0 -0.16430826472E+02  0.37535361762E+02 -0.12294103877E+02  0.43036152608E+02  0.47000000000E+01 0. -1.
         -5    1    1    2    0  502 -0.45302104550E+01 -0.34190148446E+02  0.11494305571E+03  0.12009781478E+03  0.47000000000E+01 0. -1.
        -11    1    1    2    0    0  0.49885414619E+02 -0.34607896880E+01  0.76560735701E+02  0.91444397904E+02  0.00000000000E+00 0. -1.
         11    1    1    2    0    0 -0.28924377692E+02  0.11557637149E+00  0.16297924093E+03  0.16552602803E+03  0.00000000000E+00 0.  1.
<mgrwt>
<rscale>  0 0.11734651E+03</rscale>
<asrwt>0</asrwt>
<pdfrwt beam="2">  1        1 0.59934976E-02 0.12679071E+03</pdfrwt>
<pdfrwt beam="1">  1       -1 0.58637945E-01 0.12679071E+03</pdfrwt>
<totfact> 0.37566448E+03</totfact>
</mgrwt>
</event>
<event>
 6    1  0.9240440E-006  0.1589561E+03  0.7546771E-02  0.1197729E+00
         -2   -1    0    0    0  501 -0.00000000000E+00  0.00000000000E+00  0.74289980320E+02  0.74289980320E+02  0.00000000000E+00 0. -1.
          2   -1    0    0  501    0  0.00000000000E+00 -0.00000000000E+00 -0.38223430772E+03  0.38223430772E+03  0.00000000000E+00 0.  1.
          5    1    1    2  502    0 -0.37254130973E+02  0.50965086743E+02 -0.93575073537E+02  0.11297652291E+03  0.47000000000E+01 0. -1.
         -5    1    1    2    0  502  0.88683684275E+02  0.32685508128E+02 -0.18315046251E+03  0.20615363256E+03  0.47000000000E+01 0. -1.
        -11    1    1    2    0    0 -0.36983619660E+02 -0.90807347497E+02 -0.52085215880E+02  0.11102536735E+03  0.00000000000E+00 0.  1.
         11    1    1    2    0    0 -0.14445933642E+02  0.71567526259E+01  0.20866424525E+02  0.26368765224E+02  0.00000000000E+00 0. -1.
<mgrwt>
<rscale>  0 0.15225521E+03</rscale>
<asrwt>0</asrwt>
<pdfrwt beam="2">  1        2 0.58805277E-01 0.15895608E+03</pdfrwt>
<pdfrwt beam="1">  1       -2 0.11429228E-01 0.15895608E+03</pdfrwt>
<totfact> 0.43624514E+03</totfact>
</mgrwt>
</event>
<event>
 6    1  0.9240440E-006  0.3879842E+03  0.7546771E-02  0.1048022E+00
         -2   -1    0    0    0  501 -0.00000000000E+00  0.00000000000E+00  0.44194222909E+02  0.44194222909E+02  0.00000000000E+00 0.  1.
          2   -1    0    0  501    0  0.00000000000E+00 -0.00000000000E+00 -0.85153520875E+03  0.85153520875E+03  0.00000000000E+00 0. -1.
          5    1    1    2  502    0 -0.50036966525E+02  0.11821114016E+03 -0.29565612340E+03  0.32235416079E+03  0.47000000000E+01 0.  1.
         -5    1    1    2    0  502 -0.49251805779E+01  0.56181619226E+01 -0.32445806111E+03  0.32457810241E+03  0.47000000000E+01 0.  1.
        -11    1    1    2    0    0  0.58349795433E+02 -0.22745433110E+02 -0.75422032930E+02  0.98033343336E+02  0.00000000000E+00 0.  1.
         11    1    1    2    0    0 -0.33876483296E+01 -0.10108386897E+03 -0.11180476841E+03  0.15076382513E+03  0.00000000000E+00 0. -1.
<mgrwt>
<rscale>  0 0.38798421E+03</rscale>
<asrwt>0</asrwt>
<pdfrwt beam="2">  1        2 0.13100542E+00 0.38798421E+03</pdfrwt>
<pdfrwt beam="1">  1       -2 0.67991109E-02 0.38798421E+03</pdfrwt>
<totfact> 0.40080135E+03</totfact>
</mgrwt>
</event>
<event>
 6    1  0.9240440E-006  0.2287534E+03  0.7546771E-02  0.1131081E+00
          2   -1    0    0  501    0  0.00000000000E+00  0.00000000000E+00  0.83946715367E+03  0.83946715367E+03  0.00000000000E+00 0. -1.
         -2   -1    0    0    0  501 -0.00000000000E+00 -0.00000000000E+00 -0.58940325695E+02  0.58940325695E+02  0.00000000000E+00 0.  1.
          5    1    1    2  502    0 -0.84954416939E+02  0.43958920171E+02  0.36917892847E+03  0.38139849350E+03  0.47000000000E+01 0.  1.
         -5    1    1    2    0  502 -0.56320347680E+02  0.85421573238E+02  0.11437380961E+03  0.15353268402E+03  0.47000000000E+01 0.  1.
        -11    1    1    2    0    0  0.65660456020E+02 -0.47449998173E+02  0.57567108214E+02  0.99381938799E+02  0.00000000000E+00 0.  1.
         11    1    1    2    0    0  0.75614308598E+02 -0.81930495237E+02  0.23940698168E+03  0.26409436304E+03  0.00000000000E+00 0. -1.
<mgrwt>
<rscale>  0 0.22380006E+03</rscale>
<asrwt>0</asrwt>
<pdfrwt beam="1">  1        2 0.12914878E+00 0.22875339E+03</pdfrwt>
<pdfrwt beam="2">  1       -2 0.90677430E-02 0.22875339E+03</pdfrwt>
<totfact> 0.25735921E+03</totfact>
</mgrwt>
</event>
<event>
 6    1  0.9240440E-006  0.1953400E+03  0.7546771E-02  0.1157757E+00
         -2   -1    0    0    0  501 -0.00000000000E+00  0.00000000000E+00  0.61190138469E+03  0.61190138469E+03  0.00000000000E+00 0.  1.
          2   -1    0    0  501    0  0.00000000000E+00 -0.00000000000E+00 -0.62017841284E+02  0.62017841284E+02  0.00000000000E+00 0. -1.
          5    1    1    2  502    0  0.16844631828E+02  0.10698556338E+02 -0.43208155127E+01  0.20951376466E+02  0.47000000000E+01 0.  1.
         -5    1    1    2    0  502 -0.14376252148E+03  0.69529584920E+02  0.19414591855E+03  0.25142942042E+03  0.47000000000E+01 0.  1.
        -11    1    1    2    0    0  0.10340324701E+03 -0.94972361093E+02  0.23766396853E+03  0.27603648817E+03  0.00000000000E+00 0. -1.
         11    1    1    2    0    0  0.23514642643E+02  0.14744219835E+02  0.12239447185E+03  0.12550194093E+03  0.00000000000E+00 0.  1.
<mgrwt>
<rscale>  0 0.19078267E+03</rscale>
<asrwt>0</asrwt>
<pdfrwt beam="2">  1        2 0.95412068E-02 0.19534003E+03</pdfrwt>
<pdfrwt beam="1">  1       -2 0.94138670E-01 0.19534003E+03</pdfrwt>
<totfact> 0.66521102E+02</totfact>
</mgrwt>
</event>
<event>
 6    1  0.9240440E-006  0.4068616E+03  0.7546771E-02  0.1041429E+00
         -1   -1    0    0    0  501 -0.00000000000E+00  0.00000000000E+00  0.15484529404E+03  0.15484529404E+03  0.00000000000E+00 0.  1.
          1   -1    0    0  501    0  0.00000000000E+00 -0.00000000000E+00 -0.26726087492E+03  0.26726087492E+03  0.00000000000E+00 0. -1.
          5    1    1    2  502    0 -0.14825343257E+02 -0.36992258076E+02 -0.10194760859E+03  0.10956104626E+03  0.47000000000E+01 0.  1.
         -5    1    1    2    0  502 -0.12603529849E+03 -0.96532851243E+01 -0.46656275863E+02  0.13482203254E+03  0.47000000000E+01 0.  1.
        -11    1    1    2    0    0  0.84616576700E+02  0.29756034470E+02  0.66478974569E+02  0.11164605098E+03  0.00000000000E+00 0.  1.
         11    1    1    2    0    0  0.56244065049E+02  0.16889508730E+02 -0.30290670993E+02  0.66077039186E+02  0.00000000000E+00 0. -1.
<mgrwt>
<rscale>  0 0.40686159E+03</rscale>
<asrwt>0</asrwt>
<pdfrwt beam="2">  1        1 0.41117058E-01 0.40686159E+03</pdfrwt>
<pdfrwt beam="1">  1       -1 0.23822353E-01 0.40686159E+03</pdfrwt>
<totfact> 0.15394162E+03</totfact>
</mgrwt>
</event>
<event>
 6    1  0.9240440E-006  0.2596424E+03  0.7546771E-02  0.1125026E+00
         -1   -1    0    0    0  501 -0.00000000000E+00  0.00000000000E+00  0.10920543492E+03  0.10920543492E+03  0.00000000000E+00 0.  1.
          1   -1    0    0  501    0  0.00000000000E+00 -0.00000000000E+00 -0.69409429121E+03  0.69409429121E+03  0.00000000000E+00 0. -1.
          5    1    1    2  502    0 -0.17888253797E+03  0.39200284863E+02 -0.54018112677E+03  0.57039754947E+03  0.47000000000E+01 0. -1.
         -5    1    1    2    0  502  0.34395042379E+02 -0.38771541083E+02 -0.41368145971E+02  0.66480559860E+02  0.47000000000E+01 0.  1.
        -11    1    1    2    0    0  0.12512591695E+02  0.27614744188E+02 -0.82199098397E+01  0.31411876182E+02  0.00000000000E+00 0. -1.
         11    1    1    2    0    0  0.13197490389E+03 -0.28043487967E+02  0.48803263012E+01  0.13500974061E+03  0.00000000000E+00 0.  1.
<mgrwt>
<rscale>  0 0.23230698E+03</rscale>
<asrwt>0</asrwt>
<pdfrwt beam="2">  1        1 0.10678374E+00 0.25964239E+03</pdfrwt>
<pdfrwt beam="1">  1       -1 0.16800836E-01 0.25964239E+03</pdfrwt>
<totfact> 0.76710374E+02</totfact>
</mgrwt>
</event>
<event>
 6    1  0.9240440E-006  0.1264535E+03  0.7546771E-02  0.1248168E+00
          2   -1    0    0  501    0  0.00000000000E+00  0.00000000000E+00  0.37605712238E+03  0.37605712238E+03  0.00000000000E+00 0.  1.
         -2   -1    0    0    0  501 -0.00000000000E+00 -0.00000000000E+00 -0.32571037861E+02  0.32571037861E+02  0.00000000000E+00 0. -1.
          5    1    1    2  502    0  0.47467507055E+02 -0.52402032351E+02  0.16021557223E+03  0.17518634880E+03  0.47000000000E+01 0.  1.
         -5    1    1    2    0  502 -0.32910512988E+02  0.39970551354E+02  0.66499037379E+02  0.84409471110E+02  0.47000000000E+01 0.  1.
        -11    1    1    2    0    0  0.25045202998E+02  0.28037739813E+02  0.92924210101E+02  0.10024113861E+03  0.00000000000E+00 0. -1.
         11    1    1    2    0    0 -0.39602197065E+02 -0.15606258816E+02  0.23847264808E+02  0.48791201721E+02  0.00000000000E+00 0.  1.
<mgrwt>
<rscale>  0 0.11697759E+03</rscale>
<asrwt>0</asrwt>
<pdfrwt beam="1">  1        2 0.57854939E-01 0.12645345E+03</pdfrwt>
<pdfrwt beam="2">  1       -2 0.50109292E-02 0.12645345E+03</pdfrwt>
<totfact> 0.15594769E+04</totfact>
</mgrwt>
</event>
<event>
 6    1  0.9240440E-006  0.2028704E+03  0.7546771E-02  0.1177768E+00
          2   -1    0    0  501    0  0.00000000000E+00  0.00000000000E+00  0.20643986341E+03  0.20643986341E+03  0.00000000000E+00 0. -1.
         -2   -1    0    0    0  501 -0.00000000000E+00 -0.00000000000E+00 -0.11464851551E+03  0.11464851551E+03  0.00000000000E+00 0.  1.
          5    1    1    2  502    0  0.53358779812E+02 -0.50158095082E+02  0.13316090572E+03  0.15204246347E+03  0.47000000000E+01 0. -1.
         -5    1    1    2    0  502  0.34227318277E+02  0.37469780664E+02 -0.46097428885E+02  0.68720860947E+02  0.47000000000E+01 0.  1.
        -11    1    1    2    0    0 -0.24911653032E+02  0.23794977393E+02 -0.81118387268E+01  0.35391995330E+02  0.00000000000E+00 0. -1.
         11    1    1    2    0    0 -0.62674445057E+02 -0.11106662975E+02  0.12839709795E+02  0.64933059171E+02  0.00000000000E+00 0.  1.
<mgrwt>
<rscale>  0 0.17007703E+03</rscale>
<asrwt>0</asrwt>
<pdfrwt beam="1">  1        2 0.31759979E-01 0.20287039E+03</pdfrwt>
<pdfrwt beam="2">  1       -2 0.17638233E-01 0.20287039E+03</pdfrwt>
<totfact> 0.42070295E+03</totfact>
</mgrwt>
</event>
<event>
 6    1  0.9240440E-006  0.1428562E+03  0.7546771E-02  0.1220003E+00
          1   -1    0    0  501    0  0.00000000000E+00  0.00000000000E+00  0.23413308217E+03  0.23413308217E+03  0.00000000000E+00 0. -1.
         -1   -1    0    0    0  501 -0.00000000000E+00 -0.00000000000E+00 -0.81693479677E+02  0.81693479677E+02  0.00000000000E+00 0.  1.
          5    1    1    2  502    0  0.89266293339E+01  0.66140771711E+02  0.68608262887E+02  0.95830423823E+02  0.47000000000E+01 0. -1.
         -5    1    1    2    0  502  0.58005043193E+02 -0.48735515055E+02  0.72535500950E+02  0.10499154424E+03  0.47000000000E+01 0. -1.
        -11    1    1    2    0    0 -0.43949384271E+02 -0.48616430997E+02  0.29871221447E+02  0.72023576775E+02  0.00000000000E+00 0. -1.
         11    1    1    2    0    0 -0.22982288256E+02  0.31211174341E+02 -0.18575382793E+02  0.42981017009E+02  0.00000000000E+00 0.  1.
<mgrwt>
<rscale>  0 0.13515338E+03</rscale>
<asrwt>0</asrwt>
<pdfrwt beam="1">  1        1 0.36020474E-01 0.14285622E+03</pdfrwt>
<pdfrwt beam="2">  1       -1 0.12568228E-01 0.14285622E+03</pdfrwt>
<totfact> 0.49093875E+03</totfact>
</mgrwt>
</event>
<event>
 6    1  0.9240440E-006  0.1312497E+03  0.7546771E-02  0.1239720E+00
          1   -1    0    0  501    0  0.00000000000E+00  0.00000000000E+00  0.26192526625E+03  0.26192526625E+03  0.00000000000E+00 0. -1.
         -1   -1    0    0    0  501 -0.00000000000E+00 -0.00000000000E+00 -0.50541230877E+02  0.50541230877E+02  0.00000000000E+00 0.  1.
          5    1    1    2  502    0  0.36587538758E+02  0.28406224535E+02  0.10665515059E+03  0.11637427865E+03  0.47000000000E+01 0.  1.
         -5    1    1    2    0  502 -0.57044334052E+01 -0.53774038246E+02  0.25052029747E+01  0.54337406928E+02  0.47000000000E+01 0.  1.
        -11    1    1    2    0    0  0.84438027216E+01  0.44662384864E+02  0.81447921111E+02  0.93272666304E+02  0.00000000000E+00 0. -1.
         11    1    1    2    0    0 -0.39326908074E+02 -0.19294571154E+02  0.20775760697E+02  0.48482145242E+02  0.00000000000E+00 0.  1.
<mgrwt>
<rscale>  0 0.12207036E+03</rscale>
<asrwt>0</asrwt>
<pdfrwt beam="1">  1        1 0.40296194E-01 0.13124975E+03</pdfrwt>
<pdfrwt beam="2">  1       -1 0.77755741E-02 0.13124975E+03</pdfrwt>
<totfact> 0.88435973E+03</totfact>
</mgrwt>
</event>
<event>
 6    1  0.9240440E-006  0.1258099E+03  0.7546771E-02  0.1248195E+00
          1   -1    0    0  501    0  0.00000000000E+00  0.00000000000E+00  0.16517253217E+04  0.16517253217E+04  0.00000000000E+00 0. -1.
         -1   -1    0    0    0  501 -0.00000000000E+00 -0.00000000000E+00 -0.11099389506E+02  0.11099389506E+02  0.00000000000E+00 0.  1.
          5    1    1    2  502    0  0.37378210419E+02 -0.35139947788E+02  0.10197940396E+04  0.10210944715E+04  0.47000000000E+01 0.  1.
         -5    1    1    2    0  502 -0.30416460549E+02  0.47577181169E+02  0.36110408403E+03  0.36552291138E+03  0.47000000000E+01 0.  1.
        -11    1    1    2    0    0  0.26910405673E+02  0.28331438314E+02  0.83681883375E+02  0.92355281038E+02  0.00000000000E+00 0.  1.
         11    1    1    2    0    0 -0.33872155543E+02 -0.40768671694E+02  0.17604592517E+03  0.18385204726E+03  0.00000000000E+00 0. -1.
<mgrwt>
<rscale>  0 0.11696160E+03</rscale>
<asrwt>0</asrwt>
<pdfrwt beam="1">  1        1 0.25411139E+00 0.12580993E+03</pdfrwt>
<pdfrwt beam="2">  1       -1 0.17075997E-02 0.12580993E+03</pdfrwt>
<totfact> 0.48311725E+03</totfact>
</mgrwt>
</event>
<event>
 6    1  0.9240440E-006  0.1265130E+03  0.7546771E-02  0.1247976E+00
         -2   -1    0    0    0  501 -0.00000000000E+00  0.00000000000E+00  0.22499084741E+02  0.22499084741E+02  0.00000000000E+00 0. -1.
          2   -1    0    0  501    0  0.00000000000E+00 -0.00000000000E+00 -0.80483620410E+03  0.80483620410E+03  0.00000000000E+00 0.  1.
          5    1    1    2  502    0 -0.28388254649E+02  0.19125975988E+01 -0.31143951086E+02  0.42445102437E+02  0.47000000000E+01 0.  1.
         -5    1    1    2    0  502  0.20741061616E+02  0.16111978701E+02 -0.63775154642E+03  0.63830941749E+03  0.47000000000E+01 0.  1.
        -11    1    1    2    0    0  0.12811725453E+02  0.15108030708E+02 -0.11122466776E+03  0.11297486277E+03  0.00000000000E+00 0.  1.
         11    1    1    2    0    0 -0.51645324198E+01 -0.33132607008E+02 -0.22169540966E+01  0.33605906143E+02  0.00000000000E+00 0. -1.
<mgrwt>
<rscale>  0 0.11709013E+03</rscale>
<asrwt>0</asrwt>
<pdfrwt beam="2">  1        2 0.12382094E+00 0.12651296E+03</pdfrwt>
<pdfrwt beam="1">  1       -2 0.34613979E-02 0.12651296E+03</pdfrwt>
<totfact> 0.11470780E+04</totfact>
</mgrwt>
</event>
<event>
 6    1  0.9240440E-006  0.2423171E+03  0.7546771E-02  0.1118259E+00
          2   -1    0    0  501    0  0.00000000000E+00  0.00000000000E+00  0.15493477936E+04  0.15493477936E+04  0.00000000000E+00 0.  1.
         -2   -1    0    0    0  501 -0.00000000000E+00 -0.00000000000E+00 -0.94745636535E+01  0.94745636535E+01  0.00000000000E+00 0. -1.
          5    1    1    2  502    0  0.51493224855E+01 -0.20305427340E+01  0.78025110065E+00  0.73032470610E+01  0.47000000000E+01 0. -1.
         -5    1    1    2    0  502 -0.24417996156E+02  0.80530811130E+01  0.11721092857E+04  0.11724006816E+04  0.47000000000E+01 0. -1.
        -11    1    1    2    0    0  0.56051890579E+02 -0.11402300169E+02  0.24542450691E+03  0.25200201483E+03  0.00000000000E+00 0.  1.
         11    1    1    2    0    0 -0.36783216909E+02  0.53797617901E+01  0.12155918625E+03  0.12711641375E+03  0.00000000000E+00 0. -1.
<mgrwt>
<rscale>  0 0.24231710E+03</rscale>
<asrwt>0</asrwt>
<pdfrwt beam="1">  1        2 0.23836100E+00 0.24231710E+03</pdfrwt>
<pdfrwt beam="2">  1       -2 0.14576264E-02 0.24231710E+03</pdfrwt>
<totfact> 0.15726017E+04</totfact>
</mgrwt>
</event>
<event>
 6    1  0.9240440E-006  0.1396344E+03  0.7546771E-02  0.1224270E+00
         -2   -1    0    0    0  501 -0.00000000000E+00  0.00000000000E+00  0.11384362821E+03  0.11384362821E+03  0.00000000000E+00 0.  1.
          2   -1    0    0  501    0  0.00000000000E+00 -0.00000000000E+00 -0.15300859327E+03  0.15300859327E+03  0.00000000000E+00 0. -1.
          5    1    1    2  502    0 -0.34228372612E+02 -0.21248531697E+02 -0.36504266611E+02  0.54568608850E+02  0.47000000000E+01 0. -1.
         -5    1    1    2    0  502  0.47125615135E+02  0.82080613683E+02 -0.24965228576E+02  0.97996955985E+02  0.47000000000E+01 0. -1.
        -11    1    1    2    0    0  0.12474441736E+02  0.50619658598E+01  0.39400276034E+02  0.41636725935E+02  0.00000000000E+00 0.  1.
         11    1    1    2    0    0 -0.25371684259E+02 -0.65894047846E+02 -0.17095745903E+02  0.72649930706E+02  0.00000000000E+00 0. -1.
<mgrwt>
<rscale>  0 0.13217063E+03</rscale>
<asrwt>0</asrwt>
<pdfrwt beam="2">  1        2 0.23539784E-01 0.13963435E+03</pdfrwt>
<pdfrwt beam="1">  1       -2 0.17514404E-01 0.13963435E+03</pdfrwt>
<totfact> 0.57938478E+03</totfact>
</mgrwt>
</event>
<event>
 6    1  0.9240440E-006  0.1556500E+03  0.7546771E-02  0.1210093E+00
          2   -1    0    0  501    0  0.00000000000E+00  0.00000000000E+00  0.13258235788E+03  0.13258235788E+03  0.00000000000E+00 0. -1.
         -2   -1    0    0    0  501 -0.00000000000E+00 -0.00000000000E+00 -0.18068848648E+03  0.18068848648E+03  0.00000000000E+00 0.  1.
          5    1    1    2  502    0 -0.63036548436E+02 -0.62250366288E+01  0.58247410705E+02  0.86181253029E+02  0.47000000000E+01 0. -1.
         -5    1    1    2    0  502  0.49213591817E+02  0.60455549699E+02 -0.51778898172E+01  0.78267181193E+02  0.47000000000E+01 0.  1.
        -11    1    1    2    0    0  0.27312593366E+02 -0.67491357855E+02 -0.10664750131E+03  0.12913075032E+03  0.00000000000E+00 0.  1.
         11    1    1    2    0    0 -0.13489636747E+02  0.13260844786E+02  0.54718518216E+01  0.19691659817E+02  0.00000000000E+00 0. -1.
<mgrwt>
<rscale>  0 0.14243215E+03</rscale>
<asrwt>0</asrwt>
<pdfrwt beam="1">  1        2 0.20397286E-01 0.15564997E+03</pdfrwt>
<pdfrwt beam="2">  1       -2 0.27798229E-01 0.15564997E+03</pdfrwt>
<totfact> 0.30940638E+03</totfact>
</mgrwt>
</event>
<event>
 6    1  0.9240440E-006  0.1269250E+03  0.7546771E-02  0.1246682E+00
          2   -1    0    0  501    0  0.00000000000E+00  0.00000000000E+00  0.12028272316E+04  0.12028272316E+04  0.00000000000E+00 0. -1.
         -2   -1    0    0    0  501 -0.00000000000E+00 -0.00000000000E+00 -0.11734968253E+02  0.11734968253E+02  0.00000000000E+00 0.  1.
          5    1    1    2  502    0  0.37438322966E+02  0.25233233334E+02  0.69279344111E+03  0.69427889650E+03  0.47000000000E+01 0.  1.
         -5    1    1    2    0  502 -0.53783525389E+02 -0.10800826037E+02  0.19803687612E+03  0.20554809595E+03  0.47000000000E+01 0.  1.
        -11    1    1    2    0    0  0.48461317989E+02 -0.21744218759E+02  0.24243507935E+03  0.24818557188E+03  0.00000000000E+00 0. -1.
         11    1    1    2    0    0 -0.32116115567E+02  0.73118114628E+01  0.57826866726E+02  0.66549635471E+02  0.00000000000E+00 0.  1.
<mgrwt>
<rscale>  0 0.11785293E+03</rscale>
<asrwt>0</asrwt>
<pdfrwt beam="1">  1        2 0.18505025E+00 0.12692503E+03</pdfrwt>
<pdfrwt beam="2">  1       -2 0.18053807E-02 0.12692503E+03</pdfrwt>
<totfact> 0.17115968E+04</totfact>
</mgrwt>
</event>
<event>
 6    1  0.9240440E-006  0.2588829E+03  0.7546771E-02  0.1107816E+00
         -2   -1    0    0    0  501 -0.00000000000E+00  0.00000000000E+00  0.15060649498E+02  0.15060649498E+02  0.00000000000E+00 0.  1.
          2   -1    0    0  501    0  0.00000000000E+00 -0.00000000000E+00 -0.11125078843E+04  0.11125078843E+04  0.00000000000E+00 0. -1.
          5    1    1    2  502    0 -0.35216623277E+02  0.38979208127E+02 -0.73918512522E+03  0.74106432148E+03  0.47000000000E+01 0.  1.
         -5    1    1    2    0  502 -0.16374729447E+02 -0.28833874057E+01 -0.78661953838E+01  0.18984538899E+02  0.47000000000E+01 0.  1.
        -11    1    1    2    0    0  0.37224440606E+00 -0.44141630197E+02 -0.25640477225E+03  0.26017691926E+03  0.00000000000E+00 0. -1.
         11    1    1    2    0    0  0.51219108319E+02  0.80458094760E+01 -0.93991141974E+02  0.10734275419E+03  0.00000000000E+00 0.  1.
<mgrwt>
<rscale>  0 0.25888292E+03</rscale>
<asrwt>0</asrwt>
<pdfrwt beam="2">  1        2 0.17115510E+00 0.25888292E+03</pdfrwt>
<pdfrwt beam="1">  1       -2 0.23170224E-02 0.25888292E+03</pdfrwt>
<totfact> 0.13908762E+04</totfact>
</mgrwt>
</event>
<event>
 6    1  0.9240440E-006  0.1896378E+03  0.7546771E-02  0.1163702E+00
          2   -1    0    0  501    0  0.00000000000E+00  0.00000000000E+00  0.72242963865E+03  0.72242963865E+03  0.00000000000E+00 0. -1.
         -2   -1    0    0    0  501 -0.00000000000E+00 -0.00000000000E+00 -0.49192322526E+02  0.49192322526E+02  0.00000000000E+00 0.  1.
          5    1    1    2  502    0 -0.62635467393E+02 -0.18820638104E+02  0.11135400843E+03  0.12922547500E+03  0.47000000000E+01 0.  1.
         -5    1    1    2    0  502 -0.49477687769E+02  0.10695173390E+03  0.36092575019E+03  0.37970541492E+03  0.47000000000E+01 0.  1.
        -11    1    1    2    0    0  0.36334866779E+01 -0.18082744154E+02 -0.54379587404E+01  0.19229125223E+02  0.00000000000E+00 0.  1.
         11    1    1    2    0    0  0.10847966848E+03 -0.70048351640E+02  0.20639551624E+03  0.24346194604E+03  0.00000000000E+00 0. -1.
<mgrwt>
<rscale>  0 0.18430298E+03</rscale>
<asrwt>0</asrwt>
<pdfrwt beam="1">  1        2 0.11114301E+00 0.18963776E+03</pdfrwt>
<pdfrwt beam="2">  1       -2 0.75680502E-02 0.18963776E+03</pdfrwt>
<totfact> 0.41023258E+03</totfact>
</mgrwt>
</event>
<event>
 6    1  0.9240440E-006  0.1990129E+03  0.7546771E-02  0.1155087E+00
         -2   -1    0    0    0  501 -0.00000000000E+00  0.00000000000E+00  0.19305408453E+03  0.19305408453E+03  0.00000000000E+00 0.  1.
          2   -1    0    0  501    0  0.00000000000E+00 -0.00000000000E+00 -0.20639843271E+03  0.20639843271E+03  0.00000000000E+00 0. -1.
          5    1    1    2  502    0  0.10711303772E+03  0.18393422734E+02 -0.15822458302E+02  0.10992707145E+03  0.47000000000E+01 0.  1.
         -5    1    1    2    0  502  0.36371813813E+02 -0.76652588280E+02 -0.55437704813E+02  0.10145914077E+03  0.47000000000E+01 0.  1.
        -11    1    1    2    0    0 -0.60237132562E+02  0.23804977345E+02 -0.21212757195E+02  0.68155485131E+02  0.00000000000E+00 0.  1.
         11    1    1    2    0    0 -0.83247718976E+02  0.34454188202E+02  0.79128572128E+02  0.11991081989E+03  0.00000000000E+00 0. -1.
<mgrwt>
<rscale>  0 0.19378918E+03</rscale>
<asrwt>0</asrwt>
<pdfrwt beam="2">  1        2 0.31753605E-01 0.19901286E+03</pdfrwt>
<pdfrwt beam="1">  1       -2 0.29700629E-01 0.19901286E+03</pdfrwt>
<totfact> 0.16976096E+03</totfact>
</mgrwt>
</event>
<event>
 6    1  0.9240440E-006  0.1332452E+03  0.7546771E-02  0.1235657E+00
         -2   -1    0    0    0  501 -0.00000000000E+00  0.00000000000E+00  0.19802681204E+03  0.19802681204E+03  0.00000000000E+00 0. -1.
          2   -1    0    0  501    0  0.00000000000E+00 -0.00000000000E+00 -0.88234602503E+02  0.88234602503E+02  0.00000000000E+00 0.  1.
          5    1    1    2  502    0  0.41797741583E+02  0.12599369161E+01  0.29585863488E+02  0.51439789665E+02  0.47000000000E+01 0. -1.
         -5    1    1    2    0  502 -0.60335058206E+02 -0.43571568462E+02 -0.33795291406E+02  0.81871927718E+02  0.47000000000E+01 0. -1.
        -11    1    1    2    0    0 -0.15952318775E+02  0.12936899625E+02  0.10470721044E+03  0.10670257618E+03  0.00000000000E+00 0. -1.
         11    1    1    2    0    0  0.34489635398E+02  0.29374731921E+02  0.92944270199E+01  0.46247120980E+02  0.00000000000E+00 0.  1.
<mgrwt>
<rscale>  0 0.12462453E+03</rscale>
<asrwt>0</asrwt>
<pdfrwt beam="2">  1        2 0.13574554E-01 0.13324524E+03</pdfrwt>
<pdfrwt beam="1">  1       -2 0.30465663E-01 0.13324524E+03</pdfrwt>
<totfact> 0.41707651E+03</totfact>
</mgrwt>
</event>
<event>
 6    1  0.9240440E-006  0.1983347E+03  0.7546771E-02  0.1154871E+00
          2   -1    0    0  501    0  0.00000000000E+00  0.00000000000E+00  0.14739777400E+04  0.14739777400E+04  0.00000000000E+00 0. -1.
         -2   -1    0    0    0  501 -0.00000000000E+00 -0.00000000000E+00 -0.80034919730E+02  0.80034919730E+02  0.00000000000E+00 0.  1.
          5    1    1    2  502    0 -0.35844408531E+02  0.11114389016E+03  0.10866324083E+04  0.10928997514E+04  0.47000000000E+01 0. -1.
         -5    1    1    2    0  502 -0.66309086670E+02  0.40795519526E+01  0.26676758046E+03  0.27495557769E+03  0.47000000000E+01 0. -1.
        -11    1    1    2    0    0  0.79677847764E+02 -0.25776443121E+02 -0.37870299243E+01  0.83829147914E+02  0.00000000000E+00 0.  1.
         11    1    1    2    0    0  0.22475647437E+02 -0.89446998988E+02  0.44329861436E+02  0.10232818268E+03  0.00000000000E+00 0. -1.
<mgrwt>
<rscale>  0 0.19403549E+03</rscale>
<asrwt>0</asrwt>
<pdfrwt beam="1">  1        2 0.22676579E+00 0.19833475E+03</pdfrwt>
<pdfrwt beam="2">  1       -2 0.12313066E-01 0.19833475E+03</pdfrwt>
<totfact> 0.67612240E+02</totfact>
</mgrwt>
</event>
<event>
 6    1  0.9240440E-006  0.1707928E+03  0.7546771E-02  0.1183436E+00
          1   -1    0    0  501    0  0.00000000000E+00  0.00000000000E+00  0.35958341548E+03  0.35958341548E+03  0.00000000000E+00 0. -1.
         -1   -1    0    0    0  501 -0.00000000000E+00 -0.00000000000E+00 -0.83806930229E+02  0.83806930229E+02  0.00000000000E+00 0.  1.
          5    1    1    2  502    0 -0.91219016884E+02 -0.76616700398E+02  0.12882741428E+03  0.17552669452E+03  0.47000000000E+01 0.  1.
         -5    1    1    2    0  502  0.35894765092E+02 -0.25738547247E+02  0.10522298319E+03  0.11421415485E+03  0.47000000000E+01 0.  1.
        -11    1    1    2    0    0  0.21774559067E+02 -0.11906526791E+02 -0.57071979761E+01  0.25465052750E+02  0.00000000000E+00 0.  1.
         11    1    1    2    0    0  0.33549692725E+02  0.11426177444E+03  0.47433285753E+02  0.12818444358E+03  0.00000000000E+00 0. -1.
<mgrwt>
<rscale>  0 0.16475023E+03</rscale>
<asrwt>0</asrwt>
<pdfrwt beam="1">  1        1 0.55320524E-01 0.17079277E+03</pdfrwt>
<pdfrwt beam="2">  1       -1 0.12893374E-01 0.17079277E+03</pdfrwt>
<totfact> 0.27893212E+03</totfact>
</mgrwt>
</event>
<event>
 6    1  0.9240440E-006  0.1505671E+03  0.7546771E-02  0.1213501E+00
          2   -1    0    0  501    0  0.00000000000E+00  0.00000000000E+00  0.96665134510E+03  0.96665134510E+03  0.00000000000E+00 0. -1.
         -2   -1    0    0    0  501 -0.00000000000E+00 -0.00000000000E+00 -0.18134092623E+02  0.18134092623E+02  0.00000000000E+00 0.  1.
          5    1    1    2  502    0  0.11819047808E+02  0.58020664953E+02  0.42528076196E+03  0.42940878420E+03  0.47000000000E+01 0.  1.
         -5    1    1    2    0  502 -0.72875733979E+02 -0.38138626209E+00  0.17846415671E+03  0.19282780735E+03  0.47000000000E+01 0.  1.
        -11    1    1    2    0    0  0.29476537257E+02 -0.59999316893E+02  0.30210899892E+03  0.30941659863E+03  0.00000000000E+00 0. -1.
         11    1    1    2    0    0  0.31580148914E+02  0.23600382030E+01  0.42663334884E+02  0.53132247545E+02  0.00000000000E+00 0.  1.
<mgrwt>
<rscale>  0 0.13987189E+03</rscale>
<asrwt>0</asrwt>
<pdfrwt beam="1">  1        2 0.14871555E+00 0.15056709E+03</pdfrwt>
<pdfrwt beam="2">  1       -2 0.27898612E-02 0.15056709E+03</pdfrwt>
<totfact> 0.12560374E+04</totfact>
</mgrwt>
</event>
<event>
 6    1  0.9240440E-006  0.2364975E+03  0.7546771E-02  0.1125026E+00
         -1   -1    0    0    0  501 -0.00000000000E+00  0.00000000000E+00  0.54171255232E+03  0.54171255232E+03  0.00000000000E+00 0.  1.
          1   -1    0    0  501    0  0.00000000000E+00 -0.00000000000E+00 -0.97374375863E+02  0.97374375863E+02  0.00000000000E+00 0. -1.
          5    1    1    2  502    0  0.18927124098E+02 -0.66863307611E+02  0.66287543031E+02  0.96151267762E+02  0.47000000000E+01 0.  1.
         -5    1    1    2    0  502 -0.13538288512E+03 -0.96669887480E+02  0.12935442495E+03  0.21078009864E+03  0.47000000000E+01 0.  1.
        -11    1    1    2    0    0  0.45753600690E+02  0.42516275397E+02  0.23152853805E+02  0.66611412603E+02  0.00000000000E+00 0. -1.
         11    1    1    2    0    0  0.70702160329E+02  0.12101691969E+03  0.22554335467E+03  0.26554414918E+03  0.00000000000E+00 0.  1.
<mgrwt>
<rscale>  0 0.23230711E+03</rscale>
<asrwt>0</asrwt>
<pdfrwt beam="2">  1        1 0.14980674E-01 0.23649753E+03</pdfrwt>
<pdfrwt beam="1">  1       -1 0.83340391E-01 0.23649753E+03</pdfrwt>
<totfact> 0.55958009E+02</totfact>
</mgrwt>
</event>
<event>
 6    1  0.9240440E-006  0.2734175E+03  0.7546771E-02  0.1099339E+00
         -2   -1    0    0    0  501 -0.00000000000E+00  0.00000000000E+00  0.17999103772E+02  0.17999103772E+02  0.00000000000E+00 0.  1.
          2   -1    0    0  501    0  0.00000000000E+00 -0.00000000000E+00 -0.10383449963E+04  0.10383449963E+04  0.00000000000E+00 0. -1.
          5    1    1    2  502    0  0.51108466694E+02 -0.23612728610E+02 -0.12149274665E+03  0.13398587168E+03  0.47000000000E+01 0.  1.
         -5    1    1    2    0  502 -0.20480975857E+02 -0.16424754771E+02 -0.56401867125E+03  0.56464891256E+03  0.47000000000E+01 0.  1.
        -11    1    1    2    0    0 -0.55861425246E+02 -0.13474340993E+01 -0.27542009440E+03  0.28103121322E+03  0.00000000000E+00 0. -1.
         11    1    1    2    0    0  0.25233934409E+02  0.41384917480E+02 -0.59414380216E+02  0.76678102592E+02  0.00000000000E+00 0.  1.
<mgrwt>
<rscale>  0 0.27341748E+03</rscale>
<asrwt>0</asrwt>
<pdfrwt beam="2">  1        2 0.15974543E+00 0.27341748E+03</pdfrwt>
<pdfrwt beam="1">  1       -2 0.27690921E-02 0.27341748E+03</pdfrwt>
<totfact> 0.11843750E+04</totfact>
</mgrwt>
</event>
<event>
 6    1  0.9240440E-006  0.1317119E+03  0.7546771E-02  0.1238287E+00
         -1   -1    0    0    0  501 -0.00000000000E+00  0.00000000000E+00  0.44825388239E+03  0.44825388239E+03  0.00000000000E+00 0.  1.
          1   -1    0    0  501    0  0.00000000000E+00 -0.00000000000E+00 -0.31459394048E+02  0.31459394048E+02  0.00000000000E+00 0. -1.
          5    1    1    2  502    0  0.48626769996E+02  0.82719329050E+01  0.85141247384E+02  0.98509439347E+02  0.47000000000E+01 0.  1.
         -5    1    1    2    0  502 -0.78039071615E+02  0.20893328242E+02  0.98432364600E+02  0.12742703114E+03  0.47000000000E+01 0.  1.
        -11    1    1    2    0    0  0.49101237777E+02 -0.38620002013E+01  0.20572960300E+03  0.21154317797E+03  0.00000000000E+00 0.  1.
         11    1    1    2    0    0 -0.19688936159E+02 -0.25303260946E+02  0.27491273359E+02  0.42233627981E+02  0.00000000000E+00 0. -1.
<mgrwt>
<rscale>  0 0.12296364E+03</rscale>
<asrwt>0</asrwt>
<pdfrwt beam="2">  1        1 0.48399071E-02 0.13171187E+03</pdfrwt>
<pdfrwt beam="1">  1       -1 0.68962131E-01 0.13171187E+03</pdfrwt>
<totfact> 0.36873806E+03</totfact>
</mgrwt>
</event>
<event>
 6    1  0.9240440E-006  0.1366874E+03  0.7546771E-02  0.1230474E+00
          4   -1    0    0  501    0  0.00000000000E+00  0.00000000000E+00  0.83433525502E+02  0.83433525502E+02  0.00000000000E+00 0.  1.
         -4   -1    0    0    0  501 -0.00000000000E+00 -0.00000000000E+00 -0.18042153202E+03  0.18042153202E+03  0.00000000000E+00 0. -1.
          5    1    1    2  502    0 -0.16058686610E+02 -0.28470249387E+02  0.37246877856E+02  0.49778071737E+02  0.47000000000E+01 0.  1.
         -5    1    1    2    0  502 -0.36745517170E+02  0.44924689163E+02 -0.69489612180E+02  0.90660669143E+02  0.47000000000E+01 0.  1.
        -11    1    1    2    0    0  0.13333018106E+02  0.19313391345E+02  0.14754522471E+02  0.27721334571E+02  0.00000000000E+00 0.  1.
         11    1    1    2    0    0  0.39471185674E+02 -0.35767831122E+02 -0.79499794662E+02  0.95694982068E+02  0.00000000000E+00 0. -1.
<mgrwt>
<rscale>  0 0.12798696E+03</rscale>
<asrwt>0</asrwt>
<pdfrwt beam="1">  1        4 0.12835927E-01 0.13668740E+03</pdfrwt>
<pdfrwt beam="2">  1       -4 0.27757158E-01 0.13668740E+03</pdfrwt>
<totfact> 0.10074286E+03</totfact>
</mgrwt>
</event>
<event>
 6    1  0.9240440E-006  0.1264120E+03  0.7546771E-02  0.1283507E+00
         -2   -1    0    0    0  501 -0.00000000000E+00  0.00000000000E+00  0.10668482972E+02  0.10668482972E+02  0.00000000000E+00 0.  1.
          2   -1    0    0  501    0  0.00000000000E+00 -0.00000000000E+00 -0.71896863322E+03  0.71896863322E+03  0.00000000000E+00 0. -1.
          5    1    1    2  502    0  0.52950380099E+02 -0.33487452106E+02 -0.46012680983E+03  0.46439629987E+03  0.47000000000E+01 0.  1.
         -5    1    1    2    0  502 -0.42115936640E+02  0.18060954822E+02 -0.10440819278E+03  0.11411884563E+03  0.47000000000E+01 0.  1.
        -11    1    1    2    0    0 -0.98901376472E+01  0.30116225428E+02 -0.10379633442E+03  0.10852871001E+03  0.00000000000E+00 0. -1.
         11    1    1    2    0    0 -0.94430581109E+00 -0.14689728144E+02 -0.39968813215E+02  0.42593260690E+02  0.00000000000E+00 0.  1.
<mgrwt>
<rscale>  0 0.98488291E+02</rscale>
<asrwt>0</asrwt>
<pdfrwt beam="2">  1        2 0.11061059E+00 0.12641204E+03</pdfrwt>
<pdfrwt beam="1">  1       -2 0.16413046E-02 0.12641204E+03</pdfrwt>
<totfact> 0.39026963E+04</totfact>
</mgrwt>
</event>
<event>
 6    1  0.9240440E-006  0.2575183E+03  0.7546771E-02  0.1108644E+00
         -1   -1    0    0    0  501 -0.00000000000E+00  0.00000000000E+00  0.55181492605E+02  0.55181492605E+02  0.00000000000E+00 0.  1.
          1   -1    0    0  501    0  0.00000000000E+00 -0.00000000000E+00 -0.30044349753E+03  0.30044349753E+03  0.00000000000E+00 0. -1.
          5    1    1    2  502    0  0.22103534768E+02  0.46112348187E+01 -0.18607097855E+03  0.18749487671E+03  0.47000000000E+01 0.  1.
         -5    1    1    2    0  502 -0.18890641416E+02 -0.50790663710E+02 -0.20052139380E+02  0.57971770259E+02  0.47000000000E+01 0.  1.
        -11    1    1    2    0    0 -0.38698921155E+02  0.21747751605E+02 -0.48836912550E+02  0.65997084980E+02  0.00000000000E+00 0. -1.
         11    1    1    2    0    0  0.35486027803E+02  0.24431677287E+02  0.96980255572E+01  0.44161258180E+02  0.00000000000E+00 0.  1.
<mgrwt>
<rscale>  0 0.25751831E+03</rscale>
<asrwt>0</asrwt>
<pdfrwt beam="2">  1        1 0.46222076E-01 0.25751831E+03</pdfrwt>
<pdfrwt beam="1">  1       -1 0.84894605E-02 0.25751831E+03</pdfrwt>
<totfact> 0.67988909E+03</totfact>
</mgrwt>
</event>
<event>
 6    1  0.9240440E-006  0.2384510E+03  0.7546771E-02  0.1148322E+00
          2   -1    0    0  501    0  0.00000000000E+00  0.00000000000E+00  0.77154513485E+03  0.77154513485E+03  0.00000000000E+00 0. -1.
         -2   -1    0    0    0  501 -0.00000000000E+00 -0.00000000000E+00 -0.51601601901E+02  0.51601601901E+02  0.00000000000E+00 0.  1.
          5    1    1    2  502    0  0.67112203796E+02 -0.56719524811E+02  0.58094975500E+03  0.58757625908E+03  0.47000000000E+01 0. -1.
         -5    1    1    2    0  502 -0.64840227257E+02 -0.19184566995E+02  0.42714257480E+02  0.80118040875E+02  0.47000000000E+01 0.  1.
        -11    1    1    2    0    0  0.43719026484E+02  0.30183594715E+02  0.23852932901E+02  0.58235428002E+02  0.00000000000E+00 0.  1.
         11    1    1    2    0    0 -0.45991003023E+02  0.45720497091E+02  0.72426587570E+02  0.97217008801E+02  0.00000000000E+00 0. -1.
<mgrwt>
<rscale>  0 0.20168891E+03</rscale>
<asrwt>0</asrwt>
<pdfrwt beam="1">  1        2 0.11869924E+00 0.23845100E+03</pdfrwt>
<pdfrwt beam="2">  1       -2 0.79387086E-02 0.23845100E+03</pdfrwt>
<totfact> 0.35346534E+03</totfact>
</mgrwt>
</event>
<event>
 6    1  0.9240440E-006  0.1309963E+03  0.7546771E-02  0.1239273E+00
          4   -1    0    0  501    0  0.00000000000E+00  0.00000000000E+00  0.12068065202E+03  0.12068065202E+03  0.00000000000E+00 0.  1.
         -4   -1    0    0    0  501 -0.00000000000E+00 -0.00000000000E+00 -0.11107003009E+03  0.11107003009E+03  0.00000000000E+00 0. -1.
          5    1    1    2  502    0  0.23684849231E+02  0.19316850481E+02  0.61538147658E+02  0.68870504664E+02  0.47000000000E+01 0.  1.
         -5    1    1    2    0  502 -0.39353469010E+02  0.16583852847E+02 -0.46119232977E+02  0.63030098753E+02  0.47000000000E+01 0.  1.
        -11    1    1    2    0    0 -0.32444029873E+02 -0.12434772463E+02 -0.25193530165E+02  0.42917975287E+02  0.00000000000E+00 0. -1.
         11    1    1    2    0    0  0.48112649652E+02 -0.23465930864E+02  0.19385237417E+02  0.56932103400E+02  0.00000000000E+00 0.  1.
<mgrwt>
<rscale>  0 0.12234813E+03</rscale>
<asrwt>0</asrwt>
<pdfrwt beam="1">  1        4 0.18566254E-01 0.13099628E+03</pdfrwt>
<pdfrwt beam="2">  1       -4 0.17087697E-01 0.13099628E+03</pdfrwt>
<totfact> 0.12631057E+03</totfact>
</mgrwt>
</event>
<event>
 6    1  0.9240440E-006  0.3725742E+03  0.7546771E-02  0.1053713E+00
         -2   -1    0    0    0  501 -0.00000000000E+00  0.00000000000E+00  0.13610786003E+03  0.13610786003E+03  0.00000000000E+00 0.  1.
          2   -1    0    0  501    0  0.00000000000E+00 -0.00000000000E+00 -0.25496600535E+03  0.25496600535E+03  0.00000000000E+00 0. -1.
          5    1    1    2  502    0  0.12088952988E+01 -0.23927023112E+02 -0.46886582981E+02  0.52862136984E+02  0.47000000000E+01 0.  1.
         -5    1    1    2    0  502  0.13992486415E+03 -0.16706045132E+02  0.18028317330E+02  0.14214489009E+03  0.47000000000E+01 0.  1.
        -11    1    1    2    0    0 -0.90958834009E+02 -0.12053793288E+02 -0.81668451733E+02  0.12283541601E+03  0.00000000000E+00 0.  1.
         11    1    1    2    0    0 -0.50174925442E+02  0.52686861531E+02 -0.83314279431E+01  0.73231422305E+02  0.00000000000E+00 0. -1.
<mgrwt>
<rscale>  0 0.37257417E+03</rscale>
<asrwt>0</asrwt>
<pdfrwt beam="2">  1        2 0.39225539E-01 0.37257417E+03</pdfrwt>
<pdfrwt beam="1">  1       -2 0.20939671E-01 0.37257417E+03</pdfrwt>
<totfact> 0.25476801E+03</totfact>
</mgrwt>
</event>
<event>
 6    1  0.9240440E-006  0.2052586E+03  0.7546771E-02  0.1149400E+00
         -2   -1    0    0    0  501 -0.00000000000E+00  0.00000000000E+00  0.15244047617E+02  0.15244047617E+02  0.00000000000E+00 0.  1.
          2   -1    0    0  501    0  0.00000000000E+00 -0.00000000000E+00 -0.28535143788E+04  0.28535143788E+04  0.00000000000E+00 0. -1.
          5    1    1    2  502    0  0.14605871826E+02 -0.18835669639E+02 -0.50805488093E+02  0.56315198330E+02  0.47000000000E+01 0. -1.
         -5    1    1    2    0  502  0.36309684543E+02 -0.13586913808E+03 -0.19202505004E+04  0.19253994106E+04  0.47000000000E+01 0. -1.
        -11    1    1    2    0    0 -0.18946162423E+02  0.13173947570E+03 -0.78111693583E+03  0.79237485698E+03  0.00000000000E+00 0.  1.
         11    1    1    2    0    0 -0.31969393946E+02  0.22965332021E+02 -0.86097406826E+02  0.94668960522E+02  0.00000000000E+00 0. -1.
<mgrwt>
<rscale>  0 0.20040178E+03</rscale>
<asrwt>0</asrwt>
<pdfrwt beam="2">  1        2 0.43900254E+00 0.20525857E+03</pdfrwt>
<pdfrwt beam="1">  1       -2 0.23452363E-02 0.20525857E+03</pdfrwt>
<totfact> 0.15660920E+03</totfact>
</mgrwt>
</event>
<event>
 6    1  0.9240440E-006  0.1381005E+03  0.7546771E-02  0.1227887E+00
          1   -1    0    0  501    0  0.00000000000E+00  0.00000000000E+00  0.42938354144E+03  0.42938354144E+03  0.00000000000E+00 0. -1.
         -1   -1    0    0    0  501 -0.00000000000E+00 -0.00000000000E+00 -0.37552905012E+02  0.37552905012E+02  0.00000000000E+00 0.  1.
          5    1    1    2  502    0  0.44385835026E+02 -0.74311071668E+02  0.16675139196E+03  0.18793710237E+03  0.47000000000E+01 0.  1.
         -5    1    1    2    0  502 -0.48519561054E+02  0.15753003103E+02  0.11108843917E+03  0.12233166486E+03  0.47000000000E+01 0.  1.
        -11    1    1    2    0    0 -0.82135971158E+01  0.44956220452E+02  0.48106831225E+01  0.45952884643E+02  0.00000000000E+00 0.  1.
         11    1    1    2    0    0  0.12347323144E+02  0.13601848113E+02  0.10918012217E+03  0.11071479458E+03  0.00000000000E+00 0. -1.
<mgrwt>
<rscale>  0 0.12970990E+03</rscale>
<asrwt>0</asrwt>
<pdfrwt beam="1">  1        1 0.66059003E-01 0.13810046E+03</pdfrwt>
<pdfrwt beam="2">  1       -1 0.57773703E-02 0.13810046E+03</pdfrwt>
<totfact> 0.74742015E+03</totfact>
</mgrwt>
</event>
<event>
 6    1  0.9240440E-006  0.1530564E+03  0.7546771E-02  0.1206039E+00
          1   -1    0    0  501    0  0.00000000000E+00  0.00000000000E+00  0.61940359501E+03  0.61940359501E+03  0.00000000000E+00 0. -1.
         -1   -1    0    0    0  501 -0.00000000000E+00 -0.00000000000E+00 -0.32695539128E+02  0.32695539128E+02  0.00000000000E+00 0.  1.
          5    1    1    2  502    0  0.22437855864E+01 -0.61851831199E+02  0.38449719654E+03  0.38947511825E+03  0.47000000000E+01 0. -1.
         -5    1    1    2    0  502  0.13003258504E+02 -0.25148378022E+02  0.51527615651E+01  0.29157616511E+02  0.47000000000E+01 0. -1.
        -11    1    1    2    0    0  0.37311134970E+02  0.32752754501E+02  0.76188270783E+02  0.90936880995E+02  0.00000000000E+00 0. -1.
         11    1    1    2    0    0 -0.52558179061E+02  0.54247454719E+02  0.12086982700E+03  0.14252951837E+03  0.00000000000E+00 0.  1.
<mgrwt>
<rscale>  0 0.14555882E+03</rscale>
<asrwt>0</asrwt>
<pdfrwt beam="1">  1        1 0.95292852E-01 0.15305645E+03</pdfrwt>
<pdfrwt beam="2">  1       -1 0.50300834E-02 0.15305645E+03</pdfrwt>
<totfact> 0.56964169E+03</totfact>
</mgrwt>
</event>
<event>
 6    1  0.9240440E-006  0.1336216E+03  0.7546771E-02  0.1240226E+00
          2   -1    0    0  501    0  0.00000000000E+00  0.00000000000E+00  0.59934682036E+03  0.59934682036E+03  0.00000000000E+00 0. -1.
         -2   -1    0    0    0  501 -0.00000000000E+00 -0.00000000000E+00 -0.29226148364E+02  0.29226148364E+02  0.00000000000E+00 0.  1.
          5    1    1    2  502    0  0.57242739084E+02 -0.41671035243E+01  0.30691384615E+03  0.31226958688E+03  0.47000000000E+01 0. -1.
         -5    1    1    2    0  502 -0.68292158464E+02 -0.27450270173E+01  0.17835982385E+03  0.19106457244E+03  0.47000000000E+01 0.  1.
        -11    1    1    2    0    0  0.49332287754E+02 -0.71972921137E+01  0.57590593931E+02  0.76171859227E+02  0.00000000000E+00 0.  1.
         11    1    1    2    0    0 -0.38282868373E+02  0.14109422655E+02  0.27256408066E+02  0.49066950172E+02  0.00000000000E+00 0. -1.
<mgrwt>
<rscale>  0 0.12175697E+03</rscale>
<asrwt>0</asrwt>
<pdfrwt beam="1">  1        2 0.92207194E-01 0.13362163E+03</pdfrwt>
<pdfrwt beam="2">  1       -2 0.44963310E-02 0.13362163E+03</pdfrwt>
<totfact> 0.11074846E+04</totfact>
</mgrwt>
</event>
<event>
 6    1  0.9240440E-006  0.1530711E+03  0.7546771E-02  0.1204994E+00
          1   -1    0    0  501    0  0.00000000000E+00  0.00000000000E+00  0.42548978938E+02  0.42548978938E+02  0.00000000000E+00 0. -1.
         -1   -1    0    0    0  501 -0.00000000000E+00 -0.00000000000E+00 -0.57929756484E+03  0.57929756484E+03  0.00000000000E+00 0.  1.
          5    1    1    2  502    0  0.33696878700E+02  0.20993097575E+02 -0.30776358963E+02  0.50452592113E+02  0.47000000000E+01 0.  1.
         -5    1    1    2    0  502 -0.10974761584E+03  0.23984051878E+02 -0.11862645246E+03  0.16344448339E+03  0.47000000000E+01 0.  1.
        -11    1    1    2    0    0  0.35008997564E+02  0.21225424840E+02 -0.69170293663E+02  0.80378343448E+02  0.00000000000E+00 0.  1.
         11    1    1    2    0    0  0.41041739573E+02 -0.66202574293E+02 -0.31817548082E+03  0.32757112483E+03  0.00000000000E+00 0. -1.
<mgrwt>
<rscale>  0 0.14637910E+03</rscale>
<asrwt>0</asrwt>
<pdfrwt beam="1">  1        1 0.65459971E-02 0.15307109E+03</pdfrwt>
<pdfrwt beam="2">  1       -1 0.89122698E-01 0.15307109E+03</pdfrwt>
<totfact> 0.14591263E+03</totfact>
</mgrwt>
</event>
<event>
 6    1  0.9240440E-006  0.1295932E+03  0.7546771E-02  0.1242439E+00
         -1   -1    0    0    0  501 -0.00000000000E+00  0.00000000000E+00  0.52346721502E+02  0.52346721502E+02  0.00000000000E+00 0.  1.
          1   -1    0    0  501    0  0.00000000000E+00 -0.00000000000E+00 -0.24761744537E+03  0.24761744537E+03  0.00000000000E+00 0. -1.
          5    1    1    2  502    0 -0.23454402681E+02 -0.57370423874E+02 -0.56933612228E+02  0.84291166453E+02  0.47000000000E+01 0. -1.
         -5    1    1    2    0  502  0.53858045412E+02  0.39975605489E+02 -0.72094025473E+02  0.98581826919E+02  0.47000000000E+01 0. -1.
        -11    1    1    2    0    0  0.24415748083E+02 -0.18784674978E+02 -0.19180632473E+02  0.36288971197E+02  0.00000000000E+00 0.  1.
         11    1    1    2    0    0 -0.54819390814E+02  0.36179493364E+02 -0.47062453691E+02  0.80802202301E+02  0.00000000000E+00 0. -1.
<mgrwt>
<rscale>  0 0.12040000E+03</rscale>
<asrwt>0</asrwt>
<pdfrwt beam="2">  1        1 0.38094992E-01 0.12959321E+03</pdfrwt>
<pdfrwt beam="1">  1       -1 0.80533417E-02 0.12959321E+03</pdfrwt>
<totfact> 0.89819275E+03</totfact>
</mgrwt>
</event>
<event>
 6    1  0.9240440E-006  0.1282090E+03  0.7546771E-02  0.1244908E+00
          3   -1    0    0  501    0  0.00000000000E+00  0.00000000000E+00  0.40134494587E+02  0.40134494587E+02  0.00000000000E+00 0. -1.
         -3   -1    0    0    0  501 -0.00000000000E+00 -0.00000000000E+00 -0.31176233914E+03  0.31176233914E+03  0.00000000000E+00 0.  1.
          5    1    1    2  502    0 -0.66361515612E+02 -0.54368091112E+01 -0.71722208938E+02  0.97977420371E+02  0.47000000000E+01 0. -1.
         -5    1    1    2    0  502  0.53084105815E+02  0.30516619074E+02 -0.71067870226E+02  0.93925068583E+02  0.47000000000E+01 0. -1.
        -11    1    1    2    0    0 -0.21984657036E+02  0.88767144617E+01 -0.10086136170E+03  0.10361049893E+03  0.00000000000E+00 0.  1.
         11    1    1    2    0    0  0.35262066834E+02 -0.33956524425E+02 -0.27976403687E+02  0.56383845840E+02  0.00000000000E+00 0. -1.
<mgrwt>
<rscale>  0 0.11890864E+03</rscale>
<asrwt>0</asrwt>
<pdfrwt beam="1">  1        3 0.61745375E-02 0.12820904E+03</pdfrwt>
<pdfrwt beam="2">  1       -3 0.47963438E-01 0.12820904E+03</pdfrwt>
<totfact> 0.16059786E+03</totfact>
</mgrwt>
</event>
<event>
 6    1  0.9240440E-006  0.1804038E+03  0.7546771E-02  0.1172869E+00
          2   -1    0    0  501    0  0.00000000000E+00  0.00000000000E+00  0.48775008396E+03  0.48775008396E+03  0.00000000000E+00 0.  1.
         -2   -1    0    0    0  501 -0.00000000000E+00 -0.00000000000E+00 -0.64412786943E+02  0.64412786943E+02  0.00000000000E+00 0. -1.
          5    1    1    2  502    0 -0.72557328942E+02  0.27780315140E+02  0.13078183642E+03  0.15219162470E+03  0.47000000000E+01 0.  1.
         -5    1    1    2    0  502  0.33678583073E+02  0.96766986137E+02  0.17192701482E+03  0.20019761484E+03  0.47000000000E+01 0.  1.
        -11    1    1    2    0    0  0.64347965670E+02 -0.10360287198E+03  0.73968579468E+02  0.14263788598E+03  0.00000000000E+00 0. -1.
         11    1    1    2    0    0 -0.25469219801E+02 -0.20944429302E+02  0.46659866312E+02  0.57135745382E+02  0.00000000000E+00 0.  1.
<mgrwt>
<rscale>  0 0.17486352E+03</rscale>
<asrwt>0</asrwt>
<pdfrwt beam="1">  1        2 0.75038472E-01 0.18040379E+03</pdfrwt>
<pdfrwt beam="2">  1       -2 0.99096598E-02 0.18040379E+03</pdfrwt>
<totfact> 0.42227379E+03</totfact>
</mgrwt>
</event>
<event>
 6    1  0.9240440E-006  0.1301345E+03  0.7546771E-02  0.1234043E+00
          2   -1    0    0  501    0  0.00000000000E+00  0.00000000000E+00  0.29331655199E+03  0.29331655199E+03  0.00000000000E+00 0. -1.
         -2   -1    0    0    0  501 -0.00000000000E+00 -0.00000000000E+00 -0.53573238563E+02  0.53573238563E+02  0.00000000000E+00 0.  1.
          5    1    1    2  502    0 -0.30133658867E+02 -0.10743563373E+02  0.26578843760E+02  0.41856737645E+02  0.47000000000E+01 0. -1.
         -5    1    1    2    0  502  0.94774263669E+02 -0.97990347740E+01  0.14302786890E+03  0.17192220164E+03  0.47000000000E+01 0.  1.
        -11    1    1    2    0    0 -0.52666189497E+02  0.40812690360E+02  0.85468118341E+01  0.67174781005E+02  0.00000000000E+00 0. -1.
         11    1    1    2    0    0 -0.11974415306E+02 -0.20270092213E+02  0.61589788937E+02  0.65936070262E+02  0.00000000000E+00 0.  1.
<mgrwt>
<rscale>  0 0.12565881E+03</rscale>
<asrwt>0</asrwt>
<pdfrwt beam="1">  1        2 0.45125622E-01 0.13013454E+03</pdfrwt>
<pdfrwt beam="2">  1       -2 0.82420369E-02 0.13013454E+03</pdfrwt>
<totfact> 0.95411905E+03</totfact>
</mgrwt>
</event>
<event>
 6    1  0.9888173E-006  0.1547686E+03  0.7546771E-02  0.1203448E+00
          1   -1    0    0  501    0  0.00000000000E+00  0.00000000000E+00  0.22830672499E+03  0.22830672499E+03  0.00000000000E+00 0. -1.
         -1   -1    0    0    0  501 -0.00000000000E+00 -0.00000000000E+00 -0.98203679253E+02  0.98203679253E+02  0.00000000000E+00 0.  1.
          5    1    1    2  502    0  0.65957220382E+02 -0.27024022357E+02  0.38641600391E+02  0.81215244786E+02  0.47000000000E+01 0.  1.
         -5    1    1    2    0  502  0.86709359799E+01  0.79554702838E+02  0.85373005934E+02  0.11711010211E+03  0.47000000000E+01 0.  1.
        -11    1    1    2    0    0 -0.12596510956E+02  0.14438123801E+02 -0.25227442836E+02  0.31678942205E+02  0.00000000000E+00 0.  1.
         11    1    1    2    0    0 -0.62031645406E+02 -0.66968804282E+02  0.31315882249E+02  0.96506115142E+02  0.00000000000E+00 0. -1.
<mgrwt>
<rscale>  0 0.14760426E+03</rscale>
<asrwt>0</asrwt>
<pdfrwt beam="1">  1        1 0.35124112E-01 0.15476860E+03</pdfrwt>
<pdfrwt beam="2">  1       -1 0.15108258E-01 0.15476860E+03</pdfrwt>
<totfact> 0.38167591E+03</totfact>
</mgrwt>
</event>
<event>
 6    1  0.9240440E-006  0.1262586E+03  0.7546771E-02  0.1248766E+00
         -2   -1    0    0    0  501 -0.00000000000E+00  0.00000000000E+00  0.13145234740E+03  0.13145234740E+03  0.00000000000E+00 0. -1.
          2   -1    0    0  501    0  0.00000000000E+00 -0.00000000000E+00 -0.91256191767E+02  0.91256191767E+02  0.00000000000E+00 0.  1.
          5    1    1    2  502    0  0.60319402200E+02  0.35693352703E+02 -0.54279121677E+00  0.70248347533E+02  0.47000000000E+01 0. -1.
         -5    1    1    2    0  502 -0.45663757261E+02 -0.30243477855E+02  0.13989899109E+02  0.56724368282E+02  0.47000000000E+01 0. -1.
        -11    1    1    2    0    0 -0.17840295313E+02 -0.31141441068E+02  0.49588067321E+02  0.61213086095E+02  0.00000000000E+00 0. -1.
         11    1    1    2    0    0  0.31846503742E+01  0.25691566220E+02 -0.22839019576E+02  0.34522737261E+02  0.00000000000E+00 0.  1.
<mgrwt>
<rscale>  0 0.11662775E+03</rscale>
<asrwt>0</asrwt>
<pdfrwt beam="2">  1        2 0.14039414E-01 0.12625865E+03</pdfrwt>
<pdfrwt beam="1">  1       -2 0.20223438E-01 0.12625865E+03</pdfrwt>
<totfact> 0.81587185E+03</totfact>
</mgrwt>
</event>
<event>
 6    1  0.9240440E-006  0.1945008E+03  0.7546771E-02  0.1159256E+00
          3   -1    0    0  501    0  0.00000000000E+00  0.00000000000E+00  0.64856936226E+02  0.64856936226E+02  0.00000000000E+00 0. -1.
         -3   -1    0    0    0  501 -0.00000000000E+00 -0.00000000000E+00 -0.56167980723E+03  0.56167980723E+03  0.00000000000E+00 0.  1.
          5    1    1    2  502    0 -0.40500758128E+02  0.12559065777E+03 -0.86140613651E+02  0.15765665241E+03  0.47000000000E+01 0.  1.
         -5    1    1    2    0  502 -0.51492617919E+02 -0.83548038193E+01 -0.93184638519E+02  0.10689602099E+03  0.47000000000E+01 0.  1.
        -11    1    1    2    0    0  0.65152448949E+02 -0.97961298988E+02 -0.14684412649E+03  0.18816071638E+03  0.00000000000E+00 0. -1.
         11    1    1    2    0    0  0.26840927099E+02 -0.19274554962E+02 -0.17065349234E+03  0.17382335368E+03  0.00000000000E+00 0.  1.
<mgrwt>
<rscale>  0 0.18912188E+03</rscale>
<asrwt>0</asrwt>
<pdfrwt beam="1">  1        3 0.99779901E-02 0.19450083E+03</pdfrwt>
<pdfrwt beam="2">  1       -3 0.86412279E-01 0.19450083E+03</pdfrwt>
<totfact> 0.22680371E+02</totfact>
</mgrwt>
</event>
<event>
 6    1  0.9240440E-006  0.1293372E+03  0.7546771E-02  0.1243623E+00
          1   -1    0    0  501    0  0.00000000000E+00  0.00000000000E+00  0.22304661470E+03  0.22304661470E+03  0.00000000000E+00 0. -1.
         -1   -1    0    0    0  501 -0.00000000000E+00 -0.00000000000E+00 -0.56725423847E+02  0.56725423847E+02  0.00000000000E+00 0.  1.
          5    1    1    2  502    0 -0.69974195475E+02  0.32921664012E+02  0.45495506142E+02  0.89845172786E+02  0.47000000000E+01 0.  1.
         -5    1    1    2    0  502  0.36869275516E+02 -0.30162176779E+02  0.62026706152E+02  0.78348597059E+02  0.47000000000E+01 0.  1.
        -11    1    1    2    0    0  0.90939647023E+00  0.11933897675E+02 -0.21063163815E+02  0.24226055923E+02  0.00000000000E+00 0.  1.
         11    1    1    2    0    0  0.32195523489E+02 -0.14693384909E+02  0.79862142371E+02  0.87352212776E+02  0.00000000000E+00 0. -1.
<mgrwt>
<rscale>  0 0.11968151E+03</rscale>
<asrwt>0</asrwt>
<pdfrwt beam="1">  1        1 0.34314863E-01 0.12933723E+03</pdfrwt>
<pdfrwt beam="2">  1       -1 0.87269884E-02 0.12933723E+03</pdfrwt>
<totfact> 0.90513250E+03</totfact>
</mgrwt>
</event>
<event>
 6    1  0.9240440E-006  0.1736731E+03  0.7546771E-02  0.1220053E+00
          2   -1    0    0  501    0  0.00000000000E+00  0.00000000000E+00  0.10448704069E+04  0.10448704069E+04  0.00000000000E+00 0. -1.
         -2   -1    0    0    0  501 -0.00000000000E+00 -0.00000000000E+00 -0.20577441565E+02  0.20577441565E+02  0.00000000000E+00 0.  1.
          5    1    1    2  502    0  0.72496178591E+02  0.50602048618E+02  0.30242536543E+03  0.31511816020E+03  0.47000000000E+01 0. -1.
         -5    1    1    2    0  502 -0.58618929570E+02 -0.19622830639E+02  0.65536379916E+03  0.65828947556E+03  0.47000000000E+01 0.  1.
        -11    1    1    2    0    0 -0.31930790031E+02 -0.59258304450E+01  0.29828898586E+02  0.44095963640E+02  0.00000000000E+00 0. -1.
         11    1    1    2    0    0  0.18053541011E+02 -0.25053387534E+02  0.36674902177E+02  0.47944249079E+02  0.00000000000E+00 0.  1.
<mgrwt>
<rscale>  0 0.13511797E+03</rscale>
<asrwt>0</asrwt>
<pdfrwt beam="1">  1        2 0.16074925E+00 0.17367309E+03</pdfrwt>
<pdfrwt beam="2">  1       -2 0.31657611E-02 0.17367309E+03</pdfrwt>
<totfact> 0.94256511E+03</totfact>
</mgrwt>
</event>
<event>
 6    1  0.9240440E-006  0.1476038E+03  0.7546771E-02  0.1212776E+00
          2   -1    0    0  501    0  0.00000000000E+00  0.00000000000E+00  0.17355212751E+04  0.17355212751E+04  0.00000000000E+00 0. -1.
         -2   -1    0    0    0  501 -0.00000000000E+00 -0.00000000000E+00 -0.12538584766E+02  0.12538584766E+02  0.00000000000E+00 0.  1.
          5    1    1    2  502    0  0.86297140528E+02  0.69398429115E+01  0.94262686954E+03  0.94660597033E+03  0.47000000000E+01 0. -1.
         -5    1    1    2    0  502 -0.29482937910E+02  0.47184105738E+02  0.35080896638E+03  0.35522472373E+03  0.47000000000E+01 0. -1.
        -11    1    1    2    0    0 -0.47067178694E+02  0.16119583049E+02  0.18999051813E+03  0.19639642880E+03  0.00000000000E+00 0.  1.
         11    1    1    2    0    0 -0.97470239240E+01 -0.70243531699E+02  0.23955633632E+03  0.24983273703E+03  0.00000000000E+00 0. -1.
<mgrwt>
<rscale>  0 0.14041206E+03</rscale>
<asrwt>0</asrwt>
<pdfrwt beam="1">  1        2 0.26700308E+00 0.14760384E+03</pdfrwt>
<pdfrwt beam="2">  1       -2 0.19290144E-02 0.14760384E+03</pdfrwt>
<totfact> 0.82139233E+03</totfact>
</mgrwt>
</event>
<event>
 6    1  0.9240440E-006  0.1254106E+03  0.7546771E-02  0.1253003E+00
         -2   -1    0    0    0  501 -0.00000000000E+00  0.00000000000E+00  0.11986094380E+02  0.11986094380E+02  0.00000000000E+00 0.  1.
          2   -1    0    0  501    0  0.00000000000E+00 -0.00000000000E+00 -0.93967444405E+03  0.93967444405E+03  0.00000000000E+00 0. -1.
          5    1    1    2  502    0 -0.58767471950E+02 -0.15081528655E+02 -0.39442622833E+03  0.39909298147E+03  0.47000000000E+01 0.  1.
         -5    1    1    2    0  502  0.52914865554E+02  0.23364415376E+02 -0.19132008086E+03  0.19992834277E+03  0.47000000000E+01 0.  1.
        -11    1    1    2    0    0 -0.20599044755E+01 -0.45139553664E+02 -0.13701306138E+03  0.14427197060E+03  0.00000000000E+00 0.  1.
         11    1    1    2    0    0  0.79125108719E+01  0.36856666943E+02 -0.20492897910E+03  0.20836724359E+03  0.00000000000E+00 0. -1.
<mgrwt>
<rscale>  0 0.11418908E+03</rscale>
<asrwt>0</asrwt>
<pdfrwt beam="2">  1        2 0.14456530E+00 0.12541056E+03</pdfrwt>
<pdfrwt beam="1">  1       -2 0.18440145E-02 0.12541056E+03</pdfrwt>
<totfact> 0.23552544E+04</totfact>
</mgrwt>
</event>
<event>
 6    1  0.9240440E-006  0.1260242E+03  0.7546771E-02  0.1244117E+00
          1   -1    0    0  501    0  0.00000000000E+00  0.00000000000E+00  0.32891557250E+03  0.32891557250E+03  0.00000000000E+00 0. -1.
         -1   -1    0    0    0  501 -0.00000000000E+00 -0.00000000000E+00 -0.39343701007E+02  0.39343701007E+02  0.00000000000E+00 0.  1.
          5    1    1    2  502    0  0.18254665202E+02 -0.55418457691E+02  0.39329947829E+02  0.70522145818E+02  0.47000000000E+01 0. -1.
         -5    1    1    2    0  502 -0.22275944702E+01  0.55770378609E+02  0.12160354334E+03  0.13388356531E+03  0.47000000000E+01 0. -1.
        -11    1    1    2    0    0 -0.19291420397E+01  0.47883774711E+02  0.42132521455E+02  0.63810084108E+02  0.00000000000E+00 0.  1.
         11    1    1    2    0    0 -0.14097928692E+02 -0.48235695629E+02  0.86505858862E+02  0.10004347827E+03  0.00000000000E+00 0. -1.
<mgrwt>
<rscale>  0 0.11938397E+03</rscale>
<asrwt>0</asrwt>
<pdfrwt beam="1">  1        1 0.50602394E-01 0.12602423E+03</pdfrwt>
<pdfrwt beam="2">  1       -1 0.60528773E-02 0.12602423E+03</pdfrwt>
<totfact> 0.96784773E+03</totfact>
</mgrwt>
</event>
<event>
 6    1  0.9240440E-006  0.1962450E+03  0.7546771E-02  0.1157367E+00
         -1   -1    0    0    0  501 -0.00000000000E+00  0.00000000000E+00  0.49625073874E+02  0.49625073874E+02  0.00000000000E+00 0.  1.
          1   -1    0    0  501    0  0.00000000000E+00 -0.00000000000E+00 -0.83668199733E+03  0.83668199733E+03  0.00000000000E+00 0. -1.
          5    1    1    2  502    0 -0.24154998235E+02 -0.50955450127E+02 -0.11999981298E+03  0.13267240464E+03  0.47000000000E+01 0. -1.
         -5    1    1    2    0  502 -0.12706501529E+03  0.46649350944E+02 -0.46860899133E+03  0.48778904950E+03  0.47000000000E+01 0. -1.
        -11    1    1    2    0    0  0.34043597292E+02 -0.38627085555E+02 -0.48178000383E+02  0.70513388629E+02  0.00000000000E+00 0.  1.
         11    1    1    2    0    0  0.11717641624E+03  0.42933184738E+02 -0.15027011876E+03  0.19533222844E+03  0.00000000000E+00 0. -1.
<mgrwt>
<rscale>  0 0.19121788E+03</rscale>
<asrwt>0</asrwt>
<pdfrwt beam="2">  1        1 0.12872030E+00 0.19624498E+03</pdfrwt>
<pdfrwt beam="1">  1       -1 0.76346269E-02 0.19624498E+03</pdfrwt>
<totfact> 0.19779392E+03</totfact>
</mgrwt>
</event>
<event>
 6    1  0.9240440E-006  0.1415234E+03  0.7546771E-02  0.1222101E+00
         -2   -1    0    0    0  501 -0.00000000000E+00  0.00000000000E+00  0.16530437420E+03  0.16530437420E+03  0.00000000000E+00 0.  1.
          2   -1    0    0  501    0  0.00000000000E+00 -0.00000000000E+00 -0.98826410456E+02  0.98826410456E+02  0.00000000000E+00 0. -1.
          5    1    1    2  502    0  0.68149073935E+01  0.36800428909E+02 -0.39996378258E+01  0.37931538769E+02  0.47000000000E+01 0. -1.
         -5    1    1    2    0  502  0.78925667395E+01 -0.10152012673E+03  0.26985132559E+02  0.10544627125E+03  0.47000000000E+01 0. -1.
        -11    1    1    2    0    0 -0.54643619944E-01  0.84374303679E+02  0.46018147374E+02  0.96107731192E+02  0.00000000000E+00 0. -1.
         11    1    1    2    0    0 -0.14652830513E+02 -0.19654605857E+02 -0.25256783601E+01  0.24645243448E+02  0.00000000000E+00 0.  1.
<mgrwt>
<rscale>  0 0.13367570E+03</rscale>
<asrwt>0</asrwt>
<pdfrwt beam="2">  1        2 0.15204063E-01 0.14152337E+03</pdfrwt>
<pdfrwt beam="1">  1       -2 0.25431442E-01 0.14152337E+03</pdfrwt>
<totfact> 0.50500731E+03</totfact>
</mgrwt>
</event>
<event>
 6    1  0.9240440E-006  0.1289434E+03  0.7546771E-02  0.1242339E+00
         -1   -1    0    0    0  501 -0.00000000000E+00  0.00000000000E+00  0.12007067478E+03  0.12007067478E+03  0.00000000000E+00 0.  1.
          1   -1    0    0  501    0  0.00000000000E+00 -0.00000000000E+00 -0.12423005819E+03  0.12423005819E+03  0.00000000000E+00 0. -1.
          5    1    1    2  502    0 -0.25835133115E+02 -0.44865676457E+02 -0.42516639790E+02  0.67157558667E+02  0.47000000000E+01 0. -1.
         -5    1    1    2    0  502  0.58210397597E+02  0.38421181938E+02 -0.43548661092E+01  0.70040648688E+02  0.47000000000E+01 0.  1.
        -11    1    1    2    0    0 -0.54607240464E+02  0.26877461104E+01 -0.44232709119E+01  0.54851982788E+02  0.00000000000E+00 0. -1.
         11    1    1    2    0    0  0.22231975982E+02  0.37567484089E+01  0.47135393400E+02  0.52250542827E+02  0.00000000000E+00 0.  1.
<mgrwt>
<rscale>  0 0.12046097E+03</rscale>
<asrwt>0</asrwt>
<pdfrwt beam="2">  1        1 0.19112317E-01 0.12894344E+03</pdfrwt>
<pdfrwt beam="1">  1       -1 0.18472412E-01 0.12894344E+03</pdfrwt>
<totfact> 0.58973331E+03</totfact>
</mgrwt>
</event>
<event>
 6    1  0.9240440E-006  0.3490126E+03  0.7546771E-02  0.1063021E+00
          1   -1    0    0  501    0  0.00000000000E+00  0.00000000000E+00  0.60885303813E+03  0.60885303813E+03  0.00000000000E+00 0. -1.
         -1   -1    0    0    0  501 -0.00000000000E+00 -0.00000000000E+00 -0.50016096673E+02  0.50016096673E+02  0.00000000000E+00 0.  1.
          5    1    1    2  502    0 -0.60673467727E+02 -0.11680979755E+03  0.30343931811E+03  0.33079194105E+03  0.47000000000E+01 0. -1.
         -5    1    1    2    0  502 -0.66835004047E+01  0.31612855010E+02  0.14390515791E+03  0.14756295691E+03  0.47000000000E+01 0.  1.
        -11    1    1    2    0    0  0.74924509682E+02  0.40673774801E+02  0.35995076475E+02  0.92540173103E+02  0.00000000000E+00 0.  1.
         11    1    1    2    0    0 -0.75675415502E+01  0.44523167735E+02  0.75497388963E+02  0.87974063737E+02  0.00000000000E+00 0. -1.
<mgrwt>
<rscale>  0 0.34901262E+03</rscale>
<asrwt>0</asrwt>
<pdfrwt beam="1">  1        1 0.93669693E-01 0.34901262E+03</pdfrwt>
<pdfrwt beam="2">  1       -1 0.76947846E-02 0.34901262E+03</pdfrwt>
<totfact> 0.31586034E+03</totfact>
</mgrwt>
</event>
<event>
 6    1  0.9240440E-006  0.1358614E+03  0.7546771E-02  0.1232027E+00
          2   -1    0    0  501    0  0.00000000000E+00  0.00000000000E+00  0.41740227481E+03  0.41740227481E+03  0.00000000000E+00 0. -1.
         -2   -1    0    0    0  501 -0.00000000000E+00 -0.00000000000E+00 -0.36088785684E+02  0.36088785684E+02  0.00000000000E+00 0.  1.
          5    1    1    2  502    0  0.59664955214E+00 -0.28206468192E+02  0.55699598024E+01  0.29138896526E+02  0.47000000000E+01 0. -1.
         -5    1    1    2    0  502 -0.49480177852E+02  0.49273139606E+02  0.25882202298E+03  0.26811762319E+03  0.47000000000E+01 0. -1.
        -11    1    1    2    0    0 -0.13019844181E+02 -0.30611136846E+02  0.14741229732E+02  0.36384913021E+02  0.00000000000E+00 0.  1.
         11    1    1    2    0    0  0.61903372481E+02  0.95444654319E+01  0.10218027662E+03  0.11984962776E+03  0.00000000000E+00 0. -1.
<mgrwt>
<rscale>  0 0.12696689E+03</rscale>
<asrwt>0</asrwt>
<pdfrwt beam="1">  1        2 0.64215731E-01 0.13586139E+03</pdfrwt>
<pdfrwt beam="2">  1       -2 0.55521212E-02 0.13586139E+03</pdfrwt>
<totfact> 0.12027586E+04</totfact>
</mgrwt>
</event>
<event>
 6    1  0.9240440E-006  0.1740830E+03  0.7546771E-02  0.1179685E+00
         -1   -1    0    0    0  501 -0.00000000000E+00  0.00000000000E+00  0.21170197388E+03  0.21170197388E+03  0.00000000000E+00 0.  1.
          1   -1    0    0  501    0  0.00000000000E+00 -0.00000000000E+00 -0.13055119464E+03  0.13055119464E+03  0.00000000000E+00 0. -1.
          5    1    1    2  502    0 -0.25408274090E+02  0.84799073361E+02  0.42229488635E+02  0.98193090111E+02  0.47000000000E+01 0.  1.
         -5    1    1    2    0  502  0.61289184907E+02  0.30923170129E+02 -0.32630982798E+02  0.76154301755E+02  0.47000000000E+01 0.  1.
        -11    1    1    2    0    0 -0.15451399091E+02 -0.79232232596E+02 -0.47823791102E+01  0.80866331473E+02  0.00000000000E+00 0. -1.
         11    1    1    2    0    0 -0.20429511726E+02 -0.36490010895E+02  0.76334652508E+02  0.87039445184E+02  0.00000000000E+00 0.  1.
<mgrwt>
<rscale>  0 0.16824972E+03</rscale>
<asrwt>0</asrwt>
<pdfrwt beam="2">  1        1 0.20084799E-01 0.17408297E+03</pdfrwt>
<pdfrwt beam="1">  1       -1 0.32569535E-01 0.17408297E+03</pdfrwt>
<totfact> 0.22112274E+03</totfact>
</mgrwt>
</event>
<event>
 6    1  0.9240440E-006  0.1267455E+03  0.7546771E-02  0.1247125E+00
          1   -1    0    0  501    0  0.00000000000E+00  0.00000000000E+00  0.68889634262E+02  0.68889634262E+02  0.00000000000E+00 0. -1.
         -1   -1    0    0    0  501 -0.00000000000E+00 -0.00000000000E+00 -0.18625513643E+03  0.18625513643E+03  0.00000000000E+00 0.  1.
          5    1    1    2  502    0 -0.27005272081E+02  0.32729073829E+02  0.35280975768E+02  0.55383339056E+02  0.47000000000E+01 0.  1.
         -5    1    1    2    0  502  0.16854477226E+02 -0.14363346849E+02 -0.73637857268E+02  0.77038971685E+02  0.47000000000E+01 0.  1.
        -11    1    1    2    0    0  0.42692672211E+01  0.28836502573E+02  0.15243317693E+01  0.29190651082E+02  0.00000000000E+00 0. -1.
         11    1    1    2    0    0  0.58815276335E+01 -0.47202229553E+02 -0.80532952432E+02  0.93531808864E+02  0.00000000000E+00 0.  1.
<mgrwt>
<rscale>  0 0.11759080E+03</rscale>
<asrwt>0</asrwt>
<pdfrwt beam="1">  1        1 0.10598405E-01 0.12674549E+03</pdfrwt>
<pdfrwt beam="2">  1       -1 0.28654636E-01 0.12674549E+03</pdfrwt>
<totfact> 0.61923651E+03</totfact>
</mgrwt>
</event>
<event>
 6    1  0.9240440E-006  0.1358743E+03  0.7546771E-02  0.1230729E+00
         -1   -1    0    0    0  501 -0.00000000000E+00  0.00000000000E+00  0.18388039000E+02  0.18388039000E+02  0.00000000000E+00 0.  1.
          1   -1    0    0  501    0  0.00000000000E+00 -0.00000000000E+00 -0.12690296783E+04  0.12690296783E+04  0.00000000000E+00 0. -1.
          5    1    1    2  502    0 -0.57007357998E+02 -0.51448907659E+02 -0.69540957787E+03  0.69965234220E+03  0.47000000000E+01 0. -1.
         -5    1    1    2    0  502  0.40121208852E+01  0.56759747997E+02 -0.36806403129E+03  0.37246608871E+03  0.47000000000E+01 0. -1.
        -11    1    1    2    0    0 -0.18684419964E+01  0.27808974981E+02 -0.11698453124E+03  0.12025893196E+03  0.00000000000E+00 0. -1.
         11    1    1    2    0    0  0.54863679109E+02 -0.33119815320E+02 -0.70183498887E+02  0.95040354420E+02  0.00000000000E+00 0.  1.
<mgrwt>
<rscale>  0 0.12781824E+03</rscale>
<asrwt>0</asrwt>
<pdfrwt beam="2">  1        1 0.19523543E+00 0.13587425E+03</pdfrwt>
<pdfrwt beam="1">  1       -1 0.28289277E-02 0.13587425E+03</pdfrwt>
<totfact> 0.41487840E+03</totfact>
</mgrwt>
</event>
<event>
 6    1  0.9240440E-006  0.1263372E+03  0.7546771E-02  0.1248537E+00
          2   -1    0    0  501    0  0.00000000000E+00  0.00000000000E+00  0.27140431047E+03  0.27140431047E+03  0.00000000000E+00 0. -1.
         -2   -1    0    0    0  501 -0.00000000000E+00 -0.00000000000E+00 -0.60516960533E+02  0.60516960533E+02  0.00000000000E+00 0.  1.
          5    1    1    2  502    0  0.56078167032E+01  0.44626289073E+02  0.28593824908E+02  0.53503739191E+02  0.47000000000E+01 0. -1.
         -5    1    1    2    0  502 -0.10409613629E+02 -0.62333410813E+02  0.17480813212E+03  0.18594027862E+03  0.47000000000E+01 0. -1.
        -11    1    1    2    0    0  0.18381820087E+02 -0.26337580901E+02  0.27448471273E+02  0.42249000612E+02  0.00000000000E+00 0. -1.
         11    1    1    2    0    0 -0.13580023162E+02  0.44044702642E+02 -0.19963078358E+02  0.50228252581E+02  0.00000000000E+00 0.  1.
<mgrwt>
<rscale>  0 0.11676166E+03</rscale>
<asrwt>0</asrwt>
<pdfrwt beam="1">  1        2 0.41754509E-01 0.12633717E+03</pdfrwt>
<pdfrwt beam="2">  1       -2 0.93103017E-02 0.12633717E+03</pdfrwt>
<totfact> 0.85533734E+03</totfact>
</mgrwt>
</event>
<event>
 6    1  0.9240440E-006  0.1916624E+03  0.7546771E-02  0.1161579E+00
          1   -1    0    0  501    0  0.00000000000E+00  0.00000000000E+00  0.20210716803E+04  0.20210716803E+04  0.00000000000E+00 0. -1.
         -1   -1    0    0    0  501 -0.00000000000E+00 -0.00000000000E+00 -0.20141487850E+02  0.20141487850E+02  0.00000000000E+00 0.  1.
          5    1    1    2  502    0  0.74860152489E+02  0.62181132434E+02  0.86274728887E+03  0.86823125383E+03  0.47000000000E+01 0. -1.
         -5    1    1    2    0  502  0.70410266356E+02 -0.59763874673E+02  0.62238720151E+03  0.62921955225E+03  0.47000000000E+01 0. -1.
        -11    1    1    2    0    0 -0.15039494382E+03  0.17295455768E+02  0.44193966251E+03  0.46714926652E+03  0.00000000000E+00 0.  1.
         11    1    1    2    0    0  0.51245249782E+01 -0.19712713529E+02  0.73856039524E+02  0.76613095520E+02  0.00000000000E+00 0. -1.
<mgrwt>
<rscale>  0 0.18658353E+03</rscale>
<asrwt>0</asrwt>
<pdfrwt beam="1">  1        1 0.31093395E+00 0.19166236E+03</pdfrwt>
<pdfrwt beam="2">  1       -1 0.30986920E-02 0.19166236E+03</pdfrwt>
<totfact> 0.11828869E+03</totfact>
</mgrwt>
</event>
<event>
 6    1  0.9240440E-006  0.2801985E+03  0.7546771E-02  0.1095581E+00
          2   -1    0    0  501    0  0.00000000000E+00  0.00000000000E+00  0.87538817043E+02  0.87538817043E+02  0.00000000000E+00 0. -1.
         -2   -1    0    0    0  501 -0.00000000000E+00 -0.00000000000E+00 -0.22421831827E+03  0.22421831827E+03  0.00000000000E+00 0.  1.
          5    1    1    2  502    0  0.26914215361E+01 -0.99118331556E+01  0.39522750428E+02  0.41105060367E+02  0.47000000000E+01 0.  1.
         -5    1    1    2    0  502 -0.28337347614E+02 -0.76614819373E+02 -0.88801520063E+02  0.12075030345E+03  0.47000000000E+01 0.  1.
        -11    1    1    2    0    0 -0.28458092892E+02  0.25636260920E+02 -0.41211138545E+02  0.56262233027E+02  0.00000000000E+00 0. -1.
         11    1    1    2    0    0  0.54104018970E+02  0.60890391609E+02 -0.46189593048E+02  0.93639538470E+02  0.00000000000E+00 0.  1.
<mgrwt>
<rscale>  0 0.28019855E+03</rscale>
<asrwt>0</asrwt>
<pdfrwt beam="1">  1        2 0.13467511E-01 0.28019855E+03</pdfrwt>
<pdfrwt beam="2">  1       -2 0.34495125E-01 0.28019855E+03</pdfrwt>
<totfact> 0.34893296E+03</totfact>
</mgrwt>
</event>
<event>
 6    1  0.9240440E-006  0.1252853E+03  0.7546771E-02  0.1250041E+00
         -1   -1    0    0    0  501 -0.00000000000E+00  0.00000000000E+00  0.10408936960E+03  0.10408936960E+03  0.00000000000E+00 0.  1.
          1   -1    0    0  501    0  0.00000000000E+00 -0.00000000000E+00 -0.12455046581E+03  0.12455046581E+03  0.00000000000E+00 0. -1.
          5    1    1    2  502    0  0.43476264382E+02 -0.19927766360E+02 -0.58259315556E+02  0.75521780208E+02  0.47000000000E+01 0.  1.
         -5    1    1    2    0  502 -0.50963595973E+02  0.24180315231E+02  0.12303457790E+02  0.57926167082E+02  0.47000000000E+01 0.  1.
        -11    1    1    2    0    0 -0.92766008582E+01  0.28355256089E+02  0.44746391850E+02  0.53780251533E+02  0.00000000000E+00 0.  1.
         11    1    1    2    0    0  0.16763932449E+02 -0.32607804960E+02 -0.19251630292E+02  0.41411636582E+02  0.00000000000E+00 0. -1.
<mgrwt>
<rscale>  0 0.11588692E+03</rscale>
<asrwt>0</asrwt>
<pdfrwt beam="2">  1        1 0.19161610E-01 0.12528533E+03</pdfrwt>
<pdfrwt beam="1">  1       -1 0.16013749E-01 0.12528533E+03</pdfrwt>
<totfact> 0.73522555E+03</totfact>
</mgrwt>
</event>
<event>
 6    1  0.9240440E-006  0.3094772E+03  0.7546771E-02  0.1080597E+00
          1   -1    0    0  501    0  0.00000000000E+00  0.00000000000E+00  0.30216848241E+03  0.30216848241E+03  0.00000000000E+00 0. -1.
         -1   -1    0    0    0  501 -0.00000000000E+00 -0.00000000000E+00 -0.79240683266E+02  0.79240683266E+02  0.00000000000E+00 0.  1.
          5    1    1    2  502    0  0.93508217001E+02  0.53710108078E+02  0.79029606601E+02  0.13377716949E+03  0.47000000000E+01 0.  1.
         -5    1    1    2    0  502  0.28404319507E+01 -0.33416458434E+02  0.10079526320E+03  0.10633204048E+03  0.47000000000E+01 0.  1.
        -11    1    1    2    0    0 -0.33201761245E+02 -0.38440643896E+02 -0.15659435400E+02  0.53153155785E+02  0.00000000000E+00 0.  1.
         11    1    1    2    0    0 -0.63146887707E+02  0.18146994252E+02  0.58762364739E+02  0.88146799926E+02  0.00000000000E+00 0. -1.
<mgrwt>
<rscale>  0 0.30947722E+03</rscale>
<asrwt>0</asrwt>
<pdfrwt beam="1">  1        1 0.46487458E-01 0.30947722E+03</pdfrwt>
<pdfrwt beam="2">  1       -1 0.12190874E-01 0.30947722E+03</pdfrwt>
<totfact> 0.38757213E+03</totfact>
</mgrwt>
</event>
<event>
 6    1  0.9240440E-006  0.3203679E+03  0.7546771E-02  0.1075480E+00
          2   -1    0    0  501    0  0.00000000000E+00  0.00000000000E+00  0.14084496761E+04  0.14084496761E+04  0.00000000000E+00 0. -1.
         -2   -1    0    0    0  501 -0.00000000000E+00 -0.00000000000E+00 -0.18217829211E+02  0.18217829211E+02  0.00000000000E+00 0.  1.
          5    1    1    2  502    0  0.72039744607E+02 -0.75609428836E+02  0.86985715510E+03  0.87611647103E+03  0.47000000000E+01 0. -1.
         -5    1    1    2    0  502 -0.33718064337E+02  0.17745027125E+02  0.30200457216E+03  0.30443496096E+03  0.47000000000E+01 0. -1.
        -11    1    1    2    0    0 -0.57314411653E+02  0.99971153267E+01  0.14709991107E+03  0.15818744557E+03  0.00000000000E+00 0. -1.
         11    1    1    2    0    0  0.18992731383E+02  0.47867286385E+02  0.71270208585E+02  0.87928627778E+02  0.00000000000E+00 0.  1.
<mgrwt>
<rscale>  0 0.32036789E+03</rscale>
<asrwt>0</asrwt>
<pdfrwt beam="1">  1        2 0.21668448E+00 0.32036789E+03</pdfrwt>
<pdfrwt beam="2">  1       -2 0.28027441E-02 0.32036789E+03</pdfrwt>
<totfact> 0.71881485E+03</totfact>
</mgrwt>
</event>
<event>
 6    1  0.9240440E-006  0.3529858E+03  0.7546771E-02  0.1061396E+00
          1   -1    0    0  501    0  0.00000000000E+00  0.00000000000E+00  0.29089179156E+03  0.29089179156E+03  0.00000000000E+00 0. -1.
         -1   -1    0    0    0  501 -0.00000000000E+00 -0.00000000000E+00 -0.10708362192E+03  0.10708362192E+03  0.00000000000E+00 0.  1.
          5    1    1    2  502    0  0.25475591381E+02 -0.25129046744E+01 -0.14275950458E+02  0.29685235515E+02  0.47000000000E+01 0.  1.
         -5    1    1    2    0  502  0.48628823512E+02 -0.92938908800E+02  0.19263632423E+03  0.21939290476E+03  0.47000000000E+01 0.  1.
        -11    1    1    2    0    0 -0.31713089468E+02  0.47509488474E+02  0.45822444996E+02  0.73229556902E+02  0.00000000000E+00 0. -1.
         11    1    1    2    0    0 -0.42391325425E+02  0.47942325000E+02 -0.40374649139E+02  0.75667716305E+02  0.00000000000E+00 0.  1.
<mgrwt>
<rscale>  0 0.35298582E+03</rscale>
<asrwt>0</asrwt>
<pdfrwt beam="1">  1        1 0.44752583E-01 0.35298582E+03</pdfrwt>
<pdfrwt beam="2">  1       -1 0.16474403E-01 0.35298582E+03</pdfrwt>
<totfact> 0.25270149E+03</totfact>
</mgrwt>
</event>
<event>
 6    1  0.1251125E-005  0.2880261E+03  0.7546771E-02  0.1093106E+00
          2   -1    0    0  501    0  0.00000000000E+00  0.00000000000E+00  0.71975138332E+03  0.71975138332E+03  0.00000000000E+00 0. -1.
         -2   -1    0    0    0  501 -0.00000000000E+00 -0.00000000000E+00 -0.11338011396E+03  0.11338011396E+03  0.00000000000E+00 0.  1.
          5    1    1    2  502    0 -0.54662061694E+01  0.80892595791E+01 -0.11765206752E+01  0.10899070205E+02  0.47000000000E+01 0.  1.
         -5    1    1    2    0  502  0.19675552563E+02 -0.26718733884E+03  0.38067753529E+03  0.46552516289E+03  0.47000000000E+01 0.  1.
        -11    1    1    2    0    0 -0.16612515086E+01  0.54974453019E+02  0.54128784438E+01  0.55265264809E+02  0.00000000000E+00 0.  1.
         11    1    1    2    0    0 -0.12548094885E+02  0.20412362624E+03  0.22145737630E+03  0.30144199938E+03  0.00000000000E+00 0. -1.
<mgrwt>
<rscale>  0 0.28478100E+03</rscale>
<asrwt>0</asrwt>
<pdfrwt beam="1">  1        2 0.11073098E+00 0.28802609E+03</pdfrwt>
<pdfrwt beam="2">  1       -2 0.17443095E-01 0.28802609E+03</pdfrwt>
<totfact> 0.10782204E+03</totfact>
</mgrwt>
</event>
<event>
 6    1  0.9240440E-006  0.1261273E+03  0.7546771E-02  0.1247134E+00
         -4   -1    0    0    0  501 -0.00000000000E+00  0.00000000000E+00  0.37044316172E+02  0.37044316172E+02  0.00000000000E+00 0.  1.
          4   -1    0    0  501    0  0.00000000000E+00 -0.00000000000E+00 -0.73279467849E+03  0.73279467849E+03  0.00000000000E+00 0. -1.
          5    1    1    2  502    0  0.66209017329E+02  0.20308043482E+02 -0.30022982571E+03  0.30814945862E+03  0.47000000000E+01 0. -1.
         -5    1    1    2    0  502 -0.49452855237E+02 -0.21782926636E+02 -0.35336326463E+03  0.35750212247E+03  0.47000000000E+01 0. -1.
        -11    1    1    2    0    0  0.24228395912E+02  0.22366238273E+02  0.10177653137E+02  0.34508671466E+02  0.00000000000E+00 0.  1.
         11    1    1    2    0    0 -0.40984558004E+02 -0.20891355118E+02 -0.52334925118E+02  0.69678742100E+02  0.00000000000E+00 0. -1.
<mgrwt>
<rscale>  0 0.11758565E+03</rscale>
<asrwt>0</asrwt>
<pdfrwt beam="2">  1        4 0.11273764E+00 0.12612732E+03</pdfrwt>
<pdfrwt beam="1">  1       -4 0.56991256E-02 0.12612732E+03</pdfrwt>
<totfact> 0.20541744E+02</totfact>
</mgrwt>
</event>
<event>
 6    1  0.9240440E-006  0.1516330E+03  0.7546771E-02  0.1206993E+00
         -1   -1    0    0    0  501 -0.00000000000E+00  0.00000000000E+00  0.14086964614E+03  0.14086964614E+03  0.00000000000E+00 0.  1.
          1   -1    0    0  501    0  0.00000000000E+00 -0.00000000000E+00 -0.16732857938E+03  0.16732857938E+03  0.00000000000E+00 0. -1.
          5    1    1    2  502    0  0.29862574557E+02  0.17993775510E+02 -0.61469495118E+01  0.35713083101E+02  0.47000000000E+01 0. -1.
         -5    1    1    2    0  502 -0.53234653712E+02 -0.10059381682E+03 -0.73523474219E+02  0.13557594034E+03  0.47000000000E+01 0. -1.
        -11    1    1    2    0    0  0.33270198136E+02  0.16831570911E+01  0.43533044108E+02  0.54816649214E+02  0.00000000000E+00 0.  1.
         11    1    1    2    0    0 -0.98981189805E+01  0.80916884220E+02  0.96784463829E+01  0.82092552863E+02  0.00000000000E+00 0. -1.
<mgrwt>
<rscale>  0 0.14481484E+03</rscale>
<asrwt>0</asrwt>
<pdfrwt beam="2">  1        1 0.25742858E-01 0.15163296E+03</pdfrwt>
<pdfrwt beam="1">  1       -1 0.21672253E-01 0.15163296E+03</pdfrwt>
<totfact> 0.31596243E+03</totfact>
</mgrwt>
</event>
<event>
 6    1  0.9240440E-006  0.2726296E+03  0.7546771E-02  0.1099784E+00
          2   -1    0    0  501    0  0.00000000000E+00  0.00000000000E+00  0.38580489851E+03  0.38580489851E+03  0.00000000000E+00 0. -1.
         -2   -1    0    0    0  501 -0.00000000000E+00 -0.00000000000E+00 -0.48163527505E+02  0.48163527505E+02  0.00000000000E+00 0.  1.
          5    1    1    2  502    0  0.39293147239E+02  0.24188061827E+01  0.85174457638E+02  0.93949881730E+02  0.47000000000E+01 0. -1.
         -5    1    1    2    0  502 -0.81501799488E+02 -0.66118496683E+02  0.14998482188E+03  0.18311672703E+03  0.47000000000E+01 0. -1.
        -11    1    1    2    0    0  0.46204790756E+02  0.23679337511E+02  0.10444169638E+03  0.11663473606E+03  0.00000000000E+00 0. -1.
         11    1    1    2    0    0 -0.39961385065E+01  0.40020352989E+02 -0.19596048949E+01  0.40267081191E+02  0.00000000000E+00 0.  1.
<mgrwt>
<rscale>  0 0.27262960E+03</rscale>
<asrwt>0</asrwt>
<pdfrwt beam="1">  1        2 0.59354598E-01 0.27262960E+03</pdfrwt>
<pdfrwt beam="2">  1       -2 0.74097737E-02 0.27262960E+03</pdfrwt>
<totfact> 0.87925441E+03</totfact>
</mgrwt>
</event>
<event>
 6    1  0.9240440E-006  0.2705779E+03  0.7546771E-02  0.1100949E+00
         -2   -1    0    0    0  501 -0.00000000000E+00  0.00000000000E+00  0.17261865933E+02  0.17261865933E+02  0.00000000000E+00 0. -1.
          2   -1    0    0  501    0  0.00000000000E+00 -0.00000000000E+00 -0.10603195667E+04  0.10603195667E+04  0.00000000000E+00 0.  1.
          5    1    1    2  502    0  0.10661338210E+02  0.24493380944E+02 -0.40682503380E+02  0.48895254614E+02  0.47000000000E+01 0. -1.
         -5    1    1    2    0  502 -0.14234594256E+02 -0.10122727018E+03 -0.57439181246E+03  0.58343605315E+03  0.47000000000E+01 0. -1.
        -11    1    1    2    0    0  0.38083022732E+02  0.76698773224E+01 -0.81717784030E+02  0.90481710115E+02  0.00000000000E+00 0. -1.
         11    1    1    2    0    0 -0.34509766686E+02  0.69064011913E+02 -0.34626560089E+03  0.35476841474E+03  0.00000000000E+00 0.  1.
<mgrwt>
<rscale>  0 0.27057786E+03</rscale>
<asrwt>0</asrwt>
<pdfrwt beam="2">  1        2 0.16312610E+00 0.27057786E+03</pdfrwt>
<pdfrwt beam="1">  1       -2 0.26556714E-02 0.27057786E+03</pdfrwt>
<totfact> 0.12221339E+04</totfact>
</mgrwt>
</event>
<event>
 6    1  0.9240440E-006  0.1584501E+03  0.7546771E-02  0.1198052E+00
          2   -1    0    0  501    0  0.00000000000E+00  0.00000000000E+00  0.58867100901E+02  0.58867100901E+02  0.00000000000E+00 0. -1.
         -2   -1    0    0    0  501 -0.00000000000E+00 -0.00000000000E+00 -0.40403806705E+03  0.40403806705E+03  0.00000000000E+00 0.  1.
          5    1    1    2  502    0 -0.18079828294E+01  0.95232101289E+02 -0.29816487112E+02  0.99917640192E+02  0.47000000000E+01 0.  1.
         -5    1    1    2    0  502  0.44672960620E+02 -0.77956101961E+01 -0.82645690884E+02  0.94386678989E+02  0.47000000000E+01 0.  1.
        -11    1    1    2    0    0  0.22987020209E+02 -0.46111036834E+02 -0.12960249845E+03  0.13946841370E+03  0.00000000000E+00 0.  1.
         11    1    1    2    0    0 -0.65851997999E+02 -0.41325454259E+02 -0.10310628971E+03  0.12913243507E+03  0.00000000000E+00 0. -1.
<mgrwt>
<rscale>  0 0.15198733E+03</rscale>
<asrwt>0</asrwt>
<pdfrwt beam="1">  1        2 0.90564771E-02 0.15845008E+03</pdfrwt>
<pdfrwt beam="2">  1       -2 0.62159703E-01 0.15845008E+03</pdfrwt>
<totfact> 0.17385236E+03</totfact>
</mgrwt>
</event>
<event>
 6    1  0.9240440E-006  0.1525576E+03  0.7546771E-02  0.1205786E+00
          2   -1    0    0  501    0  0.00000000000E+00  0.00000000000E+00  0.31821538826E+03  0.31821538826E+03  0.00000000000E+00 0. -1.
         -2   -1    0    0    0  501 -0.00000000000E+00 -0.00000000000E+00 -0.67351474118E+02  0.67351474118E+02  0.00000000000E+00 0.  1.
          5    1    1    2  502    0  0.12331187282E+02 -0.14487273654E+02  0.17162950004E+03  0.17274465133E+03  0.47000000000E+01 0.  1.
         -5    1    1    2    0  502  0.19189766849E+02 -0.67070843064E+02  0.21054539893E+02  0.73021426932E+02  0.47000000000E+01 0.  1.
        -11    1    1    2    0    0 -0.41495581789E+02  0.57242518799E+02  0.79185994055E+02  0.10615559769E+03  0.00000000000E+00 0. -1.
         11    1    1    2    0    0  0.99746276581E+01  0.24315597919E+02 -0.21006119845E+02  0.33645186431E+02  0.00000000000E+00 0.  1.
<mgrwt>
<rscale>  0 0.14575667E+03</rscale>
<asrwt>0</asrwt>
<pdfrwt beam="1">  1        2 0.48956213E-01 0.15255762E+03</pdfrwt>
<pdfrwt beam="2">  1       -2 0.10361765E-01 0.15255762E+03</pdfrwt>
<totfact> 0.61849665E+03</totfact>
</mgrwt>
</event>
<event>
 6    1  0.9240440E-006  0.2231570E+03  0.7546771E-02  0.1134888E+00
          2   -1    0    0  501    0  0.00000000000E+00  0.00000000000E+00  0.22778751045E+03  0.22778751045E+03  0.00000000000E+00 0. -1.
         -2   -1    0    0    0  501 -0.00000000000E+00 -0.00000000000E+00 -0.20319305864E+03  0.20319305864E+03  0.00000000000E+00 0.  1.
          5    1    1    2  502    0 -0.17066168913E+03 -0.78714206955E+02  0.52075406082E+02  0.19507761643E+03  0.47000000000E+01 0.  1.
         -5    1    1    2    0  502  0.12099039787E+02 -0.16312870400E+02 -0.21753817771E+02  0.30129969997E+02  0.47000000000E+01 0.  1.
        -11    1    1    2    0    0  0.91604489337E+02  0.10252169584E+02 -0.26186819445E+02  0.95823999919E+02  0.00000000000E+00 0.  1.
         11    1    1    2    0    0  0.66958160006E+02  0.84774907771E+02  0.20459682949E+02  0.10994898274E+03  0.00000000000E+00 0. -1.
<mgrwt>
<rscale>  0 0.21865678E+03</rscale>
<asrwt>0</asrwt>
<pdfrwt beam="1">  1        2 0.35044232E-01 0.22315703E+03</pdfrwt>
<pdfrwt beam="2">  1       -2 0.31260471E-01 0.22315703E+03</pdfrwt>
<totfact> 0.13934348E+03</totfact>
</mgrwt>
</event>
<event>
 6    1  0.9240440E-006  0.1470835E+03  0.7546771E-02  0.1219093E+00
         -2   -1    0    0    0  501 -0.00000000000E+00  0.00000000000E+00  0.77097926608E+02  0.77097926608E+02  0.00000000000E+00 0.  1.
          2   -1    0    0  501    0  0.00000000000E+00 -0.00000000000E+00 -0.22188272560E+03  0.22188272560E+03  0.00000000000E+00 0. -1.
          5    1    1    2  502    0 -0.24691180168E+02 -0.45836680486E+02 -0.66808775487E+02  0.84830172334E+02  0.47000000000E+01 0. -1.
         -5    1    1    2    0  502 -0.12462451536E+02  0.89326271041E+02 -0.51769047618E+02  0.10409908591E+03  0.47000000000E+01 0.  1.
        -11    1    1    2    0    0  0.25646936903E+02 -0.27244909359E+02  0.31560443425E+02  0.48950097524E+02  0.00000000000E+00 0.  1.
         11    1    1    2    0    0  0.11506694801E+02 -0.16244681196E+02 -0.57767419314E+02  0.61101296439E+02  0.00000000000E+00 0. -1.
<mgrwt>
<rscale>  0 0.13580092E+03</rscale>
<asrwt>0</asrwt>
<pdfrwt beam="2">  1        2 0.34135803E-01 0.14708353E+03</pdfrwt>
<pdfrwt beam="1">  1       -2 0.11861220E-01 0.14708353E+03</pdfrwt>
<totfact> 0.73135483E+03</totfact>
</mgrwt>
</event>
<event>
 6    1  0.9240440E-006  0.1469977E+03  0.7546771E-02  0.1214134E+00
          1   -1    0    0  501    0  0.00000000000E+00  0.00000000000E+00  0.84776395962E+03  0.84776395962E+03  0.00000000000E+00 0. -1.
         -1   -1    0    0    0  501 -0.00000000000E+00 -0.00000000000E+00 -0.34346596305E+02  0.34346596305E+02  0.00000000000E+00 0.  1.
          5    1    1    2  502    0 -0.70022475930E+02 -0.34767510939E+02  0.27271245598E+03  0.28373596988E+03  0.47000000000E+01 0. -1.
         -5    1    1    2    0  502  0.45379342519E+02 -0.38467208538E+02  0.43564204027E+03  0.43971023198E+03  0.47000000000E+01 0. -1.
        -11    1    1    2    0    0 -0.23722532889E+02  0.28914865180E+02  0.32428075484E+01  0.37541227948E+02  0.00000000000E+00 0.  1.
         11    1    1    2    0    0  0.48365666300E+02  0.44319854298E+02  0.10182005951E+03  0.12112312612E+03  0.00000000000E+00 0. -1.
<mgrwt>
<rscale>  0 0.13940370E+03</rscale>
<asrwt>0</asrwt>
<pdfrwt beam="1">  1        1 0.13042521E+00 0.14699767E+03</pdfrwt>
<pdfrwt beam="2">  1       -1 0.52840924E-02 0.14699767E+03</pdfrwt>
<totfact> 0.33458332E+03</totfact>
</mgrwt>
</event>
<event>
 6    1  0.9240440E-006  0.1909425E+03  0.7546771E-02  0.1165652E+00
         -1   -1    0    0    0  501 -0.00000000000E+00  0.00000000000E+00  0.35456852802E+02  0.35456852802E+02  0.00000000000E+00 0.  1.
          1   -1    0    0  501    0  0.00000000000E+00 -0.00000000000E+00 -0.22738518131E+04  0.22738518131E+04  0.00000000000E+00 0. -1.
          5    1    1    2  502    0  0.65781898338E+02  0.65528634912E+02 -0.16849340513E+04  0.16874969948E+04  0.47000000000E+01 0. -1.
         -5    1    1    2    0  502  0.60617766786E+02 -0.33348773884E+02 -0.38244277100E+03  0.38867881015E+03  0.47000000000E+01 0.  1.
        -11    1    1    2    0    0 -0.89348391054E+02  0.20935029263E+02 -0.11770025570E+03  0.14924731363E+03  0.00000000000E+00 0.  1.
         11    1    1    2    0    0 -0.37051274071E+02 -0.53114890291E+02 -0.53317882297E+02  0.83885547346E+02  0.00000000000E+00 0. -1.
<mgrwt>
<rscale>  0 0.18224024E+03</rscale>
<asrwt>0</asrwt>
<pdfrwt beam="2">  1        1 0.34982337E+00 0.19094252E+03</pdfrwt>
<pdfrwt beam="1">  1       -1 0.54549002E-02 0.19094252E+03</pdfrwt>
<totfact> 0.35128659E+02</totfact>
</mgrwt>
</event>
<event>
 6    1  0.9240440E-006  0.1468672E+03  0.7546771E-02  0.1218037E+00
         -1   -1    0    0    0  501 -0.00000000000E+00  0.00000000000E+00  0.14164519534E+03  0.14164519534E+03  0.00000000000E+00 0.  1.
          1   -1    0    0  501    0  0.00000000000E+00 -0.00000000000E+00 -0.12005096056E+03  0.12005096056E+03  0.00000000000E+00 0. -1.
          5    1    1    2  502    0 -0.46341466723E+02  0.10581816463E+02  0.30142939938E+02  0.56481795349E+02  0.47000000000E+01 0.  1.
         -5    1    1    2    0  502  0.12627134371E+02 -0.79922160942E+02 -0.40883995821E+02  0.90777681433E+02  0.47000000000E+01 0.  1.
        -11    1    1    2    0    0 -0.15839682302E+02  0.67733664700E+01 -0.13955441645E+02  0.22170439335E+02  0.00000000000E+00 0.  1.
         11    1    1    2    0    0  0.49554014655E+02  0.62566978009E+02  0.46290732307E+02  0.92266239780E+02  0.00000000000E+00 0. -1.
<mgrwt>
<rscale>  0 0.13655823E+03</rscale>
<asrwt>0</asrwt>
<pdfrwt beam="2">  1        1 0.18469379E-01 0.14686723E+03</pdfrwt>
<pdfrwt beam="1">  1       -1 0.21791569E-01 0.14686723E+03</pdfrwt>
<totfact> 0.47633833E+03</totfact>
</mgrwt>
</event>
<event>
 6    1  0.9240440E-006  0.1359219E+03  0.7546771E-02  0.1226178E+00
          2   -1    0    0  501    0  0.00000000000E+00  0.00000000000E+00  0.14742576904E+03  0.14742576904E+03  0.00000000000E+00 0. -1.
         -2   -1    0    0    0  501 -0.00000000000E+00 -0.00000000000E+00 -0.11517391967E+03  0.11517391967E+03  0.00000000000E+00 0.  1.
          5    1    1    2  502    0 -0.35136698311E+02 -0.83630637853E+02  0.32655867348E+02  0.96525472432E+02  0.47000000000E+01 0. -1.
         -5    1    1    2    0  502  0.33071556778E+02  0.30282540669E+02  0.16604994420E+02  0.48047642780E+02  0.47000000000E+01 0. -1.
        -11    1    1    2    0    0  0.20643392937E+02  0.75100813740E+02 -0.33746950184E+02  0.84883087497E+02  0.00000000000E+00 0.  1.
         11    1    1    2    0    0 -0.18578251404E+02 -0.21752716556E+02  0.16737937785E+02  0.33143485998E+02  0.00000000000E+00 0. -1.
<mgrwt>
<rscale>  0 0.13086474E+03</rscale>
<asrwt>0</asrwt>
<pdfrwt beam="1">  1        2 0.22680888E-01 0.13592186E+03</pdfrwt>
<pdfrwt beam="2">  1       -2 0.17719065E-01 0.13592186E+03</pdfrwt>
<totfact> 0.59124307E+03</totfact>
</mgrwt>
</event>
<event>
 6    1  0.9240440E-006  0.2497812E+03  0.7546771E-02  0.1115959E+00
         -2   -1    0    0    0  501 -0.00000000000E+00  0.00000000000E+00  0.45192842203E+02  0.45192842203E+02  0.00000000000E+00 0.  1.
          2   -1    0    0  501    0  0.00000000000E+00 -0.00000000000E+00 -0.13307626349E+04  0.13307626349E+04  0.00000000000E+00 0. -1.
          5    1    1    2  502    0 -0.23562534113E+02  0.10808552612E+03 -0.45636800328E+03  0.46960783467E+03  0.47000000000E+01 0. -1.
         -5    1    1    2    0  502 -0.11936403102E+03  0.54202938040E+02 -0.31602524340E+03  0.34216921962E+03  0.47000000000E+01 0. -1.
        -11    1    1    2    0    0  0.10457374741E+02  0.11382280347E+02 -0.25465253712E+02  0.29789127865E+02  0.00000000000E+00 0.  1.
         11    1    1    2    0    0  0.13246919039E+03 -0.17367074450E+03 -0.48771129228E+03  0.53438929491E+03  0.00000000000E+00 0. -1.
<mgrwt>
<rscale>  0 0.24584589E+03</rscale>
<asrwt>0</asrwt>
<pdfrwt beam="2">  1        2 0.20473271E+00 0.24978122E+03</pdfrwt>
<pdfrwt beam="1">  1       -2 0.69527451E-02 0.24978122E+03</pdfrwt>
<totfact> 0.19873117E+03</totfact>
</mgrwt>
</event>
<event>
 6    1  0.9240440E-006  0.1738261E+03  0.7546771E-02  0.1179993E+00
          2   -1    0    0  501    0  0.00000000000E+00  0.00000000000E+00  0.14062764329E+04  0.14062764329E+04  0.00000000000E+00 0. -1.
         -2   -1    0    0    0  501 -0.00000000000E+00 -0.00000000000E+00 -0.25605778426E+02  0.25605778426E+02  0.00000000000E+00 0.  1.
          5    1    1    2  502    0 -0.27409383167E+02  0.62597511172E+02  0.66205666451E+03  0.66559059467E+03  0.47000000000E+01 0.  1.
         -5    1    1    2    0  502  0.82946445638E+02  0.44675518795E+02  0.43105169668E+03  0.44125238813E+03  0.47000000000E+01 0.  1.
        -11    1    1    2    0    0  0.25282915326E+02 -0.18996542237E+02  0.53362429803E+02  0.62029374806E+02  0.00000000000E+00 0. -1.
         11    1    1    2    0    0 -0.80819977798E+02 -0.88276487731E+02  0.23419986349E+03  0.26300985372E+03  0.00000000000E+00 0.  1.
<mgrwt>
<rscale>  0 0.16795925E+03</rscale>
<asrwt>0</asrwt>
<pdfrwt beam="1">  1        2 0.21635016E+00 0.17382606E+03</pdfrwt>
<pdfrwt beam="2">  1       -2 0.39393516E-02 0.17382606E+03</pdfrwt>
<totfact> 0.42802739E+03</totfact>
</mgrwt>
</event>
<event>
 6    1  0.9240440E-006  0.3112001E+03  0.7546771E-02  0.1079772E+00
          1   -1    0    0  501    0  0.00000000000E+00  0.00000000000E+00  0.92461616213E+02  0.92461616213E+02  0.00000000000E+00 0. -1.
         -1   -1    0    0    0  501 -0.00000000000E+00 -0.00000000000E+00 -0.26185332635E+03  0.26185332635E+03  0.00000000000E+00 0.  1.
          5    1    1    2  502    0 -0.27202777217E+02 -0.11592169393E+03 -0.24475889483E+01  0.11918855190E+03  0.47000000000E+01 0.  1.
         -5    1    1    2    0  502  0.12517771780E+02  0.15918742341E+02 -0.43161597467E+02  0.47907352921E+02  0.47000000000E+01 0.  1.
        -11    1    1    2    0    0 -0.29059927704E+02  0.90777402003E+02 -0.77239297239E+02  0.12268221204E+03  0.00000000000E+00 0. -1.
         11    1    1    2    0    0  0.43744933141E+02  0.92255495870E+01 -0.46543226486E+02  0.64536825708E+02  0.00000000000E+00 0.  1.
<mgrwt>
<rscale>  0 0.31120014E+03</rscale>
<asrwt>0</asrwt>
<pdfrwt beam="1">  1        1 0.14224864E-01 0.31120014E+03</pdfrwt>
<pdfrwt beam="2">  1       -1 0.40285126E-01 0.31120014E+03</pdfrwt>
<totfact> 0.24383941E+03</totfact>
</mgrwt>
</event>
<event>
 6    1  0.9240440E-006  0.1519763E+03  0.7546771E-02  0.1205820E+00
          2   -1    0    0  501    0  0.00000000000E+00  0.00000000000E+00  0.47273539666E+02  0.47273539666E+02  0.00000000000E+00 0. -1.
         -2   -1    0    0    0  501 -0.00000000000E+00 -0.00000000000E+00 -0.46742329136E+03  0.46742329136E+03  0.00000000000E+00 0.  1.
          5    1    1    2  502    0  0.82592301386E+02  0.21196891772E+02 -0.85837382774E+02  0.12108238002E+03  0.47000000000E+01 0.  1.
         -5    1    1    2    0  502 -0.38934059881E+02  0.53402861778E+02 -0.54793132533E+02  0.85977346072E+02  0.47000000000E+01 0.  1.
        -11    1    1    2    0    0  0.14261063182E+01 -0.60068847176E+02 -0.23525178276E+03  0.24280383331E+03  0.00000000000E+00 0.  1.
         11    1    1    2    0    0 -0.45084347823E+02 -0.14530906374E+02 -0.44267453628E+02  0.64833271624E+02  0.00000000000E+00 0. -1.
<mgrwt>
<rscale>  0 0.14572997E+03</rscale>
<asrwt>0</asrwt>
<pdfrwt beam="1">  1        2 0.72728522E-02 0.15197628E+03</pdfrwt>
<pdfrwt beam="2">  1       -2 0.71911276E-01 0.15197628E+03</pdfrwt>
<totfact> 0.16816224E+03</totfact>
</mgrwt>
</event>
<event>
 6    1  0.9240440E-006  0.2597664E+03  0.7546771E-02  0.1107284E+00
          1   -1    0    0  501    0  0.00000000000E+00  0.00000000000E+00  0.16612235599E+03  0.16612235599E+03  0.00000000000E+00 0. -1.
         -1   -1    0    0    0  501 -0.00000000000E+00 -0.00000000000E+00 -0.10154948899E+03  0.10154948899E+03  0.00000000000E+00 0.  1.
          5    1    1    2  502    0 -0.13226436381E+02 -0.17576635734E+02  0.10144236103E+03  0.10390630084E+03  0.47000000000E+01 0. -1.
         -5    1    1    2    0  502  0.16006911294E+02  0.54288448226E+02  0.27346170417E+01  0.56859695307E+02  0.47000000000E+01 0.  1.
        -11    1    1    2    0    0 -0.40520922225E+02 -0.38685049651E+00 -0.36326665726E+02  0.54421700029E+02  0.00000000000E+00 0. -1.
         11    1    1    2    0    0  0.37740447312E+02 -0.36324961996E+02 -0.32774453530E+01  0.52484148800E+02  0.00000000000E+00 0.  1.
<mgrwt>
<rscale>  0 0.25976636E+03</rscale>
<asrwt>0</asrwt>
<pdfrwt beam="1">  1        1 0.25557286E-01 0.25976636E+03</pdfrwt>
<pdfrwt beam="2">  1       -1 0.15622998E-01 0.25976636E+03</pdfrwt>
<totfact> 0.55414782E+03</totfact>
</mgrwt>
</event>
<event>
 6    1  0.9240440E-006  0.1747481E+03  0.7546771E-02  0.1177697E+00
          1   -1    0    0  501    0  0.00000000000E+00  0.00000000000E+00  0.18723330935E+03  0.18723330935E+03  0.00000000000E+00 0. -1.
         -1   -1    0    0    0  501 -0.00000000000E+00 -0.00000000000E+00 -0.15029391839E+03  0.15029391839E+03  0.00000000000E+00 0.  1.
          5    1    1    2  502    0  0.10149153783E+03  0.35165600630E+02  0.42178644303E+02  0.11549147048E+03  0.47000000000E+01 0. -1.
         -5    1    1    2    0  502  0.23616273012E+02 -0.60127646723E+02  0.22168478691E+01  0.64807921321E+02  0.47000000000E+01 0.  1.
        -11    1    1    2    0    0 -0.11945756877E+03  0.50885117807E+02 -0.11655506664E+02  0.13036585744E+03  0.00000000000E+00 0.  1.
         11    1    1    2    0    0 -0.56502420652E+01 -0.25923071713E+02  0.41994054534E+01  0.26861978494E+02  0.00000000000E+00 0. -1.
<mgrwt>
<rscale>  0 0.17014514E+03</rscale>
<asrwt>0</asrwt>
<pdfrwt beam="1">  1        1 0.28805125E-01 0.17474814E+03</pdfrwt>
<pdfrwt beam="2">  1       -1 0.23122141E-01 0.17474814E+03</pdfrwt>
<totfact> 0.24835202E+03</totfact>
</mgrwt>
</event>
<event>
 6    1  0.9240440E-006  0.2852129E+03  0.7546771E-02  0.1094690E+00
          2   -1    0    0  501    0  0.00000000000E+00  0.00000000000E+00  0.11726939995E+04  0.11726939995E+04  0.00000000000E+00 0.  1.
         -2   -1    0    0    0  501 -0.00000000000E+00 -0.00000000000E+00 -0.12889867774E+03  0.12889867774E+03  0.00000000000E+00 0. -1.
          5    1    1    2  502    0  0.45119433506E+01  0.19528093709E+03  0.52255306376E+03  0.55788779917E+03  0.47000000000E+01 0.  1.
         -5    1    1    2    0  502  0.39156540774E+02  0.57335705175E+02  0.45963275847E+03  0.46487092879E+03  0.47000000000E+01 0.  1.
        -11    1    1    2    0    0 -0.30511626620E+01 -0.98230145163E+02 -0.18842283930E+02  0.10006749060E+03  0.00000000000E+00 0. -1.
         11    1    1    2    0    0 -0.40617321462E+02 -0.15438649711E+03  0.80451783508E+02  0.17876645871E+03  0.00000000000E+00 0.  1.
<mgrwt>
<rscale>  0 0.28183579E+03</rscale>
<asrwt>0</asrwt>
<pdfrwt beam="1">  1        2 0.18041445E+00 0.28521295E+03</pdfrwt>
<pdfrwt beam="2">  1       -2 0.19830567E-01 0.28521295E+03</pdfrwt>
<totfact> 0.44369942E+02</totfact>
</mgrwt>
</event>
<event>
 6    1  0.9240440E-006  0.1840282E+03  0.7546771E-02  0.1168973E+00
          2   -1    0    0  501    0  0.00000000000E+00  0.00000000000E+00  0.19583182009E+03  0.19583182009E+03  0.00000000000E+00 0. -1.
         -2   -1    0    0    0  501 -0.00000000000E+00 -0.00000000000E+00 -0.15483974228E+03  0.15483974228E+03  0.00000000000E+00 0.  1.
          5    1    1    2  502    0 -0.57725524696E+02 -0.25784640630E+02 -0.13297931600E+02  0.64776607496E+02  0.47000000000E+01 0. -1.
         -5    1    1    2    0  502  0.37179021345E+02 -0.10770291254E+03  0.41746951897E+02  0.12143761769E+03  0.47000000000E+01 0. -1.
        -11    1    1    2    0    0  0.36632673582E+00  0.24391949490E+02 -0.35893533741E+02  0.43398699976E+02  0.00000000000E+00 0.  1.
         11    1    1    2    0    0  0.20180176615E+02  0.10909560368E+03  0.48436591249E+02  0.12105863721E+03  0.00000000000E+00 0. -1.
<mgrwt>
<rscale>  0 0.17879688E+03</rscale>
<asrwt>0</asrwt>
<pdfrwt beam="1">  1        2 0.30127973E-01 0.18402823E+03</pdfrwt>
<pdfrwt beam="2">  1       -2 0.23821499E-01 0.18402823E+03</pdfrwt>
<totfact> 0.26529224E+03</totfact>
</mgrwt>
</event>
<event>
 6    1  0.9240440E-006  0.1380541E+03  0.7546771E-02  0.1223829E+00
          1   -1    0    0  501    0  0.00000000000E+00  0.00000000000E+00  0.20251837531E+03  0.20251837531E+03  0.00000000000E+00 0. -1.
         -1   -1    0    0    0  501 -0.00000000000E+00 -0.00000000000E+00 -0.96404694152E+02  0.96404694152E+02  0.00000000000E+00 0.  1.
          5    1    1    2  502    0 -0.75932406301E+02 -0.32141704078E+02  0.26590855808E+02  0.86763950350E+02  0.47000000000E+01 0. -1.
         -5    1    1    2    0  502  0.35376218368E+01  0.25167477472E+02  0.90946926514E+02  0.94548136592E+02  0.47000000000E+01 0.  1.
        -11    1    1    2    0    0  0.82339728108E+02 -0.11165448487E+01 -0.36015165187E+02  0.89878638289E+02  0.00000000000E+00 0.  1.
         11    1    1    2    0    0 -0.99449436438E+01  0.80907714548E+01  0.24591064020E+02  0.27732344229E+02  0.00000000000E+00 0. -1.
<mgrwt>
<rscale>  0 0.13247514E+03</rscale>
<asrwt>0</asrwt>
<pdfrwt beam="1">  1        1 0.31156673E-01 0.13805413E+03</pdfrwt>
<pdfrwt beam="2">  1       -1 0.14831491E-01 0.13805413E+03</pdfrwt>
<totfact> 0.45325029E+03</totfact>
</mgrwt>
</event>
<event>
 6    1  0.9240440E-006  0.1353932E+03  0.7546771E-02  0.1232976E+00
         -2   -1    0    0    0  501 -0.00000000000E+00  0.00000000000E+00  0.95704529874E+02  0.95704529874E+02  0.00000000000E+00 0.  1.
          2   -1    0    0  501    0  0.00000000000E+00 -0.00000000000E+00 -0.15988527278E+03  0.15988527278E+03  0.00000000000E+00 0. -1.
          5    1    1    2  502    0  0.76673209492E+02  0.29071537866E+02 -0.84293214272E+01  0.82565603174E+02  0.47000000000E+01 0.  1.
         -5    1    1    2    0  502 -0.32002905058E+02 -0.23158366458E+01 -0.62191809830E+02  0.70138863987E+02  0.47000000000E+01 0.  1.
        -11    1    1    2    0    0  0.98793901336E+01  0.67874534391E+01  0.31819326767E+02  0.34002079782E+02  0.00000000000E+00 0.  1.
         11    1    1    2    0    0 -0.54549694568E+02 -0.33543154660E+02 -0.25378938411E+02  0.68883255707E+02  0.00000000000E+00 0. -1.
<mgrwt>
<rscale>  0 0.12634929E+03</rscale>
<asrwt>0</asrwt>
<pdfrwt beam="2">  1        2 0.24597734E-01 0.13539317E+03</pdfrwt>
<pdfrwt beam="1">  1       -2 0.14723774E-01 0.13539317E+03</pdfrwt>
<totfact> 0.73291949E+03</totfact>
</mgrwt>
</event>
<event>
 6    1  0.9240440E-006  0.3133959E+03  0.7546771E-02  0.1078730E+00
          1   -1    0    0  501    0  0.00000000000E+00  0.00000000000E+00  0.79148325957E+03  0.79148325957E+03  0.00000000000E+00 0. -1.
         -1   -1    0    0    0  501 -0.00000000000E+00 -0.00000000000E+00 -0.31023069147E+02  0.31023069147E+02  0.00000000000E+00 0.  1.
          5    1    1    2  502    0  0.26819569185E+02  0.88261945779E+01  0.12826107664E+03  0.13141607506E+03  0.47000000000E+01 0. -1.
         -5    1    1    2    0  502 -0.15436734768E+02 -0.11141224873E+03  0.13798113021E+03  0.17807825314E+03  0.47000000000E+01 0.  1.
        -11    1    1    2    0    0  0.30826316283E+02  0.35587968946E+02  0.95126364611E+02  0.10614042846E+03  0.00000000000E+00 0.  1.
         11    1    1    2    0    0 -0.42209150700E+02  0.66998085211E+02  0.39909161896E+03  0.40687157206E+03  0.00000000000E+00 0. -1.
<mgrwt>
<rscale>  0 0.31339585E+03</rscale>
<asrwt>0</asrwt>
<pdfrwt beam="1">  1        1 0.12176664E+00 0.31339585E+03</pdfrwt>
<pdfrwt beam="2">  1       -1 0.47727805E-02 0.31339585E+03</pdfrwt>
<totfact> 0.44288616E+03</totfact>
</mgrwt>
</event>
<event>
 6    1  0.9240440E-006  0.1379521E+03  0.7546771E-02  0.1226552E+00
         -3   -1    0    0    0  501 -0.00000000000E+00  0.00000000000E+00  0.24840450784E+03  0.24840450784E+03  0.00000000000E+00 0.  1.
          3   -1    0    0  501    0  0.00000000000E+00 -0.00000000000E+00 -0.62432994062E+02  0.62432994062E+02  0.00000000000E+00 0. -1.
          5    1    1    2  502    0  0.56276857719E+02  0.20023188782E+02  0.73666440976E+02  0.94957081515E+02  0.47000000000E+01 0.  1.
         -5    1    1    2    0  502 -0.57930491759E+02  0.38303382898E+02  0.22302386099E+02  0.73092937022E+02  0.47000000000E+01 0.  1.
        -11    1    1    2    0    0 -0.19678414063E+02 -0.70230662244E+02  0.31609879449E+02  0.79490693657E+02  0.00000000000E+00 0. -1.
         11    1    1    2    0    0  0.21332048103E+02  0.11904090563E+02  0.58392807254E+02  0.63296789709E+02  0.00000000000E+00 0.  1.
<mgrwt>
<rscale>  0 0.13061123E+03</rscale>
<asrwt>0</asrwt>
<pdfrwt beam="2">  1        3 0.96050761E-02 0.13795214E+03</pdfrwt>
<pdfrwt beam="1">  1       -3 0.38216078E-01 0.13795214E+03</pdfrwt>
<totfact> 0.12352911E+03</totfact>
</mgrwt>
</event>
<event>
 6    1  0.9240440E-006  0.1942833E+03  0.7546771E-02  0.1175497E+00
          1   -1    0    0  501    0  0.00000000000E+00  0.00000000000E+00  0.86622984132E+03  0.86622984132E+03  0.00000000000E+00 0. -1.
         -1   -1    0    0    0  501 -0.00000000000E+00 -0.00000000000E+00 -0.55310881632E+02  0.55310881632E+02  0.00000000000E+00 0.  1.
          5    1    1    2  502    0 -0.90249060473E+02 -0.87472522997E+02  0.41352293125E+03  0.43222637571E+03  0.47000000000E+01 0. -1.
         -5    1    1    2    0  502  0.57614953790E+02  0.23439994181E+02  0.35727819226E+03  0.36268266141E+03  0.47000000000E+01 0.  1.
        -11    1    1    2    0    0  0.47723089616E+02  0.56580359686E+02 -0.91372699886E+01  0.74580963305E+02  0.00000000000E+00 0.  1.
         11    1    1    2    0    0 -0.15088982933E+02  0.74521691300E+01  0.49255106174E+02  0.52050722521E+02  0.00000000000E+00 0. -1.
<mgrwt>
<rscale>  0 0.17227426E+03</rscale>
<asrwt>0</asrwt>
<pdfrwt beam="1">  1        1 0.13326612E+00 0.19428331E+03</pdfrwt>
<pdfrwt beam="2">  1       -1 0.85093671E-02 0.19428331E+03</pdfrwt>
<totfact> 0.15876388E+03</totfact>
</mgrwt>
</event>
<event>
 6    1  0.9240440E-006  0.1901215E+03  0.7546771E-02  0.1183138E+00
         -3   -1    0    0    0  501 -0.00000000000E+00  0.00000000000E+00  0.44096488748E+02  0.44096488748E+02  0.00000000000E+00 0.  1.
          3   -1    0    0  501    0  0.00000000000E+00 -0.00000000000E+00 -0.10502585876E+04  0.10502585876E+04  0.00000000000E+00 0. -1.
          5    1    1    2  502    0  0.39774225250E+02  0.11651841162E+03 -0.72842432369E+03  0.73877101634E+03  0.47000000000E+01 0. -1.
         -5    1    1    2    0  502 -0.13905200218E+02 -0.60622034248E+02 -0.22868482550E+03  0.23703844634E+03  0.47000000000E+01 0.  1.
        -11    1    1    2    0    0  0.31678471630E+02 -0.20516302953E+02 -0.30405139857E+02  0.48465624740E+02  0.00000000000E+00 0. -1.
         11    1    1    2    0    0 -0.57547496661E+02 -0.35380074421E+02 -0.18647809810E+02  0.70079988932E+02  0.00000000000E+00 0.  1.
<mgrwt>
<rscale>  0 0.16502494E+03</rscale>
<asrwt>0</asrwt>
<pdfrwt beam="2">  1        3 0.16157823E+00 0.19012150E+03</pdfrwt>
<pdfrwt beam="1">  1       -3 0.67840756E-02 0.19012150E+03</pdfrwt>
<totfact> 0.96669859E+01</totfact>
</mgrwt>
</event>
<event>
 6    1  0.9240440E-006  0.1301648E+03  0.7546771E-02  0.1234129E+00
         -1   -1    0    0    0  501 -0.00000000000E+00  0.00000000000E+00  0.59693801681E+03  0.59693801681E+03  0.00000000000E+00 0.  1.
          1   -1    0    0  501    0  0.00000000000E+00 -0.00000000000E+00 -0.26139636908E+02  0.26139636908E+02  0.00000000000E+00 0. -1.
          5    1    1    2  502    0 -0.59393456033E+02  0.65811213101E+02  0.15775051023E+03  0.18101384441E+03  0.47000000000E+01 0. -1.
         -5    1    1    2    0  502 -0.34134936401E+01 -0.40978130726E+02  0.74817036131E+02  0.85501684381E+02  0.47000000000E+01 0.  1.
        -11    1    1    2    0    0  0.81322382663E+02 -0.20298237982E+02  0.31759468026E+03  0.32846876460E+03  0.00000000000E+00 0.  1.
         11    1    1    2    0    0 -0.18515432990E+02 -0.45348443926E+01  0.20636153282E+02  0.28093360332E+02  0.00000000000E+00 0. -1.
<mgrwt>
<rscale>  0 0.12560332E+03</rscale>
<asrwt>0</asrwt>
<pdfrwt beam="2">  1        1 0.40214831E-02 0.13016476E+03</pdfrwt>
<pdfrwt beam="1">  1       -1 0.91836608E-01 0.13016476E+03</pdfrwt>
<totfact> 0.26448556E+03</totfact>
</mgrwt>
</event>
<event>
 6    1  0.9240440E-006  0.2094500E+03  0.7546771E-02  0.1145888E+00
          2   -1    0    0  501    0  0.00000000000E+00  0.00000000000E+00  0.54888789859E+02  0.54888789859E+02  0.00000000000E+00 0. -1.
         -2   -1    0    0    0  501 -0.00000000000E+00 -0.00000000000E+00 -0.73049030084E+03  0.73049030084E+03  0.00000000000E+00 0.  1.
          5    1    1    2  502    0  0.20810944386E+02  0.30908403929E+02 -0.21608554923E+03  0.21932505426E+03  0.47000000000E+01 0. -1.
         -5    1    1    2    0  502  0.62502991275E+02  0.11490048411E+03 -0.12531045469E+03  0.18120029035E+03  0.47000000000E+01 0. -1.
        -11    1    1    2    0    0 -0.62954007830E+02 -0.14540481564E+03 -0.23398860394E+03  0.28258880779E+03  0.00000000000E+00 0.  1.
         11    1    1    2    0    0 -0.20359927831E+02 -0.40407239545E+00 -0.10021690313E+03  0.10226493831E+03  0.00000000000E+00 0. -1.
<mgrwt>
<rscale>  0 0.20463338E+03</rscale>
<asrwt>0</asrwt>
<pdfrwt beam="1">  1        2 0.84444293E-02 0.20945004E+03</pdfrwt>
<pdfrwt beam="2">  1       -2 0.11238312E+00 0.20945004E+03</pdfrwt>
<totfact> 0.51354238E+02</totfact>
</mgrwt>
</event>
<event>
 6    1  0.9240440E-006  0.2240627E+03  0.7546771E-02  0.1133905E+00
          1   -1    0    0  501    0  0.00000000000E+00  0.00000000000E+00  0.17452218370E+03  0.17452218370E+03  0.00000000000E+00 0. -1.
         -1   -1    0    0    0  501 -0.00000000000E+00 -0.00000000000E+00 -0.26821991428E+03  0.26821991428E+03  0.00000000000E+00 0.  1.
          5    1    1    2  502    0  0.12465572532E+03  0.10071086457E+03 -0.15862641534E+02  0.16110692566E+03  0.47000000000E+01 0.  1.
         -5    1    1    2    0  502 -0.25621640617E+02  0.56682406472E+02 -0.21910092866E+02  0.66117364140E+02  0.47000000000E+01 0.  1.
        -11    1    1    2    0    0 -0.97586564286E+02 -0.10476706314E+03 -0.72285042267E+02  0.16038828630E+03  0.00000000000E+00 0.  1.
         11    1    1    2    0    0 -0.14475204200E+01 -0.52626207908E+02  0.16360046095E+02  0.55129521876E+02  0.00000000000E+00 0. -1.
<mgrwt>
<rscale>  0 0.21997010E+03</rscale>
<asrwt>0</asrwt>
<pdfrwt beam="1">  1        1 0.26849567E-01 0.22406271E+03</pdfrwt>
<pdfrwt beam="2">  1       -1 0.41264602E-01 0.22406271E+03</pdfrwt>
<totfact> 0.10174058E+03</totfact>
</mgrwt>
</event>
<event>
 6    1  0.9240440E-006  0.2606342E+03  0.7546771E-02  0.1146547E+00
          1   -1    0    0  501    0  0.00000000000E+00  0.00000000000E+00  0.43388714795E+03  0.43388714795E+03  0.00000000000E+00 0. -1.
         -1   -1    0    0    0  501 -0.00000000000E+00 -0.00000000000E+00 -0.75533784877E+02  0.75533784877E+02  0.00000000000E+00 0.  1.
          5    1    1    2  502    0  0.29155313534E+02 -0.10706976894E+03  0.23352223839E+03  0.25858981718E+03  0.47000000000E+01 0. -1.
         -5    1    1    2    0  502  0.46451349783E+01  0.11922347307E+03  0.58957927521E+02  0.13316884406E+03  0.47000000000E+01 0.  1.
        -11    1    1    2    0    0  0.23690176988E+02 -0.24288266930E+02  0.42608616081E+02  0.54466857450E+02  0.00000000000E+00 0.  1.
         11    1    1    2    0    0 -0.57490625501E+02  0.12134562804E+02  0.23264581081E+02  0.63195414136E+02  0.00000000000E+00 0. -1.
<mgrwt>
<rscale>  0 0.20383012E+03</rscale>
<asrwt>0</asrwt>
<pdfrwt beam="1">  1        1 0.66751867E-01 0.26063423E+03</pdfrwt>
<pdfrwt beam="2">  1       -1 0.11620583E-01 0.26063423E+03</pdfrwt>
<totfact> 0.26146871E+03</totfact>
</mgrwt>
</event>
<event>
 6    1  0.9240440E-006  0.1489217E+03  0.7546771E-02  0.1210967E+00
         -2   -1    0    0    0  501 -0.00000000000E+00  0.00000000000E+00  0.12728513236E+03  0.12728513236E+03  0.00000000000E+00 0.  1.
          2   -1    0    0  501    0  0.00000000000E+00 -0.00000000000E+00 -0.14931458741E+03  0.14931458741E+03  0.00000000000E+00 0. -1.
          5    1    1    2  502    0  0.84861972714E+02  0.32189627007E+02 -0.40213754521E+02  0.99382908754E+02  0.47000000000E+01 0. -1.
         -5    1    1    2    0  502 -0.40357992533E+02  0.35431518836E+02  0.34156682548E+01  0.54017745954E+02  0.47000000000E+01 0. -1.
        -11    1    1    2    0    0 -0.40288642174E+02 -0.10060953422E+02  0.42280792702E+02  0.59262660280E+02  0.00000000000E+00 0.  1.
         11    1    1    2    0    0 -0.42153380074E+01 -0.57560192421E+02 -0.27512161487E+02  0.63936404777E+02  0.00000000000E+00 0. -1.
<mgrwt>
<rscale>  0 0.14177005E+03</rscale>
<asrwt>0</asrwt>
<pdfrwt beam="2">  1        2 0.22971475E-01 0.14892166E+03</pdfrwt>
<pdfrwt beam="1">  1       -2 0.19582328E-01 0.14892166E+03</pdfrwt>
<totfact> 0.49573019E+03</totfact>
</mgrwt>
</event>
<event>
 6    1  0.9240440E-006  0.1470903E+03  0.7546771E-02  0.1213937E+00
          1   -1    0    0  501    0  0.00000000000E+00  0.00000000000E+00  0.56113809410E+03  0.56113809410E+03  0.00000000000E+00 0. -1.
         -1   -1    0    0    0  501 -0.00000000000E+00 -0.00000000000E+00 -0.37568711943E+02  0.37568711943E+02  0.00000000000E+00 0.  1.
          5    1    1    2  502    0  0.53019987760E+01  0.97817970731E+02  0.31798856569E+03  0.33276911590E+03  0.47000000000E+01 0. -1.
         -5    1    1    2    0  502  0.33062807110E+02 -0.30453345698E+02  0.85796457393E+02  0.96972560961E+02  0.47000000000E+01 0. -1.
        -11    1    1    2    0    0 -0.48033585118E+02 -0.31046525473E+02  0.17216937046E+02  0.59728845330E+02  0.00000000000E+00 0.  1.
         11    1    1    2    0    0  0.96687792316E+01 -0.36318099561E+02  0.10256742203E+03  0.10923628385E+03  0.00000000000E+00 0. -1.
<mgrwt>
<rscale>  0 0.13954930E+03</rscale>
<asrwt>0</asrwt>
<pdfrwt beam="1">  1        1 0.86328931E-01 0.14709033E+03</pdfrwt>
<pdfrwt beam="2">  1       -1 0.57798023E-02 0.14709033E+03</pdfrwt>
<totfact> 0.52887202E+03</totfact>
</mgrwt>
</event>
<event>
 6    1  0.9240440E-006  0.1256111E+03  0.7546771E-02  0.1249978E+00
         -4   -1    0    0    0  501 -0.00000000000E+00  0.00000000000E+00  0.64408483334E+02  0.64408483334E+02  0.00000000000E+00 0.  1.
          4   -1    0    0  501    0  0.00000000000E+00 -0.00000000000E+00 -0.20337442459E+03  0.20337442459E+03  0.00000000000E+00 0. -1.
          5    1    1    2  502    0 -0.47943994372E+02 -0.27057267774E+02 -0.10071797325E+03  0.11487785892E+03  0.47000000000E+01 0. -1.
         -5    1    1    2    0  502  0.53757922175E+02  0.16187955567E+02 -0.21270867091E+02  0.60220460716E+02  0.47000000000E+01 0. -1.
        -11    1    1    2    0    0  0.64898154887E+01 -0.29251281359E+02 -0.35806553843E+02  0.46689018670E+02  0.00000000000E+00 0. -1.
         11    1    1    2    0    0 -0.12303743292E+02  0.40120593566E+02  0.18829452923E+02  0.45995569618E+02  0.00000000000E+00 0.  1.
<mgrwt>
<rscale>  0 0.11592316E+03</rscale>
<asrwt>0</asrwt>
<pdfrwt beam="2">  1        4 0.31288373E-01 0.12561108E+03</pdfrwt>
<pdfrwt beam="1">  1       -4 0.99089975E-02 0.12561108E+03</pdfrwt>
<totfact> 0.12258431E+03</totfact>
</mgrwt>
</event>
<event>
 6    1  0.9240440E-006  0.1489545E+03  0.7546771E-02  0.1211482E+00
         -2   -1    0    0    0  501 -0.00000000000E+00  0.00000000000E+00  0.39125974887E+02  0.39125974887E+02  0.00000000000E+00 0. -1.
          2   -1    0    0  501    0  0.00000000000E+00 -0.00000000000E+00 -0.46551853275E+03  0.46551853275E+03  0.00000000000E+00 0.  1.
          5    1    1    2  502    0  0.10057653585E+02  0.37543198088E+02 -0.12071554431E+03  0.12690540081E+03  0.47000000000E+01 0.  1.
         -5    1    1    2    0  502 -0.90999069945E+02 -0.41150116218E+02 -0.12028668090E+03  0.15641335748E+03  0.47000000000E+01 0.  1.
        -11    1    1    2    0    0  0.46921691010E+02  0.41822793573E+01 -0.18098725874E+03  0.18701744404E+03  0.00000000000E+00 0.  1.
         11    1    1    2    0    0  0.34019725351E+02 -0.57536122732E+00 -0.44030739189E+01  0.34308305312E+02  0.00000000000E+00 0. -1.
<mgrwt>
<rscale>  0 0.14138131E+03</rscale>
<asrwt>0</asrwt>
<pdfrwt beam="2">  1        2 0.71618236E-01 0.14895451E+03</pdfrwt>
<pdfrwt beam="1">  1       -2 0.60193807E-02 0.14895451E+03</pdfrwt>
<totfact> 0.95195812E+03</totfact>
</mgrwt>
</event>
<event>
 6    1  0.9240440E-006  0.1549663E+03  0.7546771E-02  0.1202344E+00
          1   -1    0    0  501    0  0.00000000000E+00  0.00000000000E+00  0.50280862251E+03  0.50280862251E+03  0.00000000000E+00 0. -1.
         -1   -1    0    0    0  501 -0.00000000000E+00 -0.00000000000E+00 -0.79356377480E+02  0.79356377480E+02  0.00000000000E+00 0.  1.
          5    1    1    2  502    0 -0.27613376475E+02  0.47587360109E+02  0.18153789873E+03  0.18975024131E+03  0.47000000000E+01 0. -1.
         -5    1    1    2    0  502  0.97659170553E+02  0.11428241452E+02  0.24256936620E+03  0.26178217226E+03  0.47000000000E+01 0. -1.
        -11    1    1    2    0    0 -0.84291813330E+01  0.17835366926E+02 -0.22307403679E+02  0.29778711695E+02  0.00000000000E+00 0.  1.
         11    1    1    2    0    0 -0.61616612745E+02 -0.76850968487E+02  0.21652383785E+02  0.10085387473E+03  0.00000000000E+00 0. -1.
<mgrwt>
<rscale>  0 0.14848734E+03</rscale>
<asrwt>0</asrwt>
<pdfrwt beam="1">  1        1 0.77355171E-01 0.15496628E+03</pdfrwt>
<pdfrwt beam="2">  1       -1 0.12208674E-01 0.15496628E+03</pdfrwt>
<totfact> 0.19705890E+03</totfact>
</mgrwt>
</event>
<event>
 6    1  0.9240440E-006  0.1319853E+03  0.7546771E-02  0.1237458E+00
         -2   -1    0    0    0  501 -0.00000000000E+00  0.00000000000E+00  0.13118980780E+02  0.13118980780E+02  0.00000000000E+00 0.  1.
          2   -1    0    0  501    0  0.00000000000E+00 -0.00000000000E+00 -0.12344609276E+04  0.12344609276E+04  0.00000000000E+00 0. -1.
          5    1    1    2  502    0 -0.12695399296E+02  0.49832179354E+02 -0.49589461872E+03  0.49857595423E+03  0.47000000000E+01 0.  1.
         -5    1    1    2    0  502 -0.23161070123E+02 -0.72352475983E+02 -0.43114346739E+03  0.43781057025E+03  0.47000000000E+01 0.  1.
        -11    1    1    2    0    0  0.13495268926E+02  0.56139552541E+02 -0.13453770173E+03  0.14640411480E+03  0.00000000000E+00 0.  1.
         11    1    1    2    0    0  0.22361200493E+02 -0.33619255912E+02 -0.15976615899E+03  0.16478926912E+03  0.00000000000E+00 0. -1.
<mgrwt>
<rscale>  0 0.12348388E+03</rscale>
<asrwt>0</asrwt>
<pdfrwt beam="2">  1        2 0.18991710E+00 0.13198526E+03</pdfrwt>
<pdfrwt beam="1">  1       -2 0.20183044E-02 0.13198526E+03</pdfrwt>
<totfact> 0.14026884E+04</totfact>
</mgrwt>
</event>
<event>
 6    1  0.9240440E-006  0.3325539E+03  0.7546771E-02  0.1070012E+00
         -2   -1    0    0    0  501 -0.00000000000E+00  0.00000000000E+00  0.13623501015E+02  0.13623501015E+02  0.00000000000E+00 0.  1.
          2   -1    0    0  501    0  0.00000000000E+00 -0.00000000000E+00 -0.20294354418E+04  0.20294354418E+04  0.00000000000E+00 0. -1.
          5    1    1    2  502    0  0.39377644033E+02 -0.10085226752E+03 -0.15072703549E+04  0.15111610740E+04  0.47000000000E+01 0.  1.
         -5    1    1    2    0  502  0.77371713255E-01  0.43185156433E+01 -0.17557106087E+01  0.66202782030E+01  0.47000000000E+01 0.  1.
        -11    1    1    2    0    0 -0.42242098553E+02  0.68590157701E+00 -0.15194647144E+03  0.15771048010E+03  0.00000000000E+00 0.  1.
         11    1    1    2    0    0  0.27870828075E+01  0.95847850300E+02 -0.35483940387E+03  0.36756711057E+03  0.00000000000E+00 0. -1.
<mgrwt>
<rscale>  0 0.33255385E+03</rscale>
<asrwt>0</asrwt>
<pdfrwt beam="2">  1        2 0.31222073E+00 0.33255385E+03</pdfrwt>
<pdfrwt beam="1">  1       -2 0.20959239E-02 0.33255385E+03</pdfrwt>
<totfact> 0.51702541E+03</totfact>
</mgrwt>
</event>
<event>
 6    1  0.9240440E-006  0.1376358E+03  0.7546771E-02  0.1226470E+00
          1   -1    0    0  501    0  0.00000000000E+00  0.00000000000E+00  0.32094658331E+03  0.32094658331E+03  0.00000000000E+00 0. -1.
         -1   -1    0    0    0  501 -0.00000000000E+00 -0.00000000000E+00 -0.57529522611E+02  0.57529522611E+02  0.00000000000E+00 0.  1.
          5    1    1    2  502    0 -0.18633155898E+02  0.12475871661E+02  0.14379959670E+03  0.14561337811E+03  0.47000000000E+01 0. -1.
         -5    1    1    2    0  502  0.31112448250E+02 -0.78049012413E+02  0.74167292692E+02  0.11217178825E+03  0.47000000000E+01 0.  1.
        -11    1    1    2    0    0  0.24605817841E+02 -0.93306346015E+01  0.20820648672E+02  0.33556019204E+02  0.00000000000E+00 0.  1.
         11    1    1    2    0    0 -0.37085110194E+02  0.74903775353E+02  0.24629522635E+02  0.87134920357E+02  0.00000000000E+00 0. -1.
<mgrwt>
<rscale>  0 0.13066671E+03</rscale>
<asrwt>0</asrwt>
<pdfrwt beam="1">  1        1 0.49376396E-01 0.13763585E+03</pdfrwt>
<pdfrwt beam="2">  1       -1 0.88506960E-02 0.13763585E+03</pdfrwt>
<totfact> 0.56737165E+03</totfact>
</mgrwt>
</event>
<event>
 6    1  0.9240440E-006  0.1288015E+03  0.7546771E-02  0.1243242E+00
         -2   -1    0    0    0  501 -0.00000000000E+00  0.00000000000E+00  0.53925360706E+02  0.53925360706E+02  0.00000000000E+00 0.  1.
          2   -1    0    0  501    0  0.00000000000E+00 -0.00000000000E+00 -0.23706566297E+03  0.23706566297E+03  0.00000000000E+00 0. -1.
          5    1    1    2  502    0  0.16460670908E+02  0.56387563697E+02 -0.86120785834E+02  0.10435224377E+03  0.47000000000E+01 0.  1.
         -5    1    1    2    0  502  0.14297750846E+02 -0.59982578803E+02 -0.28613924794E+02  0.68140899108E+02  0.47000000000E+01 0.  1.
        -11    1    1    2    0    0 -0.11039765264E+02 -0.33839073706E+02  0.27639292891E+01  0.35701521417E+02  0.00000000000E+00 0.  1.
         11    1    1    2    0    0 -0.19718656490E+02  0.37434088811E+02 -0.71169520927E+02  0.82796359388E+02  0.00000000000E+00 0. -1.
<mgrwt>
<rscale>  0 0.11991245E+03</rscale>
<asrwt>0</asrwt>
<pdfrwt beam="2">  1        2 0.36471640E-01 0.12880152E+03</pdfrwt>
<pdfrwt beam="1">  1       -2 0.82962094E-02 0.12880152E+03</pdfrwt>
<totfact> 0.11829813E+04</totfact>
</mgrwt>
</event>
<event>
 6    1  0.9240440E-006  0.1277862E+03  0.7546771E-02  0.1246401E+00
          3   -1    0    0  501    0  0.00000000000E+00  0.00000000000E+00  0.32111970897E+02  0.32111970897E+02  0.00000000000E+00 0. -1.
         -3   -1    0    0    0  501 -0.00000000000E+00 -0.00000000000E+00 -0.38739342386E+03  0.38739342386E+03  0.00000000000E+00 0.  1.
          5    1    1    2  502    0  0.39489350466E+02  0.19375270064E+02 -0.14810722097E+03  0.15457247101E+03  0.47000000000E+01 0. -1.
         -5    1    1    2    0  502 -0.55913528634E+02  0.16231255011E+01 -0.27231765278E+02  0.62390834751E+02  0.47000000000E+01 0. -1.
        -11    1    1    2    0    0 -0.11464636953E+02 -0.26929241165E+02 -0.16976216326E+03  0.17226669442E+03  0.00000000000E+00 0.  1.
         11    1    1    2    0    0  0.27888815121E+02  0.59308455996E+01 -0.10180303449E+02  0.30275394576E+02  0.00000000000E+00 0. -1.
<mgrwt>
<rscale>  0 0.11801912E+03</rscale>
<asrwt>0</asrwt>
<pdfrwt beam="1">  1        3 0.49403031E-02 0.12778621E+03</pdfrwt>
<pdfrwt beam="2">  1       -3 0.59598990E-01 0.12778621E+03</pdfrwt>
<totfact> 0.14761964E+03</totfact>
</mgrwt>
</event>
<event>
 6    1  0.9240440E-006  0.3766204E+03  0.7546771E-02  0.1052190E+00
         -2   -1    0    0    0  501 -0.00000000000E+00  0.00000000000E+00  0.25944225077E+02  0.25944225077E+02  0.00000000000E+00 0. -1.
          2   -1    0    0  501    0  0.00000000000E+00 -0.00000000000E+00 -0.13668066632E+04  0.13668066632E+04  0.00000000000E+00 0.  1.
          5    1    1    2  502    0  0.54108517523E+01 -0.18231720823E+02 -0.71465022796E+03  0.71491867460E+03  0.47000000000E+01 0.  1.
         -5    1    1    2    0  502  0.72390650162E+02 -0.66871020050E+02 -0.36754776956E+03  0.38055957807E+03  0.47000000000E+01 0.  1.
        -11    1    1    2    0    0 -0.64046630264E+01  0.54124301991E+02 -0.47762522666E+02  0.72468740474E+02  0.00000000000E+00 0. -1.
         11    1    1    2    0    0 -0.71396838888E+02  0.30978438882E+02 -0.21090191793E+03  0.22480389513E+03  0.00000000000E+00 0.  1.
<mgrwt>
<rscale>  0 0.37662044E+03</rscale>
<asrwt>0</asrwt>
<pdfrwt beam="2">  1        2 0.21027798E+00 0.37662044E+03</pdfrwt>
<pdfrwt beam="1">  1       -2 0.39914187E-02 0.37662044E+03</pdfrwt>
<totfact> 0.44569364E+03</totfact>
</mgrwt>
</event>
<event>
 6    1  0.9240440E-006  0.1362591E+03  0.7546771E-02  0.1231180E+00
         -2   -1    0    0    0  501 -0.00000000000E+00  0.00000000000E+00  0.77264411676E+02  0.77264411676E+02  0.00000000000E+00 0.  1.
          2   -1    0    0  501    0  0.00000000000E+00 -0.00000000000E+00 -0.20888489175E+03  0.20888489175E+03  0.00000000000E+00 0. -1.
          5    1    1    2  502    0  0.13087662818E+02  0.40185626551E+02 -0.63961058417E+01  0.43001996108E+02  0.47000000000E+01 0.  1.
         -5    1    1    2    0  502 -0.67257398982E+02 -0.42385077676E+02 -0.11251636861E+03  0.13784801679E+03  0.47000000000E+01 0.  1.
        -11    1    1    2    0    0  0.19841522902E+02 -0.40421576085E+01 -0.50172069411E+02  0.54104173759E+02  0.00000000000E+00 0. -1.
         11    1    1    2    0    0  0.34328213262E+02  0.62416087335E+01  0.37464063790E+02  0.51195116769E+02  0.00000000000E+00 0.  1.
<mgrwt>
<rscale>  0 0.12752170E+03</rscale>
<asrwt>0</asrwt>
<pdfrwt beam="2">  1        2 0.32136137E-01 0.13625913E+03</pdfrwt>
<pdfrwt beam="1">  1       -2 0.11886833E-01 0.13625913E+03</pdfrwt>
<totfact> 0.77370158E+03</totfact>
</mgrwt>
</event>
<event>
 6    1  0.9240440E-006  0.1528914E+03  0.7546771E-02  0.1205708E+00
          2   -1    0    0  501    0  0.00000000000E+00  0.00000000000E+00  0.10513387277E+04  0.10513387277E+04  0.00000000000E+00 0. -1.
         -2   -1    0    0    0  501 -0.00000000000E+00 -0.00000000000E+00 -0.23669260332E+02  0.23669260332E+02  0.00000000000E+00 0.  1.
          5    1    1    2  502    0  0.39552398087E+02 -0.54329429340E+02  0.15551648464E+03  0.16948022328E+03  0.47000000000E+01 0.  1.
         -5    1    1    2    0  502  0.24212240997E+02 -0.63725355358E+01  0.64518149627E+03  0.64568420683E+03  0.47000000000E+01 0.  1.
        -11    1    1    2    0    0 -0.11714405578E+02 -0.23869298024E+02  0.38159512457E+02  0.46509343977E+02  0.00000000000E+00 0.  1.
         11    1    1    2    0    0 -0.52050233506E+02  0.84571262900E+02  0.18881197404E+03  0.21333421399E+03  0.00000000000E+00 0. -1.
<mgrwt>
<rscale>  0 0.14581804E+03</rscale>
<asrwt>0</asrwt>
<pdfrwt beam="1">  1        2 0.16174438E+00 0.15289144E+03</pdfrwt>
<pdfrwt beam="2">  1       -2 0.36414255E-02 0.15289144E+03</pdfrwt>
<totfact> 0.75477911E+03</totfact>
</mgrwt>
</event>
<event>
 6    1  0.9240440E-006  0.3809755E+03  0.7546771E-02  0.1051513E+00
          2   -1    0    0  501    0  0.00000000000E+00  0.00000000000E+00  0.55750324596E+03  0.55750324596E+03  0.00000000000E+00 0. -1.
         -2   -1    0    0    0  501 -0.00000000000E+00 -0.00000000000E+00 -0.25351643374E+03  0.25351643374E+03  0.00000000000E+00 0.  1.
          5    1    1    2  502    0  0.19528586445E+03  0.26312255838E+03  0.16774645263E+03  0.36814536796E+03  0.47000000000E+01 0.  1.
         -5    1    1    2    0  502 -0.22539039961E+01  0.40614083599E+02 -0.13143178999E+02  0.43004848843E+02  0.47000000000E+01 0.  1.
        -11    1    1    2    0    0 -0.13798808460E+03 -0.26106046553E+03  0.91007681898E+02  0.30899138551E+03  0.00000000000E+00 0.  1.
         11    1    1    2    0    0 -0.55043875852E+02 -0.42676176449E+02  0.58375856697E+02  0.90878077390E+02  0.00000000000E+00 0. -1.
<mgrwt>
<rscale>  0 0.37843583E+03</rscale>
<asrwt>0</asrwt>
<pdfrwt beam="1">  1        2 0.85769730E-01 0.38097550E+03</pdfrwt>
<pdfrwt beam="2">  1       -2 0.39002529E-01 0.38097550E+03</pdfrwt>
<totfact> 0.34404688E+02</totfact>
</mgrwt>
</event>
<event>
 6    1  0.9240440E-006  0.1258087E+03  0.7546771E-02  0.1279727E+00
         -2   -1    0    0    0  501 -0.00000000000E+00  0.00000000000E+00  0.21708144709E+02  0.21708144709E+02  0.00000000000E+00 0.  1.
          2   -1    0    0  501    0  0.00000000000E+00 -0.00000000000E+00 -0.36557805051E+03  0.36557805051E+03  0.00000000000E+00 0. -1.
          5    1    1    2  502    0  0.27488285887E+02 -0.33278393035E+00 -0.25340799191E+03  0.25493806497E+03  0.47000000000E+01 0. -1.
         -5    1    1    2    0  502 -0.35992305508E+02 -0.11041001853E+02 -0.13739813979E+02  0.40351236237E+02  0.47000000000E+01 0. -1.
        -11    1    1    2    0    0  0.19962102733E+02  0.25309045857E+02 -0.55107050306E+02  0.63842151759E+02  0.00000000000E+00 0. -1.
         11    1    1    2    0    0 -0.11458083112E+02 -0.13935260074E+02 -0.21615049604E+02  0.28154742252E+02  0.00000000000E+00 0.  1.
<mgrwt>
<rscale>  0 0.10027100E+03</rscale>
<asrwt>0</asrwt>
<pdfrwt beam="2">  1        2 0.56242772E-01 0.12580867E+03</pdfrwt>
<pdfrwt beam="1">  1       -2 0.33397148E-02 0.12580867E+03</pdfrwt>
<totfact> 0.29341054E+04</totfact>
</mgrwt>
</event>
<event>
 6    1  0.9240440E-006  0.1368601E+03  0.7546771E-02  0.1229817E+00
         -2   -1    0    0    0  501 -0.00000000000E+00  0.00000000000E+00  0.16123754483E+03  0.16123754483E+03  0.00000000000E+00 0.  1.
          2   -1    0    0  501    0  0.00000000000E+00 -0.00000000000E+00 -0.13245435484E+03  0.13245435484E+03  0.00000000000E+00 0. -1.
          5    1    1    2  502    0  0.39719851084E+01  0.43862719662E+02 -0.29272016082E+02  0.53091013999E+02  0.47000000000E+01 0. -1.
         -5    1    1    2    0  502 -0.48003534895E+02 -0.78040818245E+02 -0.36252131071E+02  0.98645910619E+02  0.47000000000E+01 0. -1.
        -11    1    1    2    0    0  0.23860225294E+02 -0.61755032314E+01  0.93646904534E+02  0.96835891694E+02  0.00000000000E+00 0.  1.
         11    1    1    2    0    0  0.20171324493E+02  0.40353601813E+02  0.66043260988E+00  0.45119083350E+02  0.00000000000E+00 0. -1.
<mgrwt>
<rscale>  0 0.12842130E+03</rscale>
<asrwt>0</asrwt>
<pdfrwt beam="2">  1        2 0.20377593E-01 0.13686008E+03</pdfrwt>
<pdfrwt beam="1">  1       -2 0.24805776E-01 0.13686008E+03</pdfrwt>
<totfact> 0.37597517E+03</totfact>
</mgrwt>
</event>
<event>
 6    1  0.9240440E-006  0.1838427E+03  0.7546771E-02  0.1169266E+00
         -2   -1    0    0    0  501 -0.00000000000E+00  0.00000000000E+00  0.50581053486E+02  0.50581053486E+02  0.00000000000E+00 0.  1.
          2   -1    0    0  501    0  0.00000000000E+00 -0.00000000000E+00 -0.87833064347E+03  0.87833064347E+03  0.00000000000E+00 0. -1.
          5    1    1    2  502    0  0.10128612565E+03  0.35475694841E+02 -0.44931200193E+03  0.46197485781E+03  0.47000000000E+01 0.  1.
         -5    1    1    2    0  502 -0.20177458831E+02  0.72198966654E+02 -0.24419620819E+03  0.25548717918E+03  0.47000000000E+01 0.  1.
        -11    1    1    2    0    0 -0.27926011601E+02 -0.15504090335E+02 -0.91252061729E+02  0.96680803218E+02  0.00000000000E+00 0. -1.
         11    1    1    2    0    0 -0.53182655222E+02 -0.92170571160E+02 -0.42989318135E+02  0.11476885674E+03  0.00000000000E+00 0.  1.
<mgrwt>
<rscale>  0 0.17849612E+03</rscale>
<asrwt>0</asrwt>
<pdfrwt beam="2">  1        2 0.13512779E+00 0.18384270E+03</pdfrwt>
<pdfrwt beam="1">  1       -2 0.77817007E-02 0.18384270E+03</pdfrwt>
<totfact> 0.30688629E+03</totfact>
</mgrwt>
</event>
<event>
 6    1  0.9240440E-006  0.1258428E+03  0.7546771E-02  0.1263984E+00
         -2   -1    0    0    0  501 -0.00000000000E+00  0.00000000000E+00  0.47050102978E+02  0.47050102978E+02  0.00000000000E+00 0.  1.
          2   -1    0    0  501    0  0.00000000000E+00 -0.00000000000E+00 -0.21830953088E+03  0.21830953088E+03  0.00000000000E+00 0. -1.
          5    1    1    2  502    0  0.49779819679E+02  0.21153172335E+02 -0.86730836126E+02  0.10232211434E+03  0.47000000000E+01 0.  1.
         -5    1    1    2    0  502 -0.62608975308E+02 -0.26348761430E+02 -0.57775661827E+02  0.89298701657E+02  0.47000000000E+01 0.  1.
        -11    1    1    2    0    0  0.12929947983E+02 -0.30368419875E+02 -0.10495580550E+02  0.34634977864E+02  0.00000000000E+00 0.  1.
         11    1    1    2    0    0 -0.10079235374E+00  0.35564008971E+02 -0.16257349396E+02  0.39103839998E+02  0.00000000000E+00 0. -1.
<mgrwt>
<rscale>  0 0.10817664E+03</rscale>
<asrwt>0</asrwt>
<pdfrwt beam="2">  1        2 0.33586081E-01 0.12584280E+03</pdfrwt>
<pdfrwt beam="1">  1       -2 0.72384775E-02 0.12584280E+03</pdfrwt>
<totfact> 0.15903241E+04</totfact>
</mgrwt>
</event>
<event>
 6    1  0.9240440E-006  0.1430139E+03  0.7546771E-02  0.1219678E+00
         -1   -1    0    0    0  501 -0.00000000000E+00  0.00000000000E+00  0.17066195255E+03  0.17066195255E+03  0.00000000000E+00 0.  1.
          1   -1    0    0  501    0  0.00000000000E+00 -0.00000000000E+00 -0.10126542997E+03  0.10126542997E+03  0.00000000000E+00 0. -1.
          5    1    1    2  502    0 -0.88988447821E+02 -0.37467441552E+02  0.11616503057E+02  0.97364193446E+02  0.47000000000E+01 0.  1.
         -5    1    1    2    0  502  0.43393776100E+02 -0.14983051014E+02  0.34247222615E+00  0.46148877659E+02  0.47000000000E+01 0.  1.
        -11    1    1    2    0    0  0.54379255104E+02  0.40202312020E+02 -0.14363014063E+01  0.67641645745E+02  0.00000000000E+00 0. -1.
         11    1    1    2    0    0 -0.87845833827E+01  0.12248180546E+02  0.58873848699E+02  0.60772665669E+02  0.00000000000E+00 0.  1.
<mgrwt>
<rscale>  0 0.13538456E+03</rscale>
<asrwt>0</asrwt>
<pdfrwt beam="2">  1        1 0.15579297E-01 0.14301393E+03</pdfrwt>
<pdfrwt beam="1">  1       -1 0.26255685E-01 0.14301393E+03</pdfrwt>
<totfact> 0.43631308E+03</totfact>
</mgrwt>
</event>
<event>
 6    1  0.9240440E-006  0.1681860E+03  0.7546771E-02  0.1186879E+00
         -2   -1    0    0    0  501 -0.00000000000E+00  0.00000000000E+00  0.30483496860E+02  0.30483496860E+02  0.00000000000E+00 0.  1.
          2   -1    0    0  501    0  0.00000000000E+00 -0.00000000000E+00 -0.10979090338E+04  0.10979090338E+04  0.00000000000E+00 0. -1.
          5    1    1    2  502    0  0.82840290494E+02 -0.10164302515E+03 -0.80689889733E+03  0.81749724086E+03  0.47000000000E+01 0.  1.
         -5    1    1    2    0  502 -0.82895758761E+00  0.24689865152E+02 -0.52596262126E+02  0.58298656945E+02  0.47000000000E+01 0.  1.
        -11    1    1    2    0    0 -0.51333895071E+02  0.92941373767E+02 -0.17584755728E+03  0.20541575194E+03  0.00000000000E+00 0. -1.
         11    1    1    2    0    0 -0.30677437836E+02 -0.15988213768E+02 -0.32082820155E+02  0.47180880881E+02  0.00000000000E+00 0.  1.
<mgrwt>
<rscale>  0 0.16162059E+03</rscale>
<asrwt>0</asrwt>
<pdfrwt beam="2">  1        2 0.16890906E+00 0.16818598E+03</pdfrwt>
<pdfrwt beam="1">  1       -2 0.46897695E-02 0.16818598E+03</pdfrwt>
<totfact> 0.48755168E+03</totfact>
</mgrwt>
</event>
<event>
 6    1  0.9240440E-006  0.3338388E+03  0.7546771E-02  0.1069451E+00
          4   -1    0    0  501    0  0.00000000000E+00  0.00000000000E+00  0.10802057106E+03  0.10802057106E+03  0.00000000000E+00 0. -1.
         -4   -1    0    0    0  501 -0.00000000000E+00 -0.00000000000E+00 -0.25793320257E+03  0.25793320257E+03  0.00000000000E+00 0.  1.
          5    1    1    2  502    0 -0.24565501966E+02  0.53747695810E+02 -0.41418258138E+02  0.72317638228E+02  0.47000000000E+01 0.  1.
         -5    1    1    2    0  502 -0.93115121688E+02 -0.46446536782E+02  0.11631297985E+01  0.10416885109E+03  0.47000000000E+01 0.  1.
        -11    1    1    2    0    0  0.55820995184E+02 -0.46750761555E+02 -0.85325122472E+02  0.11216948665E+03  0.00000000000E+00 0.  1.
         11    1    1    2    0    0  0.61859628469E+02  0.39449602527E+02 -0.24332380700E+02  0.77297797669E+02  0.00000000000E+00 0. -1.
<mgrwt>
<rscale>  0 0.33383883E+03</rscale>
<asrwt>0</asrwt>
<pdfrwt beam="1">  1        4 0.16618549E-01 0.33383883E+03</pdfrwt>
<pdfrwt beam="2">  1       -4 0.39682031E-01 0.33383883E+03</pdfrwt>
<totfact> 0.37231173E+02</totfact>
</mgrwt>
</event>
<event>
 6    1  0.9240440E-006  0.3484576E+03  0.7546771E-02  0.1063250E+00
          3   -1    0    0  501    0  0.00000000000E+00  0.00000000000E+00  0.91013561811E+02  0.91013561811E+02  0.00000000000E+00 0. -1.
         -3   -1    0    0    0  501 -0.00000000000E+00 -0.00000000000E+00 -0.33352918506E+03  0.33352918506E+03  0.00000000000E+00 0.  1.
          5    1    1    2  502    0  0.11064793165E+03 -0.32530168020E+01  0.38522735316E+01  0.11086242333E+03  0.47000000000E+01 0.  1.
         -5    1    1    2    0  502 -0.25150642185E+02  0.34388449931E+02 -0.91821267116E+01  0.43835165586E+02  0.47000000000E+01 0.  1.
        -11    1    1    2    0    0 -0.46634315408E+02  0.23459292318E+02 -0.15640051567E+03  0.16488244016E+03  0.00000000000E+00 0.  1.
         11    1    1    2    0    0 -0.38862974054E+02 -0.54594725447E+02 -0.80785254398E+02  0.10496271780E+03  0.00000000000E+00 0. -1.
<mgrwt>
<rscale>  0 0.34845762E+03</rscale>
<asrwt>0</asrwt>
<pdfrwt beam="1">  1        3 0.14002087E-01 0.34845762E+03</pdfrwt>
<pdfrwt beam="2">  1       -3 0.51312181E-01 0.34845762E+03</pdfrwt>
<totfact> 0.41012164E+02</totfact>
</mgrwt>
</event>
<event>
 6    1  0.9240440E-006  0.1439860E+03  0.7546771E-02  0.1218392E+00
          2   -1    0    0  501    0  0.00000000000E+00  0.00000000000E+00  0.55133335262E+03  0.55133335262E+03  0.00000000000E+00 0. -1.
         -2   -1    0    0    0  501 -0.00000000000E+00 -0.00000000000E+00 -0.30576758042E+02  0.30576758042E+02  0.00000000000E+00 0.  1.
          5    1    1    2  502    0 -0.36280319201E+02 -0.71739327718E+02  0.11976538669E+03  0.14432127546E+03  0.47000000000E+01 0. -1.
         -5    1    1    2    0  502 -0.31325113098E+02  0.48588685966E+02  0.16262014350E+03  0.17265434888E+03  0.47000000000E+01 0. -1.
        -11    1    1    2    0    0  0.60085949748E+02 -0.20945319728E+02  0.18302780510E+03  0.19377359267E+03  0.00000000000E+00 0. -1.
         11    1    1    2    0    0  0.75194825509E+01  0.44095961479E+02  0.55343259288E+02  0.71160893651E+02  0.00000000000E+00 0.  1.
<mgrwt>
<rscale>  0 0.13630274E+03</rscale>
<asrwt>0</asrwt>
<pdfrwt beam="1">  1        2 0.84820509E-01 0.14398597E+03</pdfrwt>
<pdfrwt beam="2">  1       -2 0.47041170E-02 0.14398597E+03</pdfrwt>
<totfact> 0.11431375E+04</totfact>
</mgrwt>
</event>
<event>
 6    1  0.9240440E-006  0.1467706E+03  0.7546771E-02  0.1213956E+00
         -2   -1    0    0    0  501 -0.00000000000E+00  0.00000000000E+00  0.18814951542E+02  0.18814951542E+02  0.00000000000E+00 0.  1.
          2   -1    0    0  501    0  0.00000000000E+00 -0.00000000000E+00 -0.10431232874E+04  0.10431232874E+04  0.00000000000E+00 0. -1.
          5    1    1    2  502    0 -0.16117957834E+02  0.32352068053E+02 -0.50568452152E+02  0.62335409079E+02  0.47000000000E+01 0.  1.
         -5    1    1    2    0  502  0.52851129728E+02  0.35232667633E+02 -0.67052640810E+03  0.67354460635E+03  0.47000000000E+01 0.  1.
        -11    1    1    2    0    0 -0.57477448856E+02 -0.29014325386E+02 -0.24434731794E+03  0.25268775196E+03  0.00000000000E+00 0. -1.
         11    1    1    2    0    0  0.20744276961E+02 -0.38570410300E+02 -0.58866157645E+02  0.73370471535E+02  0.00000000000E+00 0.  1.
<mgrwt>
<rscale>  0 0.13953473E+03</rscale>
<asrwt>0</asrwt>
<pdfrwt beam="2">  1        2 0.16048057E+00 0.14677057E+03</pdfrwt>
<pdfrwt beam="1">  1       -2 0.28946068E-02 0.14677057E+03</pdfrwt>
<totfact> 0.10692201E+04</totfact>
</mgrwt>
</event>
<event>
 6    1  0.9240440E-006  0.1255573E+03  0.7546771E-02  0.1249460E+00
         -1   -1    0    0    0  501 -0.00000000000E+00  0.00000000000E+00  0.63978332566E+02  0.63978332566E+02  0.00000000000E+00 0.  1.
          1   -1    0    0  501    0  0.00000000000E+00 -0.00000000000E+00 -0.19732504833E+03  0.19732504833E+03  0.00000000000E+00 0. -1.
          5    1    1    2  502    0 -0.43620598378E+02 -0.24821779706E+02 -0.90628878133E+02  0.10370419906E+03  0.47000000000E+01 0.  1.
         -5    1    1    2    0  502  0.55079368041E+02  0.22030208093E+02 -0.17585535631E+02  0.62051655222E+02  0.47000000000E+01 0.  1.
        -11    1    1    2    0    0 -0.32852101416E+02 -0.12165214842E+01 -0.51660177242E+02  0.61233278572E+02  0.00000000000E+00 0. -1.
         11    1    1    2    0    0  0.21393331754E+02  0.40080930970E+01  0.26527875243E+02  0.34314248042E+02  0.00000000000E+00 0.  1.
<mgrwt>
<rscale>  0 0.11622357E+03</rscale>
<asrwt>0</asrwt>
<pdfrwt beam="2">  1        1 0.30357699E-01 0.12555733E+03</pdfrwt>
<pdfrwt beam="1">  1       -1 0.98428206E-02 0.12555733E+03</pdfrwt>
<totfact> 0.87562741E+03</totfact>
</mgrwt>
</event>
<event>
 6    1  0.9240440E-006  0.1449249E+03  0.7546771E-02  0.1216896E+00
          2   -1    0    0  501    0  0.00000000000E+00  0.00000000000E+00  0.13068722530E+04  0.13068722530E+04  0.00000000000E+00 0. -1.
         -2   -1    0    0    0  501 -0.00000000000E+00 -0.00000000000E+00 -0.13649273897E+02  0.13649273897E+02  0.00000000000E+00 0.  1.
          5    1    1    2  502    0  0.33895651256E+02  0.43176594443E+02  0.56108115705E+03  0.56377946776E+03  0.47000000000E+01 0. -1.
         -5    1    1    2    0  502  0.36196861015E+02 -0.64764213117E+02  0.28025598360E+03  0.28994848231E+03  0.47000000000E+01 0. -1.
        -11    1    1    2    0    0  0.21882823876E+02  0.99536536022E+01  0.10672642372E+03  0.10940046947E+03  0.00000000000E+00 0.  1.
         11    1    1    2    0    0 -0.91975336147E+02  0.11633965071E+02  0.34515941478E+03  0.35739310739E+03  0.00000000000E+00 0. -1.
<mgrwt>
<rscale>  0 0.13738181E+03</rscale>
<asrwt>0</asrwt>
<pdfrwt beam="1">  1        2 0.20105717E+00 0.14492491E+03</pdfrwt>
<pdfrwt beam="2">  1       -2 0.20998893E-02 0.14492491E+03</pdfrwt>
<totfact> 0.12156296E+04</totfact>
</mgrwt>
</event>
<event>
 6    1  0.9240440E-006  0.1306930E+03  0.7546771E-02  0.1242269E+00
          1   -1    0    0  501    0  0.00000000000E+00  0.00000000000E+00  0.98869823809E+03  0.98869823809E+03  0.00000000000E+00 0. -1.
         -1   -1    0    0    0  501 -0.00000000000E+00 -0.00000000000E+00 -0.12901726168E+02  0.12901726168E+02  0.00000000000E+00 0.  1.
          5    1    1    2  502    0  0.28097402023E+02  0.70658510336E+02  0.20469966052E+03  0.21841733013E+03  0.47000000000E+01 0.  1.
         -5    1    1    2    0  502 -0.15739440690E+02 -0.34580350935E+02  0.32142682032E+03  0.32369865845E+03  0.47000000000E+01 0.  1.
        -11    1    1    2    0    0  0.30740275262E+02 -0.39670850211E+02  0.20753411450E+03  0.21351615761E+03  0.00000000000E+00 0.  1.
         11    1    1    2    0    0 -0.43098236595E+02  0.35926908095E+01  0.24213591658E+03  0.24596781806E+03  0.00000000000E+00 0. -1.
<mgrwt>
<rscale>  0 0.12050345E+03</rscale>
<asrwt>0</asrwt>
<pdfrwt beam="1">  1        1 0.15210736E+00 0.13069304E+03</pdfrwt>
<pdfrwt beam="2">  1       -1 0.19848817E-02 0.13069304E+03</pdfrwt>
<totfact> 0.10863355E+04</totfact>
</mgrwt>
</event>
<event>
 6    1  0.9240440E-006  0.1688772E+03  0.7546771E-02  0.1187379E+00
          2   -1    0    0  501    0  0.00000000000E+00  0.00000000000E+00  0.58483979470E+03  0.58483979470E+03  0.00000000000E+00 0. -1.
         -2   -1    0    0    0  501 -0.00000000000E+00 -0.00000000000E+00 -0.46774548670E+02  0.46774548670E+02  0.00000000000E+00 0.  1.
          5    1    1    2  502    0  0.14727584714E+02  0.78658646585E+02  0.13547474294E+03  0.15741531186E+03  0.47000000000E+01 0. -1.
         -5    1    1    2    0  502  0.79458252001E+02 -0.15222053913E+02  0.26775764802E+03  0.27975269938E+03  0.47000000000E+01 0. -1.
        -11    1    1    2    0    0 -0.31481723381E+02 -0.69819170037E+02  0.81992464548E+02  0.11219883981E+03  0.00000000000E+00 0.  1.
         11    1    1    2    0    0 -0.62704113334E+02  0.63825773652E+01  0.52840390529E+02  0.82247492327E+02  0.00000000000E+00 0. -1.
<mgrwt>
<rscale>  0 0.16117284E+03</rscale>
<asrwt>0</asrwt>
<pdfrwt beam="1">  1        2 0.89975347E-01 0.16887720E+03</pdfrwt>
<pdfrwt beam="2">  1       -2 0.71960849E-02 0.16887720E+03</pdfrwt>
<totfact> 0.56584133E+03</totfact>
</mgrwt>
</event>
<event>
 6    1  0.9240440E-006  0.2756772E+03  0.7546771E-02  0.1098074E+00
         -2   -1    0    0    0  501 -0.00000000000E+00  0.00000000000E+00  0.33496385591E+02  0.33496385591E+02  0.00000000000E+00 0.  1.
          2   -1    0    0  501    0  0.00000000000E+00 -0.00000000000E+00 -0.56720992616E+03  0.56720992616E+03  0.00000000000E+00 0. -1.
          5    1    1    2  502    0  0.96809693396E+01  0.36347697735E+01 -0.28846693333E+03  0.28869048191E+03  0.47000000000E+01 0.  1.
         -5    1    1    2    0  502 -0.20944002348E+02 -0.74265520199E+02 -0.10563345860E+03  0.13089895454E+03  0.47000000000E+01 0.  1.
        -11    1    1    2    0    0  0.37028841759E+02  0.28035246374E+02 -0.18180781388E+02  0.49876356855E+02  0.00000000000E+00 0.  1.
         11    1    1    2    0    0 -0.25765808750E+02  0.42595504051E+02 -0.12143236725E+03  0.13124051845E+03  0.00000000000E+00 0. -1.
<mgrwt>
<rscale>  0 0.27567722E+03</rscale>
<asrwt>0</asrwt>
<pdfrwt beam="2">  1        2 0.87263051E-01 0.27567722E+03</pdfrwt>
<pdfrwt beam="1">  1       -2 0.51532910E-02 0.27567722E+03</pdfrwt>
<totfact> 0.10023624E+04</totfact>
</mgrwt>
</event>
<event>
 6    1  0.9240440E-006  0.1395012E+03  0.7546771E-02  0.1220215E+00
         -2   -1    0    0    0  501 -0.00000000000E+00  0.00000000000E+00  0.12331538868E+03  0.12331538868E+03  0.00000000000E+00 0.  1.
          2   -1    0    0  501    0  0.00000000000E+00 -0.00000000000E+00 -0.15686540264E+03  0.15686540264E+03  0.00000000000E+00 0. -1.
          5    1    1    2  502    0 -0.90983495235E+02  0.29054367532E+02 -0.69806207642E+02  0.11839404252E+03  0.47000000000E+01 0. -1.
         -5    1    1    2    0  502  0.30151016019E+02 -0.17408915269E+02  0.48923214084E+01  0.35470817676E+02  0.47000000000E+01 0. -1.
        -11    1    1    2    0    0  0.79128819797E+02  0.55020295679E+00 -0.97124721928E+01  0.79724556831E+02  0.00000000000E+00 0. -1.
         11    1    1    2    0    0 -0.18296340581E+02 -0.12195655220E+02  0.41076344462E+02  0.46591374301E+02  0.00000000000E+00 0.  1.
<mgrwt>
<rscale>  0 0.13500302E+03</rscale>
<asrwt>0</asrwt>
<pdfrwt beam="2">  1        2 0.24133139E-01 0.13950119E+03</pdfrwt>
<pdfrwt beam="1">  1       -2 0.18971598E-01 0.13950119E+03</pdfrwt>
<totfact> 0.49304890E+03</totfact>
</mgrwt>
</event>
<event>
 6    1  0.9240440E-006  0.3360535E+03  0.7546771E-02  0.1068489E+00
          3   -1    0    0  501    0  0.00000000000E+00  0.00000000000E+00  0.29413831501E+03  0.29413831501E+03  0.00000000000E+00 0. -1.
         -3   -1    0    0    0  501 -0.00000000000E+00 -0.00000000000E+00 -0.95985443004E+02  0.95985443004E+02  0.00000000000E+00 0.  1.
          5    1    1    2  502    0  0.50293191419E+01 -0.23147776167E+02  0.20758800289E+01  0.24238664782E+02  0.47000000000E+01 0. -1.
         -5    1    1    2    0  502 -0.83977454046E+02  0.10744008738E+03  0.16716162528E+03  0.21577924861E+03  0.47000000000E+01 0. -1.
        -11    1    1    2    0    0  0.52036437182E+02 -0.60179785334E+02 -0.26582891607E+02  0.83881150944E+02  0.00000000000E+00 0.  1.
         11    1    1    2    0    0  0.26911697722E+02 -0.24112525875E+02  0.55498258304E+02  0.66224693681E+02  0.00000000000E+00 0. -1.
<mgrwt>
<rscale>  0 0.33605355E+03</rscale>
<asrwt>0</asrwt>
<pdfrwt beam="1">  1        3 0.45252048E-01 0.33605355E+03</pdfrwt>
<pdfrwt beam="2">  1       -3 0.14766991E-01 0.33605355E+03</pdfrwt>
<totfact> 0.48061829E+02</totfact>
</mgrwt>
</event>
<event>
 6    1  0.9240440E-006  0.1271550E+03  0.7546771E-02  0.1246355E+00
          1   -1    0    0  501    0  0.00000000000E+00  0.00000000000E+00  0.61431815176E+02  0.61431815176E+02  0.00000000000E+00 0. -1.
         -1   -1    0    0    0  501 -0.00000000000E+00 -0.00000000000E+00 -0.21268569333E+03  0.21268569333E+03  0.00000000000E+00 0.  1.
          5    1    1    2  502    0 -0.40700516960E+02  0.53658434062E+02 -0.43304258888E+02  0.80206660974E+02  0.47000000000E+01 0. -1.
         -5    1    1    2    0  502  0.47159518994E+02 -0.31095912781E+02 -0.94903861275E+01  0.57472893196E+02  0.47000000000E+01 0. -1.
        -11    1    1    2    0    0  0.15793801366E+02 -0.41434835153E+02 -0.13111835050E+02  0.46240782261E+02  0.00000000000E+00 0. -1.
         11    1    1    2    0    0 -0.22252803400E+02  0.18872313873E+02 -0.85347398091E+02  0.90197172078E+02  0.00000000000E+00 0.  1.
<mgrwt>
<rscale>  0 0.11804627E+03</rscale>
<asrwt>0</asrwt>
<pdfrwt beam="1">  1        1 0.94510485E-02 0.12715496E+03</pdfrwt>
<pdfrwt beam="2">  1       -1 0.32720876E-01 0.12715496E+03</pdfrwt>
<totfact> 0.57661735E+03</totfact>
</mgrwt>
</event>
<event>
 6    1  0.9240440E-006  0.1297818E+03  0.7546771E-02  0.1236845E+00
         -1   -1    0    0    0  501 -0.00000000000E+00  0.00000000000E+00  0.25008799241E+02  0.25008799241E+02  0.00000000000E+00 0.  1.
          1   -1    0    0  501    0  0.00000000000E+00 -0.00000000000E+00 -0.57488011578E+03  0.57488011578E+03  0.00000000000E+00 0. -1.
          5    1    1    2  502    0 -0.36597179743E+01 -0.43087759885E+02 -0.29276002120E+03  0.29597376337E+03  0.47000000000E+01 0.  1.
         -5    1    1    2    0  502 -0.30890327669E+02  0.38181420902E+02 -0.48724566567E+02  0.69341233280E+02  0.47000000000E+01 0.  1.
        -11    1    1    2    0    0 -0.90786654068E+01  0.38334108930E+02 -0.14695520215E+03  0.15214387110E+03  0.00000000000E+00 0. -1.
         11    1    1    2    0    0  0.43628711050E+02 -0.33427769947E+02 -0.61431526622E+02  0.82430047281E+02  0.00000000000E+00 0.  1.
<mgrwt>
<rscale>  0 0.12387030E+03</rscale>
<asrwt>0</asrwt>
<pdfrwt beam="2">  1        1 0.88443087E-01 0.12978183E+03</pdfrwt>
<pdfrwt beam="1">  1       -1 0.38475079E-02 0.12978183E+03</pdfrwt>
<totfact> 0.92711430E+03</totfact>
</mgrwt>
</event>
<event>
 6    1  0.9240440E-006  0.1258530E+03  0.7546771E-02  0.1248050E+00
         -3   -1    0    0    0  501 -0.00000000000E+00  0.00000000000E+00  0.26081180961E+03  0.26081180961E+03  0.00000000000E+00 0.  1.
          3   -1    0    0  501    0  0.00000000000E+00 -0.00000000000E+00 -0.47419982803E+02  0.47419982803E+02  0.00000000000E+00 0. -1.
          5    1    1    2  502    0  0.64983180506E+01  0.39194311173E+02  0.10955643390E+03  0.11663243277E+03  0.47000000000E+01 0. -1.
         -5    1    1    2    0  502  0.79649917441E+01 -0.41467010616E+02 -0.10223399778E+02  0.43698535054E+02  0.47000000000E+01 0. -1.
        -11    1    1    2    0    0 -0.50594654465E+02  0.18860246860E+02  0.72371035335E+02  0.90294488910E+02  0.00000000000E+00 0.  1.
         11    1    1    2    0    0  0.36131344670E+02 -0.16587547417E+02  0.41687757346E+02  0.57606335672E+02  0.00000000000E+00 0. -1.
<mgrwt>
<rscale>  0 0.11704663E+03</rscale>
<asrwt>0</asrwt>
<pdfrwt beam="2">  1        3 0.72953821E-02 0.12585296E+03</pdfrwt>
<pdfrwt beam="1">  1       -3 0.40124893E-01 0.12585296E+03</pdfrwt>
<totfact> 0.17346024E+03</totfact>
</mgrwt>
</event>
<event>
 6    1  0.9240440E-006  0.1388765E+03  0.7546771E-02  0.1225795E+00
         -2   -1    0    0    0  501 -0.00000000000E+00  0.00000000000E+00  0.26165406089E+02  0.26165406089E+02  0.00000000000E+00 0.  1.
          2   -1    0    0  501    0  0.00000000000E+00 -0.00000000000E+00 -0.71599528941E+03  0.71599528941E+03  0.00000000000E+00 0. -1.
          5    1    1    2  502    0  0.14519110395E+02  0.78774152955E+02 -0.51873724400E+03  0.52490626787E+03  0.47000000000E+01 0.  1.
         -5    1    1    2    0  502 -0.29281475706E+01 -0.19377787482E+02 -0.11473616820E+02  0.23190657146E+02  0.47000000000E+01 0.  1.
        -11    1    1    2    0    0  0.30626593468E+01 -0.71805955788E+02 -0.15940723381E+03  0.17486034816E+03  0.00000000000E+00 0. -1.
         11    1    1    2    0    0 -0.14653622172E+02  0.12409590315E+02 -0.21178869983E+00  0.19203422325E+02  0.00000000000E+00 0.  1.
<mgrwt>
<rscale>  0 0.13112596E+03</rscale>
<asrwt>0</asrwt>
<pdfrwt beam="2">  1        2 0.11015312E+00 0.13887650E+03</pdfrwt>
<pdfrwt beam="1">  1       -2 0.40254471E-02 0.13887650E+03</pdfrwt>
<totfact> 0.10642468E+04</totfact>
</mgrwt>
</event>
<event>
 6    1  0.9240440E-006  0.1351467E+03  0.7546771E-02  0.1232165E+00
         -4   -1    0    0    0  501 -0.00000000000E+00  0.00000000000E+00  0.37975951243E+02  0.37975951243E+02  0.00000000000E+00 0.  1.
          4   -1    0    0  501    0  0.00000000000E+00 -0.00000000000E+00 -0.38366238870E+03  0.38366238870E+03  0.00000000000E+00 0. -1.
          5    1    1    2  502    0  0.49301344996E+02 -0.63352566121E+02 -0.81532869607E+02  0.11451580275E+03  0.47000000000E+01 0. -1.
         -5    1    1    2    0  502 -0.37750246965E+01  0.39557307205E+02 -0.13433179646E+03  0.14016473488E+03  0.47000000000E+01 0. -1.
        -11    1    1    2    0    0  0.27371462671E+02  0.72164704743E+01 -0.22476198924E+02  0.36144901894E+02  0.00000000000E+00 0.  1.
         11    1    1    2    0    0 -0.72897782970E+02  0.16578788442E+02 -0.10734557247E+03  0.13081290042E+03  0.00000000000E+00 0. -1.
<mgrwt>
<rscale>  0 0.12687694E+03</rscale>
<asrwt>0</asrwt>
<pdfrwt beam="2">  1        4 0.59024984E-01 0.13514667E+03</pdfrwt>
<pdfrwt beam="1">  1       -4 0.58424539E-02 0.13514667E+03</pdfrwt>
<totfact> 0.84197409E+02</totfact>
</mgrwt>
</event>
<event>
 6    1  0.9240440E-006  0.1335522E+03  0.7546771E-02  0.1239252E+00
          1   -1    0    0  501    0  0.00000000000E+00  0.00000000000E+00  0.58408082923E+02  0.58408082923E+02  0.00000000000E+00 0. -1.
         -1   -1    0    0    0  501 -0.00000000000E+00 -0.00000000000E+00 -0.23849319653E+03  0.23849319653E+03  0.00000000000E+00 0.  1.
          5    1    1    2  502    0 -0.28986956061E+02 -0.48283714297E+02 -0.60699045953E+02  0.82933858391E+02  0.47000000000E+01 0.  1.
         -5    1    1    2    0  502 -0.15421041155E+02  0.63772541334E+02 -0.51781430307E+01  0.65982184745E+02  0.47000000000E+01 0.  1.
        -11    1    1    2    0    0  0.66517041453E+02 -0.21020619102E+02 -0.96748872619E+02  0.11927584661E+03  0.00000000000E+00 0.  1.
         11    1    1    2    0    0 -0.22109044237E+02  0.55317920650E+01 -0.17459052005E+02  0.28709389709E+02  0.00000000000E+00 0. -1.
<mgrwt>
<rscale>  0 0.12236129E+03</rscale>
<asrwt>0</asrwt>
<pdfrwt beam="1">  1        1 0.89858589E-02 0.13355218E+03</pdfrwt>
<pdfrwt beam="2">  1       -1 0.36691261E-01 0.13355218E+03</pdfrwt>
<totfact> 0.50862678E+03</totfact>
</mgrwt>
</event>
<event>
 6    1  0.9240440E-006  0.1662650E+03  0.7546771E-02  0.1189579E+00
          2   -1    0    0  501    0  0.00000000000E+00  0.00000000000E+00  0.35544987864E+02  0.35544987864E+02  0.00000000000E+00 0. -1.
         -2   -1    0    0    0  501 -0.00000000000E+00 -0.00000000000E+00 -0.82199398864E+03  0.82199398864E+03  0.00000000000E+00 0.  1.
          5    1    1    2  502    0  0.19046029508E+02 -0.31255031048E+02 -0.37183713532E+02  0.52386513129E+02  0.47000000000E+01 0.  1.
         -5    1    1    2    0  502  0.46539759873E+02  0.11910704872E+03 -0.19289716386E+03  0.23148184406E+03  0.47000000000E+01 0.  1.
        -11    1    1    2    0    0 -0.22318035117E+02 -0.89186286805E+01 -0.24800673997E+02  0.34535634636E+02  0.00000000000E+00 0. -1.
         11    1    1    2    0    0 -0.43267754264E+02 -0.78933388991E+02 -0.53156744939E+03  0.53913498468E+03  0.00000000000E+00 0.  1.
<mgrwt>
<rscale>  0 0.15922116E+03</rscale>
<asrwt>0</asrwt>
<pdfrwt beam="1">  1        2 0.54684597E-02 0.16626495E+03</pdfrwt>
<pdfrwt beam="2">  1       -2 0.12646061E+00 0.16626495E+03</pdfrwt>
<totfact> 0.67072410E+02</totfact>
</mgrwt>
</event>
<event>
 6    1  0.9240440E-006  0.1459197E+03  0.7546771E-02  0.1215187E+00
         -1   -1    0    0    0  501 -0.00000000000E+00  0.00000000000E+00  0.23369482740E+03  0.23369482740E+03  0.00000000000E+00 0.  1.
          1   -1    0    0  501    0  0.00000000000E+00 -0.00000000000E+00 -0.82896229744E+02  0.82896229744E+02  0.00000000000E+00 0. -1.
          5    1    1    2  502    0  0.95529400446E+02 -0.20993250590E+02  0.47949372075E+02  0.10903125791E+03  0.47000000000E+01 0.  1.
         -5    1    1    2    0  502 -0.32284213043E+02 -0.19852184716E+02 -0.14193190531E+02  0.40742070483E+02  0.47000000000E+01 0.  1.
        -11    1    1    2    0    0 -0.82840922242E+02  0.16595472050E+02  0.66873273386E+02  0.10775000132E+03  0.00000000000E+00 0. -1.
         11    1    1    2    0    0  0.19595734839E+02  0.24249963256E+02  0.50169142723E+02  0.59067727427E+02  0.00000000000E+00 0.  1.
<mgrwt>
<rscale>  0 0.13862780E+03</rscale>
<asrwt>0</asrwt>
<pdfrwt beam="2">  1        1 0.12753266E-01 0.14591974E+03</pdfrwt>
<pdfrwt beam="1">  1       -1 0.35953050E-01 0.14591974E+03</pdfrwt>
<totfact> 0.33337253E+03</totfact>
</mgrwt>
</event>
<event>
 6    1  0.9240440E-006  0.1263896E+03  0.7546771E-02  0.1248013E+00
          2   -1    0    0  501    0  0.00000000000E+00  0.00000000000E+00  0.68366966461E+02  0.68366966461E+02  0.00000000000E+00 0. -1.
         -2   -1    0    0    0  501 -0.00000000000E+00 -0.00000000000E+00 -0.19242572504E+03  0.19242572504E+03  0.00000000000E+00 0.  1.
          5    1    1    2  502    0  0.30963698700E+02  0.14944208516E+02 -0.74315480377E+02  0.82018050630E+02  0.47000000000E+01 0. -1.
         -5    1    1    2    0  502 -0.25083416763E+02  0.27312873934E+01  0.41288438405E+02  0.48615459201E+02  0.47000000000E+01 0. -1.
        -11    1    1    2    0    0 -0.76771081955E+00 -0.51935494400E+02 -0.29999454476E+02  0.59982099224E+02  0.00000000000E+00 0. -1.
         11    1    1    2    0    0 -0.51125711169E+01  0.34259998491E+02 -0.61032262134E+02  0.70177082450E+02  0.00000000000E+00 0.  1.
<mgrwt>
<rscale>  0 0.11706838E+03</rscale>
<asrwt>0</asrwt>
<pdfrwt beam="1">  1        2 0.10517995E-01 0.12638959E+03</pdfrwt>
<pdfrwt beam="2">  1       -2 0.29603957E-01 0.12638959E+03</pdfrwt>
<totfact> 0.59434978E+03</totfact>
</mgrwt>
</event>
<event>
 6    1  0.9240440E-006  0.2980899E+03  0.7546771E-02  0.1086199E+00
         -2   -1    0    0    0  501 -0.00000000000E+00  0.00000000000E+00  0.76249702026E+03  0.76249702026E+03  0.00000000000E+00 0.  1.
          2   -1    0    0  501    0  0.00000000000E+00 -0.00000000000E+00 -0.29133758956E+02  0.29133758956E+02  0.00000000000E+00 0. -1.
          5    1    1    2  502    0 -0.76015949507E+02  0.10516926348E+03  0.37718825793E+03  0.39891361281E+03  0.47000000000E+01 0.  1.
         -5    1    1    2    0  502  0.17581455354E+02 -0.22348697381E+02  0.51992708076E+02  0.59446644482E+02  0.47000000000E+01 0.  1.
        -11    1    1    2    0    0  0.22823489928E+02 -0.82511077548E+02  0.27240874216E+03  0.28554423898E+03  0.00000000000E+00 0.  1.
         11    1    1    2    0    0  0.35611004225E+02 -0.30948855169E+00  0.31773553141E+02  0.47726282951E+02  0.00000000000E+00 0. -1.
<mgrwt>
<rscale>  0 0.29808995E+03</rscale>
<asrwt>0</asrwt>
<pdfrwt beam="2">  1        2 0.44821173E-02 0.29808995E+03</pdfrwt>
<pdfrwt beam="1">  1       -2 0.11730722E+00 0.29808995E+03</pdfrwt>
<totfact> 0.10699674E+03</totfact>
</mgrwt>
</event>
<event>
 6    1  0.9240440E-006  0.3656910E+03  0.7546771E-02  0.1056353E+00
         -1   -1    0    0    0  501 -0.00000000000E+00  0.00000000000E+00  0.61230750906E+03  0.61230750906E+03  0.00000000000E+00 0.  1.
          1   -1    0    0  501    0  0.00000000000E+00 -0.00000000000E+00 -0.54600787152E+02  0.54600787152E+02  0.00000000000E+00 0. -1.
          5    1    1    2  502    0  0.36392930834E+01  0.32770935268E+02  0.62619931942E+02  0.70926190712E+02  0.47000000000E+01 0. -1.
         -5    1    1    2    0  502  0.11549863926E+03 -0.70253644833E+02  0.89202325885E+02  0.16203288316E+03  0.47000000000E+01 0. -1.
        -11    1    1    2    0    0 -0.51924395001E+02  0.49256139910E+02  0.29658231168E+03  0.30509568616E+03  0.00000000000E+00 0.  1.
         11    1    1    2    0    0 -0.67213537343E+02 -0.11773430345E+02  0.10930215241E+03  0.12885353618E+03  0.00000000000E+00 0. -1.
<mgrwt>
<rscale>  0 0.36569097E+03</rscale>
<asrwt>0</asrwt>
<pdfrwt beam="2">  1        1 0.84001215E-02 0.36569097E+03</pdfrwt>
<pdfrwt beam="1">  1       -1 0.94201151E-01 0.36569097E+03</pdfrwt>
<totfact> 0.93846984E+02</totfact>
</mgrwt>
</event>
<event>
 6    1  0.9240440E-006  0.1723857E+03  0.7546771E-02  0.1181571E+00
         -1   -1    0    0    0  501 -0.00000000000E+00  0.00000000000E+00  0.16877771479E+03  0.16877771479E+03  0.00000000000E+00 0.  1.
          1   -1    0    0  501    0  0.00000000000E+00 -0.00000000000E+00 -0.19963513939E+03  0.19963513939E+03  0.00000000000E+00 0. -1.
          5    1    1    2  502    0  0.52271233067E+02 -0.47335656484E+02 -0.12002027711E+03  0.13928353492E+03  0.47000000000E+01 0. -1.
         -5    1    1    2    0  502 -0.14510028585E+01 -0.59951221865E+02  0.15754515454E+02  0.62181582238E+02  0.47000000000E+01 0. -1.
        -11    1    1    2    0    0 -0.46159032778E+02  0.78978876476E+02  0.94359263157E+02  0.13142294236E+03  0.00000000000E+00 0.  1.
         11    1    1    2    0    0 -0.46611974310E+01  0.28308001874E+02 -0.20950926096E+02  0.35524794663E+02  0.00000000000E+00 0. -1.
<mgrwt>
<rscale>  0 0.16647814E+03</rscale>
<asrwt>0</asrwt>
<pdfrwt beam="2">  1        1 0.30713098E-01 0.17238574E+03</pdfrwt>
<pdfrwt beam="1">  1       -1 0.25965802E-01 0.17238574E+03</pdfrwt>
<totfact> 0.18918333E+03</totfact>
</mgrwt>
</event>
<event>
 6    1  0.9240440E-006  0.1537685E+03  0.7546771E-02  0.1206162E+00
          1   -1    0    0  501    0  0.00000000000E+00  0.00000000000E+00  0.76233869410E+02  0.76233869410E+02  0.00000000000E+00 0. -1.
         -1   -1    0    0    0  501 -0.00000000000E+00 -0.00000000000E+00 -0.25794789704E+03  0.25794789704E+03  0.00000000000E+00 0.  1.
          5    1    1    2  502    0  0.97949103573E+02  0.26927313613E+02 -0.49485821346E+02  0.11309307505E+03  0.47000000000E+01 0.  1.
         -5    1    1    2    0  502 -0.35785156590E+02  0.37539205249E+02 -0.24828952139E+02  0.57691734479E+02  0.47000000000E+01 0.  1.
        -11    1    1    2    0    0 -0.35275188513E+02 -0.53839932035E+00 -0.82471116670E+02  0.89700133129E+02  0.00000000000E+00 0.  1.
         11    1    1    2    0    0 -0.26888758470E+02 -0.63928119542E+02 -0.24928137479E+02  0.73696823801E+02  0.00000000000E+00 0. -1.
<mgrwt>
<rscale>  0 0.14546290E+03</rscale>
<asrwt>0</asrwt>
<pdfrwt beam="1">  1        1 0.11728288E-01 0.15376855E+03</pdfrwt>
<pdfrwt beam="2">  1       -1 0.39684292E-01 0.15376855E+03</pdfrwt>
<totfact> 0.31427361E+03</totfact>
</mgrwt>
</event>
<event>
 6    1  0.9240440E-006  0.1596952E+03  0.7546771E-02  0.1196406E+00
         -1   -1    0    0    0  501 -0.00000000000E+00  0.00000000000E+00  0.70612818271E+03  0.70612818271E+03  0.00000000000E+00 0.  1.
          1   -1    0    0  501    0  0.00000000000E+00 -0.00000000000E+00 -0.32637504252E+02  0.32637504252E+02  0.00000000000E+00 0. -1.
          5    1    1    2  502    0  0.37232452452E+02 -0.12806176641E+02  0.23615794860E+03  0.23946381849E+03  0.47000000000E+01 0.  1.
         -5    1    1    2    0  502  0.24941776645E+02 -0.64717964530E+02  0.41837047689E+02  0.81135292656E+02  0.47000000000E+01 0.  1.
        -11    1    1    2    0    0 -0.28588663021E+02  0.87206597607E+02  0.20662661867E+03  0.22609038428E+03  0.00000000000E+00 0. -1.
         11    1    1    2    0    0 -0.33585566076E+02 -0.96824564364E+01  0.18886906349E+03  0.19207619154E+03  0.00000000000E+00 0.  1.
<mgrwt>
<rscale>  0 0.15335859E+03</rscale>
<asrwt>0</asrwt>
<pdfrwt beam="2">  1        1 0.50211550E-02 0.15969525E+03</pdfrwt>
<pdfrwt beam="1">  1       -1 0.10863509E+00 0.15969525E+03</pdfrwt>
<totfact> 0.13591511E+03</totfact>
</mgrwt>
</event>
<event>
 6    1  0.9240440E-006  0.1371185E+03  0.7546771E-02  0.1229237E+00
          2   -1    0    0  501    0  0.00000000000E+00  0.00000000000E+00  0.12953405352E+04  0.12953405352E+04  0.00000000000E+00 0. -1.
         -2   -1    0    0    0  501 -0.00000000000E+00 -0.00000000000E+00 -0.13129886691E+02  0.13129886691E+02  0.00000000000E+00 0.  1.
          5    1    1    2  502    0 -0.14965977595E+02 -0.45189982209E+02  0.21932119927E+03  0.22447715569E+03  0.47000000000E+01 0. -1.
         -5    1    1    2    0  502 -0.31720437445E+02  0.76781412217E+02  0.72184695221E+03  0.72662692204E+03  0.47000000000E+01 0. -1.
        -11    1    1    2    0    0  0.70520983486E+02 -0.57278203646E+01  0.20568247051E+03  0.21751159904E+03  0.00000000000E+00 0. -1.
         11    1    1    2    0    0 -0.23834568447E+02 -0.25863609643E+02  0.13536002652E+03  0.13985474513E+03  0.00000000000E+00 0.  1.
<mgrwt>
<rscale>  0 0.12880672E+03</rscale>
<asrwt>0</asrwt>
<pdfrwt beam="1">  1        2 0.19928306E+00 0.13711848E+03</pdfrwt>
<pdfrwt beam="2">  1       -2 0.20199836E-02 0.13711848E+03</pdfrwt>
<totfact> 0.13009959E+04</totfact>
</mgrwt>
</event>
<event>
 6    1  0.9240440E-006  0.1333367E+03  0.7546771E-02  0.1234621E+00
         -1   -1    0    0    0  501 -0.00000000000E+00  0.00000000000E+00  0.10156008297E+03  0.10156008297E+03  0.00000000000E+00 0.  1.
          1   -1    0    0  501    0  0.00000000000E+00 -0.00000000000E+00 -0.21220594308E+03  0.21220594308E+03  0.00000000000E+00 0. -1.
          5    1    1    2  502    0  0.30930096123E+02  0.22056120731E+01 -0.14487526201E+03  0.14823112734E+03  0.47000000000E+01 0.  1.
         -5    1    1    2    0  502 -0.22916835691E+02 -0.47922422310E+02 -0.68638976175E+01  0.53767490258E+02  0.47000000000E+01 0.  1.
        -11    1    1    2    0    0  0.10026736396E+02  0.66099257529E+02  0.49604935004E+02  0.83248404581E+02  0.00000000000E+00 0.  1.
         11    1    1    2    0    0 -0.18039996828E+02 -0.20382447292E+02 -0.85116354792E+01  0.28519003869E+02  0.00000000000E+00 0. -1.
<mgrwt>
<rscale>  0 0.12528721E+03</rscale>
<asrwt>0</asrwt>
<pdfrwt beam="2">  1        1 0.32647068E-01 0.13333668E+03</pdfrwt>
<pdfrwt beam="1">  1       -1 0.15624628E-01 0.13333668E+03</pdfrwt>
<totfact> 0.39340256E+03</totfact>
</mgrwt>
</event>
<event>
 6    1  0.9240440E-006  0.3735206E+03  0.7546771E-02  0.1053355E+00
         -1   -1    0    0    0  501 -0.00000000000E+00  0.00000000000E+00  0.38261050549E+02  0.38261050549E+02  0.00000000000E+00 0.  1.
          1   -1    0    0  501    0  0.00000000000E+00 -0.00000000000E+00 -0.91161674152E+03  0.91161674152E+03  0.00000000000E+00 0. -1.
          5    1    1    2  502    0  0.13389630824E+03  0.49947976412E+02 -0.53301373085E+03  0.55185935616E+03  0.47000000000E+01 0.  1.
         -5    1    1    2    0  502 -0.10940131569E+02  0.29021159740E+02 -0.31274876912E+02  0.44295847630E+02  0.47000000000E+01 0.  1.
        -11    1    1    2    0    0 -0.53982130615E+02 -0.25413388238E+02 -0.22400939507E+03  0.23181915323E+03  0.00000000000E+00 0. -1.
         11    1    1    2    0    0 -0.68974046058E+02 -0.53555747914E+02 -0.85057688150E+02  0.12190343505E+03  0.00000000000E+00 0.  1.
<mgrwt>
<rscale>  0 0.37352062E+03</rscale>
<asrwt>0</asrwt>
<pdfrwt beam="2">  1        1 0.14024873E+00 0.37352062E+03</pdfrwt>
<pdfrwt beam="1">  1       -1 0.58863155E-02 0.37352062E+03</pdfrwt>
<totfact> 0.25786360E+03</totfact>
</mgrwt>
</event>
<event>
 6    1  0.9240440E-006  0.1252011E+03  0.7546771E-02  0.1249904E+00
         -2   -1    0    0    0  501 -0.00000000000E+00  0.00000000000E+00  0.10514164578E+02  0.10514164578E+02  0.00000000000E+00 0.  1.
          2   -1    0    0  501    0  0.00000000000E+00 -0.00000000000E+00 -0.11724537237E+04  0.11724537237E+04  0.00000000000E+00 0. -1.
          5    1    1    2  502    0 -0.10539461921E+01  0.58962811465E+02 -0.47555719758E+03  0.47922276877E+03  0.47000000000E+01 0.  1.
         -5    1    1    2    0  502  0.75821409633E+01 -0.61911566732E+02 -0.30981660187E+03  0.31606794799E+03  0.47000000000E+01 0.  1.
        -11    1    1    2    0    0 -0.75388988243E+01  0.46871469175E+02 -0.22000105453E+03  0.22506495420E+03  0.00000000000E+00 0. -1.
         11    1    1    2    0    0  0.10107040531E+01 -0.43922713907E+02 -0.15656470513E+03  0.16261221729E+03  0.00000000000E+00 0.  1.
<mgrwt>
<rscale>  0 0.11596615E+03</rscale>
<asrwt>0</asrwt>
<pdfrwt beam="2">  1        2 0.18037755E+00 0.12520112E+03</pdfrwt>
<pdfrwt beam="1">  1       -2 0.16175633E-02 0.12520112E+03</pdfrwt>
<totfact> 0.20828999E+04</totfact>
</mgrwt>
</event>
<event>
 6    1  0.9240440E-006  0.1301883E+03  0.7546771E-02  0.1240824E+00
         -2   -1    0    0    0  501 -0.00000000000E+00  0.00000000000E+00  0.71382522422E+02  0.71382522422E+02  0.00000000000E+00 0.  1.
          2   -1    0    0  501    0  0.00000000000E+00 -0.00000000000E+00 -0.23258986822E+03  0.23258986822E+03  0.00000000000E+00 0. -1.
          5    1    1    2  502    0  0.34604653922E+02 -0.43695814868E+02 -0.16864416869E+03  0.17767878867E+03  0.47000000000E+01 0. -1.
         -5    1    1    2    0  502 -0.30661710560E+01  0.25564897036E+02  0.95786681791E+01  0.27871244132E+02  0.47000000000E+01 0. -1.
        -11    1    1    2    0    0  0.11167446759E+02 -0.12226821296E+02 -0.33492830601E+02  0.37362771950E+02  0.00000000000E+00 0. -1.
         11    1    1    2    0    0 -0.42705929625E+02  0.30357739128E+02  0.31350985307E+02  0.61059585896E+02  0.00000000000E+00 0.  1.
<mgrwt>
<rscale>  0 0.12138823E+03</rscale>
<asrwt>0</asrwt>
<pdfrwt beam="2">  1        2 0.35783057E-01 0.13018826E+03</pdfrwt>
<pdfrwt beam="1">  1       -2 0.10981926E-01 0.13018826E+03</pdfrwt>
<totfact> 0.77933370E+03</totfact>
</mgrwt>
</event>
<event>
 6    1  0.9240440E-006  0.2251641E+03  0.7546771E-02  0.1133080E+00
         -2   -1    0    0    0  501 -0.00000000000E+00  0.00000000000E+00  0.37281416950E+02  0.37281416950E+02  0.00000000000E+00 0.  1.
          2   -1    0    0  501    0  0.00000000000E+00 -0.00000000000E+00 -0.12724795068E+04  0.12724795068E+04  0.00000000000E+00 0. -1.
          5    1    1    2  502    0  0.17892477313E+03 -0.66263576798E+02 -0.59091756911E+03  0.62097552249E+03  0.47000000000E+01 0.  1.
         -5    1    1    2    0  502 -0.72866275874E+01 -0.86689457881E+01 -0.97684636820E+00  0.12299991524E+02  0.47000000000E+01 0.  1.
        -11    1    1    2    0    0 -0.10977063279E+03  0.29014617833E+02 -0.51029247580E+03  0.52277131781E+03  0.00000000000E+00 0. -1.
         11    1    1    2    0    0 -0.61867512751E+02  0.45917904753E+02 -0.13301119860E+03  0.15371409195E+03  0.00000000000E+00 0.  1.
<mgrwt>
<rscale>  0 0.22108019E+03</rscale>
<asrwt>0</asrwt>
<pdfrwt beam="2">  1        2 0.19576607E+00 0.22516411E+03</pdfrwt>
<pdfrwt beam="1">  1       -2 0.57356027E-02 0.22516411E+03</pdfrwt>
<totfact> 0.28781246E+03</totfact>
</mgrwt>
</event>
<event>
 6    1  0.9240440E-006  0.1260294E+03  0.7546771E-02  0.1247193E+00
          2   -1    0    0  501    0  0.00000000000E+00  0.00000000000E+00  0.19673832648E+02  0.19673832648E+02  0.00000000000E+00 0. -1.
         -2   -1    0    0    0  501 -0.00000000000E+00 -0.00000000000E+00 -0.67764809795E+03  0.67764809795E+03  0.00000000000E+00 0.  1.
          5    1    1    2  502    0 -0.29448620434E+01 -0.86655962899E+01  0.11675929537E+02  0.15562201068E+02  0.47000000000E+01 0.  1.
         -5    1    1    2    0  502  0.15770714931E+02 -0.10343721246E+01 -0.28435878374E+03  0.28483643247E+03  0.47000000000E+01 0.  1.
        -11    1    1    2    0    0  0.29100774981E+02 -0.20805765603E+02 -0.85517516291E+02  0.92698331049E+02  0.00000000000E+00 0.  1.
         11    1    1    2    0    0 -0.41926627868E+02  0.30505734017E+02 -0.29977389481E+03  0.30422496600E+03  0.00000000000E+00 0. -1.
<mgrwt>
<rscale>  0 0.11755086E+03</rscale>
<asrwt>0</asrwt>
<pdfrwt beam="1">  1        2 0.30267441E-02 0.12602936E+03</pdfrwt>
<pdfrwt beam="2">  1       -2 0.10425353E+00 0.12602936E+03</pdfrwt>
<totfact> 0.22904189E+03</totfact>
</mgrwt>
</event>
<event>
 6    1  0.9240440E-006  0.1542467E+03  0.7546771E-02  0.1204967E+00
          2   -1    0    0  501    0  0.00000000000E+00  0.00000000000E+00  0.89157541763E+03  0.89157541763E+03  0.00000000000E+00 0. -1.
         -2   -1    0    0    0  501 -0.00000000000E+00 -0.00000000000E+00 -0.23232085898E+02  0.23232085898E+02  0.00000000000E+00 0.  1.
          5    1    1    2  502    0  0.93777362171E+01 -0.15748946603E+02  0.12238400590E+02  0.22535299081E+02  0.47000000000E+01 0. -1.
         -5    1    1    2    0  502 -0.16755728316E+00  0.10564438306E+03  0.57374345597E+03  0.58340758224E+03  0.47000000000E+01 0. -1.
        -11    1    1    2    0    0  0.12514905662E+02  0.95559985415E+01  0.11478717974E+02  0.19485916406E+02  0.00000000000E+00 0.  1.
         11    1    1    2    0    0 -0.21725084596E+02 -0.99451434995E+02  0.27088275720E+03  0.28937870580E+03  0.00000000000E+00 0. -1.
<mgrwt>
<rscale>  0 0.14640073E+03</rscale>
<asrwt>0</asrwt>
<pdfrwt beam="1">  1        2 0.13716542E+00 0.15424668E+03</pdfrwt>
<pdfrwt beam="2">  1       -2 0.35741678E-02 0.15424668E+03</pdfrwt>
<totfact> 0.97162672E+03</totfact>
</mgrwt>
</event>
<event>
 6    1  0.9240440E-006  0.1290572E+03  0.7546771E-02  0.1243974E+00
         -2   -1    0    0    0  501 -0.00000000000E+00  0.00000000000E+00  0.72478266780E+02  0.72478266780E+02  0.00000000000E+00 0.  1.
          2   -1    0    0  501    0  0.00000000000E+00 -0.00000000000E+00 -0.18217807611E+03  0.18217807611E+03  0.00000000000E+00 0. -1.
          5    1    1    2  502    0  0.37417554813E+02 -0.34856852361E+02 -0.78700818118E+02  0.93973306514E+02  0.47000000000E+01 0. -1.
         -5    1    1    2    0  502 -0.17761602853E+02  0.60146332552E+02 -0.12667496741E+02  0.64153030552E+02  0.47000000000E+01 0. -1.
        -11    1    1    2    0    0  0.12713183523E+02  0.17118615875E+02 -0.34697959778E+02  0.40726164287E+02  0.00000000000E+00 0. -1.
         11    1    1    2    0    0 -0.32369135483E+02 -0.42408096066E+02  0.16366465306E+02  0.55803841538E+02  0.00000000000E+00 0.  1.
<mgrwt>
<rscale>  0 0.11946987E+03</rscale>
<asrwt>0</asrwt>
<pdfrwt beam="2">  1        2 0.28027396E-01 0.12905723E+03</pdfrwt>
<pdfrwt beam="1">  1       -2 0.11150503E-01 0.12905723E+03</pdfrwt>
<totfact> 0.98912234E+03</totfact>
</mgrwt>
</event>
<event>
 6    1  0.9240440E-006  0.1258854E+03  0.7546771E-02  0.1249261E+00
         -1   -1    0    0    0  501 -0.00000000000E+00  0.00000000000E+00  0.37445976207E+02  0.37445976207E+02  0.00000000000E+00 0. -1.
          1   -1    0    0  501    0  0.00000000000E+00 -0.00000000000E+00 -0.32345936041E+03  0.32345936041E+03  0.00000000000E+00 0.  1.
          5    1    1    2  502    0 -0.14247340820E+02  0.35660407486E+02 -0.43787217847E+01  0.38934747809E+02  0.47000000000E+01 0. -1.
         -5    1    1    2    0  502  0.24043397286E+02 -0.24417356531E+02 -0.18675017553E+03  0.18992632865E+03  0.47000000000E+01 0. -1.
        -11    1    1    2    0    0  0.70123884018E+01 -0.49261156441E+02 -0.44773268166E+02  0.66936392697E+02  0.00000000000E+00 0. -1.
         11    1    1    2    0    0 -0.16808444868E+02  0.38018105487E+02 -0.50111218719E+02  0.65107867460E+02  0.00000000000E+00 0.  1.
<mgrwt>
<rscale>  0 0.11633941E+03</rscale>
<asrwt>0</asrwt>
<pdfrwt beam="2">  1        1 0.49762977E-01 0.12588541E+03</pdfrwt>
<pdfrwt beam="1">  1       -1 0.57609196E-02 0.12588541E+03</pdfrwt>
<totfact> 0.10633283E+04</totfact>
</mgrwt>
</event>
<event>
 6    1  0.9240440E-006  0.1393182E+03  0.7546771E-02  0.1225004E+00
         -1   -1    0    0    0  501 -0.00000000000E+00  0.00000000000E+00  0.51381597836E+02  0.51381597836E+02  0.00000000000E+00 0.  1.
          1   -1    0    0  501    0  0.00000000000E+00 -0.00000000000E+00 -0.31037737334E+03  0.31037737334E+03  0.00000000000E+00 0. -1.
          5    1    1    2  502    0 -0.90156673650E+01  0.62213538514E+01  0.19308822812E+02  0.22691587432E+02  0.47000000000E+01 0. -1.
         -5    1    1    2    0  502  0.12875150964E+02  0.55178477445E+02 -0.18630788611E+03  0.19479002108E+03  0.47000000000E+01 0. -1.
        -11    1    1    2    0    0 -0.17520121208E+02  0.11111227573E+02  0.60103781975E+01  0.21599506277E+02  0.00000000000E+00 0.  1.
         11    1    1    2    0    0  0.13660637609E+02 -0.72511058869E+02 -0.98007090405E+02  0.12267785639E+03  0.00000000000E+00 0. -1.
<mgrwt>
<rscale>  0 0.13166658E+03</rscale>
<asrwt>0</asrwt>
<pdfrwt beam="2">  1        1 0.47750365E-01 0.13931821E+03</pdfrwt>
<pdfrwt beam="1">  1       -1 0.79048611E-02 0.13931821E+03</pdfrwt>
<totfact> 0.70223266E+03</totfact>
</mgrwt>
</event>
<event>
 6    1  0.9240440E-006  0.4485261E+03  0.7546771E-02  0.1028162E+00
          2   -1    0    0  501    0  0.00000000000E+00  0.00000000000E+00  0.49283828193E+02  0.49283828193E+02  0.00000000000E+00 0. -1.
         -2   -1    0    0    0  501 -0.00000000000E+00 -0.00000000000E+00 -0.10204951838E+04  0.10204951838E+04  0.00000000000E+00 0.  1.
          5    1    1    2  502    0  0.12245045747E+03  0.50611368087E+02 -0.83085792725E+02  0.15646393855E+03  0.47000000000E+01 0. -1.
         -5    1    1    2    0  502  0.33903895823E+01  0.30352196568E+01 -0.36213386027E+03  0.36219294589E+03  0.47000000000E+01 0.  1.
        -11    1    1    2    0    0 -0.72318455119E+02  0.12160771592E+02 -0.32106372400E+03  0.32933229144E+03  0.00000000000E+00 0.  1.
         11    1    1    2    0    0 -0.53522391937E+02 -0.65807359337E+02 -0.20492797859E+03  0.22178983609E+03  0.00000000000E+00 0. -1.
<mgrwt>
<rscale>  0 0.44852607E+03</rscale>
<asrwt>0</asrwt>
<pdfrwt beam="1">  1        2 0.75821269E-02 0.44852607E+03</pdfrwt>
<pdfrwt beam="2">  1       -2 0.15699927E+00 0.44852607E+03</pdfrwt>
<totfact> 0.25656184E+02</totfact>
</mgrwt>
</event>
<event>
 6    1  0.9240440E-006  0.1461344E+03  0.7546771E-02  0.1214878E+00
          1   -1    0    0  501    0  0.00000000000E+00  0.00000000000E+00  0.13973956972E+04  0.13973956972E+04  0.00000000000E+00 0. -1.
         -1   -1    0    0    0  501 -0.00000000000E+00 -0.00000000000E+00 -0.16023540718E+02  0.16023540718E+02  0.00000000000E+00 0.  1.
          5    1    1    2  502    0  0.26133755148E+02 -0.58942989707E+01  0.50681657524E+03  0.50754590615E+03  0.47000000000E+01 0. -1.
         -5    1    1    2    0  502 -0.10170349194E+03  0.10014280518E+02  0.56503605812E+03  0.57422271207E+03  0.47000000000E+01 0. -1.
        -11    1    1    2    0    0 -0.18042207711E+01 -0.30602215562E+02  0.14153623988E+03  0.14481801687E+03  0.00000000000E+00 0. -1.
         11    1    1    2    0    0  0.77373957559E+02  0.26482234015E+02  0.16798328323E+03  0.18683260280E+03  0.00000000000E+00 0.  1.
<mgrwt>
<rscale>  0 0.13885498E+03</rscale>
<asrwt>0</asrwt>
<pdfrwt beam="1">  1        1 0.21498386E+00 0.14613444E+03</pdfrwt>
<pdfrwt beam="2">  1       -1 0.24651612E-02 0.14613444E+03</pdfrwt>
<totfact> 0.41709529E+03</totfact>
</mgrwt>
</event>
<event>
 6    1  0.9240440E-006  0.2131187E+03  0.7546771E-02  0.1142558E+00
         -1   -1    0    0    0  501 -0.00000000000E+00  0.00000000000E+00  0.43755825171E+02  0.43755825171E+02  0.00000000000E+00 0.  1.
          1   -1    0    0  501    0  0.00000000000E+00 -0.00000000000E+00 -0.95970938104E+03  0.95970938104E+03  0.00000000000E+00 0. -1.
          5    1    1    2  502    0 -0.90701374678E+02  0.16803389329E+03 -0.42359353189E+03  0.46466729918E+03  0.47000000000E+01 0. -1.
         -5    1    1    2    0  502  0.77534746422E+01 -0.16652655252E+02 -0.79020567906E+02  0.81263567779E+02  0.47000000000E+01 0. -1.
        -11    1    1    2    0    0  0.83105386329E+02 -0.68629122881E+02 -0.28634648501E+03  0.30595877373E+03  0.00000000000E+00 0. -1.
         11    1    1    2    0    0 -0.15748629301E+00 -0.82752115159E+02 -0.12699297105E+03  0.15157556552E+03  0.00000000000E+00 0.  1.
<mgrwt>
<rscale>  0 0.20875268E+03</rscale>
<asrwt>0</asrwt>
<pdfrwt beam="2">  1        1 0.14764761E+00 0.21311870E+03</pdfrwt>
<pdfrwt beam="1">  1       -1 0.67316650E-02 0.21311870E+03</pdfrwt>
<totfact> 0.19200310E+03</totfact>
</mgrwt>
</event>
<event>
 6    1  0.9240440E-006  0.1239774E+03  0.7546771E-02  0.1324639E+00
          2   -1    0    0  501    0  0.00000000000E+00  0.00000000000E+00  0.10953219735E+04  0.10953219735E+04  0.00000000000E+00 0. -1.
         -2   -1    0    0    0  501 -0.00000000000E+00 -0.00000000000E+00 -0.55773615919E+01  0.55773615919E+01  0.00000000000E+00 0.  1.
          5    1    1    2  502    0 -0.21155742536E+02  0.36565059660E+02  0.85579138720E+03  0.85684628577E+03  0.47000000000E+01 0. -1.
         -5    1    1    2    0  502  0.23330725190E+02 -0.39546154902E+02  0.16131156545E+03  0.16778477957E+03  0.47000000000E+01 0.  1.
        -11    1    1    2    0    0 -0.12495243077E+02  0.63739130994E+00  0.43543101591E+02  0.45304956278E+02  0.00000000000E+00 0. -1.
         11    1    1    2    0    0  0.10320260423E+02  0.23437039323E+01  0.29098557646E+02  0.30963313460E+02  0.00000000000E+00 0.  1.
<mgrwt>
<rscale>  0 0.81575557E+02</rscale>
<asrwt>0</asrwt>
<pdfrwt beam="1">  1        2 0.16851090E+00 0.12397743E+03</pdfrwt>
<pdfrwt beam="2">  1       -2 0.85805650E-03 0.12397743E+03</pdfrwt>
<totfact> 0.57019950E+04</totfact>
</mgrwt>
</event>
<event>
 6    1  0.9240440E-006  0.1361515E+03  0.7546771E-02  0.1230945E+00
         -2   -1    0    0    0  501 -0.00000000000E+00  0.00000000000E+00  0.48159597257E+02  0.48159597257E+02  0.00000000000E+00 0.  1.
          2   -1    0    0  501    0  0.00000000000E+00 -0.00000000000E+00 -0.33169084842E+03  0.33169084842E+03  0.00000000000E+00 0. -1.
          5    1    1    2  502    0 -0.73958943280E+02 -0.34275201405E+02 -0.10491633430E+03  0.13294450694E+03  0.47000000000E+01 0.  1.
         -5    1    1    2    0  502  0.21419798090E+02  0.46749222466E+02 -0.10920528219E+03  0.12079810102E+03  0.47000000000E+01 0.  1.
        -11    1    1    2    0    0  0.33239104625E+02 -0.27835393013E+01  0.16720344926E+02  0.37311608137E+02  0.00000000000E+00 0.  1.
         11    1    1    2    0    0  0.19300040565E+02 -0.96904817599E+01 -0.86129979603E+02  0.88796229588E+02  0.00000000000E+00 0. -1.
<mgrwt>
<rscale>  0 0.12767660E+03</rscale>
<asrwt>0</asrwt>
<pdfrwt beam="2">  1        2 0.51029361E-01 0.13615155E+03</pdfrwt>
<pdfrwt beam="1">  1       -2 0.74091689E-02 0.13615155E+03</pdfrwt>
<totfact> 0.99037525E+03</totfact>
</mgrwt>
</event>
<event>
 6    1  0.9240440E-006  0.1613835E+03  0.7546771E-02  0.1196650E+00
          2   -1    0    0  501    0  0.00000000000E+00  0.00000000000E+00  0.51401760478E+03  0.51401760478E+03  0.00000000000E+00 0.  1.
         -2   -1    0    0    0  501 -0.00000000000E+00 -0.00000000000E+00 -0.41610058532E+02  0.41610058532E+02  0.00000000000E+00 0. -1.
          5    1    1    2  502    0 -0.29333148384E+01 -0.37568294970E+02  0.22366032844E+03  0.22686122110E+03  0.47000000000E+01 0.  1.
         -5    1    1    2    0  502  0.55984237310E+02 -0.49638039017E+02  0.47684602274E+02  0.88848641175E+02  0.47000000000E+01 0.  1.
        -11    1    1    2    0    0 -0.49088591890E+02  0.58571925338E+01  0.74134551943E+02  0.89106275592E+02  0.00000000000E+00 0. -1.
         11    1    1    2    0    0 -0.39623305817E+01  0.81349141453E+02  0.12692806359E+03  0.15081152544E+03  0.00000000000E+00 0.  1.
<mgrwt>
<rscale>  0 0.15315386E+03</rscale>
<asrwt>0</asrwt>
<pdfrwt beam="1">  1        2 0.79079627E-01 0.16138354E+03</pdfrwt>
<pdfrwt beam="2">  1       -2 0.64015478E-02 0.16138354E+03</pdfrwt>
<totfact> 0.78111410E+03</totfact>
</mgrwt>
</event>
<event>
 6    1  0.9240440E-006  0.1362241E+03  0.7546771E-02  0.1230647E+00
         -2   -1    0    0    0  501 -0.00000000000E+00  0.00000000000E+00  0.16032784278E+03  0.16032784278E+03  0.00000000000E+00 0.  1.
          2   -1    0    0  501    0  0.00000000000E+00 -0.00000000000E+00 -0.11744062892E+03  0.11744062892E+03  0.00000000000E+00 0. -1.
          5    1    1    2  502    0  0.32662320730E+02  0.35576208567E+02 -0.27243473442E+02  0.55648815411E+02  0.47000000000E+01 0. -1.
         -5    1    1    2    0  502 -0.83690364254E+02 -0.17280579331E+02 -0.14318295741E+02  0.86774414915E+02  0.47000000000E+01 0. -1.
        -11    1    1    2    0    0 -0.13052736473E+02 -0.36694541286E+02  0.34654797934E+02  0.52132699042E+02  0.00000000000E+00 0.  1.
         11    1    1    2    0    0  0.64080779996E+02  0.18398912050E+02  0.49794185113E+02  0.83212542328E+02  0.00000000000E+00 0. -1.
<mgrwt>
<rscale>  0 0.12787279E+03</rscale>
<asrwt>0</asrwt>
<pdfrwt beam="2">  1        2 0.18067789E-01 0.13622406E+03</pdfrwt>
<pdfrwt beam="1">  1       -2 0.24665822E-01 0.13622406E+03</pdfrwt>
<totfact> 0.43521484E+03</totfact>
</mgrwt>
</event>
<event>
 6    1  0.9240440E-006  0.3995949E+03  0.7546771E-02  0.1044725E+00
          2   -1    0    0  501    0  0.00000000000E+00  0.00000000000E+00  0.21553778664E+04  0.21553778664E+04  0.00000000000E+00 0. -1.
         -2   -1    0    0    0  501 -0.00000000000E+00 -0.00000000000E+00 -0.72725593922E+02  0.72725593922E+02  0.00000000000E+00 0.  1.
          5    1    1    2  502    0 -0.74441470688E+02  0.22958722781E+02  0.10814012610E+03  0.13336046034E+03  0.47000000000E+01 0.  1.
         -5    1    1    2    0  502 -0.30344147600E+03 -0.58375273766E+02  0.86972360153E+03  0.92299817714E+03  0.47000000000E+01 0.  1.
        -11    1    1    2    0    0  0.19661106296E+03  0.58194566130E+02  0.51537099927E+03  0.55466186500E+03  0.00000000000E+00 0.  1.
         11    1    1    2    0    0  0.18127188373E+03 -0.22778015145E+02  0.58941754554E+03  0.61708295779E+03  0.00000000000E+00 0. -1.
<mgrwt>
<rscale>  0 0.39728131E+03</rscale>
<asrwt>0</asrwt>
<pdfrwt beam="1">  1        2 0.33159655E+00 0.39959492E+03</pdfrwt>
<pdfrwt beam="2">  1       -2 0.11188555E-01 0.39959492E+03</pdfrwt>
<totfact> 0.33367308E+02</totfact>
</mgrwt>
</event>
<event>
 6    1  0.9240440E-006  0.1428374E+03  0.7546771E-02  0.1219773E+00
         -1   -1    0    0    0  501 -0.00000000000E+00  0.00000000000E+00  0.37051896381E+02  0.37051896381E+02  0.00000000000E+00 0.  1.
          1   -1    0    0  501    0  0.00000000000E+00 -0.00000000000E+00 -0.46663379295E+03  0.46663379295E+03  0.00000000000E+00 0. -1.
          5    1    1    2  502    0  0.18285598417E+02  0.10395301040E+03 -0.22069950885E+03  0.24468541985E+03  0.47000000000E+01 0.  1.
         -5    1    1    2    0  502 -0.92621494099E+01 -0.35401581811E+02 -0.65400654314E+02  0.75089246841E+02  0.47000000000E+01 0.  1.
        -11    1    1    2    0    0  0.13442043771E+01  0.20837646206E+02 -0.49849373600E+02  0.54046039939E+02  0.00000000000E+00 0. -1.
         11    1    1    2    0    0 -0.10367653384E+02 -0.89389074794E+02 -0.93632359800E+02  0.12986498270E+03  0.00000000000E+00 0.  1.
<mgrwt>
<rscale>  0 0.13531695E+03</rscale>
<asrwt>0</asrwt>
<pdfrwt beam="2">  1        1 0.71789813E-01 0.14283744E+03</pdfrwt>
<pdfrwt beam="1">  1       -1 0.57002919E-02 0.14283744E+03</pdfrwt>
<totfact> 0.68684673E+03</totfact>
</mgrwt>
</event>
<event>
 6    1  0.9240440E-006  0.1297346E+03  0.7546771E-02  0.1240388E+00
         -2   -1    0    0    0  501 -0.00000000000E+00  0.00000000000E+00  0.47491177679E+02  0.47491177679E+02  0.00000000000E+00 0.  1.
          2   -1    0    0  501    0  0.00000000000E+00 -0.00000000000E+00 -0.29159055731E+03  0.29159055731E+03  0.00000000000E+00 0. -1.
          5    1    1    2  502    0  0.27486710769E+02 -0.20083317027E+02 -0.11124803417E+03  0.11643484872E+03  0.47000000000E+01 0.  1.
         -5    1    1    2    0  502 -0.46109643541E+02 -0.92261503329E+01  0.97898923638E+01  0.48261299919E+02  0.47000000000E+01 0.  1.
        -11    1    1    2    0    0  0.39076429853E+00  0.55672864772E+02 -0.44903158716E+02  0.71525619405E+02  0.00000000000E+00 0.  1.
         11    1    1    2    0    0  0.18232168473E+02 -0.26363397412E+02 -0.97738079111E+02  0.10285996694E+03  0.00000000000E+00 0. -1.
<mgrwt>
<rscale>  0 0.12165702E+03</rscale>
<asrwt>0</asrwt>
<pdfrwt beam="2">  1        2 0.44860085E-01 0.12973460E+03</pdfrwt>
<pdfrwt beam="1">  1       -2 0.73063351E-02 0.12973460E+03</pdfrwt>
<totfact> 0.11555048E+04</totfact>
</mgrwt>
</event>
<event>
 6    1  0.9240440E-006  0.1340103E+03  0.7546771E-02  0.1234681E+00
         -4   -1    0    0    0  501 -0.00000000000E+00  0.00000000000E+00  0.56860129731E+02  0.56860129731E+02  0.00000000000E+00 0.  1.
          4   -1    0    0  501    0  0.00000000000E+00 -0.00000000000E+00 -0.25321692424E+03  0.25321692424E+03  0.00000000000E+00 0. -1.
          5    1    1    2  502    0 -0.54367705309E+02  0.66783775683E+01 -0.73942717618E+02  0.92141541100E+02  0.47000000000E+01 0.  1.
         -5    1    1    2    0  502  0.53791703396E+02 -0.54987487324E+02 -0.63971447863E+02  0.10015791161E+03  0.47000000000E+01 0.  1.
        -11    1    1    2    0    0  0.21189153513E+01  0.10323933888E+02  0.24427204720E+02  0.26603791903E+02  0.00000000000E+00 0.  1.
         11    1    1    2    0    0 -0.15429134376E+01  0.37985175868E+02 -0.82869833750E+02  0.91173809360E+02  0.00000000000E+00 0. -1.
<mgrwt>
<rscale>  0 0.12524906E+03</rscale>
<asrwt>0</asrwt>
<pdfrwt beam="2">  1        4 0.38956450E-01 0.13401031E+03</pdfrwt>
<pdfrwt beam="1">  1       -4 0.87477121E-02 0.13401031E+03</pdfrwt>
<totfact> 0.10038383E+03</totfact>
</mgrwt>
</event>
<event>
 6    1  0.9240440E-006  0.1548473E+03  0.7546771E-02  0.1202975E+00
          2   -1    0    0  501    0  0.00000000000E+00  0.00000000000E+00  0.14044918437E+04  0.14044918437E+04  0.00000000000E+00 0. -1.
         -2   -1    0    0    0  501 -0.00000000000E+00 -0.00000000000E+00 -0.15176644952E+02  0.15176644952E+02  0.00000000000E+00 0.  1.
          5    1    1    2  502    0  0.91212808436E+02 -0.68710184992E+02  0.76821549681E+03  0.77667110509E+03  0.47000000000E+01 0.  1.
         -5    1    1    2    0  502 -0.36493672071E+02 -0.44889498487E+01  0.15017694851E+03  0.15468401545E+03  0.47000000000E+01 0.  1.
        -11    1    1    2    0    0  0.12009754837E+02  0.27719764201E+02  0.41313005520E+02  0.51179917582E+02  0.00000000000E+00 0.  1.
         11    1    1    2    0    0 -0.66728891202E+02  0.45479370639E+02  0.42960974794E+03  0.43713345057E+03  0.00000000000E+00 0. -1.
<mgrwt>
<rscale>  0 0.14798160E+03</rscale>
<asrwt>0</asrwt>
<pdfrwt beam="1">  1        2 0.21607557E+00 0.15484727E+03</pdfrwt>
<pdfrwt beam="2">  1       -2 0.23348696E-02 0.15484727E+03</pdfrwt>
<totfact> 0.92601233E+03</totfact>
</mgrwt>
</event>
<event>
 6    1  0.9240440E-006  0.1688668E+03  0.7546771E-02  0.1182842E+00
          2   -1    0    0  501    0  0.00000000000E+00  0.00000000000E+00  0.11345017558E+03  0.11345017558E+03  0.00000000000E+00 0. -1.
         -2   -1    0    0    0  501 -0.00000000000E+00 -0.00000000000E+00 -0.28645260055E+03  0.28645260055E+03  0.00000000000E+00 0.  1.
          5    1    1    2  502    0 -0.63116257199E+02  0.62291878910E+02 -0.18630521599E+02  0.90736577167E+02  0.47000000000E+01 0.  1.
         -5    1    1    2    0  502 -0.61569753174E+02 -0.44798220385E+02  0.16908416586E+02  0.78138976235E+02  0.47000000000E+01 0. -1.
        -11    1    1    2    0    0 -0.14049543173E+02  0.23444431639E+01 -0.10231978808E+02  0.17537943649E+02  0.00000000000E+00 0. -1.
         11    1    1    2    0    0  0.13873555355E+03 -0.19838101689E+02 -0.16104834115E+03  0.21348927908E+03  0.00000000000E+00 0.  1.
<mgrwt>
<rscale>  0 0.16529790E+03</rscale>
<asrwt>0</asrwt>
<pdfrwt beam="1">  1        2 0.17453873E-01 0.16886677E+03</pdfrwt>
<pdfrwt beam="2">  1       -2 0.44069631E-01 0.16886677E+03</pdfrwt>
<totfact> 0.15786730E+03</totfact>
</mgrwt>
</event>
<event>
 6    1  0.9240440E-006  0.1335117E+03  0.7546771E-02  0.1236294E+00
          2   -1    0    0  501    0  0.00000000000E+00  0.00000000000E+00  0.83233762802E+03  0.83233762802E+03  0.00000000000E+00 0.  1.
         -2   -1    0    0    0  501 -0.00000000000E+00 -0.00000000000E+00 -0.16579670248E+02  0.16579670248E+02  0.00000000000E+00 0. -1.
          5    1    1    2  502    0  0.44511530291E+02  0.44484035897E+02  0.27900312712E+03  0.28605059120E+03  0.47000000000E+01 0.  1.
         -5    1    1    2    0  502 -0.44710792003E+01 -0.68922344243E+02  0.23221710962E+03  0.24231623157E+03  0.47000000000E+01 0.  1.
        -11    1    1    2    0    0  0.55485987477E+01  0.33808677088E+02  0.43379449854E+02  0.55277393789E+02  0.00000000000E+00 0. -1.
         11    1    1    2    0    0 -0.45589049838E+02 -0.93703687424E+01  0.26115827117E+03  0.26527308171E+03  0.00000000000E+00 0.  1.
<mgrwt>
<rscale>  0 0.12421967E+03</rscale>
<asrwt>0</asrwt>
<pdfrwt beam="1">  1        2 0.12805191E+00 0.13351168E+03</pdfrwt>
<pdfrwt beam="2">  1       -2 0.25507191E-02 0.13351168E+03</pdfrwt>
<totfact> 0.17280910E+04</totfact>
</mgrwt>
</event>
<event>
 6    1  0.9240440E-006  0.2330431E+03  0.7546771E-02  0.1127360E+00
          1   -1    0    0  501    0  0.00000000000E+00  0.00000000000E+00  0.31310793297E+03  0.31310793297E+03  0.00000000000E+00 0. -1.
         -1   -1    0    0    0  501 -0.00000000000E+00 -0.00000000000E+00 -0.16991262642E+03  0.16991262642E+03  0.00000000000E+00 0.  1.
          5    1    1    2  502    0 -0.81608482819E+00  0.68907688008E+01 -0.15926666666E+02  0.17997149780E+02  0.47000000000E+01 0.  1.
         -5    1    1    2    0  502 -0.11016125015E+03 -0.16925465254E+03  0.14244302521E+03  0.24717350965E+03  0.47000000000E+01 0.  1.
        -11    1    1    2    0    0  0.77929367157E+02  0.49582122820E+02 -0.20446422467E+02  0.94601423671E+02  0.00000000000E+00 0. -1.
         11    1    1    2    0    0  0.33047967825E+02  0.11278176092E+03  0.37125370471E+02  0.12324847629E+03  0.00000000000E+00 0.  1.
<mgrwt>
<rscale>  0 0.22897991E+03</rscale>
<asrwt>0</asrwt>
<pdfrwt beam="1">  1        1 0.48170451E-01 0.23304311E+03</pdfrwt>
<pdfrwt beam="2">  1       -1 0.26140404E-01 0.23304311E+03</pdfrwt>
<totfact> 0.10713660E+03</totfact>
</mgrwt>
</event>
<event>
 6    1  0.9240440E-006  0.1389401E+03  0.7546771E-02  0.1231323E+00
          3   -1    0    0  501    0  0.00000000000E+00  0.00000000000E+00  0.27299889155E+03  0.27299889155E+03  0.00000000000E+00 0. -1.
         -3   -1    0    0    0  501 -0.00000000000E+00 -0.00000000000E+00 -0.52050398164E+02  0.52050398164E+02  0.00000000000E+00 0.  1.
          5    1    1    2  502    0 -0.84651798288E+02  0.14796081102E+02  0.10996309010E+03  0.13963818301E+03  0.47000000000E+01 0.  1.
         -5    1    1    2    0  502  0.29608509974E+02 -0.40216028618E+02  0.35050532912E+02  0.61193322170E+02  0.47000000000E+01 0.  1.
        -11    1    1    2    0    0  0.23269779924E+02 -0.26457131314E+02  0.15585757976E+02  0.38527630433E+02  0.00000000000E+00 0.  1.
         11    1    1    2    0    0  0.31773508390E+02  0.51877078831E+02  0.60349112397E+02  0.85690154105E+02  0.00000000000E+00 0. -1.
<mgrwt>
<rscale>  0 0.12742803E+03</rscale>
<asrwt>0</asrwt>
<pdfrwt beam="1">  1        3 0.41999829E-01 0.13894007E+03</pdfrwt>
<pdfrwt beam="2">  1       -3 0.80077537E-02 0.13894007E+03</pdfrwt>
<totfact> 0.13891004E+03</totfact>
</mgrwt>
</event>
<event>
 6    1  0.9240440E-006  0.2328960E+03  0.7546771E-02  0.1124618E+00
         -2   -1    0    0    0  501 -0.00000000000E+00  0.00000000000E+00  0.14840990078E+02  0.14840990078E+02  0.00000000000E+00 0.  1.
          2   -1    0    0  501    0  0.00000000000E+00 -0.00000000000E+00 -0.91369482701E+03  0.91369482701E+03  0.00000000000E+00 0. -1.
          5    1    1    2  502    0  0.31745784986E+02  0.25851864765E+02 -0.35773188512E+02  0.54570365516E+02  0.47000000000E+01 0. -1.
         -5    1    1    2    0  502 -0.42169113364E+01  0.20749881865E+00 -0.40739587679E+03  0.40744486231E+03  0.47000000000E+01 0. -1.
        -11    1    1    2    0    0 -0.35411580400E+01 -0.57995665655E+02 -0.31317079731E+03  0.31851528271E+03  0.00000000000E+00 0.  1.
         11    1    1    2    0    0 -0.23987715610E+02  0.31936302071E+02 -0.14251397432E+03  0.14800530655E+03  0.00000000000E+00 0. -1.
<mgrwt>
<rscale>  0 0.23289599E+03</rscale>
<asrwt>0</asrwt>
<pdfrwt beam="2">  1        2 0.14056844E+00 0.23289599E+03</pdfrwt>
<pdfrwt beam="1">  1       -2 0.22832292E-02 0.23289599E+03</pdfrwt>
<totfact> 0.18689470E+04</totfact>
</mgrwt>
</event>
<event>
 6    1  0.9240440E-006  0.1434893E+03  0.7546771E-02  0.1218876E+00
         -2   -1    0    0    0  501 -0.00000000000E+00  0.00000000000E+00  0.19682460064E+03  0.19682460064E+03  0.00000000000E+00 0.  1.
          2   -1    0    0  501    0  0.00000000000E+00 -0.00000000000E+00 -0.94445061297E+02  0.94445061297E+02  0.00000000000E+00 0. -1.
          5    1    1    2  502    0  0.19463276278E+02  0.48693820736E+02  0.54297107574E+02  0.75631826583E+02  0.47000000000E+01 0. -1.
         -5    1    1    2    0  502 -0.50606313241E+02  0.14503562569E+02 -0.43233958442E+02  0.68283361294E+02  0.47000000000E+01 0. -1.
        -11    1    1    2    0    0  0.33982283905E+01 -0.20478648963E+02 -0.17535472304E+02  0.27173807398E+02  0.00000000000E+00 0. -1.
         11    1    1    2    0    0  0.27744808572E+02 -0.42718734342E+02  0.10885186251E+03  0.12018066666E+03  0.00000000000E+00 0.  1.
<mgrwt>
<rscale>  0 0.13595652E+03</rscale>
<asrwt>0</asrwt>
<pdfrwt beam="2">  1        2 0.14530010E-01 0.14348933E+03</pdfrwt>
<pdfrwt beam="1">  1       -2 0.30280708E-01 0.14348933E+03</pdfrwt>
<totfact> 0.39090743E+03</totfact>
</mgrwt>
</event>
<event>
 6    1  0.9240440E-006  0.1334807E+03  0.7546771E-02  0.1234475E+00
          3   -1    0    0  501    0  0.00000000000E+00  0.00000000000E+00  0.43859071949E+03  0.43859071949E+03  0.00000000000E+00 0. -1.
         -3   -1    0    0    0  501 -0.00000000000E+00 -0.00000000000E+00 -0.51221824164E+02  0.51221824164E+02  0.00000000000E+00 0.  1.
          5    1    1    2  502    0 -0.39218748845E+02  0.17967421080E+02  0.99431735230E+02  0.10848824108E+03  0.47000000000E+01 0. -1.
         -5    1    1    2    0  502  0.75825090536E+02 -0.47139342193E+02  0.25819764837E+03  0.27323923137E+03  0.47000000000E+01 0. -1.
        -11    1    1    2    0    0 -0.43288595739E+02  0.90154762956E+01 -0.23993794584E+02  0.50307887179E+02  0.00000000000E+00 0.  1.
         11    1    1    2    0    0  0.66822540481E+01  0.20156444818E+02  0.53733306308E+02  0.57777184023E+02  0.00000000000E+00 0. -1.
<mgrwt>
<rscale>  0 0.12538090E+03</rscale>
<asrwt>0</asrwt>
<pdfrwt beam="1">  1        3 0.67475493E-01 0.13348066E+03</pdfrwt>
<pdfrwt beam="2">  1       -3 0.78802809E-02 0.13348066E+03</pdfrwt>
<totfact> 0.54456586E+02</totfact>
</mgrwt>
</event>
<event>
 6    1  0.9240440E-006  0.2615691E+03  0.7546771E-02  0.1106204E+00
         -2   -1    0    0    0  501 -0.00000000000E+00  0.00000000000E+00  0.22688975052E+03  0.22688975052E+03  0.00000000000E+00 0.  1.
          2   -1    0    0  501    0  0.00000000000E+00 -0.00000000000E+00 -0.75387294307E+02  0.75387294307E+02  0.00000000000E+00 0. -1.
          5    1    1    2  502    0 -0.31502641082E+02  0.40896576332E+01  0.55408451960E+02  0.64041613372E+02  0.47000000000E+01 0. -1.
         -5    1    1    2    0  502  0.86847611023E+02  0.41125403627E+02  0.19103401353E+02  0.98085861912E+02  0.47000000000E+01 0. -1.
        -11    1    1    2    0    0 -0.26380046985E+02 -0.17938841321E+02 -0.18376569357E+02  0.36815855391E+02  0.00000000000E+00 0. -1.
         11    1    1    2    0    0 -0.28964922956E+02 -0.27276219939E+02  0.95367172259E+02  0.10333371415E+03  0.00000000000E+00 0.  1.
<mgrwt>
<rscale>  0 0.26156914E+03</rscale>
<asrwt>0</asrwt>
<pdfrwt beam="2">  1        2 0.11598045E-01 0.26156914E+03</pdfrwt>
<pdfrwt beam="1">  1       -2 0.34906115E-01 0.26156914E+03</pdfrwt>
<totfact> 0.40812888E+03</totfact>
</mgrwt>
</event>
<event>
 6    1  0.9240440E-006  0.1404295E+03  0.7546771E-02  0.1224426E+00
         -2   -1    0    0    0  501 -0.00000000000E+00  0.00000000000E+00  0.67200980931E+02  0.67200980931E+02  0.00000000000E+00 0.  1.
          2   -1    0    0  501    0  0.00000000000E+00 -0.00000000000E+00 -0.24421497607E+03  0.24421497607E+03  0.00000000000E+00 0. -1.
          5    1    1    2  502    0 -0.30014880656E+02 -0.24485917009E+02 -0.90597502236E+01  0.40057736665E+02  0.47000000000E+01 0.  1.
         -5    1    1    2    0  502  0.90363689998E+02  0.29417140931E+01 -0.12288147438E+03  0.15263091724E+03  0.47000000000E+01 0.  1.
        -11    1    1    2    0    0  0.21017444037E+02  0.12310958729E+02 -0.23946897497E+02  0.34157672029E+02  0.00000000000E+00 0.  1.
         11    1    1    2    0    0 -0.81366253379E+02  0.92332441872E+01 -0.21125873037E+02  0.84569631066E+02  0.00000000000E+00 0. -1.
<mgrwt>
<rscale>  0 0.13206351E+03</rscale>
<asrwt>0</asrwt>
<pdfrwt beam="2">  1        2 0.37571535E-01 0.14042945E+03</pdfrwt>
<pdfrwt beam="1">  1       -2 0.10338612E-01 0.14042945E+03</pdfrwt>
<totfact> 0.81813082E+03</totfact>
</mgrwt>
</event>
<event>
 6    1  0.9240440E-006  0.2202646E+03  0.7546771E-02  0.1137279E+00
          2   -1    0    0  501    0  0.00000000000E+00  0.00000000000E+00  0.11437846354E+03  0.11437846354E+03  0.00000000000E+00 0. -1.
         -2   -1    0    0    0  501 -0.00000000000E+00 -0.00000000000E+00 -0.45117298528E+03  0.45117298528E+03  0.00000000000E+00 0.  1.
          5    1    1    2  502    0 -0.54937494964E+02  0.13346722955E+03 -0.69534995595E+02  0.16027736999E+03  0.47000000000E+01 0.  1.
         -5    1    1    2    0  502 -0.70700260571E+02 -0.26701598029E+01 -0.68663562810E+00  0.70909929253E+02  0.47000000000E+01 0.  1.
        -11    1    1    2    0    0  0.91236096946E+02 -0.13451521443E+03 -0.24354055434E+03  0.29279748959E+03  0.00000000000E+00 0. -1.
         11    1    1    2    0    0  0.34401658589E+02  0.37181446844E+01 -0.23032336176E+02  0.41566659997E+02  0.00000000000E+00 0.  1.
<mgrwt>
<rscale>  0 0.21550574E+03</rscale>
<asrwt>0</asrwt>
<pdfrwt beam="1">  1        2 0.17596687E-01 0.22026459E+03</pdfrwt>
<pdfrwt beam="2">  1       -2 0.69411229E-01 0.22026459E+03</pdfrwt>
<totfact> 0.62515245E+02</totfact>
</mgrwt>
</event>
<event>
 6    1  0.9240440E-006  0.1390801E+03  0.7546771E-02  0.1225782E+00
          1   -1    0    0  501    0  0.00000000000E+00  0.00000000000E+00  0.60428182371E+03  0.60428182371E+03  0.00000000000E+00 0. -1.
         -1   -1    0    0    0  501 -0.00000000000E+00 -0.00000000000E+00 -0.37871322522E+02  0.37871322522E+02  0.00000000000E+00 0.  1.
          5    1    1    2  502    0 -0.95468519647E+02  0.25002820418E+02  0.38457547902E+03  0.39706393482E+03  0.47000000000E+01 0.  1.
         -5    1    1    2    0  502  0.37857399643E+02 -0.49897703049E+01  0.10263724995E+03  0.10961101948E+03  0.47000000000E+01 0.  1.
        -11    1    1    2    0    0 -0.27194722769E+01 -0.25931158863E+02 -0.97506937544E+01  0.27836963881E+02  0.00000000000E+00 0.  1.
         11    1    1    2    0    0  0.60330592281E+02  0.59181087494E+01  0.88948465984E+02  0.10764122805E+03  0.00000000000E+00 0. -1.
<mgrwt>
<rscale>  0 0.13113429E+03</rscale>
<asrwt>0</asrwt>
<pdfrwt beam="1">  1        1 0.92966427E-01 0.13908007E+03</pdfrwt>
<pdfrwt beam="2">  1       -1 0.58263578E-02 0.13908007E+03</pdfrwt>
<totfact> 0.47147177E+03</totfact>
</mgrwt>
</event>
<event>
 6    1  0.9240440E-006  0.1285727E+03  0.7546771E-02  0.1243074E+00
         -1   -1    0    0    0  501 -0.00000000000E+00  0.00000000000E+00  0.38071643524E+03  0.38071643524E+03  0.00000000000E+00 0.  1.
          1   -1    0    0  501    0  0.00000000000E+00 -0.00000000000E+00 -0.45831279325E+02  0.45831279325E+02  0.00000000000E+00 0. -1.
          5    1    1    2  502    0  0.83670339093E+00  0.42464099894E+02 -0.34205381863E+01  0.42868285875E+02  0.47000000000E+01 0. -1.
         -5    1    1    2    0  502  0.10142224539E+02 -0.70479431635E+02  0.78215682959E+02  0.10587727831E+03  0.47000000000E+01 0. -1.
        -11    1    1    2    0    0 -0.40138921757E+02 -0.13102376057E+02  0.16332633350E+03  0.16869586987E+03  0.00000000000E+00 0.  1.
         11    1    1    2    0    0  0.29159993826E+02  0.41117707798E+02  0.96763677643E+02  0.10910628050E+03  0.00000000000E+00 0. -1.
<mgrwt>
<rscale>  0 0.12001409E+03</rscale>
<asrwt>0</asrwt>
<pdfrwt beam="2">  1        1 0.70509663E-02 0.12857266E+03</pdfrwt>
<pdfrwt beam="1">  1       -1 0.58571757E-01 0.12857266E+03</pdfrwt>
<totfact> 0.30251739E+03</totfact>
</mgrwt>
</event>
<event>
 6    1  0.9240440E-006  0.1436245E+03  0.7546771E-02  0.1219555E+00
         -4   -1    0    0    0  501 -0.00000000000E+00  0.00000000000E+00  0.22650595586E+02  0.22650595586E+02  0.00000000000E+00 0.  1.
          4   -1    0    0  501    0  0.00000000000E+00 -0.00000000000E+00 -0.73324916561E+03  0.73324916561E+03  0.00000000000E+00 0. -1.
          5    1    1    2  502    0 -0.68200161675E+02 -0.79041111366E+02 -0.29485951263E+03  0.31283059557E+03  0.47000000000E+01 0.  1.
         -5    1    1    2    0  502  0.12288214201E+02  0.35721211692E+02 -0.79797644026E+02  0.88412437841E+02  0.47000000000E+01 0.  1.
        -11    1    1    2    0    0  0.19255643440E+02 -0.16927058390E+02 -0.24967504454E+02  0.35786609070E+02  0.00000000000E+00 0.  1.
         11    1    1    2    0    0  0.36656304035E+02  0.60246958064E+02 -0.31097390892E+03  0.31887011872E+03  0.00000000000E+00 0. -1.
<mgrwt>
<rscale>  0 0.13547187E+03</rscale>
<asrwt>0</asrwt>
<pdfrwt beam="2">  1        4 0.11280755E+00 0.14362446E+03</pdfrwt>
<pdfrwt beam="1">  1       -4 0.34847076E-02 0.14362446E+03</pdfrwt>
<totfact> 0.46086665E+02</totfact>
</mgrwt>
</event>
<event>
 6    1  0.9240440E-006  0.2046844E+03  0.7546771E-02  0.1149865E+00
         -2   -1    0    0    0  501 -0.00000000000E+00  0.00000000000E+00  0.33460324809E+02  0.33460324809E+02  0.00000000000E+00 0. -1.
          2   -1    0    0  501    0  0.00000000000E+00 -0.00000000000E+00 -0.11479634553E+04  0.11479634553E+04  0.00000000000E+00 0.  1.
          5    1    1    2  502    0  0.46326888033E+02  0.14056085206E+03 -0.39845995737E+03  0.42508347571E+03  0.47000000000E+01 0.  1.
         -5    1    1    2    0  502 -0.47092880045E+02  0.21516205457E+02 -0.23268614308E+03  0.23842319021E+03  0.47000000000E+01 0.  1.
        -11    1    1    2    0    0  0.14525262189E+02 -0.12084397543E+03 -0.43999323795E+03  0.45651757806E+03  0.00000000000E+00 0.  1.
         11    1    1    2    0    0 -0.13759270178E+02 -0.41233082090E+02 -0.43363792136E+02  0.61399536178E+02  0.00000000000E+00 0. -1.
<mgrwt>
<rscale>  0 0.19985016E+03</rscale>
<asrwt>0</asrwt>
<pdfrwt beam="2">  1        2 0.17660974E+00 0.20468438E+03</pdfrwt>
<pdfrwt beam="1">  1       -2 0.51477430E-02 0.20468438E+03</pdfrwt>
<totfact> 0.39830839E+03</totfact>
</mgrwt>
</event>
<event>
 6    1  0.9240440E-006  0.1685834E+03  0.7546771E-02  0.1185943E+00
          2   -1    0    0  501    0  0.00000000000E+00  0.00000000000E+00  0.57631734346E+03  0.57631734346E+03  0.00000000000E+00 0. -1.
         -2   -1    0    0    0  501 -0.00000000000E+00 -0.00000000000E+00 -0.92328733479E+02  0.92328733479E+02  0.00000000000E+00 0.  1.
          5    1    1    2  502    0  0.22392599624E+02  0.61885220215E+02  0.18415564969E+03  0.19561851219E+03  0.47000000000E+01 0.  1.
         -5    1    1    2    0  502 -0.10039224237E+03  0.20039463433E+02  0.31074990918E+03  0.32721213070E+03  0.47000000000E+01 0.  1.
        -11    1    1    2    0    0  0.60567401135E+01  0.11588267931E+02  0.19955899020E+02  0.23858121471E+02  0.00000000000E+00 0. -1.
         11    1    1    2    0    0  0.71942902636E+02 -0.93512951578E+02 -0.30872847909E+02  0.12195731258E+03  0.00000000000E+00 0.  1.
<mgrwt>
<rscale>  0 0.16246390E+03</rscale>
<asrwt>0</asrwt>
<pdfrwt beam="1">  1        2 0.88664204E-01 0.16858342E+03</pdfrwt>
<pdfrwt beam="2">  1       -2 0.14204421E-01 0.16858342E+03</pdfrwt>
<totfact> 0.19609898E+03</totfact>
</mgrwt>
</event>
<event>
 6    1  0.9240440E-006  0.1485919E+03  0.7546771E-02  0.1213966E+00
          1   -1    0    0  501    0  0.00000000000E+00  0.00000000000E+00  0.23590627403E+02  0.23590627403E+02  0.00000000000E+00 0. -1.
         -1   -1    0    0    0  501 -0.00000000000E+00 -0.00000000000E+00 -0.74107197519E+03  0.74107197519E+03  0.00000000000E+00 0.  1.
          5    1    1    2  502    0 -0.17305591070E+02  0.22670142179E+02 -0.10713073401E+02  0.30826591936E+02  0.47000000000E+01 0.  1.
         -5    1    1    2    0  502 -0.59340252068E+02 -0.46812408910E+02 -0.37390850159E+03  0.38150009791E+03  0.47000000000E+01 0.  1.
        -11    1    1    2    0    0  0.62203206915E+02 -0.33566773898E+01 -0.30269395041E+03  0.30903743115E+03  0.00000000000E+00 0.  1.
         11    1    1    2    0    0  0.14442636223E+02  0.27498944120E+02 -0.30165822379E+02  0.43298481597E+02  0.00000000000E+00 0. -1.
<mgrwt>
<rscale>  0 0.13952787E+03</rscale>
<asrwt>0</asrwt>
<pdfrwt beam="1">  1        1 0.36293271E-02 0.14859187E+03</pdfrwt>
<pdfrwt beam="2">  1       -1 0.11401108E+00 0.14859187E+03</pdfrwt>
<totfact> 0.18980090E+03</totfact>
</mgrwt>
</event>
<event>
 6    1  0.9240440E-006  0.3493500E+03  0.7546771E-02  0.1063933E+00
         -2   -1    0    0    0  501 -0.00000000000E+00  0.00000000000E+00  0.46985975729E+03  0.46985975729E+03  0.00000000000E+00 0.  1.
          2   -1    0    0  501    0  0.00000000000E+00 -0.00000000000E+00 -0.25326296181E+03  0.25326296181E+03  0.00000000000E+00 0. -1.
          5    1    1    2  502    0 -0.43598127964E+02  0.15242578327E+02  0.63409821961E+02  0.78587711999E+02  0.47000000000E+01 0.  1.
         -5    1    1    2    0  502 -0.27616101876E+03  0.49380943856E+02  0.24467760738E+02  0.28164542818E+03  0.47000000000E+01 0.  1.
        -11    1    1    2    0    0  0.94367005181E+02  0.13074858516E+02  0.67466132177E+02  0.11673800831E+03  0.00000000000E+00 0.  1.
         11    1    1    2    0    0  0.22539214154E+03 -0.77698380700E+02  0.61253080609E+02  0.24615157062E+03  0.00000000000E+00 0. -1.
<mgrwt>
<rscale>  0 0.34680834E+03</rscale>
<asrwt>0</asrwt>
<pdfrwt beam="2">  1        2 0.38963533E-01 0.34935003E+03</pdfrwt>
<pdfrwt beam="1">  1       -2 0.72286116E-01 0.34935003E+03</pdfrwt>
<totfact> 0.23469047E+02</totfact>
</mgrwt>
</event>
<event>
 6    1  0.9240440E-006  0.1761151E+03  0.7546771E-02  0.1177383E+00
          4   -1    0    0  501    0  0.00000000000E+00  0.00000000000E+00  0.25570580364E+03  0.25570580364E+03  0.00000000000E+00 0. -1.
         -4   -1    0    0    0  501 -0.00000000000E+00 -0.00000000000E+00 -0.13240525215E+03  0.13240525215E+03  0.00000000000E+00 0.  1.
          5    1    1    2  502    0 -0.44798418102E+02 -0.10314163866E+02 -0.13262910501E+02  0.48075721894E+02  0.47000000000E+01 0.  1.
         -5    1    1    2    0  502 -0.77811049833E+02  0.29255082821E+02  0.16323115606E+03  0.18324006018E+03  0.47000000000E+01 0.  1.
        -11    1    1    2    0    0  0.10853097868E+03 -0.17979437391E+02 -0.56590328371E+02  0.12371216095E+03  0.00000000000E+00 0.  1.
         11    1    1    2    0    0  0.14078489253E+02 -0.96148156359E+00  0.29922634304E+02  0.33083112764E+02  0.00000000000E+00 0. -1.
<mgrwt>
<rscale>  0 0.17044611E+03</rscale>
<asrwt>0</asrwt>
<pdfrwt beam="1">  1        4 0.39339354E-01 0.17611507E+03</pdfrwt>
<pdfrwt beam="2">  1       -4 0.20370039E-01 0.17611507E+03</pdfrwt>
<totfact> 0.23912099E+02</totfact>
</mgrwt>
</event>
<event>
 6    1  0.9240440E-006  0.2090574E+03  0.7546771E-02  0.1145189E+00
          3   -1    0    0  501    0  0.00000000000E+00  0.00000000000E+00  0.20063238358E+03  0.20063238358E+03  0.00000000000E+00 0. -1.
         -3   -1    0    0    0  501 -0.00000000000E+00 -0.00000000000E+00 -0.20835643174E+03  0.20835643174E+03  0.00000000000E+00 0.  1.
          5    1    1    2  502    0  0.13855689822E+03  0.40990338609E+02  0.58328538994E+02  0.15589268862E+03  0.47000000000E+01 0. -1.
         -5    1    1    2    0  502  0.34714688451E+02 -0.28309127166E+02 -0.31381240426E+02  0.54894339652E+02  0.47000000000E+01 0.  1.
        -11    1    1    2    0    0 -0.13329209211E+02 -0.29303567359E+02 -0.17067785240E+02  0.36437290941E+02  0.00000000000E+00 0.  1.
         11    1    1    2    0    0 -0.15994237746E+03  0.16622355915E+02 -0.17603561494E+02  0.16176449611E+03  0.00000000000E+00 0. -1.
<mgrwt>
<rscale>  0 0.20548919E+03</rscale>
<asrwt>0</asrwt>
<pdfrwt beam="1">  1        3 0.30866521E-01 0.20905744E+03</pdfrwt>
<pdfrwt beam="2">  1       -3 0.32054836E-01 0.20905744E+03</pdfrwt>
<totfact> 0.23683328E+02</totfact>
</mgrwt>
</event>
<event>
 6    1  0.9240440E-006  0.1250682E+03  0.7546771E-02  0.1245627E+00
         -1   -1    0    0    0  501 -0.00000000000E+00  0.00000000000E+00  0.32972152560E+02  0.32972152560E+02  0.00000000000E+00 0.  1.
          1   -1    0    0  501    0  0.00000000000E+00 -0.00000000000E+00 -0.42007223767E+03  0.42007223767E+03  0.00000000000E+00 0. -1.
          5    1    1    2  502    0  0.37332899553E+02  0.35582696309E+02 -0.53585948328E+02  0.74521255517E+02  0.47000000000E+01 0. -1.
         -5    1    1    2    0  502 -0.34707416060E+02 -0.38770598108E+02 -0.22281601082E+03  0.22885984507E+03  0.47000000000E+01 0. -1.
        -11    1    1    2    0    0 -0.14926251470E+02  0.46389888181E+02 -0.84821745434E+02  0.97824042070E+02  0.00000000000E+00 0.  1.
         11    1    1    2    0    0  0.12300767978E+02 -0.43201986381E+02 -0.25876380534E+02  0.51839247580E+02  0.00000000000E+00 0. -1.
<mgrwt>
<rscale>  0 0.11847910E+03</rscale>
<asrwt>0</asrwt>
<pdfrwt beam="2">  1        1 0.64626495E-01 0.12506818E+03</pdfrwt>
<pdfrwt beam="1">  1       -1 0.50726391E-02 0.12506818E+03</pdfrwt>
<totfact> 0.92566681E+03</totfact>
</mgrwt>
</event>
<event>
 6    1  0.9240440E-006  0.1364897E+03  0.7546771E-02  0.1229996E+00
          2   -1    0    0  501    0  0.00000000000E+00  0.00000000000E+00  0.40750738346E+03  0.40750738346E+03  0.00000000000E+00 0. -1.
         -2   -1    0    0    0  501 -0.00000000000E+00 -0.00000000000E+00 -0.36609400959E+02  0.36609400959E+02  0.00000000000E+00 0.  1.
          5    1    1    2  502    0 -0.70850674139E+02  0.26141937063E+02  0.62164615647E+02  0.97927260443E+02  0.47000000000E+01 0.  1.
         -5    1    1    2    0  502  0.23309284851E+02  0.10839525086E+01  0.16789478035E+03  0.16957371548E+03  0.47000000000E+01 0.  1.
        -11    1    1    2    0    0 -0.18921880971E+02  0.77436502440E+01  0.71621071662E+02  0.74482075727E+02  0.00000000000E+00 0. -1.
         11    1    1    2    0    0  0.66463270258E+02 -0.34969539815E+02  0.69217514841E+02  0.10213373277E+03  0.00000000000E+00 0.  1.
<mgrwt>
<rscale>  0 0.12830275E+03</rscale>
<asrwt>0</asrwt>
<pdfrwt beam="1">  1        2 0.62693440E-01 0.13648973E+03</pdfrwt>
<pdfrwt beam="2">  1       -2 0.56322158E-02 0.13648973E+03</pdfrwt>
<totfact> 0.12080934E+04</totfact>
</mgrwt>
</event>
<event>
 6    1  0.9240440E-006  0.1573187E+03  0.7546771E-02  0.1199538E+00
         -2   -1    0    0    0  501 -0.00000000000E+00  0.00000000000E+00  0.13166637324E+03  0.13166637324E+03  0.00000000000E+00 0. -1.
          2   -1    0    0  501    0  0.00000000000E+00 -0.00000000000E+00 -0.16388129012E+03  0.16388129012E+03  0.00000000000E+00 0.  1.
          5    1    1    2  502    0  0.56649960726E+02  0.31988781979E+02 -0.49193887636E+01  0.65412465239E+02  0.47000000000E+01 0.  1.
         -5    1    1    2    0  502 -0.64181476873E+02  0.63227441347E+02 -0.36055029712E+02  0.97154652387E+02  0.47000000000E+01 0.  1.
        -11    1    1    2    0    0  0.19486577061E+02 -0.38710646610E+02 -0.38794845916E+02  0.58165977308E+02  0.00000000000E+00 0.  1.
         11    1    1    2    0    0 -0.11955060913E+02 -0.56505576716E+02  0.47554347512E+02  0.74814568426E+02  0.00000000000E+00 0. -1.
<mgrwt>
<rscale>  0 0.15076349E+03</rscale>
<asrwt>0</asrwt>
<pdfrwt beam="2">  1        2 0.25212506E-01 0.15731867E+03</pdfrwt>
<pdfrwt beam="1">  1       -2 0.20256365E-01 0.15731867E+03</pdfrwt>
<totfact> 0.42344109E+03</totfact>
</mgrwt>
</event>
<event>
 6    1  0.3176907E-005  0.2533831E+03  0.7546771E-02  0.1113740E+00
          1   -1    0    0  501    0  0.00000000000E+00  0.00000000000E+00  0.43498981947E+03  0.43498981947E+03  0.00000000000E+00 0. -1.
         -1   -1    0    0    0  501 -0.00000000000E+00 -0.00000000000E+00 -0.13890635306E+03  0.13890635306E+03  0.00000000000E+00 0.  1.
          5    1    1    2  502    0  0.73830864175E+02 -0.40043248998E+02 -0.40429073633E+01  0.84219317232E+02  0.47000000000E+01 0. -1.
         -5    1    1    2    0  502  0.11648055321E+03 -0.71130305349E+02  0.17266884119E+03  0.22014508474E+03  0.47000000000E+01 0. -1.
        -11    1    1    2    0    0 -0.34818771689E+02  0.48614400062E+02  0.70654663518E+02  0.92562347810E+02  0.00000000000E+00 0. -1.
         11    1    1    2    0    0 -0.15549264570E+03  0.62559154285E+02  0.56802869061E+02  0.17696942274E+03  0.00000000000E+00 0.  1.
<mgrwt>
<rscale>  0 0.24931303E+03</rscale>
<asrwt>0</asrwt>
<pdfrwt beam="1">  1        1 0.66921510E-01 0.25338308E+03</pdfrwt>
<pdfrwt beam="2">  1       -1 0.21370208E-01 0.25338308E+03</pdfrwt>
<totfact> 0.98344861E+02</totfact>
</mgrwt>
</event>
<event>
 6    1  0.9240440E-006  0.2109752E+03  0.7546771E-02  0.1156747E+00
         -2   -1    0    0    0  501 -0.00000000000E+00  0.00000000000E+00  0.52387717344E+02  0.52387717344E+02  0.00000000000E+00 0.  1.
          2   -1    0    0  501    0  0.00000000000E+00 -0.00000000000E+00 -0.60375327969E+03  0.60375327969E+03  0.00000000000E+00 0. -1.
          5    1    1    2  502    0 -0.62383425983E+02  0.63553461432E+02 -0.33520274029E+03  0.34686265494E+03  0.47000000000E+01 0. -1.
         -5    1    1    2    0  502 -0.22953531032E+02  0.77015489121E+01  0.20462266532E+02  0.32046416244E+02  0.47000000000E+01 0.  1.
        -11    1    1    2    0    0  0.98991363593E+02 -0.78286816329E+02 -0.22496580930E+03  0.25794908612E+03  0.00000000000E+00 0.  1.
         11    1    1    2    0    0 -0.13654406579E+02  0.70318059850E+01 -0.11659279299E+02  0.19282839734E+02  0.00000000000E+00 0. -1.
<mgrwt>
<rscale>  0 0.19191268E+03</rscale>
<asrwt>0</asrwt>
<pdfrwt beam="2">  1        2 0.92885119E-01 0.21097516E+03</pdfrwt>
<pdfrwt beam="1">  1       -2 0.80596489E-02 0.21097516E+03</pdfrwt>
<totfact> 0.46191394E+03</totfact>
</mgrwt>
</event>
<event>
 6    1  0.9240440E-006  0.2103929E+03  0.7546771E-02  0.1145024E+00
          1   -1    0    0  501    0  0.00000000000E+00  0.00000000000E+00  0.45356727989E+03  0.45356727989E+03  0.00000000000E+00 0. -1.
         -1   -1    0    0    0  501 -0.00000000000E+00 -0.00000000000E+00 -0.11199932113E+03  0.11199932113E+03  0.00000000000E+00 0.  1.
          5    1    1    2  502    0  0.84235782291E+02  0.78457970286E+01  0.22996289287E+03  0.24507599974E+03  0.47000000000E+01 0.  1.
         -5    1    1    2    0  502  0.60562415000E+02  0.79763386046E+02  0.74061873337E+02  0.12464852565E+03  0.47000000000E+01 0.  1.
        -11    1    1    2    0    0 -0.54279040579E+02  0.13792807343E+02  0.15774332483E+02  0.58183205015E+02  0.00000000000E+00 0.  1.
         11    1    1    2    0    0 -0.90519156712E+02 -0.10140199042E+03  0.21768860062E+02  0.13765887062E+03  0.00000000000E+00 0. -1.
<mgrwt>
<rscale>  0 0.20569190E+03</rscale>
<asrwt>0</asrwt>
<pdfrwt beam="1">  1        1 0.69779580E-01 0.21039289E+03</pdfrwt>
<pdfrwt beam="2">  1       -1 0.17230665E-01 0.21039289E+03</pdfrwt>
<totfact> 0.13181410E+03</totfact>
</mgrwt>
</event>
<event>
 6    1  0.9240440E-006  0.1540698E+03  0.7546771E-02  0.1204012E+00
          1   -1    0    0  501    0  0.00000000000E+00  0.00000000000E+00  0.74568050506E+03  0.74568050506E+03  0.00000000000E+00 0. -1.
         -1   -1    0    0    0  501 -0.00000000000E+00 -0.00000000000E+00 -0.31200344920E+02  0.31200344920E+02  0.00000000000E+00 0.  1.
          5    1    1    2  502    0 -0.20555190555E+02 -0.22153569829E+02  0.16308241111E+03  0.16592546317E+03  0.47000000000E+01 0. -1.
         -5    1    1    2    0  502  0.93157498542E+02  0.75450991080E+02  0.36889325428E+03  0.38791170986E+03  0.47000000000E+01 0. -1.
        -11    1    1    2    0    0 -0.42458413902E+02 -0.55617327070E+02  0.47200592557E+02  0.84403198513E+02  0.00000000000E+00 0.  1.
         11    1    1    2    0    0 -0.30143894085E+02  0.23199058183E+01  0.13530390219E+03  0.13864047844E+03  0.00000000000E+00 0. -1.
<mgrwt>
<rscale>  0 0.14715595E+03</rscale>
<asrwt>0</asrwt>
<pdfrwt beam="1">  1        1 0.11472006E+00 0.15406981E+03</pdfrwt>
<pdfrwt beam="2">  1       -1 0.48000536E-02 0.15406981E+03</pdfrwt>
<totfact> 0.46909533E+03</totfact>
</mgrwt>
</event>
<event>
 6    1  0.9240440E-006  0.1449561E+03  0.7546771E-02  0.1217300E+00
          1   -1    0    0  501    0  0.00000000000E+00  0.00000000000E+00  0.10021824868E+04  0.10021824868E+04  0.00000000000E+00 0. -1.
         -1   -1    0    0    0  501 -0.00000000000E+00 -0.00000000000E+00 -0.23095816346E+02  0.23095816346E+02  0.00000000000E+00 0.  1.
          5    1    1    2  502    0 -0.17373032835E+02 -0.27562616431E+02  0.63105237887E+03  0.63191036941E+03  0.47000000000E+01 0. -1.
         -5    1    1    2    0  502 -0.55937356952E+02  0.30996189569E+02  0.16104856141E+03  0.17334497628E+03  0.47000000000E+01 0. -1.
        -11    1    1    2    0    0  0.24356761877E+02 -0.41910553008E+02  0.50471610780E+02  0.69979495549E+02  0.00000000000E+00 0.  1.
         11    1    1    2    0    0  0.48953627910E+02  0.38476979870E+02  0.13651411940E+03  0.15004346191E+03  0.00000000000E+00 0. -1.
<mgrwt>
<rscale>  0 0.13708922E+03</rscale>
<asrwt>0</asrwt>
<pdfrwt beam="1">  1        1 0.15418189E+00 0.14495610E+03</pdfrwt>
<pdfrwt beam="2">  1       -1 0.35532033E-02 0.14495610E+03</pdfrwt>
<totfact> 0.45806180E+03</totfact>
</mgrwt>
</event>
<event>
 6    1  0.9240440E-006  0.2273887E+03  0.7546771E-02  0.1131639E+00
         -2   -1    0    0    0  501 -0.00000000000E+00  0.00000000000E+00  0.22430003668E+03  0.22430003668E+03  0.00000000000E+00 0.  1.
          2   -1    0    0  501    0  0.00000000000E+00 -0.00000000000E+00 -0.22817139875E+03  0.22817139875E+03  0.00000000000E+00 0. -1.
          5    1    1    2  502    0 -0.19107306049E+03 -0.45210525206E+02 -0.35759546550E+02  0.19963401815E+03  0.47000000000E+01 0.  1.
         -5    1    1    2    0  502  0.13549251177E+02 -0.22372133857E+02 -0.23194406457E+02  0.35272724189E+02  0.47000000000E+01 0.  1.
        -11    1    1    2    0    0  0.10370200695E+03  0.71825149164E+02  0.66730636118E+02  0.14270927123E+03  0.00000000000E+00 0. -1.
         11    1    1    2    0    0  0.73821802358E+02 -0.42424901014E+01 -0.11648045187E+02  0.74855421863E+02  0.00000000000E+00 0.  1.
<mgrwt>
<rscale>  0 0.22303728E+03</rscale>
<asrwt>0</asrwt>
<pdfrwt beam="2">  1        2 0.35103292E-01 0.22738867E+03</pdfrwt>
<pdfrwt beam="1">  1       -2 0.34507698E-01 0.22738867E+03</pdfrwt>
<totfact> 0.11595637E+03</totfact>
</mgrwt>
</event>
<event>
 6    1  0.9240440E-006  0.1544792E+03  0.7546771E-02  0.1203483E+00
         -2   -1    0    0    0  501 -0.00000000000E+00  0.00000000000E+00  0.23008732128E+02  0.23008732128E+02  0.00000000000E+00 0.  1.
          2   -1    0    0  501    0  0.00000000000E+00 -0.00000000000E+00 -0.11078909257E+04  0.11078909257E+04  0.00000000000E+00 0. -1.
          5    1    1    2  502    0  0.50401325037E+02  0.35929423977E+02 -0.36868100376E+03  0.37387028447E+03  0.47000000000E+01 0.  1.
         -5    1    1    2    0  502  0.23283681140E+02 -0.88912781246E+02 -0.47321186717E+03  0.48207797471E+03  0.47000000000E+01 0.  1.
        -11    1    1    2    0    0 -0.36841040137E+02  0.58627187332E+02 -0.22118232767E+03  0.23176719225E+03  0.00000000000E+00 0. -1.
         11    1    1    2    0    0 -0.36843966041E+02 -0.56438300626E+01 -0.21806994963E+02  0.43184206380E+02  0.00000000000E+00 0.  1.
<mgrwt>
<rscale>  0 0.14757638E+03</rscale>
<asrwt>0</asrwt>
<pdfrwt beam="2">  1        2 0.17044476E+00 0.15447918E+03</pdfrwt>
<pdfrwt beam="1">  1       -2 0.35398048E-02 0.15447918E+03</pdfrwt>
<totfact> 0.73020632E+03</totfact>
</mgrwt>
</event>
<event>
 6    1  0.9240440E-006  0.1641674E+03  0.7546771E-02  0.1191560E+00
         -2   -1    0    0    0  501 -0.00000000000E+00  0.00000000000E+00  0.21603110648E+02  0.21603110648E+02  0.00000000000E+00 0.  1.
          2   -1    0    0  501    0  0.00000000000E+00 -0.00000000000E+00 -0.14671123016E+04  0.14671123016E+04  0.00000000000E+00 0. -1.
          5    1    1    2  502    0  0.60568744541E+02 -0.51867557716E+01 -0.48207581489E+03  0.48591630612E+03  0.47000000000E+01 0.  1.
         -5    1    1    2    0  502 -0.31981388797E+02 -0.97319962783E+02 -0.67335383830E+03  0.68111780621E+03  0.47000000000E+01 0.  1.
        -11    1    1    2    0    0 -0.59306184710E+02  0.84290695918E+02 -0.22383879114E+03  0.24642635692E+03  0.00000000000E+00 0.  1.
         11    1    1    2    0    0  0.30718828967E+02  0.18216022637E+02 -0.66240746656E+02  0.75254943036E+02  0.00000000000E+00 0. -1.
<mgrwt>
<rscale>  0 0.15748958E+03</rscale>
<asrwt>0</asrwt>
<pdfrwt beam="2">  1        2 0.22570960E+00 0.16416740E+03</pdfrwt>
<pdfrwt beam="1">  1       -2 0.33235552E-02 0.16416740E+03</pdfrwt>
<totfact> 0.51112761E+03</totfact>
</mgrwt>
</event>
<event>
 6    1  0.9240440E-006  0.1252294E+03  0.7546771E-02  0.1249571E+00
          1   -1    0    0  501    0  0.00000000000E+00  0.00000000000E+00  0.16675681141E+03  0.16675681141E+03  0.00000000000E+00 0. -1.
         -1   -1    0    0    0  501 -0.00000000000E+00 -0.00000000000E+00 -0.71910935894E+02  0.71910935894E+02  0.00000000000E+00 0.  1.
          5    1    1    2  502    0  0.52910219856E+02  0.28331964526E+02  0.50923209849E+02  0.78850839440E+02  0.47000000000E+01 0. -1.
         -5    1    1    2    0  502 -0.49471577465E+02 -0.35199797843E+02  0.15210933768E+02  0.62768823879E+02  0.47000000000E+01 0. -1.
        -11    1    1    2    0    0 -0.99396177861E+00 -0.19363908732E+02 -0.28264440772E+02  0.34275757228E+02  0.00000000000E+00 0.  1.
         11    1    1    2    0    0 -0.24446806128E+01  0.26231742050E+02  0.56976172668E+02  0.62772326754E+02  0.00000000000E+00 0. -1.
<mgrwt>
<rscale>  0 0.11615929E+03</rscale>
<asrwt>0</asrwt>
<pdfrwt beam="1">  1        1 0.25654894E-01 0.12522941E+03</pdfrwt>
<pdfrwt beam="2">  1       -1 0.11063221E-01 0.12522941E+03</pdfrwt>
<totfact> 0.90309088E+03</totfact>
</mgrwt>
</event>
<event>
 6    1  0.9240440E-006  0.2892773E+03  0.7546771E-02  0.1090727E+00
         -3   -1    0    0    0  501 -0.00000000000E+00  0.00000000000E+00  0.68905214021E+02  0.68905214021E+02  0.00000000000E+00 0.  1.
          3   -1    0    0  501    0  0.00000000000E+00 -0.00000000000E+00 -0.30361028770E+03  0.30361028770E+03  0.00000000000E+00 0. -1.
          5    1    1    2  502    0 -0.28210488017E+02 -0.12995389339E+01 -0.15491958630E+03  0.15754265662E+03  0.47000000000E+01 0.  1.
         -5    1    1    2    0  502  0.71088529220E+02 -0.34899139738E+02 -0.69860941166E+02  0.10570794692E+03  0.47000000000E+01 0.  1.
        -11    1    1    2    0    0 -0.17648750748E+02  0.30293698009E+02 -0.50286370568E+02  0.61301758596E+02  0.00000000000E+00 0. -1.
         11    1    1    2    0    0 -0.25229290455E+02  0.59049806625E+01  0.40361824357E+02  0.47963139586E+02  0.00000000000E+00 0.  1.
<mgrwt>
<rscale>  0 0.28927725E+03</rscale>
<asrwt>0</asrwt>
<pdfrwt beam="2">  1        3 0.46709275E-01 0.28927725E+03</pdfrwt>
<pdfrwt beam="1">  1       -3 0.10600802E-01 0.28927725E+03</pdfrwt>
<totfact> 0.78306076E+02</totfact>
</mgrwt>
</event>
<event>
 6    1  0.9240440E-006  0.2365243E+03  0.7546771E-02  0.1124874E+00
          3   -1    0    0  501    0  0.00000000000E+00  0.00000000000E+00  0.10177204925E+03  0.10177204925E+03  0.00000000000E+00 0. -1.
         -3   -1    0    0    0  501 -0.00000000000E+00 -0.00000000000E+00 -0.52932420023E+03  0.52932420023E+03  0.00000000000E+00 0.  1.
          5    1    1    2  502    0  0.20567639972E+02  0.57186083215E+01  0.55663566727E+01  0.22556697936E+02  0.47000000000E+01 0.  1.
         -5    1    1    2    0  502  0.11278260236E+03 -0.15582587676E+03 -0.27996278586E+03  0.33970998032E+03  0.47000000000E+01 0.  1.
        -11    1    1    2    0    0 -0.67799274276E+02  0.11065644502E+03 -0.14053366495E+03  0.19128852919E+03  0.00000000000E+00 0.  1.
         11    1    1    2    0    0 -0.65550968055E+02  0.39450823414E+02 -0.12622056848E+02  0.77541042037E+02  0.00000000000E+00 0. -1.
<mgrwt>
<rscale>  0 0.23252700E+03</rscale>
<asrwt>0</asrwt>
<pdfrwt beam="1">  1        3 0.15657238E-01 0.23652430E+03</pdfrwt>
<pdfrwt beam="2">  1       -3 0.81434494E-01 0.23652430E+03</pdfrwt>
<totfact> 0.12253244E+02</totfact>
</mgrwt>
</event>
<event>
 6    1  0.9240440E-006  0.1318832E+03  0.7546771E-02  0.1237887E+00
          4   -1    0    0  501    0  0.00000000000E+00  0.00000000000E+00  0.20483228308E+03  0.20483228308E+03  0.00000000000E+00 0. -1.
         -4   -1    0    0    0  501 -0.00000000000E+00 -0.00000000000E+00 -0.69899969260E+02  0.69899969260E+02  0.00000000000E+00 0.  1.
          5    1    1    2  502    0  0.16841538217E+02 -0.43424956620E+02  0.38989757454E+02  0.60923357206E+02  0.47000000000E+01 0.  1.
         -5    1    1    2    0  502 -0.80753805569E+01  0.84553808211E+02  0.69657436086E+02  0.10994910939E+03  0.47000000000E+01 0.  1.
        -11    1    1    2    0    0 -0.30923988429E+02 -0.42689224243E+02 -0.16850566057E+02  0.55340803240E+02  0.00000000000E+00 0.  1.
         11    1    1    2    0    0  0.22157830769E+02  0.15603726509E+01  0.43135686335E+02  0.48518982499E+02  0.00000000000E+00 0. -1.
<mgrwt>
<rscale>  0 0.12321415E+03</rscale>
<asrwt>0</asrwt>
<pdfrwt beam="1">  1        4 0.31512659E-01 0.13188323E+03</pdfrwt>
<pdfrwt beam="2">  1       -4 0.10753841E-01 0.13188323E+03</pdfrwt>
<totfact> 0.10647590E+03</totfact>
</mgrwt>
</event>
<event>
 6    1  0.9240440E-006  0.3749744E+03  0.7546771E-02  0.1052807E+00
          1   -1    0    0  501    0  0.00000000000E+00  0.00000000000E+00  0.18453303929E+04  0.18453303929E+04  0.00000000000E+00 0. -1.
         -1   -1    0    0    0  501 -0.00000000000E+00 -0.00000000000E+00 -0.19048863973E+02  0.19048863973E+02  0.00000000000E+00 0.  1.
          5    1    1    2  502    0 -0.27154230406E+01 -0.12722968965E+01 -0.15665215736E+01  0.57910492592E+01  0.47000000000E+01 0. -1.
         -5    1    1    2    0  502  0.88097638114E+02  0.12773975345E+03  0.99476296257E+03  0.10068038936E+04  0.47000000000E+01 0. -1.
        -11    1    1    2    0    0 -0.99591978761E+02 -0.81755241070E+02  0.55429441642E+03  0.56907361716E+03  0.00000000000E+00 0.  1.
         11    1    1    2    0    0  0.14209763687E+02 -0.44712215481E+02  0.27879067155E+03  0.28271069690E+03  0.00000000000E+00 0. -1.
<mgrwt>
<rscale>  0 0.37497439E+03</rscale>
<asrwt>0</asrwt>
<pdfrwt beam="1">  1        1 0.28389684E+00 0.37497439E+03</pdfrwt>
<pdfrwt beam="2">  1       -1 0.29305959E-02 0.37497439E+03</pdfrwt>
<totfact> 0.16523040E+03</totfact>
</mgrwt>
</event>
<event>
 6    1  0.9240440E-006  0.1281502E+03  0.7546771E-02  0.1244103E+00
          1   -1    0    0  501    0  0.00000000000E+00  0.00000000000E+00  0.72656266943E+02  0.72656266943E+02  0.00000000000E+00 0. -1.
         -1   -1    0    0    0  501 -0.00000000000E+00 -0.00000000000E+00 -0.17686454598E+03  0.17686454598E+03  0.00000000000E+00 0.  1.
          5    1    1    2  502    0 -0.13519066790E+02 -0.66121212644E+02 -0.56767509643E+02  0.88314325448E+02  0.47000000000E+01 0. -1.
         -5    1    1    2    0  502  0.21187457169E+02  0.39069830761E+02  0.13918151429E+02  0.46809880967E+02  0.47000000000E+01 0. -1.
        -11    1    1    2    0    0 -0.23195154953E+02  0.30049328794E+02 -0.80837766334E+02  0.89306896935E+02  0.00000000000E+00 0.  1.
         11    1    1    2    0    0  0.15526764574E+02 -0.29979469114E+01  0.19478845512E+02  0.25089709570E+02  0.00000000000E+00 0. -1.
<mgrwt>
<rscale>  0 0.11939228E+03</rscale>
<asrwt>0</asrwt>
<pdfrwt beam="1">  1        1 0.11177887E-01 0.12815024E+03</pdfrwt>
<pdfrwt beam="2">  1       -1 0.27209930E-01 0.12815024E+03</pdfrwt>
<totfact> 0.62965204E+03</totfact>
</mgrwt>
</event>
<event>
 6    1  0.9240440E-006  0.2539372E+03  0.7546771E-02  0.1110842E+00
         -2   -1    0    0    0  501 -0.00000000000E+00  0.00000000000E+00  0.36484586310E+03  0.36484586310E+03  0.00000000000E+00 0.  1.
          2   -1    0    0  501    0  0.00000000000E+00 -0.00000000000E+00 -0.44185855224E+02  0.44185855224E+02  0.00000000000E+00 0. -1.
          5    1    1    2  502    0  0.32117438371E+00 -0.80960831751E+01  0.12556553964E+03  0.12591443309E+03  0.47000000000E+01 0. -1.
         -5    1    1    2    0  502  0.38709985021E+02  0.51328364441E+02  0.61009559910E+01  0.64748556745E+02  0.47000000000E+01 0. -1.
        -11    1    1    2    0    0  0.18590876407E+02 -0.82062739849E+01  0.12068316624E+03  0.12238214834E+03  0.00000000000E+00 0.  1.
         11    1    1    2    0    0 -0.57622035812E+02 -0.35026007281E+02  0.68310346003E+02  0.95986580147E+02  0.00000000000E+00 0. -1.
<mgrwt>
<rscale>  0 0.25393721E+03</rscale>
<asrwt>0</asrwt>
<pdfrwt beam="2">  1        2 0.67978241E-02 0.25393721E+03</pdfrwt>
<pdfrwt beam="1">  1       -2 0.56130131E-01 0.25393721E+03</pdfrwt>
<totfact> 0.31620807E+03</totfact>
</mgrwt>
</event>
<event>
 6    1  0.9240440E-006  0.2030909E+03  0.7546771E-02  0.1152865E+00
          2   -1    0    0  501    0  0.00000000000E+00  0.00000000000E+00  0.13878550539E+04  0.13878550539E+04  0.00000000000E+00 0. -1.
         -2   -1    0    0    0  501 -0.00000000000E+00 -0.00000000000E+00 -0.28327554810E+02  0.28327554810E+02  0.00000000000E+00 0.  1.
          5    1    1    2  502    0 -0.48443042658E+02  0.27821886475E+01  0.57447574282E+03  0.57654049125E+03  0.47000000000E+01 0.  1.
         -5    1    1    2    0  502 -0.88067520259E+02  0.80811930837E+02  0.34663644329E+03  0.36669520055E+03  0.47000000000E+01 0.  1.
        -11    1    1    2    0    0  0.11109668066E+03 -0.48039742658E+02  0.38689958498E+03  0.40539064886E+03  0.00000000000E+00 0. -1.
         11    1    1    2    0    0  0.25413882256E+02 -0.35554376826E+02  0.51515728042E+02  0.67556268092E+02  0.00000000000E+00 0.  1.
<mgrwt>
<rscale>  0 0.19633888E+03</rscale>
<asrwt>0</asrwt>
<pdfrwt beam="1">  1        2 0.21351611E+00 0.20309089E+03</pdfrwt>
<pdfrwt beam="2">  1       -2 0.43580864E-02 0.20309089E+03</pdfrwt>
<totfact> 0.37726543E+03</totfact>
</mgrwt>
</event>
<event>
 6    1  0.9240440E-006  0.1455154E+03  0.7546771E-02  0.1216288E+00
          1   -1    0    0  501    0  0.00000000000E+00  0.00000000000E+00  0.69052391754E+03  0.69052391754E+03  0.00000000000E+00 0. -1.
         -1   -1    0    0    0  501 -0.00000000000E+00 -0.00000000000E+00 -0.26758343509E+02  0.26758343509E+02  0.00000000000E+00 0.  1.
          5    1    1    2  502    0 -0.17266886825E+02  0.80141416933E+02  0.31311650396E+03  0.32370484572E+03  0.47000000000E+01 0. -1.
         -5    1    1    2    0  502  0.57327653641E+02 -0.17331265318E+02  0.14448789429E+03  0.15647898973E+03  0.47000000000E+01 0. -1.
        -11    1    1    2    0    0 -0.64946921285E+02 -0.52727046939E+02  0.18456915208E+03  0.20264258181E+03  0.00000000000E+00 0. -1.
         11    1    1    2    0    0  0.24886154470E+02 -0.10083104676E+02  0.21592023705E+02  0.34455843799E+02  0.00000000000E+00 0.  1.
<mgrwt>
<rscale>  0 0.13782379E+03</rscale>
<asrwt>0</asrwt>
<pdfrwt beam="1">  1        1 0.10623444E+00 0.14551540E+03</pdfrwt>
<pdfrwt beam="2">  1       -1 0.41166688E-02 0.14551540E+03</pdfrwt>
<totfact> 0.65602853E+03</totfact>
</mgrwt>
</event>
<event>
 6    1  0.9240440E-006  0.1424263E+03  0.7546771E-02  0.1221131E+00
         -1   -1    0    0    0  501 -0.00000000000E+00  0.00000000000E+00  0.69092626571E+02  0.69092626571E+02  0.00000000000E+00 0.  1.
          1   -1    0    0  501    0  0.00000000000E+00 -0.00000000000E+00 -0.31613001938E+03  0.31613001938E+03  0.00000000000E+00 0. -1.
          5    1    1    2  502    0  0.56893277148E+01  0.10092710718E+03 -0.18124367727E+03  0.20758133337E+03  0.47000000000E+01 0. -1.
         -5    1    1    2    0  502 -0.19690524549E+02 -0.34402813070E+02 -0.49644724993E+02  0.63702111611E+02  0.47000000000E+01 0.  1.
        -11    1    1    2    0    0  0.12816645509E+02 -0.80147250787E+02 -0.36842365780E+02  0.89135896961E+02  0.00000000000E+00 0.  1.
         11    1    1    2    0    0  0.11845513258E+01  0.13622956681E+02  0.20693375242E+02  0.24803304003E+02  0.00000000000E+00 0. -1.
<mgrwt>
<rscale>  0 0.13435670E+03</rscale>
<asrwt>0</asrwt>
<pdfrwt beam="2">  1        1 0.48635387E-01 0.14242631E+03</pdfrwt>
<pdfrwt beam="1">  1       -1 0.10629635E-01 0.14242631E+03</pdfrwt>
<totfact> 0.43807866E+03</totfact>
</mgrwt>
</event>
<event>
 6    1  0.9240440E-006  0.1192402E+03  0.7546771E-02  0.1257509E+00
         -3   -1    0    0    0  501 -0.00000000000E+00  0.00000000000E+00  0.19236626492E+02  0.19236626492E+02  0.00000000000E+00 0.  1.
          3   -1    0    0  501    0  0.00000000000E+00 -0.00000000000E+00 -0.91762183670E+03  0.91762183670E+03  0.00000000000E+00 0. -1.
          5    1    1    2  502    0  0.53850853176E+02 -0.62251941683E+01 -0.53759778202E+03  0.54034445742E+03  0.47000000000E+01 0. -1.
         -5    1    1    2    0  502 -0.54517455160E+02 -0.56661709139E+01 -0.23181160441E+03  0.23824980241E+03  0.47000000000E+01 0.  1.
        -11    1    1    2    0    0 -0.37254657274E+02  0.31561998247E+02 -0.63900696927E+02  0.80419949575E+02  0.00000000000E+00 0.  1.
         11    1    1    2    0    0  0.37921259258E+02 -0.19670633164E+02 -0.65075126850E+02  0.77844253785E+02  0.00000000000E+00 0. -1.
<mgrwt>
<rscale>  0 0.11166947E+03</rscale>
<asrwt>0</asrwt>
<pdfrwt beam="2">  1        3 0.14117259E+00 0.11924017E+03</pdfrwt>
<pdfrwt beam="1">  1       -3 0.29594809E-02 0.11924017E+03</pdfrwt>
<totfact> 0.47509681E+02</totfact>
</mgrwt>
</event>
<event>
 6    1  0.9240440E-006  0.1653205E+03  0.7546771E-02  0.1189769E+00
         -2   -1    0    0    0  501 -0.00000000000E+00  0.00000000000E+00  0.44756353305E+03  0.44756353305E+03  0.00000000000E+00 0. -1.
          2   -1    0    0  501    0  0.00000000000E+00 -0.00000000000E+00 -0.61736685624E+02  0.61736685624E+02  0.00000000000E+00 0.  1.
          5    1    1    2  502    0 -0.68283730107E+02  0.75592716710E+02  0.10009404968E+03  0.14289099131E+03  0.47000000000E+01 0. -1.
         -5    1    1    2    0  502 -0.34368680906E+02 -0.41423804385E+02  0.79683140951E+01  0.54614300567E+02  0.47000000000E+01 0. -1.
        -11    1    1    2    0    0  0.42002010168E+02 -0.50071105266E+02  0.74618073025E+02  0.99192445593E+02  0.00000000000E+00 0.  1.
         11    1    1    2    0    0  0.60650400845E+02  0.15902192941E+02  0.20314641062E+03  0.21260248120E+03  0.00000000000E+00 0. -1.
<mgrwt>
<rscale>  0 0.15905394E+03</rscale>
<asrwt>0</asrwt>
<pdfrwt beam="2">  1        2 0.94979519E-02 0.16532049E+03</pdfrwt>
<pdfrwt beam="1">  1       -2 0.68855926E-01 0.16532049E+03</pdfrwt>
<totfact> 0.13244036E+03</totfact>
</mgrwt>
</event>
<event>
 6    1  0.9240440E-006  0.2465304E+03  0.7546771E-02  0.1140053E+00
         -2   -1    0    0    0  501 -0.00000000000E+00  0.00000000000E+00  0.10019872812E+03  0.10019872812E+03  0.00000000000E+00 0.  1.
          2   -1    0    0  501    0  0.00000000000E+00 -0.00000000000E+00 -0.82301595253E+03  0.82301595253E+03  0.00000000000E+00 0. -1.
          5    1    1    2  502    0  0.52467327079E+02  0.49288711552E+02 -0.46636562490E+03  0.47191226259E+03  0.47000000000E+01 0. -1.
         -5    1    1    2    0  502 -0.14205547655E+03 -0.91418410099E+01 -0.28047037761E+03  0.31456168615E+03  0.47000000000E+01 0.  1.
        -11    1    1    2    0    0  0.86448956254E+02 -0.25063918779E+02 -0.18172047763E+02  0.91825080353E+02  0.00000000000E+00 0.  1.
         11    1    1    2    0    0  0.31391932220E+01 -0.15082951763E+02  0.42190825860E+02  0.44915651556E+02  0.00000000000E+00 0. -1.
<mgrwt>
<rscale>  0 0.21192201E+03</rscale>
<asrwt>0</asrwt>
<pdfrwt beam="2">  1        2 0.12661784E+00 0.24653044E+03</pdfrwt>
<pdfrwt beam="1">  1       -2 0.15415189E-01 0.24653044E+03</pdfrwt>
<totfact> 0.11203031E+03</totfact>
</mgrwt>
</event>
<event>
 6    1  0.9240440E-006  0.1283911E+03  0.7546771E-02  0.1236635E+00
         -2   -1    0    0    0  501 -0.00000000000E+00  0.00000000000E+00  0.35548543616E+02  0.35548543616E+02  0.00000000000E+00 0. -1.
          2   -1    0    0  501    0  0.00000000000E+00 -0.00000000000E+00 -0.40871368837E+03  0.40871368837E+03  0.00000000000E+00 0.  1.
          5    1    1    2  502    0  0.44766709623E+02 -0.15656948104E+02 -0.96677696987E+02  0.10778620231E+03  0.47000000000E+01 0.  1.
         -5    1    1    2    0  502 -0.73508380240E+02  0.21566556292E+02 -0.82973733028E+02  0.11302799958E+03  0.47000000000E+01 0.  1.
        -11    1    1    2    0    0  0.54591066341E+02 -0.27795196415E+02 -0.17375114167E+03  0.18423413555E+03  0.00000000000E+00 0.  1.
         11    1    1    2    0    0 -0.25849395724E+02  0.21885588227E+02 -0.19762573063E+02  0.39213894545E+02  0.00000000000E+00 0. -1.
<mgrwt>
<rscale>  0 0.12400363E+03</rscale>
<asrwt>0</asrwt>
<pdfrwt beam="2">  1        2 0.62879027E-01 0.12839110E+03</pdfrwt>
<pdfrwt beam="1">  1       -2 0.54690069E-02 0.12839110E+03</pdfrwt>
<totfact> 0.12529607E+04</totfact>
</mgrwt>
</event>
<event>
 6    1  0.9240440E-006  0.1273762E+03  0.7546771E-02  0.1246880E+00
         -1   -1    0    0    0  501 -0.00000000000E+00  0.00000000000E+00  0.13614282143E+03  0.13614282143E+03  0.00000000000E+00 0.  1.
          1   -1    0    0  501    0  0.00000000000E+00 -0.00000000000E+00 -0.89361029007E+02  0.89361029007E+02  0.00000000000E+00 0. -1.
          5    1    1    2  502    0 -0.36859987295E+02 -0.23796548250E+02 -0.35792572217E+02  0.56816657751E+02  0.47000000000E+01 0. -1.
         -5    1    1    2    0  502  0.18243778034E+02  0.39679603646E+02  0.57560926493E+02  0.72406192009E+02  0.47000000000E+01 0. -1.
        -11    1    1    2    0    0  0.36649870239E+02 -0.44974821569E+02  0.98595417974E+01  0.58848603451E+02  0.00000000000E+00 0. -1.
         11    1    1    2    0    0 -0.18033660978E+02  0.29091766174E+02  0.15153896345E+02  0.37432397222E+02  0.00000000000E+00 0.  1.
<mgrwt>
<rscale>  0 0.11773557E+03</rscale>
<asrwt>0</asrwt>
<pdfrwt beam="2">  1        1 0.13747851E-01 0.12737615E+03</pdfrwt>
<pdfrwt beam="1">  1       -1 0.20945049E-01 0.12737615E+03</pdfrwt>
<totfact> 0.73606961E+03</totfact>
</mgrwt>
</event>
<event>
 6    1  0.9240440E-006  0.1820810E+03  0.7546771E-02  0.1168975E+00
         -4   -1    0    0    0  501 -0.00000000000E+00  0.00000000000E+00  0.41177100775E+03  0.41177100775E+03  0.00000000000E+00 0.  1.
          4   -1    0    0  501    0  0.00000000000E+00 -0.00000000000E+00 -0.75688517983E+02  0.75688517983E+02  0.00000000000E+00 0. -1.
          5    1    1    2  502    0  0.67451780141E+02 -0.71485312042E+02  0.20454690037E+03  0.22698329659E+03  0.47000000000E+01 0.  1.
         -5    1    1    2    0  502  0.20108337405E+01 -0.41226034490E+02 -0.64971523655E+01  0.42046787760E+02  0.47000000000E+01 0.  1.
        -11    1    1    2    0    0 -0.54999958028E+02  0.12714686704E+03  0.14113230192E+03  0.19776159341E+03  0.00000000000E+00 0. -1.
         11    1    1    2    0    0 -0.14462655854E+02 -0.14435520509E+02 -0.30995601574E+01  0.20667847974E+02  0.00000000000E+00 0.  1.
<mgrwt>
<rscale>  0 0.17879481E+03</rscale>
<asrwt>0</asrwt>
<pdfrwt beam="2">  1        4 0.11644388E-01 0.18208098E+03</pdfrwt>
<pdfrwt beam="1">  1       -4 0.63349384E-01 0.18208098E+03</pdfrwt>
<totfact> 0.24248052E+02</totfact>
</mgrwt>
</event>
<event>
 6    1  0.9240440E-006  0.1495412E+03  0.7546771E-02  0.1209828E+00
          2   -1    0    0  501    0  0.00000000000E+00  0.00000000000E+00  0.83291353210E+03  0.83291353210E+03  0.00000000000E+00 0. -1.
         -2   -1    0    0    0  501 -0.00000000000E+00 -0.00000000000E+00 -0.27347676014E+02  0.27347676014E+02  0.00000000000E+00 0.  1.
          5    1    1    2  502    0  0.84341135915E+01 -0.60470921690E+02  0.30084648469E+03  0.30701557614E+03  0.47000000000E+01 0. -1.
         -5    1    1    2    0  502  0.72598725006E+02  0.47251034266E+02  0.31497779107E+03  0.32670527082E+03  0.47000000000E+01 0. -1.
        -11    1    1    2    0    0 -0.66483063754E+02  0.18620417758E+02  0.19747808813E+03  0.20919921849E+03  0.00000000000E+00 0. -1.
         11    1    1    2    0    0 -0.14549774843E+02 -0.54005303341E+01 -0.77365078105E+01  0.17341142666E+02  0.00000000000E+00 0.  1.
<mgrwt>
<rscale>  0 0.14263408E+03</rscale>
<asrwt>0</asrwt>
<pdfrwt beam="1">  1        2 0.12814052E+00 0.14954121E+03</pdfrwt>
<pdfrwt beam="2">  1       -2 0.42073354E-02 0.14954121E+03</pdfrwt>
<totfact> 0.83067919E+03</totfact>
</mgrwt>
</event>
<event>
 6    1  0.9240440E-006  0.2360457E+03  0.7546771E-02  0.1125305E+00
         -1   -1    0    0    0  501 -0.00000000000E+00  0.00000000000E+00  0.10350965125E+03  0.10350965125E+03  0.00000000000E+00 0.  1.
          1   -1    0    0  501    0  0.00000000000E+00 -0.00000000000E+00 -0.50944193738E+03  0.50944193738E+03  0.00000000000E+00 0. -1.
          5    1    1    2  502    0 -0.19047331948E+02 -0.41611718013E+02 -0.14412835027E+03  0.15129245613E+03  0.47000000000E+01 0. -1.
         -5    1    1    2    0  502  0.21376850034E+02 -0.15860520436E+03 -0.10258745625E+03  0.19015482310E+03  0.47000000000E+01 0. -1.
        -11    1    1    2    0    0  0.15862705873E+02  0.79427793612E+02 -0.11692539789E+03  0.14223905409E+03  0.00000000000E+00 0. -1.
         11    1    1    2    0    0 -0.18192223959E+02  0.12078912876E+03 -0.42291081716E+02  0.12926525532E+03  0.00000000000E+00 0.  1.
<mgrwt>
<rscale>  0 0.23190659E+03</rscale>
<asrwt>0</asrwt>
<pdfrwt beam="2">  1        1 0.78375682E-01 0.23604566E+03</pdfrwt>
<pdfrwt beam="1">  1       -1 0.15924562E-01 0.23604566E+03</pdfrwt>
<totfact> 0.12847249E+03</totfact>
</mgrwt>
</event>
<event>
 6    1  0.9240440E-006  0.1883698E+03  0.7546771E-02  0.1165087E+00
          2   -1    0    0  501    0  0.00000000000E+00  0.00000000000E+00  0.20893923041E+04  0.20893923041E+04  0.00000000000E+00 0. -1.
         -2   -1    0    0    0  501 -0.00000000000E+00 -0.00000000000E+00 -0.26768542226E+02  0.26768542226E+02  0.00000000000E+00 0.  1.
          5    1    1    2  502    0  0.13772589420E+03 -0.79243950597E+02  0.16123876280E+04  0.16202049186E+04  0.47000000000E+01 0.  1.
         -5    1    1    2    0  502 -0.24963823431E+02 -0.52796198321E+01  0.15071929241E+03  0.15293613690E+03  0.47000000000E+01 0.  1.
        -11    1    1    2    0    0 -0.26826378351E+01 -0.12968825111E+02  0.56132425644E+01  0.14383861185E+02  0.00000000000E+00 0. -1.
         11    1    1    2    0    0 -0.11007943293E+03  0.97492395540E+02  0.29390359893E+03  0.32863592958E+03  0.00000000000E+00 0.  1.
<mgrwt>
<rscale>  0 0.18283552E+03</rscale>
<asrwt>0</asrwt>
<pdfrwt beam="1">  1        2 0.32144484E+00 0.18836982E+03</pdfrwt>
<pdfrwt beam="2">  1       -2 0.41182389E-02 0.18836982E+03</pdfrwt>
<totfact> 0.17649911E+03</totfact>
</mgrwt>
</event>
<event>
 6    1  0.9240440E-006  0.1307022E+03  0.7546771E-02  0.1238324E+00
         -2   -1    0    0    0  501 -0.00000000000E+00  0.00000000000E+00  0.10168484118E+02  0.10168484118E+02  0.00000000000E+00 0.  1.
          2   -1    0    0  501    0  0.00000000000E+00 -0.00000000000E+00 -0.19139063211E+04  0.19139063211E+04  0.00000000000E+00 0. -1.
          5    1    1    2  502    0 -0.31710951937E+02  0.51097596419E+02 -0.14992431568E+04  0.15004561580E+04  0.47000000000E+01 0. -1.
         -5    1    1    2    0  502  0.83606972667E+01 -0.20882223080E+02 -0.59913351746E+02  0.64169059655E+02  0.47000000000E+01 0. -1.
        -11    1    1    2    0    0 -0.14444261485E+02  0.10697000351E+02 -0.10623041093E+02  0.20878493921E+02  0.00000000000E+00 0.  1.
         11    1    1    2    0    0  0.37794516156E+02 -0.40912373689E+02 -0.33395828727E+03  0.33857109358E+03  0.00000000000E+00 0. -1.
<mgrwt>
<rscale>  0 0.12294010E+03</rscale>
<asrwt>0</asrwt>
<pdfrwt beam="2">  1        2 0.29444682E+00 0.13070216E+03</pdfrwt>
<pdfrwt beam="1">  1       -2 0.15643838E-02 0.13070216E+03</pdfrwt>
<totfact> 0.89831705E+03</totfact>
</mgrwt>
</event>
<event>
 6    1  0.9240440E-006  0.1268816E+03  0.7546771E-02  0.1247593E+00
         -2   -1    0    0    0  501 -0.00000000000E+00  0.00000000000E+00  0.79269464775E+01  0.79269464775E+01  0.00000000000E+00 0.  1.
          2   -1    0    0  501    0  0.00000000000E+00 -0.00000000000E+00 -0.15454472281E+04  0.15454472281E+04  0.00000000000E+00 0. -1.
          5    1    1    2  502    0 -0.43358571412E+02 -0.23239392568E+02 -0.69939768080E+03  0.70114138445E+03  0.47000000000E+01 0. -1.
         -5    1    1    2    0  502  0.59774076688E+02  0.90007240249E+01 -0.28341740005E+03  0.28983006388E+03  0.47000000000E+01 0. -1.
        -11    1    1    2    0    0 -0.29920580944E+02  0.47889536972E+02 -0.33567535768E+03  0.34039182521E+03  0.00000000000E+00 0.  1.
         11    1    1    2    0    0  0.13505075668E+02 -0.33650868428E+02 -0.21902984307E+03  0.22201090101E+03  0.00000000000E+00 0. -1.
<mgrwt>
<rscale>  0 0.11731530E+03</rscale>
<asrwt>0</asrwt>
<pdfrwt beam="2">  1        2 0.23776064E+00 0.12688155E+03</pdfrwt>
<pdfrwt beam="1">  1       -2 0.12195327E-02 0.12688155E+03</pdfrwt>
<totfact> 0.19802699E+04</totfact>
</mgrwt>
</event>
<event>
 6    1  0.9240440E-006  0.1300213E+03  0.7546771E-02  0.1240775E+00
          1   -1    0    0  501    0  0.00000000000E+00  0.00000000000E+00  0.10249864848E+04  0.10249864848E+04  0.00000000000E+00 0. -1.
         -1   -1    0    0    0  501 -0.00000000000E+00 -0.00000000000E+00 -0.12854495545E+02  0.12854495545E+02  0.00000000000E+00 0.  1.
          5    1    1    2  502    0  0.83978960913E+01  0.31854758635E+02  0.34979472443E+02  0.48279434533E+02  0.47000000000E+01 0.  1.
         -5    1    1    2    0  502  0.17334342766E+02 -0.69280480133E+01  0.57882659533E+03  0.57914660902E+03  0.47000000000E+01 0.  1.
        -11    1    1    2    0    0 -0.46360600824E+02  0.14851883579E+02  0.27329786187E+03  0.27759972093E+03  0.00000000000E+00 0. -1.
         11    1    1    2    0    0  0.20628361966E+02 -0.39778594200E+02  0.12502805966E+03  0.13281521591E+03  0.00000000000E+00 0.  1.
<mgrwt>
<rscale>  0 0.12141883E+03</rscale>
<asrwt>0</asrwt>
<pdfrwt beam="1">  1        1 0.15769016E+00 0.13002135E+03</pdfrwt>
<pdfrwt beam="2">  1       -1 0.19776155E-02 0.13002135E+03</pdfrwt>
<totfact> 0.10272652E+04</totfact>
</mgrwt>
</event>
<event>
 6    1  0.9240440E-006  0.1347878E+03  0.7546771E-02  0.1232374E+00
          4   -1    0    0  501    0  0.00000000000E+00  0.00000000000E+00  0.48748438389E+03  0.48748438389E+03  0.00000000000E+00 0. -1.
         -4   -1    0    0    0  501 -0.00000000000E+00 -0.00000000000E+00 -0.31470801072E+02  0.31470801072E+02  0.00000000000E+00 0.  1.
          5    1    1    2  502    0 -0.55852254938E+01 -0.13616250753E+02  0.27710137477E+03  0.27753172598E+03  0.47000000000E+01 0. -1.
         -5    1    1    2    0  502  0.53704147884E+02 -0.12438224469E+01  0.40348305066E+02  0.67348038694E+02  0.47000000000E+01 0. -1.
        -11    1    1    2    0    0 -0.64158678324E+02  0.23932648044E+02  0.53115048039E+02  0.86662079221E+02  0.00000000000E+00 0.  1.
         11    1    1    2    0    0  0.16039755934E+02 -0.90725748440E+01  0.85448854950E+02  0.87413341070E+02  0.00000000000E+00 0. -1.
<mgrwt>
<rscale>  0 0.12674025E+03</rscale>
<asrwt>0</asrwt>
<pdfrwt beam="1">  1        4 0.74997592E-01 0.13478781E+03</pdfrwt>
<pdfrwt beam="2">  1       -4 0.48416621E-02 0.13478781E+03</pdfrwt>
<totfact> 0.68281981E+02</totfact>
</mgrwt>
</event>
<event>
 6    1  0.9240440E-006  0.2094053E+03  0.7546771E-02  0.1145759E+00
          2   -1    0    0  501    0  0.00000000000E+00  0.00000000000E+00  0.71359908000E+03  0.71359908000E+03  0.00000000000E+00 0. -1.
         -2   -1    0    0    0  501 -0.00000000000E+00 -0.00000000000E+00 -0.58300167062E+02  0.58300167062E+02  0.00000000000E+00 0.  1.
          5    1    1    2  502    0 -0.19368122682E+02  0.15742939650E+02  0.52528134788E+01  0.25935427016E+02  0.47000000000E+01 0.  1.
         -5    1    1    2    0  502 -0.13633283631E+03 -0.78831430407E+02  0.40753186319E+03  0.43692716349E+03  0.47000000000E+01 0.  1.
        -11    1    1    2    0    0  0.60649664393E+02  0.74194582483E+02  0.11907366581E+03  0.15284552905E+03  0.00000000000E+00 0.  1.
         11    1    1    2    0    0  0.95051294597E+02 -0.11106091726E+02  0.12344057045E+03  0.15619112751E+03  0.00000000000E+00 0. -1.
<mgrwt>
<rscale>  0 0.20479059E+03</rscale>
<asrwt>0</asrwt>
<pdfrwt beam="1">  1        2 0.10978447E+00 0.20940532E+03</pdfrwt>
<pdfrwt beam="2">  1       -2 0.89692570E-02 0.20940532E+03</pdfrwt>
<totfact> 0.32032466E+03</totfact>
</mgrwt>
</event>
<event>
 6    1  0.9240440E-006  0.2871454E+03  0.7546771E-02  0.1091849E+00
          1   -1    0    0  501    0  0.00000000000E+00  0.00000000000E+00  0.88575956583E+03  0.88575956583E+03  0.00000000000E+00 0. -1.
         -1   -1    0    0    0  501 -0.00000000000E+00 -0.00000000000E+00 -0.23271681858E+02  0.23271681858E+02  0.00000000000E+00 0.  1.
          5    1    1    2  502    0 -0.17134325340E+02 -0.26478223311E+02  0.74013215837E+02  0.80589872398E+02  0.47000000000E+01 0. -1.
         -5    1    1    2    0  502  0.67705880413E+02  0.77379674712E+02  0.58685414947E+03  0.59581170100E+03  0.47000000000E+01 0. -1.
        -11    1    1    2    0    0  0.63767196955E+01 -0.56163222413E+02  0.77066090241E+02  0.95572759566E+02  0.00000000000E+00 0.  1.
         11    1    1    2    0    0 -0.56948274768E+02  0.52617710118E+01  0.12455442843E+03  0.13705691473E+03  0.00000000000E+00 0. -1.
<mgrwt>
<rscale>  0 0.28714536E+03</rscale>
<asrwt>0</asrwt>
<pdfrwt beam="1">  1        1 0.13627068E+00 0.28714536E+03</pdfrwt>
<pdfrwt beam="2">  1       -1 0.35802594E-02 0.28714536E+03</pdfrwt>
<totfact> 0.56869092E+03</totfact>
</mgrwt>
</event>
<event>
 6    1  0.9240440E-006  0.1515724E+03  0.7546771E-02  0.1207863E+00
          3   -1    0    0  501    0  0.00000000000E+00  0.00000000000E+00  0.35940597331E+03  0.35940597331E+03  0.00000000000E+00 0. -1.
         -3   -1    0    0    0  501 -0.00000000000E+00 -0.00000000000E+00 -0.53834243952E+02  0.53834243952E+02  0.00000000000E+00 0.  1.
          5    1    1    2  502    0  0.49245416440E+02  0.23173402859E+02  0.15485517019E+03  0.16420819521E+03  0.47000000000E+01 0. -1.
         -5    1    1    2    0  502 -0.38118562191E+02  0.61834281991E+02  0.41322198443E+02  0.83702552512E+02  0.47000000000E+01 0. -1.
        -11    1    1    2    0    0 -0.15418627110E+02 -0.32591893716E+02 -0.77881388013E+01  0.36886592468E+02  0.00000000000E+00 0.  1.
         11    1    1    2    0    0  0.42917728609E+01 -0.52415791134E+02  0.11718249952E+03  0.12844287706E+03  0.00000000000E+00 0. -1.
<mgrwt>
<rscale>  0 0.14414102E+03</rscale>
<asrwt>0</asrwt>
<pdfrwt beam="1">  1        3 0.55293225E-01 0.15157236E+03</pdfrwt>
<pdfrwt beam="2">  1       -3 0.82821916E-02 0.15157236E+03</pdfrwt>
<totfact> 0.77187068E+02</totfact>
</mgrwt>
</event>
<event>
 6    1  0.9240440E-006  0.1313445E+03  0.7546771E-02  0.1239793E+00
         -2   -1    0    0    0  501 -0.00000000000E+00  0.00000000000E+00  0.57572325885E+02  0.57572325885E+02  0.00000000000E+00 0.  1.
          2   -1    0    0  501    0  0.00000000000E+00 -0.00000000000E+00 -0.25044653480E+03  0.25044653480E+03  0.00000000000E+00 0. -1.
          5    1    1    2  502    0 -0.14092435926E+02  0.54166917323E+02 -0.15163146154E+03  0.16169985099E+03  0.47000000000E+01 0.  1.
         -5    1    1    2    0  502 -0.21351224569E+02 -0.34928762836E+02 -0.31900293951E+01  0.41329886903E+02  0.47000000000E+01 0.  1.
        -11    1    1    2    0    0  0.23697521333E+02 -0.37731046317E+02  0.15463126965E+02  0.47162619404E+02  0.00000000000E+00 0.  1.
         11    1    1    2    0    0  0.11746139161E+02  0.18492891831E+02 -0.53515844944E+02  0.57826503383E+02  0.00000000000E+00 0. -1.
<mgrwt>
<rscale>  0 0.12202523E+03</rscale>
<asrwt>0</asrwt>
<pdfrwt beam="2">  1        2 0.38530236E-01 0.13134451E+03</pdfrwt>
<pdfrwt beam="1">  1       -2 0.88572809E-02 0.13134451E+03</pdfrwt>
<totfact> 0.10097017E+04</totfact>
</mgrwt>
</event>
<event>
 6    1  0.9240440E-006  0.1325309E+03  0.7546771E-02  0.1235093E+00
         -2   -1    0    0    0  501 -0.00000000000E+00  0.00000000000E+00  0.11461858489E+03  0.11461858489E+03  0.00000000000E+00 0.  1.
          2   -1    0    0  501    0  0.00000000000E+00 -0.00000000000E+00 -0.12454905760E+03  0.12454905760E+03  0.00000000000E+00 0. -1.
          5    1    1    2  502    0  0.67403344821E+02  0.23949535585E+02 -0.48893466193E+02  0.86772416033E+02  0.47000000000E+01 0. -1.
         -5    1    1    2    0  502 -0.23468727549E+02 -0.27803524880E+02  0.29621606090E+02  0.47152377627E+02  0.47000000000E+01 0. -1.
        -11    1    1    2    0    0 -0.62509248335E+02  0.82212033026E+01 -0.23480115750E+02  0.67277857775E+02  0.00000000000E+00 0. -1.
         11    1    1    2    0    0  0.18574631063E+02 -0.43672140073E+01  0.32821503143E+02  0.37964991056E+02  0.00000000000E+00 0.  1.
<mgrwt>
<rscale>  0 0.12498465E+03</rscale>
<asrwt>0</asrwt>
<pdfrwt beam="2">  1        2 0.19161393E-01 0.13253092E+03</pdfrwt>
<pdfrwt beam="1">  1       -2 0.17633629E-01 0.13253092E+03</pdfrwt>
<totfact> 0.71925402E+03</totfact>
</mgrwt>
</event>
<event>
 6    1  0.9240440E-006  0.2038669E+03  0.7546771E-02  0.1150635E+00
          4   -1    0    0  501    0  0.00000000000E+00  0.00000000000E+00  0.33114064844E+03  0.33114064844E+03  0.00000000000E+00 0. -1.
         -4   -1    0    0    0  501 -0.00000000000E+00 -0.00000000000E+00 -0.19063058935E+03  0.19063058935E+03  0.00000000000E+00 0.  1.
          5    1    1    2  502    0  0.58850675276E+02  0.99862555215E+01  0.17237345219E+03  0.18247691443E+03  0.47000000000E+01 0. -1.
         -5    1    1    2    0  502  0.65997428230E+02  0.91744723789E+02  0.65133352248E+02  0.13052661970E+03  0.47000000000E+01 0. -1.
        -11    1    1    2    0    0 -0.13279154665E+03 -0.82786155478E+02 -0.10303141074E+03  0.18735691607E+03  0.00000000000E+00 0.  1.
         11    1    1    2    0    0  0.79434431399E+01 -0.18944823832E+02  0.60346653995E+01  0.21410787595E+02  0.00000000000E+00 0. -1.
<mgrwt>
<rscale>  0 0.19894114E+03</rscale>
<asrwt>0</asrwt>
<pdfrwt beam="1">  1        4 0.50944715E-01 0.20386694E+03</pdfrwt>
<pdfrwt beam="2">  1       -4 0.29327783E-01 0.20386694E+03</pdfrwt>
<totfact> 0.73778950E+01</totfact>
</mgrwt>
</event>
<event>
 6    1  0.9240440E-006  0.4826632E+03  0.7546771E-02  0.1018406E+00
          2   -1    0    0  501    0  0.00000000000E+00  0.00000000000E+00  0.11095436109E+04  0.11095436109E+04  0.00000000000E+00 0.  1.
         -2   -1    0    0    0  501 -0.00000000000E+00 -0.00000000000E+00 -0.52490892400E+02  0.52490892400E+02  0.00000000000E+00 0. -1.
          5    1    1    2  502    0  0.15548384751E+03  0.57924667494E+02  0.40218602924E+03  0.43509330731E+03  0.47000000000E+01 0.  1.
         -5    1    1    2    0  502  0.33335524863E+02  0.28026492576E+02  0.13198696596E+02  0.45749722358E+02  0.47000000000E+01 0.  1.
        -11    1    1    2    0    0 -0.54837918099E+02 -0.33177915013E+02  0.86535914205E+02  0.10768674827E+03  0.00000000000E+00 0. -1.
         11    1    1    2    0    0 -0.13398145428E+03 -0.52773245057E+02  0.55513207842E+03  0.57350472533E+03  0.00000000000E+00 0.  1.
<mgrwt>
<rscale>  0 0.48266317E+03</rscale>
<asrwt>0</asrwt>
<pdfrwt beam="1">  1        2 0.17069900E+00 0.48266317E+03</pdfrwt>
<pdfrwt beam="2">  1       -2 0.80755228E-02 0.48266317E+03</pdfrwt>
<totfact> 0.21000013E+03</totfact>
</mgrwt>
</event>
<event>
 6    1  0.9240440E-006  0.2088088E+03  0.7546771E-02  0.1146296E+00
         -2   -1    0    0    0  501 -0.00000000000E+00  0.00000000000E+00  0.41064541638E+03  0.41064541638E+03  0.00000000000E+00 0.  1.
          2   -1    0    0  501    0  0.00000000000E+00 -0.00000000000E+00 -0.11225262065E+03  0.11225262065E+03  0.00000000000E+00 0. -1.
          5    1    1    2  502    0 -0.93369133808E+02  0.24724823330E+02  0.94941459214E+02  0.13551783172E+03  0.47000000000E+01 0.  1.
         -5    1    1    2    0  502 -0.72916888889E+02 -0.67114613026E+01 -0.35604906568E+02  0.81558051532E+02  0.47000000000E+01 0.  1.
        -11    1    1    2    0    0  0.34350298132E+02  0.20111492677E+02  0.14042044631E+02  0.42208934325E+02  0.00000000000E+00 0. -1.
         11    1    1    2    0    0  0.13193572456E+03 -0.38124854704E+02  0.22501419845E+03  0.26361321945E+03  0.00000000000E+00 0.  1.
<mgrwt>
<rscale>  0 0.20413543E+03</rscale>
<asrwt>0</asrwt>
<pdfrwt beam="2">  1        2 0.17269634E-01 0.20880879E+03</pdfrwt>
<pdfrwt beam="1">  1       -2 0.63176217E-01 0.20880879E+03</pdfrwt>
<totfact> 0.77893755E+02</totfact>
</mgrwt>
</event>
<event>
 6    1  0.9240440E-006  0.2979246E+03  0.7546771E-02  0.1087920E+00
          1   -1    0    0  501    0  0.00000000000E+00  0.00000000000E+00  0.12042017291E+04  0.12042017291E+04  0.00000000000E+00 0. -1.
         -1   -1    0    0    0  501 -0.00000000000E+00 -0.00000000000E+00 -0.80425973266E+02  0.80425973266E+02  0.00000000000E+00 0.  1.
          5    1    1    2  502    0 -0.10064486918E+03 -0.16407973211E+03  0.39122643168E+03  0.43604100613E+03  0.47000000000E+01 0. -1.
         -5    1    1    2    0  502 -0.75614349805E+02 -0.41026967117E+02  0.40584225955E+03  0.41488645623E+03  0.47000000000E+01 0. -1.
        -11    1    1    2    0    0  0.19500118056E+00  0.13246786211E+02 -0.29791214230E+01  0.13579047641E+02  0.00000000000E+00 0.  1.
         11    1    1    2    0    0  0.17606421781E+03  0.19185991302E+03  0.32968618603E+03  0.42012119236E+03  0.00000000000E+00 0. -1.
<mgrwt>
<rscale>  0 0.29469993E+03</rscale>
<asrwt>0</asrwt>
<pdfrwt beam="1">  1        1 0.18526179E+00 0.29792457E+03</pdfrwt>
<pdfrwt beam="2">  1       -1 0.12373227E-01 0.29792457E+03</pdfrwt>
<totfact> 0.49689850E+02</totfact>
</mgrwt>
</event>
<event>
 6    1  0.9240440E-006  0.1482429E+03  0.7546771E-02  0.1212013E+00
          2   -1    0    0  501    0  0.00000000000E+00  0.00000000000E+00  0.33006346437E+03  0.33006346437E+03  0.00000000000E+00 0.  1.
         -2   -1    0    0    0  501 -0.00000000000E+00 -0.00000000000E+00 -0.55132215383E+02  0.55132215383E+02  0.00000000000E+00 0. -1.
          5    1    1    2  502    0  0.23921691197E+02  0.29545848239E+02  0.99881467172E+02  0.10697477246E+03  0.47000000000E+01 0.  1.
         -5    1    1    2    0  502 -0.92756388220E+02  0.10608859520E+02  0.60108167163E+02  0.11113675007E+03  0.47000000000E+01 0.  1.
        -11    1    1    2    0    0  0.16900328162E+01  0.25500487570E+02  0.13710961042E+02  0.29002095268E+02  0.00000000000E+00 0.  1.
         11    1    1    2    0    0  0.67144664207E+02 -0.65655195329E+02  0.10123065361E+03  0.13808206196E+03  0.00000000000E+00 0. -1.
<mgrwt>
<rscale>  0 0.14098260E+03</rscale>
<asrwt>0</asrwt>
<pdfrwt beam="1">  1        2 0.50778993E-01 0.14824289E+03</pdfrwt>
<pdfrwt beam="2">  1       -2 0.84818795E-02 0.14824289E+03</pdfrwt>
<totfact> 0.81264234E+03</totfact>
</mgrwt>
</event>
<event>
 6    1  0.9240440E-006  0.1375826E+03  0.7546771E-02  0.1229872E+00
          2   -1    0    0  501    0  0.00000000000E+00  0.00000000000E+00  0.10397526911E+04  0.10397526911E+04  0.00000000000E+00 0. -1.
         -2   -1    0    0    0  501 -0.00000000000E+00 -0.00000000000E+00 -0.15364200856E+02  0.15364200856E+02  0.00000000000E+00 0.  1.
          5    1    1    2  502    0 -0.32504824017E+02 -0.29103694960E+02  0.88044227779E+02  0.98374105790E+02  0.47000000000E+01 0. -1.
         -5    1    1    2    0  502 -0.19527132967E+02  0.53547916498E+02  0.64042845593E+03  0.64297697116E+03  0.47000000000E+01 0. -1.
        -11    1    1    2    0    0  0.61281640845E+02 -0.48070758100E+02  0.20238526291E+03  0.21685486375E+03  0.00000000000E+00 0. -1.
         11    1    1    2    0    0 -0.92496838609E+01  0.23626536562E+02  0.93530543589E+02  0.96910951215E+02  0.00000000000E+00 0.  1.
<mgrwt>
<rscale>  0 0.12838530E+03</rscale>
<asrwt>0</asrwt>
<pdfrwt beam="1">  1        2 0.15996190E+00 0.13758259E+03</pdfrwt>
<pdfrwt beam="2">  1       -2 0.23637240E-02 0.13758259E+03</pdfrwt>
<totfact> 0.14397975E+04</totfact>
</mgrwt>
</event>
<event>
 6    1  0.9240440E-006  0.1262468E+03  0.7546771E-02  0.1247435E+00
         -2   -1    0    0    0  501 -0.00000000000E+00  0.00000000000E+00  0.99516564625E+01  0.99516564625E+01  0.00000000000E+00 0.  1.
          2   -1    0    0  501    0  0.00000000000E+00 -0.00000000000E+00 -0.13114134279E+04  0.13114134279E+04  0.00000000000E+00 0. -1.
          5    1    1    2  502    0  0.57652707564E+02 -0.30277405365E+02 -0.52145071026E+03  0.52552211105E+03  0.47000000000E+01 0. -1.
         -5    1    1    2    0  502 -0.58733099588E+02  0.12433927357E+02 -0.38625093179E+03  0.39091693727E+03  0.47000000000E+01 0. -1.
        -11    1    1    2    0    0  0.46119077361E+02  0.15408924748E+02 -0.17947396179E+03  0.18594436593E+03  0.00000000000E+00 0.  1.
         11    1    1    2    0    0 -0.45038685337E+02  0.24345532600E+01 -0.21428616761E+03  0.21898167013E+03  0.00000000000E+00 0. -1.
<mgrwt>
<rscale>  0 0.11740838E+03</rscale>
<asrwt>0</asrwt>
<pdfrwt beam="2">  1        2 0.20175593E+00 0.12624681E+03</pdfrwt>
<pdfrwt beam="1">  1       -2 0.15310240E-02 0.12624681E+03</pdfrwt>
<totfact> 0.18946929E+04</totfact>
</mgrwt>
</event>
<event>
 6    1  0.9240440E-006  0.2884618E+03  0.7546771E-02  0.1091155E+00
          2   -1    0    0  501    0  0.00000000000E+00  0.00000000000E+00  0.55786430719E+03  0.55786430719E+03  0.00000000000E+00 0. -1.
         -2   -1    0    0    0  501 -0.00000000000E+00 -0.00000000000E+00 -0.37289634162E+02  0.37289634162E+02  0.00000000000E+00 0.  1.
          5    1    1    2  502    0  0.38981098693E+01 -0.61285617265E+01 -0.61059306527E+01  0.10588999883E+02  0.47000000000E+01 0.  1.
         -5    1    1    2    0  502 -0.49072011980E+02  0.52394882476E+02  0.43220181561E+03  0.43814813190E+03  0.47000000000E+01 0.  1.
        -11    1    1    2    0    0  0.23871264509E+02 -0.31968659727E+02 -0.80714191015E+01  0.40706022654E+02  0.00000000000E+00 0.  1.
         11    1    1    2    0    0  0.21302637601E+02 -0.14297661022E+02  0.10255020717E+03  0.10571078692E+03  0.00000000000E+00 0. -1.
<mgrwt>
<rscale>  0 0.28846182E+03</rscale>
<asrwt>0</asrwt>
<pdfrwt beam="1">  1        2 0.85825272E-01 0.28846182E+03</pdfrwt>
<pdfrwt beam="2">  1       -2 0.57368672E-02 0.28846182E+03</pdfrwt>
<totfact> 0.86862779E+03</totfact>
</mgrwt>
</event>
<event>
 6    1  0.9240440E-006  0.4452123E+03  0.7546771E-02  0.1029159E+00
         -1   -1    0    0    0  501 -0.00000000000E+00  0.00000000000E+00  0.82994529392E+02  0.82994529392E+02  0.00000000000E+00 0.  1.
          1   -1    0    0  501    0  0.00000000000E+00 -0.00000000000E+00 -0.59706947084E+03  0.59706947084E+03  0.00000000000E+00 0. -1.
          5    1    1    2  502    0  0.40584692238E+02 -0.11888068755E+03 -0.12025506730E+03  0.17396294527E+03  0.47000000000E+01 0. -1.
         -5    1    1    2    0  502  0.45126586950E+02  0.13468192578E+02 -0.83890376779E+02  0.96319709183E+02  0.47000000000E+01 0.  1.
        -11    1    1    2    0    0 -0.16089214022E+03  0.36753238988E+02 -0.17233829133E+03  0.23861594251E+03  0.00000000000E+00 0.  1.
         11    1    1    2    0    0  0.75180861030E+02  0.68659255983E+02 -0.13759120604E+03  0.17116540327E+03  0.00000000000E+00 0. -1.
<mgrwt>
<rscale>  0 0.44521231E+03</rscale>
<asrwt>0</asrwt>
<pdfrwt beam="2">  1        1 0.91856844E-01 0.44521231E+03</pdfrwt>
<pdfrwt beam="1">  1       -1 0.12768389E-01 0.44521231E+03</pdfrwt>
<totfact> 0.14747772E+03</totfact>
</mgrwt>
</event>
<event>
 6    1  0.9240440E-006  0.2945248E+03  0.7546771E-02  0.1088010E+00
          1   -1    0    0  501    0  0.00000000000E+00  0.00000000000E+00  0.36824410001E+03  0.36824410001E+03  0.00000000000E+00 0. -1.
         -1   -1    0    0    0  501 -0.00000000000E+00 -0.00000000000E+00 -0.58890853437E+02  0.58890853437E+02  0.00000000000E+00 0.  1.
          5    1    1    2  502    0 -0.24743722640E+02 -0.19575863147E+02  0.12441965825E+03  0.12844379155E+03  0.47000000000E+01 0.  1.
         -5    1    1    2    0  502  0.45842025414E+02  0.90616746997E+02  0.13630475235E+03  0.17004105870E+03  0.47000000000E+01 0.  1.
        -11    1    1    2    0    0 -0.55061532739E+02 -0.25782321652E+02  0.14271381689E+02  0.62451363737E+02  0.00000000000E+00 0.  1.
         11    1    1    2    0    0  0.33963229965E+02 -0.45258562198E+02  0.34357454289E+02  0.66198739467E+02  0.00000000000E+00 0. -1.
<mgrwt>
<rscale>  0 0.29452477E+03</rscale>
<asrwt>0</asrwt>
<pdfrwt beam="1">  1        1 0.56652937E-01 0.29452477E+03</pdfrwt>
<pdfrwt beam="2">  1       -1 0.90601315E-02 0.29452477E+03</pdfrwt>
<totfact> 0.47771790E+03</totfact>
</mgrwt>
</event>
<event>
 6    1  0.9240440E-006  0.4521828E+03  0.7546771E-02  0.1027073E+00
          2   -1    0    0  501    0  0.00000000000E+00  0.00000000000E+00  0.14625571740E+04  0.14625571740E+04  0.00000000000E+00 0. -1.
         -2   -1    0    0    0  501 -0.00000000000E+00 -0.00000000000E+00 -0.34950642770E+02  0.34950642770E+02  0.00000000000E+00 0.  1.
          5    1    1    2  502    0 -0.12097313548E+02  0.23166762193E+02  0.34481846994E+03  0.34583942961E+03  0.47000000000E+01 0.  1.
         -5    1    1    2    0  502  0.24315464547E+02 -0.13420580277E+03  0.93217758661E+03  0.94211442101E+03  0.47000000000E+01 0.  1.
        -11    1    1    2    0    0 -0.16627100546E+02  0.49198151855E+02  0.13639541313E+03  0.14594734441E+03  0.00000000000E+00 0. -1.
         11    1    1    2    0    0  0.44089495472E+01  0.61840888723E+02  0.14215061574E+02  0.63606621744E+02  0.00000000000E+00 0.  1.
<mgrwt>
<rscale>  0 0.45218277E+03</rscale>
<asrwt>0</asrwt>
<pdfrwt beam="1">  1        2 0.22500875E+00 0.45218277E+03</pdfrwt>
<pdfrwt beam="2">  1       -2 0.53770231E-02 0.45218277E+03</pdfrwt>
<totfact> 0.24986573E+03</totfact>
</mgrwt>
</event>
<event>
 6    1  0.9240440E-006  0.1356235E+03  0.7546771E-02  0.1232756E+00
         -1   -1    0    0    0  501 -0.00000000000E+00  0.00000000000E+00  0.20650141605E+03  0.20650141605E+03  0.00000000000E+00 0.  1.
          1   -1    0    0  501    0  0.00000000000E+00 -0.00000000000E+00 -0.84034230444E+02  0.84034230444E+02  0.00000000000E+00 0. -1.
          5    1    1    2  502    0  0.33096000047E+02  0.72254525289E+02  0.24534473287E+02  0.83307214713E+02  0.47000000000E+01 0. -1.
         -5    1    1    2    0  502 -0.44453180161E+02 -0.20871682673E+02 -0.17894471370E+02  0.52478704915E+02  0.47000000000E+01 0. -1.
        -11    1    1    2    0    0 -0.11096952270E+02 -0.25200234606E+02  0.11704071187E+03  0.12023611108E+03  0.00000000000E+00 0.  1.
         11    1    1    2    0    0  0.22454132384E+02 -0.26182608010E+02 -0.12135281846E+01  0.34513615777E+02  0.00000000000E+00 0. -1.
<mgrwt>
<rscale>  0 0.12649188E+03</rscale>
<asrwt>0</asrwt>
<pdfrwt beam="2">  1        1 0.12928343E-01 0.13562347E+03</pdfrwt>
<pdfrwt beam="1">  1       -1 0.31769449E-01 0.13562347E+03</pdfrwt>
<totfact> 0.40294413E+03</totfact>
</mgrwt>
</event>
<event>
 6    1  0.9240440E-006  0.2471385E+03  0.7546771E-02  0.1115127E+00
          1   -1    0    0  501    0  0.00000000000E+00  0.00000000000E+00  0.12415470022E+04  0.12415470022E+04  0.00000000000E+00 0. -1.
         -1   -1    0    0    0  501 -0.00000000000E+00 -0.00000000000E+00 -0.12298654416E+02  0.12298654416E+02  0.00000000000E+00 0.  1.
          5    1    1    2  502    0 -0.22306230591E+02 -0.41803331833E+02  0.10402435421E+03  0.11440385809E+03  0.47000000000E+01 0. -1.
         -5    1    1    2    0  502  0.88596005274E+01 -0.53653040957E+01  0.75226435887E+03  0.75235034036E+03  0.47000000000E+01 0. -1.
        -11    1    1    2    0    0 -0.27663587803E+02 -0.12664203886E+02  0.13034669640E+03  0.13385035455E+03  0.00000000000E+00 0.  1.
         11    1    1    2    0    0  0.41110217867E+02  0.59832839815E+02  0.24261293829E+03  0.25324110361E+03  0.00000000000E+00 0. -1.
<mgrwt>
<rscale>  0 0.24713848E+03</rscale>
<asrwt>0</asrwt>
<pdfrwt beam="1">  1        1 0.19100713E+00 0.24713848E+03</pdfrwt>
<pdfrwt beam="2">  1       -1 0.18921017E-02 0.24713848E+03</pdfrwt>
<totfact> 0.79368327E+03</totfact>
</mgrwt>
</event>
<event>
 6    1  0.9240440E-006  0.1832557E+03  0.7546771E-02  0.1169640E+00
          4   -1    0    0  501    0  0.00000000000E+00  0.00000000000E+00  0.12303962251E+03  0.12303962251E+03  0.00000000000E+00 0. -1.
         -4   -1    0    0    0  501 -0.00000000000E+00 -0.00000000000E+00 -0.24437694147E+03  0.24437694147E+03  0.00000000000E+00 0.  1.
          5    1    1    2  502    0  0.44245479596E-01 -0.48196675003E+02  0.33572866547E+02  0.58924942149E+02  0.47000000000E+01 0.  1.
         -5    1    1    2    0  502  0.54156457766E+02 -0.75414021650E+02 -0.98628650389E+02  0.13553559406E+03  0.47000000000E+01 0.  1.
        -11    1    1    2    0    0  0.24944436176E+02  0.15651027869E+02 -0.66564086284E+01  0.30190848702E+02  0.00000000000E+00 0.  1.
         11    1    1    2    0    0 -0.79145139422E+02  0.10795966878E+03 -0.49625126492E+02  0.14276517908E+03  0.00000000000E+00 0. -1.
<mgrwt>
<rscale>  0 0.17811513E+03</rscale>
<asrwt>0</asrwt>
<pdfrwt beam="1">  1        4 0.18929173E-01 0.18325568E+03</pdfrwt>
<pdfrwt beam="2">  1       -4 0.37596452E-01 0.18325568E+03</pdfrwt>
<totfact> 0.30038563E+02</totfact>
</mgrwt>
</event>
<event>
 6    1  0.9240440E-006  0.1262211E+03  0.7546771E-02  0.1247857E+00
         -1   -1    0    0    0  501 -0.00000000000E+00  0.00000000000E+00  0.57396948946E+02  0.57396948946E+02  0.00000000000E+00 0.  1.
          1   -1    0    0  501    0  0.00000000000E+00 -0.00000000000E+00 -0.28959423171E+03  0.28959423171E+03  0.00000000000E+00 0. -1.
          5    1    1    2  502    0 -0.96550906155E+01 -0.22671850259E+02  0.65512907921E+01  0.25927648949E+02  0.47000000000E+01 0. -1.
         -5    1    1    2    0  502  0.22097673186E+02  0.10286661940E+02 -0.22499867103E+03  0.22636389848E+03  0.47000000000E+01 0. -1.
        -11    1    1    2    0    0 -0.47186314751E+01  0.40173207115E+02  0.24122015064E+02  0.47095898586E+02  0.00000000000E+00 0.  1.
         11    1    1    2    0    0 -0.77239510958E+01 -0.27788018796E+02 -0.37871917600E+02  0.47603734642E+02  0.00000000000E+00 0. -1.
<mgrwt>
<rscale>  0 0.11716000E+03</rscale>
<asrwt>0</asrwt>
<pdfrwt beam="2">  1        1 0.44552958E-01 0.12622110E+03</pdfrwt>
<pdfrwt beam="1">  1       -1 0.88302999E-02 0.12622110E+03</pdfrwt>
<totfact> 0.64307034E+03</totfact>
</mgrwt>
</event>
<event>
 6    1  0.9240440E-006  0.1447360E+03  0.7546771E-02  0.1216744E+00
         -2   -1    0    0    0  501 -0.00000000000E+00  0.00000000000E+00  0.30187132445E+02  0.30187132445E+02  0.00000000000E+00 0.  1.
          2   -1    0    0  501    0  0.00000000000E+00 -0.00000000000E+00 -0.61054969261E+03  0.61054969261E+03  0.00000000000E+00 0. -1.
          5    1    1    2  502    0 -0.66364893334E+02  0.32625862808E+02 -0.22029147375E+03  0.23242024309E+03  0.47000000000E+01 0.  1.
         -5    1    1    2    0  502  0.57677121019E+02  0.39827159303E+02 -0.17870808528E+03  0.19201958923E+03  0.47000000000E+01 0.  1.
        -11    1    1    2    0    0 -0.29314161329E+02 -0.74012362213E+02 -0.12883564585E+03  0.15144561221E+03  0.00000000000E+00 0. -1.
         11    1    1    2    0    0  0.38001933645E+02  0.15593401021E+01 -0.52527355290E+02  0.64851380526E+02  0.00000000000E+00 0.  1.
<mgrwt>
<rscale>  0 0.13749204E+03</rscale>
<asrwt>0</asrwt>
<pdfrwt beam="2">  1        2 0.93930728E-01 0.14473605E+03</pdfrwt>
<pdfrwt beam="1">  1       -2 0.46441739E-02 0.14473605E+03</pdfrwt>
<totfact> 0.10385868E+04</totfact>
</mgrwt>
</event>
<event>
 6    1  0.9240440E-006  0.3864157E+03  0.7546771E-02  0.1048588E+00
          2   -1    0    0  501    0  0.00000000000E+00  0.00000000000E+00  0.11358409280E+04  0.11358409280E+04  0.00000000000E+00 0. -1.
         -2   -1    0    0    0  501 -0.00000000000E+00 -0.00000000000E+00 -0.32864869957E+02  0.32864869957E+02  0.00000000000E+00 0.  1.
          5    1    1    2  502    0 -0.46067405040E+01  0.16362090948E+01 -0.26502193281E+01  0.72809958632E+01  0.47000000000E+01 0.  1.
         -5    1    1    2    0  502  0.54025899851E+02  0.13531638814E+03  0.77165746959E+03  0.78530673187E+03  0.47000000000E+01 0.  1.
        -11    1    1    2    0    0  0.24521022885E+02 -0.22858616518E+02  0.10054318234E+03  0.10598456693E+03  0.00000000000E+00 0.  1.
         11    1    1    2    0    0 -0.73940182232E+02 -0.11409398071E+03  0.23342562540E+03  0.27013350325E+03  0.00000000000E+00 0. -1.
<mgrwt>
<rscale>  0 0.38641565E+03</rscale>
<asrwt>0</asrwt>
<pdfrwt beam="1">  1        2 0.17474473E+00 0.38641565E+03</pdfrwt>
<pdfrwt beam="2">  1       -2 0.50561347E-02 0.38641565E+03</pdfrwt>
<totfact> 0.42055786E+03</totfact>
</mgrwt>
</event>
<event>
 6    1  0.9240440E-006  0.1261683E+03  0.7546771E-02  0.1249129E+00
         -1   -1    0    0    0  501 -0.00000000000E+00  0.00000000000E+00  0.37217649348E+02  0.37217649348E+02  0.00000000000E+00 0. -1.
          1   -1    0    0  501    0  0.00000000000E+00 -0.00000000000E+00 -0.40241587036E+03  0.40241587036E+03  0.00000000000E+00 0.  1.
          5    1    1    2  502    0 -0.31771909612E+02 -0.61759977355E+02 -0.13858713031E+03  0.15508781941E+03  0.47000000000E+01 0. -1.
         -5    1    1    2    0  502  0.29986091941E+02  0.44730203444E+02 -0.16662513454E+03  0.17517414841E+03  0.47000000000E+01 0. -1.
        -11    1    1    2    0    0  0.24580201445E+02 -0.18731124728E+00  0.15228021291E+02  0.28915636272E+02  0.00000000000E+00 0. -1.
         11    1    1    2    0    0 -0.22794383773E+02  0.17217085158E+02 -0.75213977462E+02  0.80455915622E+02  0.00000000000E+00 0.  1.
<mgrwt>
<rscale>  0 0.11641617E+03</rscale>
<asrwt>0</asrwt>
<pdfrwt beam="2">  1        1 0.61910130E-01 0.12616830E+03</pdfrwt>
<pdfrwt beam="1">  1       -1 0.57257926E-02 0.12616830E+03</pdfrwt>
<totfact> 0.81729491E+03</totfact>
</mgrwt>
</event>
<event>
 6    1  0.9240440E-006  0.1294403E+03  0.7546771E-02  0.1235576E+00
         -1   -1    0    0    0  501 -0.00000000000E+00  0.00000000000E+00  0.31468622129E+02  0.31468622129E+02  0.00000000000E+00 0.  1.
          1   -1    0    0  501    0  0.00000000000E+00 -0.00000000000E+00 -0.49317812267E+03  0.49317812267E+03  0.00000000000E+00 0. -1.
          5    1    1    2  502    0  0.18089074031E+02  0.40154778376E+02 -0.71962878863E+02  0.84500690885E+02  0.47000000000E+01 0. -1.
         -5    1    1    2    0  502  0.33521680036E+02 -0.73246030960E+02 -0.24202961733E+03  0.25512567442E+03  0.47000000000E+01 0.  1.
        -11    1    1    2    0    0 -0.19920161335E+02  0.40450266215E+02 -0.13720007516E+02  0.47130409194E+02  0.00000000000E+00 0.  1.
         11    1    1    2    0    0 -0.31690592732E+02 -0.73590136313E+01 -0.13399699683E+03  0.13788997030E+03  0.00000000000E+00 0. -1.
<mgrwt>
<rscale>  0 0.12467611E+03</rscale>
<asrwt>0</asrwt>
<pdfrwt beam="2">  1        1 0.75873552E-01 0.12944026E+03</pdfrwt>
<pdfrwt beam="1">  1       -1 0.48413268E-02 0.12944026E+03</pdfrwt>
<totfact> 0.80949814E+03</totfact>
</mgrwt>
</event>
<event>
 6    1  0.9240440E-006  0.1275868E+03  0.7546771E-02  0.1245457E+00
          1   -1    0    0  501    0  0.00000000000E+00  0.00000000000E+00  0.42273284596E+03  0.42273284596E+03  0.00000000000E+00 0. -1.
         -1   -1    0    0    0  501 -0.00000000000E+00 -0.00000000000E+00 -0.40681309958E+02  0.40681309958E+02  0.00000000000E+00 0.  1.
          5    1    1    2  502    0 -0.21284086174E+02  0.51384740889E+02  0.16735876916E+03  0.17642123323E+03  0.47000000000E+01 0.  1.
         -5    1    1    2    0  502  0.46723013608E+02 -0.53113108601E+02  0.16503954994E+03  0.17962234090E+03  0.47000000000E+01 0.  1.
        -11    1    1    2    0    0  0.10511956221E+02 -0.39170741369E+02  0.24558042815E+02  0.47412505417E+02  0.00000000000E+00 0. -1.
         11    1    1    2    0    0 -0.35950883655E+02  0.40899109081E+02  0.25095174082E+02  0.59958076365E+02  0.00000000000E+00 0.  1.
<mgrwt>
<rscale>  0 0.11858049E+03</rscale>
<asrwt>0</asrwt>
<pdfrwt beam="1">  1        1 0.65035819E-01 0.12758677E+03</pdfrwt>
<pdfrwt beam="2">  1       -1 0.62586634E-02 0.12758677E+03</pdfrwt>
<totfact> 0.67335898E+03</totfact>
</mgrwt>
</event>
<event>
 6    1  0.9240440E-006  0.2332963E+03  0.7546771E-02  0.1148793E+00
          1   -1    0    0  501    0  0.00000000000E+00  0.00000000000E+00  0.29082602247E+04  0.29082602247E+04  0.00000000000E+00 0. -1.
         -1   -1    0    0    0  501 -0.00000000000E+00 -0.00000000000E+00 -0.13289348484E+02  0.13289348484E+02  0.00000000000E+00 0.  1.
          5    1    1    2  502    0  0.10642292757E+03  0.89357727131E+02  0.17715473696E+04  0.17769954462E+04  0.47000000000E+01 0. -1.
         -5    1    1    2    0  502 -0.20837124643E+02 -0.81497564169E+02  0.57835610466E+03  0.58446036010E+03  0.47000000000E+01 0.  1.
        -11    1    1    2    0    0 -0.69413795952E+02  0.36889805170E+02  0.28167497471E+03  0.29243789797E+03  0.00000000000E+00 0.  1.
         11    1    1    2    0    0 -0.16172006979E+02 -0.44749968131E+02  0.26339242722E+03  0.26765586893E+03  0.00000000000E+00 0. -1.
<mgrwt>
<rscale>  0 0.20112493E+03</rscale>
<asrwt>0</asrwt>
<pdfrwt beam="1">  1        1 0.44742414E+00 0.23329635E+03</pdfrwt>
<pdfrwt beam="2">  1       -1 0.20445175E-02 0.23329635E+03</pdfrwt>
<totfact> 0.55993947E+02</totfact>
</mgrwt>
</event>
<event>
 6    1  0.9240440E-006  0.1256949E+03  0.7546771E-02  0.1248417E+00
         -2   -1    0    0    0  501 -0.00000000000E+00  0.00000000000E+00  0.16651033155E+03  0.16651033155E+03  0.00000000000E+00 0.  1.
          2   -1    0    0  501    0  0.00000000000E+00 -0.00000000000E+00 -0.11311343655E+03  0.11311343655E+03  0.00000000000E+00 0. -1.
          5    1    1    2  502    0  0.12130471766E+02 -0.57487436414E+02 -0.22149727880E+02  0.62965499568E+02  0.47000000000E+01 0.  1.
         -5    1    1    2    0  502 -0.24728395797E+02  0.61668499171E+02 -0.32037813067E+02  0.73912169599E+02  0.47000000000E+01 0.  1.
        -11    1    1    2    0    0 -0.84344707356E+01  0.10026048275E+02 -0.13628132607E+02  0.18904706793E+02  0.00000000000E+00 0. -1.
         11    1    1    2    0    0  0.21032394767E+02 -0.14207111031E+02  0.12121256855E+03  0.12384139214E+03  0.00000000000E+00 0.  1.
<mgrwt>
<rscale>  0 0.11683182E+03</rscale>
<asrwt>0</asrwt>
<pdfrwt beam="2">  1        2 0.17402067E-01 0.12569490E+03</pdfrwt>
<pdfrwt beam="1">  1       -2 0.25616974E-01 0.12569490E+03</pdfrwt>
<totfact> 0.42314987E+03</totfact>
</mgrwt>
</event>
<event>
 6    1  0.9240440E-006  0.1843802E+03  0.7546771E-02  0.1168861E+00
          1   -1    0    0  501    0  0.00000000000E+00  0.00000000000E+00  0.10587861889E+04  0.10587861889E+04  0.00000000000E+00 0. -1.
         -1   -1    0    0    0  501 -0.00000000000E+00 -0.00000000000E+00 -0.39671716603E+02  0.39671716603E+02  0.00000000000E+00 0.  1.
          5    1    1    2  502    0  0.86343142981E+01 -0.12001727935E+03  0.68412251974E+03  0.69463977048E+03  0.47000000000E+01 0.  1.
         -5    1    1    2    0  502 -0.52316564009E+02 -0.82919740900E+01  0.13768484319E+03  0.14759737717E+03  0.47000000000E+01 0.  1.
        -11    1    1    2    0    0  0.64151817707E+00  0.53471232653E+02  0.16669643388E+02  0.56013045603E+02  0.00000000000E+00 0.  1.
         11    1    1    2    0    0  0.43040731534E+02  0.74838020791E+02  0.18063746603E+03  0.20020771229E+03  0.00000000000E+00 0. -1.
<mgrwt>
<rscale>  0 0.17891150E+03</rscale>
<asrwt>0</asrwt>
<pdfrwt beam="1">  1        1 0.16289016E+00 0.18438024E+03</pdfrwt>
<pdfrwt beam="2">  1       -1 0.61033418E-02 0.18438024E+03</pdfrwt>
<totfact> 0.18776381E+03</totfact>
</mgrwt>
</event>
<event>
 6    1  0.9240440E-006  0.1429824E+03  0.7546771E-02  0.1217158E+00
          1   -1    0    0  501    0  0.00000000000E+00  0.00000000000E+00  0.23055541990E+04  0.23055541990E+04  0.00000000000E+00 0. -1.
         -1   -1    0    0    0  501 -0.00000000000E+00 -0.00000000000E+00 -0.12203460152E+02  0.12203460152E+02  0.00000000000E+00 0.  1.
          5    1    1    2  502    0 -0.88198063273E+02 -0.41266860786E+02  0.96757876522E+03  0.97247756225E+03  0.47000000000E+01 0.  1.
         -5    1    1    2    0  502  0.25014187377E+02  0.12512592399E+02  0.95052997000E+03  0.95095298959E+03  0.47000000000E+01 0.  1.
        -11    1    1    2    0    0  0.10225363725E+02 -0.35895885055E+02  0.10347846568E+03  0.11000393396E+03  0.00000000000E+00 0.  1.
         11    1    1    2    0    0  0.52958512170E+02  0.64650153441E+02  0.27176353793E+03  0.28432317334E+03  0.00000000000E+00 0. -1.
<mgrwt>
<rscale>  0 0.13719229E+03</rscale>
<asrwt>0</asrwt>
<pdfrwt beam="1">  1        1 0.35470030E+00 0.14298240E+03</pdfrwt>
<pdfrwt beam="2">  1       -1 0.18774572E-02 0.14298240E+03</pdfrwt>
<totfact> 0.16167485E+03</totfact>
</mgrwt>
</event>
<event>
 6    1  0.9240440E-006  0.1317304E+03  0.7546771E-02  0.1236435E+00
          1   -1    0    0  501    0  0.00000000000E+00  0.00000000000E+00  0.86482074020E+03  0.86482074020E+03  0.00000000000E+00 0. -1.
         -1   -1    0    0    0  501 -0.00000000000E+00 -0.00000000000E+00 -0.65297629476E+02  0.65297629476E+02  0.00000000000E+00 0.  1.
          5    1    1    2  502    0  0.42047116586E+02  0.42785907864E+02  0.67442445735E+03  0.67710341351E+03  0.47000000000E+01 0. -1.
         -5    1    1    2    0  502 -0.47232903437E+02  0.50037131773E+01  0.14016388691E+03  0.14806751671E+03  0.47000000000E+01 0.  1.
        -11    1    1    2    0    0  0.83761847807E+01 -0.34060093252E+02 -0.53520790461E+02  0.63990041689E+02  0.00000000000E+00 0.  1.
         11    1    1    2    0    0 -0.31903979300E+01 -0.13729527790E+02  0.38455556936E+02  0.40957397763E+02  0.00000000000E+00 0. -1.
<mgrwt>
<rscale>  0 0.12413009E+03</rscale>
<asrwt>0</asrwt>
<pdfrwt beam="1">  1        1 0.13304934E+00 0.13173038E+03</pdfrwt>
<pdfrwt beam="2">  1       -1 0.10045790E-01 0.13173038E+03</pdfrwt>
<totfact> 0.12319325E+03</totfact>
</mgrwt>
</event>
<event>
 6    1  0.9240440E-006  0.1665204E+03  0.7546771E-02  0.1188226E+00
          2   -1    0    0  501    0  0.00000000000E+00  0.00000000000E+00  0.53447931872E+03  0.53447931872E+03  0.00000000000E+00 0. -1.
         -2   -1    0    0    0  501 -0.00000000000E+00 -0.00000000000E+00 -0.44940721631E+02  0.44940721631E+02  0.00000000000E+00 0.  1.
          5    1    1    2  502    0 -0.73867250677E+02  0.77977477808E+02  0.12906315508E+03  0.16797692034E+03  0.47000000000E+01 0.  1.
         -5    1    1    2    0  502 -0.30116171081E+02 -0.42046857298E+02  0.12999152271E+03  0.13998145572E+03  0.47000000000E+01 0.  1.
        -11    1    1    2    0    0  0.17150072068E+02 -0.39010832747E+02  0.13859255709E+03  0.14499609279E+03  0.00000000000E+00 0. -1.
         11    1    1    2    0    0  0.86833349691E+02  0.30802122371E+01  0.91891362202E+02  0.12646557149E+03  0.00000000000E+00 0.  1.
<mgrwt>
<rscale>  0 0.16041727E+03</rscale>
<asrwt>0</asrwt>
<pdfrwt beam="1">  1        2 0.82227583E-01 0.16652038E+03</pdfrwt>
<pdfrwt beam="2">  1       -2 0.69139576E-02 0.16652038E+03</pdfrwt>
<totfact> 0.66572684E+03</totfact>
</mgrwt>
</event>
<event>
 6    1  0.9240440E-006  0.3411555E+03  0.7546771E-02  0.1066860E+00
         -1   -1    0    0    0  501 -0.00000000000E+00  0.00000000000E+00  0.76988975428E+02  0.76988975428E+02  0.00000000000E+00 0.  1.
          1   -1    0    0  501    0  0.00000000000E+00 -0.00000000000E+00 -0.16121477605E+04  0.16121477605E+04  0.00000000000E+00 0. -1.
          5    1    1    2  502    0 -0.61961578320E+02  0.27465212349E+03 -0.96632161574E+03  0.10065150675E+04  0.47000000000E+01 0. -1.
         -5    1    1    2    0  502 -0.23889718170E+02  0.30949699809E+02 -0.40295516587E+02  0.56342002179E+02  0.47000000000E+01 0. -1.
        -11    1    1    2    0    0 -0.20554767493E+02 -0.12091347245E+03 -0.18366303945E+03  0.22084990004E+03  0.00000000000E+00 0.  1.
         11    1    1    2    0    0  0.10640606398E+03 -0.18468835085E+03 -0.34487861327E+03  0.40542976616E+03  0.00000000000E+00 0. -1.
<mgrwt>
<rscale>  0 0.33984948E+03</rscale>
<asrwt>0</asrwt>
<pdfrwt beam="2">  1        1 0.24802270E+00 0.34115554E+03</pdfrwt>
<pdfrwt beam="1">  1       -1 0.11844459E-01 0.34115554E+03</pdfrwt>
<totfact> 0.28005944E+02</totfact>
</mgrwt>
</event>
<event>
 6    1  0.9240440E-006  0.1321463E+03  0.7546771E-02  0.1237127E+00
         -1   -1    0    0    0  501 -0.00000000000E+00  0.00000000000E+00  0.41966938979E+02  0.41966938979E+02  0.00000000000E+00 0.  1.
          1   -1    0    0  501    0  0.00000000000E+00 -0.00000000000E+00 -0.34792425237E+03  0.34792425237E+03  0.00000000000E+00 0. -1.
          5    1    1    2  502    0  0.51348369316E+02 -0.97574576527E+01 -0.11565894895E+03  0.12700765915E+03  0.47000000000E+01 0.  1.
         -5    1    1    2    0  502 -0.71619555815E+02 -0.27993280447E+02 -0.10570895240E+03  0.13080312360E+03  0.47000000000E+01 0.  1.
        -11    1    1    2    0    0  0.37362296285E+02 -0.12275560770E+01  0.54373670492E-02  0.37382457212E+02  0.00000000000E+00 0.  1.
         11    1    1    2    0    0 -0.17091109786E+02  0.38978294176E+02 -0.84594849407E+02  0.94697951386E+02  0.00000000000E+00 0. -1.
<mgrwt>
<rscale>  0 0.12369226E+03</rscale>
<asrwt>0</asrwt>
<pdfrwt beam="2">  1        1 0.53526810E-01 0.13214633E+03</pdfrwt>
<pdfrwt beam="1">  1       -1 0.64564519E-02 0.13214633E+03</pdfrwt>
<totfact> 0.82269306E+03</totfact>
</mgrwt>
</event>
<event>
 6    1  0.9240440E-006  0.1451615E+03  0.7546771E-02  0.1218641E+00
          2   -1    0    0  501    0  0.00000000000E+00  0.00000000000E+00  0.62911262702E+03  0.62911262702E+03  0.00000000000E+00 0. -1.
         -2   -1    0    0    0  501 -0.00000000000E+00 -0.00000000000E+00 -0.28791002453E+02  0.28791002453E+02  0.00000000000E+00 0.  1.
          5    1    1    2  502    0  0.52424809000E+00 -0.62396963540E+02  0.14660755893E+03  0.15940364560E+03  0.47000000000E+01 0.  1.
         -5    1    1    2    0  502 -0.70139218788E+02  0.37874989752E+02  0.28408082282E+03  0.29508986556E+03  0.47000000000E+01 0.  1.
        -11    1    1    2    0    0  0.21472212910E+02  0.41043219003E+02  0.31021891932E+02  0.55749076516E+02  0.00000000000E+00 0.  1.
         11    1    1    2    0    0  0.48142757788E+02 -0.16521245215E+02  0.13861135089E+03  0.14766104180E+03  0.00000000000E+00 0. -1.
<mgrwt>
<rscale>  0 0.13612441E+03</rscale>
<asrwt>0</asrwt>
<pdfrwt beam="1">  1        2 0.96786548E-01 0.14516153E+03</pdfrwt>
<pdfrwt beam="2">  1       -2 0.44293855E-02 0.14516153E+03</pdfrwt>
<totfact> 0.10773369E+04</totfact>
</mgrwt>
</event>
<event>
 6    1  0.9240440E-006  0.2014794E+03  0.7546771E-02  0.1206740E+00
         -4   -1    0    0    0  501 -0.00000000000E+00  0.00000000000E+00  0.14343566644E+03  0.14343566644E+03  0.00000000000E+00 0.  1.
          4   -1    0    0  501    0  0.00000000000E+00 -0.00000000000E+00 -0.11751165405E+03  0.11751165405E+03  0.00000000000E+00 0. -1.
          5    1    1    2  502    0  0.65527798281E+02  0.39236207685E+02 -0.48998501370E+01  0.76677707793E+02  0.47000000000E+01 0. -1.
         -5    1    1    2    0  502 -0.90713205078E+02 -0.85372946165E+02  0.60661379317E+01  0.12480510223E+03  0.47000000000E+01 0.  1.
        -11    1    1    2    0    0  0.13087529294E+02  0.15209238073E+02  0.14328814202E+02  0.24656018783E+02  0.00000000000E+00 0. -1.
         11    1    1    2    0    0  0.12097877502E+02  0.30927500407E+02  0.10428910388E+02  0.34808491685E+02  0.00000000000E+00 0.  1.
<mgrwt>
<rscale>  0 0.14501175E+03</rscale>
<asrwt>0</asrwt>
<pdfrwt beam="2">  1        4 0.18078716E-01 0.20147943E+03</pdfrwt>
<pdfrwt beam="1">  1       -4 0.22067026E-01 0.20147943E+03</pdfrwt>
<totfact> 0.90984676E+02</totfact>
</mgrwt>
</event>
<event>
 6    1  0.9240440E-006  0.1570731E+03  0.7546771E-02  0.1199698E+00
          2   -1    0    0  501    0  0.00000000000E+00  0.00000000000E+00  0.46817064708E+03  0.46817064708E+03  0.00000000000E+00 0. -1.
         -2   -1    0    0    0  501 -0.00000000000E+00 -0.00000000000E+00 -0.45004254396E+02  0.45004254396E+02  0.00000000000E+00 0.  1.
          5    1    1    2  502    0  0.10281350776E+03 -0.22336318240E+02  0.18167192393E+03  0.20999120562E+03  0.47000000000E+01 0.  1.
         -5    1    1    2    0  502 -0.11429499298E+02  0.48747405625E+02  0.60680274169E+02  0.78810714262E+02  0.47000000000E+01 0.  1.
        -11    1    1    2    0    0 -0.76268373754E+02  0.20679485712E+02  0.82036562279E+02  0.11390567815E+03  0.00000000000E+00 0.  1.
         11    1    1    2    0    0 -0.15115634713E+02 -0.47090573096E+02  0.98777632303E+02  0.11046730345E+03  0.00000000000E+00 0. -1.
<mgrwt>
<rscale>  0 0.15063220E+03</rscale>
<asrwt>0</asrwt>
<pdfrwt beam="1">  1        2 0.72026250E-01 0.15707311E+03</pdfrwt>
<pdfrwt beam="2">  1       -2 0.69237318E-02 0.15707311E+03</pdfrwt>
<totfact> 0.76655122E+03</totfact>
</mgrwt>
</event>
<event>
 6    1  0.9240440E-006  0.1488208E+03  0.7546771E-02  0.1211328E+00
          1   -1    0    0  501    0  0.00000000000E+00  0.00000000000E+00  0.10040313600E+04  0.10040313600E+04  0.00000000000E+00 0. -1.
         -1   -1    0    0    0  501 -0.00000000000E+00 -0.00000000000E+00 -0.47568050215E+02  0.47568050215E+02  0.00000000000E+00 0.  1.
          5    1    1    2  502    0 -0.27934022773E+02  0.53372721025E+01  0.42818439226E+02  0.51616904590E+02  0.47000000000E+01 0.  1.
         -5    1    1    2    0  502  0.14192586428E+02  0.74239637151E+02  0.86609165413E+03  0.86939622531E+03  0.47000000000E+01 0.  1.
        -11    1    1    2    0    0  0.18579177882E+02 -0.91079470829E+02  0.13013590071E+02  0.93861650229E+02  0.00000000000E+00 0.  1.
         11    1    1    2    0    0 -0.48377415372E+01  0.11502561575E+02  0.34539626393E+02  0.36724630118E+02  0.00000000000E+00 0. -1.
<mgrwt>
<rscale>  0 0.14149761E+03</rscale>
<asrwt>0</asrwt>
<pdfrwt beam="1">  1        1 0.15446635E+00 0.14882079E+03</pdfrwt>
<pdfrwt beam="2">  1       -1 0.73181623E-02 0.14882079E+03</pdfrwt>
<totfact> 0.15636301E+03</totfact>
</mgrwt>
</event>
<event>
 6    1  0.9240440E-006  0.1496644E+03  0.7546771E-02  0.1209645E+00
          2   -1    0    0  501    0  0.00000000000E+00  0.00000000000E+00  0.15564792349E+04  0.15564792349E+04  0.00000000000E+00 0. -1.
         -2   -1    0    0    0  501 -0.00000000000E+00 -0.00000000000E+00 -0.17034168290E+02  0.17034168290E+02  0.00000000000E+00 0.  1.
          5    1    1    2  502    0  0.91580746495E+02 -0.39072387177E+02  0.76118875548E+03  0.76768749895E+03  0.47000000000E+01 0. -1.
         -5    1    1    2    0  502 -0.97343264506E+01  0.47664388145E+02  0.48493427132E+03  0.48739100167E+03  0.47000000000E+01 0. -1.
        -11    1    1    2    0    0 -0.66906558262E+02 -0.43604869860E+01  0.29526889395E+03  0.30278576769E+03  0.00000000000E+00 0. -1.
         11    1    1    2    0    0 -0.14939861782E+02 -0.42315139813E+01 -0.19468541603E+01  0.15649134857E+02  0.00000000000E+00 0.  1.
<mgrwt>
<rscale>  0 0.14277375E+03</rscale>
<asrwt>0</asrwt>
<pdfrwt beam="1">  1        2 0.23945823E+00 0.14966444E+03</pdfrwt>
<pdfrwt beam="2">  1       -2 0.26206425E-02 0.14966444E+03</pdfrwt>
<totfact> 0.64991949E+03</totfact>
</mgrwt>
</event>
<event>
 6    1  0.9240440E-006  0.2212855E+03  0.7546771E-02  0.1132928E+00
         -1   -1    0    0    0  501 -0.00000000000E+00  0.00000000000E+00  0.52647215194E+03  0.52647215194E+03  0.00000000000E+00 0.  1.
          1   -1    0    0  501    0  0.00000000000E+00 -0.00000000000E+00 -0.23252542960E+02  0.23252542960E+02  0.00000000000E+00 0. -1.
          5    1    1    2  502    0 -0.21783579328E+02  0.14051736042E+02  0.25934543146E+03  0.26068010747E+03  0.47000000000E+01 0.  1.
         -5    1    1    2    0  502  0.11146558000E+02 -0.96637094629E+00 -0.11938904662E+02  0.17023720879E+02  0.47000000000E+01 0.  1.
        -11    1    1    2    0    0 -0.17952413429E+02 -0.40007655402E+02  0.74015490035E+02  0.86030194721E+02  0.00000000000E+00 0. -1.
         11    1    1    2    0    0  0.28589434757E+02  0.26922290306E+02  0.18179759215E+03  0.18599067182E+03  0.00000000000E+00 0.  1.
<mgrwt>
<rscale>  0 0.22128548E+03</rscale>
<asrwt>0</asrwt>
<pdfrwt beam="2">  1        1 0.35773147E-02 0.22128548E+03</pdfrwt>
<pdfrwt beam="1">  1       -1 0.80995707E-01 0.22128548E+03</pdfrwt>
<totfact> 0.41722392E+03</totfact>
</mgrwt>
</event>
<event>
 6    1  0.9240440E-006  0.1272166E+03  0.7546771E-02  0.1263629E+00
         -2   -1    0    0    0  501 -0.00000000000E+00  0.00000000000E+00  0.22432582479E+02  0.22432582479E+02  0.00000000000E+00 0.  1.
          2   -1    0    0  501    0  0.00000000000E+00 -0.00000000000E+00 -0.42312701366E+03  0.42312701366E+03  0.00000000000E+00 0. -1.
          5    1    1    2  502    0 -0.13060215991E+02  0.45289943687E+02 -0.57358335626E+02  0.74389629026E+02  0.47000000000E+01 0. -1.
         -5    1    1    2    0  502  0.88709359551E+01 -0.68569101042E+02 -0.22214511613E+03  0.23270358343E+03  0.47000000000E+01 0. -1.
        -11    1    1    2    0    0  0.33136292961E+02  0.14467370122E+02 -0.74786057577E+02  0.83067882586E+02  0.00000000000E+00 0.  1.
         11    1    1    2    0    0 -0.28947012925E+02  0.88117872324E+01 -0.46404921845E+02  0.55398501089E+02  0.00000000000E+00 0. -1.
<mgrwt>
<rscale>  0 0.10836435E+03</rscale>
<asrwt>0</asrwt>
<pdfrwt beam="2">  1        2 0.65096462E-01 0.12721659E+03</pdfrwt>
<pdfrwt beam="1">  1       -2 0.34511666E-02 0.12721659E+03</pdfrwt>
<totfact> 0.23950557E+04</totfact>
</mgrwt>
</event>
<event>
 6    1  0.9240440E-006  0.1621295E+03  0.7546771E-02  0.1193474E+00
          1   -1    0    0  501    0  0.00000000000E+00  0.00000000000E+00  0.19470288224E+03  0.19470288224E+03  0.00000000000E+00 0. -1.
         -1   -1    0    0    0  501 -0.00000000000E+00 -0.00000000000E+00 -0.11653103377E+03  0.11653103377E+03  0.00000000000E+00 0.  1.
          5    1    1    2  502    0  0.30205784784E+02 -0.97913692570E+01  0.47876924789E+01  0.32454157602E+02  0.47000000000E+01 0.  1.
         -5    1    1    2    0  502 -0.85839038067E+02  0.96760107880E+02  0.48146032890E+02  0.13809775312E+03  0.47000000000E+01 0.  1.
        -11    1    1    2    0    0  0.67365758795E+02 -0.68074349236E+02  0.49467308620E+02  0.10779275070E+03  0.00000000000E+00 0. -1.
         11    1    1    2    0    0 -0.11732505512E+02 -0.18894389387E+02 -0.24229185518E+02  0.32889254579E+02  0.00000000000E+00 0.  1.
<mgrwt>
<rscale>  0 0.15584048E+03</rscale>
<asrwt>0</asrwt>
<pdfrwt beam="1">  1        1 0.29954290E-01 0.16212950E+03</pdfrwt>
<pdfrwt beam="2">  1       -1 0.17927851E-01 0.16212950E+03</pdfrwt>
<totfact> 0.35573302E+03</totfact>
</mgrwt>
</event>
<event>
 6    1  0.9240440E-006  0.1537299E+03  0.7546771E-02  0.1203563E+00
          1   -1    0    0  501    0  0.00000000000E+00  0.00000000000E+00  0.48998036620E+03  0.48998036620E+03  0.00000000000E+00 0. -1.
         -1   -1    0    0    0  501 -0.00000000000E+00 -0.00000000000E+00 -0.41422365009E+02  0.41422365009E+02  0.00000000000E+00 0.  1.
          5    1    1    2  502    0 -0.14065407255E-01 -0.39490906538E+02  0.24175090175E+03  0.24500024571E+03  0.47000000000E+01 0.  1.
         -5    1    1    2    0  502 -0.36161383933E+02 -0.42359097949E+02  0.21569709243E+02  0.59910610277E+02  0.47000000000E+01 0.  1.
        -11    1    1    2    0    0 -0.92660164055E+01  0.58578894589E+01 -0.82419146508E+01  0.13715067847E+02  0.00000000000E+00 0.  1.
         11    1    1    2    0    0  0.45441465745E+02  0.75992115027E+02  0.19347930485E+03  0.21277680738E+03  0.00000000000E+00 0. -1.
<mgrwt>
<rscale>  0 0.14751261E+03</rscale>
<asrwt>0</asrwt>
<pdfrwt beam="1">  1        1 0.75381591E-01 0.15372991E+03</pdfrwt>
<pdfrwt beam="2">  1       -1 0.63726719E-02 0.15372991E+03</pdfrwt>
<totfact> 0.54807308E+03</totfact>
</mgrwt>
</event>
<event>
 6    1  0.9240440E-006  0.1961787E+03  0.7546771E-02  0.1157236E+00
         -3   -1    0    0    0  501 -0.00000000000E+00  0.00000000000E+00  0.12066107125E+03  0.12066107125E+03  0.00000000000E+00 0.  1.
          3   -1    0    0  501    0  0.00000000000E+00 -0.00000000000E+00 -0.28954908276E+03  0.28954908276E+03  0.00000000000E+00 0. -1.
          5    1    1    2  502    0 -0.36863022394E+02  0.80836099551E+02 -0.30319330787E+02  0.93993133951E+02  0.47000000000E+01 0. -1.
         -5    1    1    2    0  502 -0.10352624405E+03 -0.24677141932E+02 -0.55739737985E+02  0.12023166360E+03  0.47000000000E+01 0. -1.
        -11    1    1    2    0    0 -0.53270230705E+00 -0.15021805482E+02  0.13660280288E+02  0.20311121811E+02  0.00000000000E+00 0.  1.
         11    1    1    2    0    0  0.14092196875E+03 -0.41137152137E+02 -0.96489223019E+02  0.17567423465E+03  0.00000000000E+00 0. -1.
<mgrwt>
<rscale>  0 0.19136532E+03</rscale>
<asrwt>0</asrwt>
<pdfrwt beam="2">  1        3 0.44546012E-01 0.19617875E+03</pdfrwt>
<pdfrwt beam="1">  1       -3 0.18563242E-01 0.19617875E+03</pdfrwt>
<totfact> 0.31392362E+02</totfact>
</mgrwt>
</event>
<event>
 6    1  0.9240440E-006  0.1523768E+03  0.7546771E-02  0.1206163E+00
          4   -1    0    0  501    0  0.00000000000E+00  0.00000000000E+00  0.52353984168E+02  0.52353984168E+02  0.00000000000E+00 0. -1.
         -4   -1    0    0    0  501 -0.00000000000E+00 -0.00000000000E+00 -0.42466168433E+03  0.42466168433E+03  0.00000000000E+00 0.  1.
          5    1    1    2  502    0  0.43808213338E+02  0.28579233669E+02 -0.13863156460E+03  0.14824551547E+03  0.47000000000E+01 0.  1.
         -5    1    1    2    0  502  0.38054633176E+02  0.13727240463E+01  0.21469768162E+02  0.43966810464E+02  0.47000000000E+01 0.  1.
        -11    1    1    2    0    0 -0.29267120712E+02  0.14132729482E+02 -0.18050617179E+03  0.18340876874E+03  0.00000000000E+00 0. -1.
         11    1    1    2    0    0 -0.52595725802E+02 -0.44084687197E+02 -0.74639731939E+02  0.10139457383E+03  0.00000000000E+00 0.  1.
<mgrwt>
<rscale>  0 0.14546214E+03</rscale>
<asrwt>0</asrwt>
<pdfrwt beam="1">  1        4 0.80544595E-02 0.15237681E+03</pdfrwt>
<pdfrwt beam="2">  1       -4 0.65332563E-01 0.15237681E+03</pdfrwt>
<totfact> 0.41039859E+02</totfact>
</mgrwt>
</event>
<event>
 6    1  0.9240440E-006  0.3251120E+03  0.7546771E-02  0.1105486E+00
         -2   -1    0    0    0  501 -0.00000000000E+00  0.00000000000E+00  0.20165483668E+03  0.20165483668E+03  0.00000000000E+00 0.  1.
          2   -1    0    0  501    0  0.00000000000E+00 -0.00000000000E+00 -0.71698164804E+03  0.71698164804E+03  0.00000000000E+00 0. -1.
          5    1    1    2  502    0 -0.57340550553E+01  0.43100953458E+02 -0.56089057830E+03  0.56259301667E+03  0.47000000000E+01 0. -1.
         -5    1    1    2    0  502 -0.57876998117E+02 -0.12463262895E+03 -0.88164914053E+02  0.16333456823E+03  0.47000000000E+01 0.  1.
        -11    1    1    2    0    0  0.68245021465E+02  0.94279526351E+02  0.90588417963E+02  0.14748651977E+03  0.00000000000E+00 0.  1.
         11    1    1    2    0    0 -0.46339682931E+01 -0.12747850859E+02  0.43140263029E+02  0.45222380056E+02  0.00000000000E+00 0. -1.
<mgrwt>
<rscale>  0 0.26277745E+03</rscale>
<asrwt>0</asrwt>
<pdfrwt beam="2">  1        2 0.11030487E+00 0.32511202E+03</pdfrwt>
<pdfrwt beam="1">  1       -2 0.31023821E-01 0.32511202E+03</pdfrwt>
<totfact> 0.39271360E+02</totfact>
</mgrwt>
</event>
<event>
 6    1  0.9240440E-006  0.1388729E+03  0.7546771E-02  0.1226788E+00
         -2   -1    0    0    0  501 -0.00000000000E+00  0.00000000000E+00  0.75030690355E+02  0.75030690355E+02  0.00000000000E+00 0.  1.
          2   -1    0    0  501    0  0.00000000000E+00 -0.00000000000E+00 -0.21278824803E+03  0.21278824803E+03  0.00000000000E+00 0. -1.
          5    1    1    2  502    0  0.26533642793E+02  0.31846807194E+02 -0.45677478301E+02  0.61860935592E+02  0.47000000000E+01 0.  1.
         -5    1    1    2    0  502 -0.23964080474E+02 -0.92296789669E+02 -0.61583960011E+02  0.11361183330E+03  0.47000000000E+01 0.  1.
        -11    1    1    2    0    0  0.74678936664E+01  0.82324849801E+02 -0.15839317053E+02  0.84166705385E+02  0.00000000000E+00 0. -1.
         11    1    1    2    0    0 -0.10037455986E+02 -0.21874867327E+02 -0.14656802306E+02  0.28179464102E+02  0.00000000000E+00 0.  1.
<mgrwt>
<rscale>  0 0.13045104E+03</rscale>
<asrwt>0</asrwt>
<pdfrwt beam="2">  1        2 0.32736653E-01 0.13887288E+03</pdfrwt>
<pdfrwt beam="1">  1       -2 0.11543183E-01 0.13887288E+03</pdfrwt>
<totfact> 0.79578137E+03</totfact>
</mgrwt>
</event>
<event>
 6    1  0.9240440E-006  0.1832054E+03  0.7546771E-02  0.1170146E+00
          1   -1    0    0  501    0  0.00000000000E+00  0.00000000000E+00  0.10714110288E+04  0.10714110288E+04  0.00000000000E+00 0. -1.
         -1   -1    0    0    0  501 -0.00000000000E+00 -0.00000000000E+00 -0.29986305589E+02  0.29986305589E+02  0.00000000000E+00 0.  1.
          5    1    1    2  502    0  0.50816526296E+02  0.82866368129E+01  0.21068327732E+03  0.21693437034E+03  0.47000000000E+01 0.  1.
         -5    1    1    2    0  502  0.32001281124E+02 -0.11352277278E+03  0.19059571366E+03  0.22418813082E+03  0.47000000000E+01 0.  1.
        -11    1    1    2    0    0 -0.20205301647E+02  0.83129618140E+02  0.24306951097E+03  0.25768503020E+03  0.00000000000E+00 0.  1.
         11    1    1    2    0    0 -0.62612505773E+02  0.22106517827E+02  0.39707622128E+03  0.40258980305E+03  0.00000000000E+00 0. -1.
<mgrwt>
<rscale>  0 0.17759973E+03</rscale>
<asrwt>0</asrwt>
<pdfrwt beam="1">  1        1 0.16483244E+00 0.18320544E+03</pdfrwt>
<pdfrwt beam="2">  1       -1 0.46132786E-02 0.18320544E+03</pdfrwt>
<totfact> 0.27929680E+03</totfact>
</mgrwt>
</event>
<event>
 6    1  0.9240440E-006  0.1283611E+03  0.7546771E-02  0.1243983E+00
          1   -1    0    0  501    0  0.00000000000E+00  0.00000000000E+00  0.15079108523E+03  0.15079108523E+03  0.00000000000E+00 0. -1.
         -1   -1    0    0    0  501 -0.00000000000E+00 -0.00000000000E+00 -0.85533862655E+02  0.85533862655E+02  0.00000000000E+00 0.  1.
          5    1    1    2  502    0  0.48163360968E+02  0.49917700856E+02  0.13304623692E+02  0.70785515538E+02  0.47000000000E+01 0.  1.
         -5    1    1    2    0  502 -0.19472725091E+02 -0.55222167865E+02  0.66755131565E+01  0.59121293305E+02  0.47000000000E+01 0.  1.
        -11    1    1    2    0    0  0.18062972309E+02  0.93069671890E+01 -0.18336488841E+02  0.27370009681E+02  0.00000000000E+00 0.  1.
         11    1    1    2    0    0 -0.46753608186E+02 -0.40025001800E+01  0.63613574569E+02  0.79048129361E+02  0.00000000000E+00 0. -1.
<mgrwt>
<rscale>  0 0.11946431E+03</rscale>
<asrwt>0</asrwt>
<pdfrwt beam="1">  1        1 0.23198629E-01 0.12836110E+03</pdfrwt>
<pdfrwt beam="2">  1       -1 0.13159056E-01 0.12836110E+03</pdfrwt>
<totfact> 0.78577827E+03</totfact>
</mgrwt>
</event>
<event>
 6    1  0.9240440E-006  0.1357146E+03  0.7546771E-02  0.1231174E+00
          1   -1    0    0  501    0  0.00000000000E+00  0.00000000000E+00  0.10700816708E+04  0.10700816708E+04  0.00000000000E+00 0. -1.
         -1   -1    0    0    0  501 -0.00000000000E+00 -0.00000000000E+00 -0.13943108671E+02  0.13943108671E+02  0.00000000000E+00 0.  1.
          5    1    1    2  502    0  0.45929834087E+02  0.77384686803E+00  0.13897762601E+03  0.14644800794E+03  0.47000000000E+01 0. -1.
         -5    1    1    2    0  502 -0.62542797697E+02 -0.50942636395E+02  0.53388064420E+03  0.53996054115E+03  0.47000000000E+01 0. -1.
        -11    1    1    2    0    0  0.84601569554E+00 -0.21849355688E+02  0.32490396302E+02  0.39162940880E+02  0.00000000000E+00 0.  1.
         11    1    1    2    0    0  0.15766947914E+02  0.72018145215E+02  0.35078989557E+03  0.35845328945E+03  0.00000000000E+00 0. -1.
<mgrwt>
<rscale>  0 0.12752558E+03</rscale>
<asrwt>0</asrwt>
<pdfrwt beam="1">  1        1 0.16462788E+00 0.13571457E+03</pdfrwt>
<pdfrwt beam="2">  1       -1 0.21450945E-02 0.13571457E+03</pdfrwt>
<totfact> 0.85002385E+03</totfact>
</mgrwt>
</event>
<event>
 6    1  0.9240440E-006  0.1268441E+03  0.7546771E-02  0.1247248E+00
         -2   -1    0    0    0  501 -0.00000000000E+00  0.00000000000E+00  0.17094653902E+02  0.17094653902E+02  0.00000000000E+00 0.  1.
          2   -1    0    0  501    0  0.00000000000E+00 -0.00000000000E+00 -0.77713732046E+03  0.77713732046E+03  0.00000000000E+00 0. -1.
          5    1    1    2  502    0 -0.56606499242E+02  0.10013819838E+02 -0.12674102681E+03  0.13924780150E+03  0.47000000000E+01 0.  1.
         -5    1    1    2    0  502  0.40354556019E+02  0.41647265645E+01 -0.42158039543E+03  0.42355395755E+03  0.47000000000E+01 0.  1.
        -11    1    1    2    0    0  0.25976662766E+02  0.23768278108E+02 -0.32294746242E+02  0.47777282128E+02  0.00000000000E+00 0.  1.
         11    1    1    2    0    0 -0.97247195426E+01 -0.37946824511E+02 -0.17942649807E+03  0.18365293319E+03  0.00000000000E+00 0. -1.
<mgrwt>
<rscale>  0 0.11751812E+03</rscale>
<asrwt>0</asrwt>
<pdfrwt beam="2">  1        2 0.11955959E+00 0.12684415E+03</pdfrwt>
<pdfrwt beam="1">  1       -2 0.26299467E-02 0.12684415E+03</pdfrwt>
<totfact> 0.17928088E+04</totfact>
</mgrwt>
</event>
<event>
 6    1  0.9240440E-006  0.1853586E+03  0.7546771E-02  0.1171427E+00
         -2   -1    0    0    0  501 -0.00000000000E+00  0.00000000000E+00  0.35108538635E+03  0.35108538635E+03  0.00000000000E+00 0.  1.
          2   -1    0    0  501    0  0.00000000000E+00 -0.00000000000E+00 -0.83419290435E+02  0.83419290435E+02  0.00000000000E+00 0. -1.
          5    1    1    2  502    0  0.88725161245E+01 -0.63195793112E+02 -0.23679989097E+02  0.68229478182E+02  0.47000000000E+01 0. -1.
         -5    1    1    2    0  502 -0.27976942194E+02 -0.55788771704E+02  0.13293594620E+03  0.14693247474E+03  0.47000000000E+01 0.  1.
        -11    1    1    2    0    0  0.90785359816E+01  0.84795315840E+01 -0.11157424850E+02  0.16697616618E+02  0.00000000000E+00 0. -1.
         11    1    1    2    0    0  0.10025890088E+02  0.11050503323E+03  0.16956756367E+03  0.20264510725E+03  0.00000000000E+00 0.  1.
<mgrwt>
<rscale>  0 0.17630583E+03</rscale>
<asrwt>0</asrwt>
<pdfrwt beam="2">  1        2 0.12833737E-01 0.18535858E+03</pdfrwt>
<pdfrwt beam="1">  1       -2 0.54013135E-01 0.18535858E+03</pdfrwt>
<totfact> 0.15225960E+03</totfact>
</mgrwt>
</event>
<event>
 6    1  0.9240440E-006  0.1415978E+03  0.7546771E-02  0.1221854E+00
          2   -1    0    0  501    0  0.00000000000E+00  0.00000000000E+00  0.49105072914E+03  0.49105072914E+03  0.00000000000E+00 0. -1.
         -2   -1    0    0    0  501 -0.00000000000E+00 -0.00000000000E+00 -0.54388471639E+02  0.54388471639E+02  0.00000000000E+00 0.  1.
          5    1    1    2  502    0 -0.13173081504E+01  0.36377559705E+02  0.19473783550E+02  0.41549734014E+02  0.47000000000E+01 0.  1.
         -5    1    1    2    0  502 -0.33980181216E+02  0.20014080942E+02  0.38402152495E+03  0.38606973175E+03  0.47000000000E+01 0.  1.
        -11    1    1    2    0    0  0.13737682861E+01 -0.51667382366E+02 -0.19292482395E+02  0.55168881780E+02  0.00000000000E+00 0.  1.
         11    1    1    2    0    0  0.33923721081E+02 -0.47242582814E+01  0.52459431396E+02  0.62650853232E+02  0.00000000000E+00 0. -1.
<mgrwt>
<rscale>  0 0.13384894E+03</rscale>
<asrwt>0</asrwt>
<pdfrwt beam="1">  1        2 0.75546263E-01 0.14159782E+03</pdfrwt>
<pdfrwt beam="2">  1       -2 0.83674575E-02 0.14159782E+03</pdfrwt>
<totfact> 0.54002655E+03</totfact>
</mgrwt>
</event>
<event>
 6    1  0.9240440E-006  0.1300208E+03  0.7546771E-02  0.1241003E+00
         -1   -1    0    0    0  501 -0.00000000000E+00  0.00000000000E+00  0.13871298953E+03  0.13871298953E+03  0.00000000000E+00 0.  1.
          1   -1    0    0  501    0  0.00000000000E+00 -0.00000000000E+00 -0.94386120455E+02  0.94386120455E+02  0.00000000000E+00 0. -1.
          5    1    1    2  502    0 -0.13268873145E+02 -0.12832140958E+02  0.69719356767E+02  0.72274515177E+02  0.47000000000E+01 0.  1.
         -5    1    1    2    0  502  0.17670939763E+02 -0.22714453596E+02 -0.51335761062E+02  0.59039468816E+02  0.47000000000E+01 0.  1.
        -11    1    1    2    0    0 -0.21733771906E+02  0.12628107725E+02  0.55276436413E+02  0.60723227586E+02  0.00000000000E+00 0.  1.
         11    1    1    2    0    0  0.17331705287E+02  0.22918486829E+02 -0.29333163042E+02  0.41061898407E+02  0.00000000000E+00 0. -1.
<mgrwt>
<rscale>  0 0.12127859E+03</rscale>
<asrwt>0</asrwt>
<pdfrwt beam="2">  1        1 0.14520942E-01 0.13002079E+03</pdfrwt>
<pdfrwt beam="1">  1       -1 0.21340460E-01 0.13002079E+03</pdfrwt>
<totfact> 0.66631945E+03</totfact>
</mgrwt>
</event>
<event>
 6    1  0.9240440E-006  0.3119036E+03  0.7546771E-02  0.1079437E+00
          1   -1    0    0  501    0  0.00000000000E+00  0.00000000000E+00  0.69207850297E+03  0.69207850297E+03  0.00000000000E+00 0. -1.
         -1   -1    0    0    0  501 -0.00000000000E+00 -0.00000000000E+00 -0.35141922734E+02  0.35141922734E+02  0.00000000000E+00 0.  1.
          5    1    1    2  502    0 -0.58965810147E+02 -0.76771540968E+02  0.27110391392E+03  0.28790668351E+03  0.47000000000E+01 0.  1.
         -5    1    1    2    0  502  0.80113587713E+01  0.27694327459E+02  0.28327574857E+03  0.28477780351E+03  0.47000000000E+01 0.  1.
        -11    1    1    2    0    0  0.41760094594E+02 -0.17197049283E+02  0.60534139283E+02  0.75525002636E+02  0.00000000000E+00 0. -1.
         11    1    1    2    0    0  0.91943567814E+01  0.66274262792E+02  0.42022778464E+02  0.79010936047E+02  0.00000000000E+00 0.  1.
<mgrwt>
<rscale>  0 0.31190363E+03</rscale>
<asrwt>0</asrwt>
<pdfrwt beam="1">  1        1 0.10647361E+00 0.31190363E+03</pdfrwt>
<pdfrwt beam="2">  1       -1 0.54064502E-02 0.31190363E+03</pdfrwt>
<totfact> 0.44889115E+03</totfact>
</mgrwt>
</event>
<event>
 6    1  0.9240440E-006  0.1274222E+03  0.7546771E-02  0.1245728E+00
         -2   -1    0    0    0  501 -0.00000000000E+00  0.00000000000E+00  0.31316905892E+02  0.31316905892E+02  0.00000000000E+00 0.  1.
          2   -1    0    0  501    0  0.00000000000E+00 -0.00000000000E+00 -0.41200766833E+03  0.41200766833E+03  0.00000000000E+00 0. -1.
          5    1    1    2  502    0 -0.19384593277E+02  0.11247603918E+02  0.56711115458E+01  0.23590730310E+02  0.47000000000E+01 0. -1.
         -5    1    1    2    0  502  0.26636087563E+01  0.70023892405E+01 -0.26701868582E+03  0.26716511157E+03  0.47000000000E+01 0. -1.
        -11    1    1    2    0    0 -0.70538722599E+01  0.35047967968E+02 -0.56004611177E+02  0.66442709499E+02  0.00000000000E+00 0. -1.
         11    1    1    2    0    0  0.23774856780E+02 -0.53297961126E+02 -0.63338576991E+02  0.86126022841E+02  0.00000000000E+00 0.  1.
<mgrwt>
<rscale>  0 0.11841896E+03</rscale>
<asrwt>0</asrwt>
<pdfrwt beam="2">  1        2 0.63385786E-01 0.12742215E+03</pdfrwt>
<pdfrwt beam="1">  1       -2 0.48179862E-02 0.12742215E+03</pdfrwt>
<totfact> 0.15016646E+04</totfact>
</mgrwt>
</event>
<event>
 6    1  0.9240440E-006  0.1254453E+03  0.7546771E-02  0.1247144E+00
          1   -1    0    0  501    0  0.00000000000E+00  0.00000000000E+00  0.31178074463E+03  0.31178074463E+03  0.00000000000E+00 0. -1.
         -1   -1    0    0    0  501 -0.00000000000E+00 -0.00000000000E+00 -0.46882587411E+02  0.46882587411E+02  0.00000000000E+00 0.  1.
          5    1    1    2  502    0  0.40087924735E+02  0.33414473489E+02  0.38088249964E+02  0.64779422145E+02  0.47000000000E+01 0.  1.
         -5    1    1    2    0  502 -0.44236520055E+02 -0.23669870148E+02  0.17889277124E+03  0.18585436789E+03  0.47000000000E+01 0.  1.
        -11    1    1    2    0    0 -0.69920012530E+01 -0.37312162070E+02 -0.13095914121E+02  0.40157047781E+02  0.00000000000E+00 0.  1.
         11    1    1    2    0    0  0.11140596573E+02  0.27567558728E+02  0.61013050135E+02  0.67872494230E+02  0.00000000000E+00 0. -1.
<mgrwt>
<rscale>  0 0.11757999E+03</rscale>
<asrwt>0</asrwt>
<pdfrwt beam="1">  1        1 0.47966267E-01 0.12544534E+03</pdfrwt>
<pdfrwt beam="2">  1       -1 0.72127060E-02 0.12544534E+03</pdfrwt>
<totfact> 0.79574975E+03</totfact>
</mgrwt>
</event>
<event>
 6    1  0.9240440E-006  0.1267807E+03  0.7546771E-02  0.1245811E+00
         -2   -1    0    0    0  501 -0.00000000000E+00  0.00000000000E+00  0.72442174864E+02  0.72442174864E+02  0.00000000000E+00 0.  1.
          2   -1    0    0  501    0  0.00000000000E+00 -0.00000000000E+00 -0.18726150347E+03  0.18726150347E+03  0.00000000000E+00 0. -1.
          5    1    1    2  502    0  0.34867391288E+02 -0.30310424810E+02 -0.81113009337E+01  0.47141701605E+02  0.47000000000E+01 0.  1.
         -5    1    1    2    0  502 -0.51113567074E+02  0.43885964400E+02 -0.93474658912E+02  0.11531771967E+03  0.47000000000E+01 0.  1.
        -11    1    1    2    0    0 -0.39052308482E+02 -0.20554168294E+00 -0.10743666061E+01  0.39067624816E+02  0.00000000000E+00 0.  1.
         11    1    1    2    0    0  0.55298484268E+02 -0.13369997907E+02 -0.12159002157E+02  0.58176632249E+02  0.00000000000E+00 0. -1.
<mgrwt>
<rscale>  0 0.11836988E+03</rscale>
<asrwt>0</asrwt>
<pdfrwt beam="2">  1        2 0.28809462E-01 0.12678074E+03</pdfrwt>
<pdfrwt beam="1">  1       -2 0.11144950E-01 0.12678074E+03</pdfrwt>
<totfact> 0.95937465E+03</totfact>
</mgrwt>
</event>
<event>
 6    1  0.9240440E-006  0.1626287E+03  0.7546771E-02  0.1209143E+00
         -3   -1    0    0    0  501 -0.00000000000E+00  0.00000000000E+00  0.37537810980E+02  0.37537810980E+02  0.00000000000E+00 0.  1.
          3   -1    0    0  501    0  0.00000000000E+00 -0.00000000000E+00 -0.45142774493E+03  0.45142774493E+03  0.00000000000E+00 0. -1.
          5    1    1    2  502    0  0.36813359852E+02  0.17306018904E+02 -0.23873163124E+03  0.24221809080E+03  0.47000000000E+01 0. -1.
         -5    1    1    2    0  502 -0.36408367784E+02 -0.51327035006E+02 -0.25523658631E+02  0.68070411466E+02  0.47000000000E+01 0.  1.
        -11    1    1    2    0    0  0.42868610278E+02  0.28061888692E+02 -0.10135287356E+03  0.11356756721E+03  0.00000000000E+00 0. -1.
         11    1    1    2    0    0 -0.43273602346E+02  0.59591274101E+01 -0.48281770523E+02  0.65109486439E+02  0.00000000000E+00 0.  1.
<mgrwt>
<rscale>  0 0.14315706E+03</rscale>
<asrwt>0</asrwt>
<pdfrwt beam="2">  1        3 0.69450419E-01 0.16262871E+03</pdfrwt>
<pdfrwt beam="1">  1       -3 0.57750481E-02 0.16262871E+03</pdfrwt>
<totfact> 0.87030476E+02</totfact>
</mgrwt>
</event>
<event>
 6    1  0.9240440E-006  0.1364427E+03  0.7546771E-02  0.1229986E+00
         -2   -1    0    0    0  501 -0.00000000000E+00  0.00000000000E+00  0.38108547957E+02  0.38108547957E+02  0.00000000000E+00 0. -1.
          2   -1    0    0  501    0  0.00000000000E+00 -0.00000000000E+00 -0.53679859511E+03  0.53679859511E+03  0.00000000000E+00 0.  1.
          5    1    1    2  502    0 -0.16358244643E+02 -0.41910767657E+02 -0.17184017940E+03  0.17769423702E+03  0.47000000000E+01 0.  1.
         -5    1    1    2    0  502  0.68707755166E+02  0.57748012742E+02 -0.25014077514E+03  0.26579707671E+03  0.47000000000E+01 0.  1.
        -11    1    1    2    0    0 -0.50282207075E+02 -0.40799249920E+02 -0.83308163431E+02  0.10551364479E+03  0.00000000000E+00 0.  1.
         11    1    1    2    0    0 -0.20673034490E+01  0.24962004835E+02  0.65990708218E+01  0.25902184554E+02  0.00000000000E+00 0. -1.
<mgrwt>
<rscale>  0 0.12830938E+03</rscale>
<asrwt>0</asrwt>
<pdfrwt beam="2">  1        2 0.82584395E-01 0.13644273E+03</pdfrwt>
<pdfrwt beam="1">  1       -2 0.58628538E-02 0.13644273E+03</pdfrwt>
<totfact> 0.84223309E+03</totfact>
</mgrwt>
</event>
<event>
 6    1  0.9240440E-006  0.1737418E+03  0.7546771E-02  0.1179306E+00
          1   -1    0    0  501    0  0.00000000000E+00  0.00000000000E+00  0.82615807088E+03  0.82615807088E+03  0.00000000000E+00 0. -1.
         -1   -1    0    0    0  501 -0.00000000000E+00 -0.00000000000E+00 -0.54298332546E+02  0.54298332546E+02  0.00000000000E+00 0.  1.
          5    1    1    2  502    0 -0.53867794279E+02 -0.16860736058E+02  0.57346389455E+03  0.57625424252E+03  0.47000000000E+01 0.  1.
         -5    1    1    2    0  502 -0.65902447009E+02  0.21521963378E+01  0.10478464802E+03  0.12389381313E+03  0.47000000000E+01 0.  1.
        -11    1    1    2    0    0  0.46154690676E+02  0.44739590841E+02  0.10214460608E+02  0.65086263263E+02  0.00000000000E+00 0. -1.
         11    1    1    2    0    0  0.73615550611E+02 -0.30031051121E+02  0.83396735156E+02  0.11522208451E+03  0.00000000000E+00 0.  1.
<mgrwt>
<rscale>  0 0.16860938E+03</rscale>
<asrwt>0</asrwt>
<pdfrwt beam="1">  1        1 0.12710123E+00 0.17374180E+03</pdfrwt>
<pdfrwt beam="2">  1       -1 0.83535903E-02 0.17374180E+03</pdfrwt>
<totfact> 0.17563291E+03</totfact>
</mgrwt>
</event>
<event>
 6    1  0.9240440E-006  0.1311721E+03  0.7546771E-02  0.1238464E+00
          1   -1    0    0  501    0  0.00000000000E+00  0.00000000000E+00  0.28876636119E+03  0.28876636119E+03  0.00000000000E+00 0. -1.
         -1   -1    0    0    0  501 -0.00000000000E+00 -0.00000000000E+00 -0.51949450510E+02  0.51949450510E+02  0.00000000000E+00 0.  1.
          5    1    1    2  502    0 -0.55365216515E+02 -0.72255948668E+01  0.17977067944E+03  0.18830056720E+03  0.47000000000E+01 0.  1.
         -5    1    1    2    0  502  0.23390996701E+02  0.30865415445E+02  0.65426849238E+01  0.39556406855E+02  0.47000000000E+01 0.  1.
        -11    1    1    2    0    0  0.58080789730E+02 -0.60451552673E+00  0.52070945233E+02  0.78007223462E+02  0.00000000000E+00 0. -1.
         11    1    1    2    0    0 -0.26106569916E+02 -0.23035305052E+02 -0.15673989213E+01  0.34851614181E+02  0.00000000000E+00 0.  1.
<mgrwt>
<rscale>  0 0.12285261E+03</rscale>
<asrwt>0</asrwt>
<pdfrwt beam="1">  1        1 0.44425593E-01 0.13117214E+03</pdfrwt>
<pdfrwt beam="2">  1       -1 0.79922233E-02 0.13117214E+03</pdfrwt>
<totfact> 0.75220818E+03</totfact>
</mgrwt>
</event>
<event>
 6    1  0.9240440E-006  0.2780641E+03  0.7546771E-02  0.1098304E+00
          3   -1    0    0  501    0  0.00000000000E+00  0.00000000000E+00  0.18427245958E+03  0.18427245958E+03  0.00000000000E+00 0. -1.
         -3   -1    0    0    0  501 -0.00000000000E+00 -0.00000000000E+00 -0.51670161653E+03  0.51670161653E+03  0.00000000000E+00 0.  1.
          5    1    1    2  502    0  0.97459310235E+02 -0.13006563299E+03  0.53893405503E+02  0.17129499466E+03  0.47000000000E+01 0.  1.
         -5    1    1    2    0  502  0.74552107524E+02 -0.49130850195E+02 -0.58425824546E+02  0.10680601177E+03  0.47000000000E+01 0.  1.
        -11    1    1    2    0    0 -0.95153401316E+02  0.13063721673E+03 -0.13872820410E+03  0.21299241017E+03  0.00000000000E+00 0. -1.
         11    1    1    2    0    0 -0.76858016443E+02  0.48559266463E+02 -0.18916853381E+03  0.20988065951E+03  0.00000000000E+00 0.  1.
<mgrwt>
<rscale>  0 0.27526369E+03</rscale>
<asrwt>0</asrwt>
<pdfrwt beam="1">  1        3 0.28349610E-01 0.27806407E+03</pdfrwt>
<pdfrwt beam="2">  1       -3 0.79492555E-01 0.27806407E+03</pdfrwt>
<totfact> 0.45017030E+01</totfact>
</mgrwt>
</event>
<event>
 6    1  0.9240440E-006  0.2561645E+03  0.7546771E-02  0.1111819E+00
          3   -1    0    0  501    0  0.00000000000E+00  0.00000000000E+00  0.57512988783E+02  0.57512988783E+02  0.00000000000E+00 0. -1.
         -3   -1    0    0    0  501 -0.00000000000E+00 -0.00000000000E+00 -0.10986210568E+04  0.10986210568E+04  0.00000000000E+00 0.  1.
          5    1    1    2  502    0  0.12778332380E+03  0.18119747163E+03 -0.57674510782E+03  0.61791432331E+03  0.47000000000E+01 0. -1.
         -5    1    1    2    0  502  0.24408142903E+02 -0.17387528666E+02 -0.42424246229E+02  0.52153525875E+02  0.47000000000E+01 0. -1.
        -11    1    1    2    0    0 -0.41410666628E+02 -0.10430342142E+03 -0.15913024419E+03  0.19472154900E+03  0.00000000000E+00 0.  1.
         11    1    1    2    0    0 -0.11078080007E+03 -0.59506521539E+02 -0.26280846976E+03  0.29134464736E+03  0.00000000000E+00 0. -1.
<mgrwt>
<rscale>  0 0.25236592E+03</rscale>
<asrwt>0</asrwt>
<pdfrwt beam="1">  1        3 0.88481528E-02 0.25616447E+03</pdfrwt>
<pdfrwt beam="2">  1       -3 0.16901861E+00 0.25616447E+03</pdfrwt>
<totfact> 0.56595285E+01</totfact>
</mgrwt>
</event>
<event>
 6    1  0.9240440E-006  0.1730605E+03  0.7546771E-02  0.1182942E+00
         -2   -1    0    0    0  501 -0.00000000000E+00  0.00000000000E+00  0.15840641853E+03  0.15840641853E+03  0.00000000000E+00 0.  1.
          2   -1    0    0  501    0  0.00000000000E+00 -0.00000000000E+00 -0.63385188470E+03  0.63385188470E+03  0.00000000000E+00 0. -1.
          5    1    1    2  502    0 -0.14985277590E+02 -0.63270406509E+02 -0.13397866318E+03  0.14899689619E+03  0.47000000000E+01 0. -1.
         -5    1    1    2    0  502 -0.91035778918E+02  0.28874675668E+02 -0.45197001709E+03  0.46197429180E+03  0.47000000000E+01 0.  1.
        -11    1    1    2    0    0  0.16991385049E+02  0.23129112666E+02  0.82392107454E+02  0.87247477840E+02  0.00000000000E+00 0.  1.
         11    1    1    2    0    0  0.89029671458E+02  0.11266618175E+02  0.28111106656E+02  0.94039637400E+02  0.00000000000E+00 0. -1.
<mgrwt>
<rscale>  0 0.16520536E+03</rscale>
<asrwt>0</asrwt>
<pdfrwt beam="2">  1        2 0.97515676E-01 0.17306050E+03</pdfrwt>
<pdfrwt beam="1">  1       -2 0.24370218E-01 0.17306050E+03</pdfrwt>
<totfact> 0.70729029E+02</totfact>
</mgrwt>
</event>
<event>
 6    1  0.9240440E-006  0.1347393E+03  0.7546771E-02  0.1231488E+00
          1   -1    0    0  501    0  0.00000000000E+00  0.00000000000E+00  0.91035794002E+03  0.91035794002E+03  0.00000000000E+00 0. -1.
         -1   -1    0    0    0  501 -0.00000000000E+00 -0.00000000000E+00 -0.16104267273E+02  0.16104267273E+02  0.00000000000E+00 0.  1.
          5    1    1    2  502    0  0.36391295972E+02  0.29607463902E+02  0.43391094914E+03  0.43646503883E+03  0.47000000000E+01 0. -1.
         -5    1    1    2    0  502 -0.41761361353E+02  0.20393910525E+02  0.63241260616E+02  0.78622324647E+02  0.47000000000E+01 0. -1.
        -11    1    1    2    0    0  0.11797859755E+02  0.23164429233E+02  0.47567409352E+02  0.54207367663E+02  0.00000000000E+00 0.  1.
         11    1    1    2    0    0 -0.64277943745E+01 -0.73165803660E+02  0.34953405364E+03  0.35716747615E+03  0.00000000000E+00 0. -1.
<mgrwt>
<rscale>  0 0.12731950E+03</rscale>
<asrwt>0</asrwt>
<pdfrwt beam="1">  1        1 0.14005503E+00 0.13473928E+03</pdfrwt>
<pdfrwt beam="2">  1       -1 0.24775803E-02 0.13473928E+03</pdfrwt>
<totfact> 0.90419364E+03</totfact>
</mgrwt>
</event>
<event>
 6    1  0.9240440E-006  0.2453484E+03  0.7546771E-02  0.1116280E+00
         -2   -1    0    0    0  501 -0.00000000000E+00  0.00000000000E+00  0.22466172733E+02  0.22466172733E+02  0.00000000000E+00 0.  1.
          2   -1    0    0  501    0  0.00000000000E+00 -0.00000000000E+00 -0.66984973978E+03  0.66984973978E+03  0.00000000000E+00 0. -1.
          5    1    1    2  502    0 -0.32817984307E+02  0.10432974447E+02 -0.49460446543E+02  0.60450747076E+02  0.47000000000E+01 0. -1.
         -5    1    1    2    0  502  0.75017415961E+02 -0.31410272570E+02 -0.41120113498E+03  0.41919289275E+03  0.47000000000E+01 0. -1.
        -11    1    1    2    0    0 -0.92142237050E+00  0.46399258478E+02 -0.13011582964E+03  0.13814437857E+03  0.00000000000E+00 0.  1.
         11    1    1    2    0    0 -0.41278009284E+02 -0.25421960356E+02 -0.56606155887E+02  0.74527894127E+02  0.00000000000E+00 0. -1.
<mgrwt>
<rscale>  0 0.24534841E+03</rscale>
<asrwt>0</asrwt>
<pdfrwt beam="2">  1        2 0.10305382E+00 0.24534841E+03</pdfrwt>
<pdfrwt beam="1">  1       -2 0.34563339E-02 0.24534841E+03</pdfrwt>
<totfact> 0.14990376E+04</totfact>
</mgrwt>
</event>
<event>
 6    1  0.9240440E-006  0.1258633E+03  0.7546771E-02  0.1249263E+00
          1   -1    0    0  501    0  0.00000000000E+00  0.00000000000E+00  0.80087651659E+03  0.80087651659E+03  0.00000000000E+00 0. -1.
         -1   -1    0    0    0  501 -0.00000000000E+00 -0.00000000000E+00 -0.16659889533E+02  0.16659889533E+02  0.00000000000E+00 0.  1.
          5    1    1    2  502    0  0.10925267184E+01 -0.60867271968E+02  0.25206921521E+03  0.25935882030E+03  0.47000000000E+01 0. -1.
         -5    1    1    2    0  502  0.13541317494E+02  0.62461181143E+02  0.32952821133E+03  0.33570179995E+03  0.47000000000E+01 0. -1.
        -11    1    1    2    0    0  0.37501308720E+02  0.28602651279E+01  0.62985187678E+02  0.73359819650E+02  0.00000000000E+00 0.  1.
         11    1    1    2    0    0 -0.52135152932E+02 -0.44541743028E+01  0.13963401284E+03  0.14911596622E+03  0.00000000000E+00 0. -1.
<mgrwt>
<rscale>  0 0.11633843E+03</rscale>
<asrwt>0</asrwt>
<pdfrwt beam="1">  1        1 0.12321174E+00 0.12586332E+03</pdfrwt>
<pdfrwt beam="2">  1       -1 0.25630605E-02 0.12586332E+03</pdfrwt>
<totfact> 0.10456070E+04</totfact>
</mgrwt>
</event>
<event>
 6    1  0.9240440E-006  0.3560954E+03  0.7546771E-02  0.1060141E+00
         -3   -1    0    0    0  501 -0.00000000000E+00  0.00000000000E+00  0.94356860630E+03  0.94356860630E+03  0.00000000000E+00 0.  1.
          3   -1    0    0  501    0  0.00000000000E+00 -0.00000000000E+00 -0.33596897366E+02  0.33596897366E+02  0.00000000000E+00 0. -1.
          5    1    1    2  502    0 -0.56597526305E+01  0.45805943704E+01 -0.10675885866E+02  0.13750606665E+02  0.47000000000E+01 0. -1.
         -5    1    1    2    0  502  0.10979720057E+03 -0.53494970482E+02  0.26850660309E+03  0.29501698768E+03  0.47000000000E+01 0. -1.
        -11    1    1    2    0    0 -0.56624253728E+02  0.72133865774E+02  0.46348435769E+03  0.47246941755E+03  0.00000000000E+00 0.  1.
         11    1    1    2    0    0 -0.47513194209E+02 -0.23219489663E+02  0.18865663402E+03  0.19592849176E+03  0.00000000000E+00 0. -1.
<mgrwt>
<rscale>  0 0.35609537E+03</rscale>
<asrwt>0</asrwt>
<pdfrwt beam="2">  1        3 0.51687542E-02 0.35609537E+03</pdfrwt>
<pdfrwt beam="1">  1       -3 0.14516438E+00 0.35609537E+03</pdfrwt>
<totfact> 0.20670656E+02</totfact>
</mgrwt>
</event>
<event>
 6    1  0.9240440E-006  0.1297235E+03  0.7546771E-02  0.1241405E+00
          1   -1    0    0  501    0  0.00000000000E+00  0.00000000000E+00  0.11252204064E+04  0.11252204064E+04  0.00000000000E+00 0. -1.
         -1   -1    0    0    0  501 -0.00000000000E+00 -0.00000000000E+00 -0.12140308659E+02  0.12140308659E+02  0.00000000000E+00 0.  1.
          5    1    1    2  502    0 -0.48473931895E+02  0.19724995356E+02  0.69933605085E+03  0.70130720767E+03  0.47000000000E+01 0.  1.
         -5    1    1    2    0  502  0.14968032028E+02 -0.28740122252E+02  0.54271471286E+02  0.63383903362E+02  0.47000000000E+01 0.  1.
        -11    1    1    2    0    0  0.38450195196E+02  0.46215729294E+02  0.19996589513E+03  0.20880773539E+03  0.00000000000E+00 0. -1.
         11    1    1    2    0    0 -0.49442953290E+01 -0.37200602397E+02  0.15950668049E+03  0.16386186865E+03  0.00000000000E+00 0.  1.
<mgrwt>
<rscale>  0 0.12103140E+03</rscale>
<asrwt>0</asrwt>
<pdfrwt beam="1">  1        1 0.17311075E+00 0.12972354E+03</pdfrwt>
<pdfrwt beam="2">  1       -1 0.18677407E-02 0.12972354E+03</pdfrwt>
<totfact> 0.94672304E+03</totfact>
</mgrwt>
</event>
<event>
 6    1  0.9240440E-006  0.1621284E+03  0.7546771E-02  0.1192828E+00
          2   -1    0    0  501    0  0.00000000000E+00  0.00000000000E+00  0.47049140305E+03  0.47049140305E+03  0.00000000000E+00 0.  1.
         -2   -1    0    0    0  501 -0.00000000000E+00 -0.00000000000E+00 -0.49800267197E+02  0.49800267197E+02  0.00000000000E+00 0. -1.
          5    1    1    2  502    0 -0.48527474338E+02 -0.97437957856E+02  0.19648905478E+03  0.22467556620E+03  0.47000000000E+01 0. -1.
         -5    1    1    2    0  502 -0.11536144392E+02  0.13487803931E+02 -0.11219107657E+02  0.21516548490E+02  0.47000000000E+01 0. -1.
        -11    1    1    2    0    0 -0.24676647346E+02  0.66329280531E+01  0.47362639592E+02  0.53815911104E+02  0.00000000000E+00 0.  1.
         11    1    1    2    0    0  0.84740266077E+02  0.77317225872E+02  0.18805854913E+03  0.22028364445E+03  0.00000000000E+00 0. -1.
<mgrwt>
<rscale>  0 0.15639504E+03</rscale>
<asrwt>0</asrwt>
<pdfrwt beam="1">  1        2 0.72383290E-01 0.16212836E+03</pdfrwt>
<pdfrwt beam="2">  1       -2 0.76615799E-02 0.16212836E+03</pdfrwt>
<totfact> 0.65347422E+03</totfact>
</mgrwt>
</event>
<event>
 6    1  0.9240440E-006  0.1521590E+03  0.7546771E-02  0.1206246E+00
         -4   -1    0    0    0  501 -0.00000000000E+00  0.00000000000E+00  0.26809563981E+02  0.26809563981E+02  0.00000000000E+00 0.  1.
          4   -1    0    0  501    0  0.00000000000E+00 -0.00000000000E+00 -0.81303425529E+03  0.81303425529E+03  0.00000000000E+00 0. -1.
          5    1    1    2  502    0 -0.18337120004E+02 -0.68721658529E+02 -0.25898107341E+03  0.26861162057E+03  0.47000000000E+01 0. -1.
         -5    1    1    2    0  502  0.80325453539E+02  0.80194510808E+01 -0.30285601857E+03  0.31346506674E+03  0.47000000000E+01 0. -1.
        -11    1    1    2    0    0 -0.85745989864E+02  0.52830585168E+02 -0.19225264109E+03  0.21703576551E+03  0.00000000000E+00 0. -1.
         11    1    1    2    0    0  0.23757656329E+02  0.78716222803E+01 -0.32134958247E+02  0.40731366453E+02  0.00000000000E+00 0.  1.
<mgrwt>
<rscale>  0 0.14539735E+03</rscale>
<asrwt>0</asrwt>
<pdfrwt beam="2">  1        4 0.12508218E+00 0.15215897E+03</pdfrwt>
<pdfrwt beam="1">  1       -4 0.41245488E-02 0.15215897E+03</pdfrwt>
<totfact> 0.27804504E+02</totfact>
</mgrwt>
</event>
<event>
 6    1  0.9240440E-006  0.1846299E+03  0.7546771E-02  0.1168815E+00
          4   -1    0    0  501    0  0.00000000000E+00  0.00000000000E+00  0.36650717661E+03  0.36650717661E+03  0.00000000000E+00 0. -1.
         -4   -1    0    0    0  501 -0.00000000000E+00 -0.00000000000E+00 -0.82489169054E+02  0.82489169054E+02  0.00000000000E+00 0.  1.
          5    1    1    2  502    0  0.44568117792E+02  0.64171600577E+02  0.11476512685E+03  0.13891521078E+03  0.47000000000E+01 0. -1.
         -5    1    1    2    0  502  0.87902655215E+02 -0.34546479369E+02  0.42759110788E+02  0.10378230864E+03  0.47000000000E+01 0. -1.
        -11    1    1    2    0    0 -0.18481574281E+02 -0.40018568055E+02  0.58208081030E+02  0.73015307123E+02  0.00000000000E+00 0. -1.
         11    1    1    2    0    0 -0.11398919873E+03  0.10393446848E+02  0.68285688884E+02  0.13328351912E+03  0.00000000000E+00 0.  1.
<mgrwt>
<rscale>  0 0.17895838E+03</rscale>
<asrwt>0</asrwt>
<pdfrwt beam="1">  1        4 0.56385719E-01 0.18462990E+03</pdfrwt>
<pdfrwt beam="2">  1       -4 0.12690642E-01 0.18462990E+03</pdfrwt>
<totfact> 0.26796014E+02</totfact>
</mgrwt>
</event>
<event>
 6    1  0.9240440E-006  0.1260425E+03  0.7546771E-02  0.1241681E+00
         -2   -1    0    0    0  501 -0.00000000000E+00  0.00000000000E+00  0.13360762908E+02  0.13360762908E+02  0.00000000000E+00 0.  1.
          2   -1    0    0  501    0  0.00000000000E+00 -0.00000000000E+00 -0.13109227200E+04  0.13109227200E+04  0.00000000000E+00 0. -1.
          5    1    1    2  502    0  0.17387169265E+02  0.34603782076E+02 -0.12728015722E+03  0.13312424201E+03  0.47000000000E+01 0. -1.
         -5    1    1    2    0  502  0.34974655508E+02 -0.48086819553E+02 -0.87856181186E+03  0.88058419018E+03  0.47000000000E+01 0.  1.
        -11    1    1    2    0    0  0.13242030421E+02 -0.29239145829E+01 -0.28006635646E+01  0.13847178866E+02  0.00000000000E+00 0.  1.
         11    1    1    2    0    0 -0.65603855194E+02  0.16406952060E+02 -0.28891932444E+03  0.29672787184E+03  0.00000000000E+00 0. -1.
<mgrwt>
<rscale>  0 0.12086275E+03</rscale>
<asrwt>0</asrwt>
<pdfrwt beam="2">  1        2 0.20168044E+00 0.12604253E+03</pdfrwt>
<pdfrwt beam="1">  1       -2 0.20555017E-02 0.12604253E+03</pdfrwt>
<totfact> 0.12385710E+04</totfact>
</mgrwt>
</event>
<event>
 6    1  0.9240440E-006  0.1261626E+03  0.7546771E-02  0.1249482E+00
         -1   -1    0    0    0  501 -0.00000000000E+00  0.00000000000E+00  0.46605501930E+02  0.46605501930E+02  0.00000000000E+00 0. -1.
          1   -1    0    0  501    0  0.00000000000E+00 -0.00000000000E+00 -0.66474701114E+03  0.66474701114E+03  0.00000000000E+00 0.  1.
          5    1    1    2  502    0 -0.16998463934E+02  0.71827869955E+01 -0.80878394855E+01  0.20689208605E+02  0.47000000000E+01 0.  1.
         -5    1    1    2    0  502  0.18139753350E+02  0.98567637014E+01 -0.59876764783E+03  0.59914188014E+03  0.47000000000E+01 0.  1.
        -11    1    1    2    0    0 -0.11783350921E+02 -0.43881350860E+02  0.19383991239E+02  0.49397969883E+02  0.00000000000E+00 0. -1.
         11    1    1    2    0    0  0.10642061505E+02  0.26841800163E+02 -0.30670013130E+02  0.42123454446E+02  0.00000000000E+00 0.  1.
<mgrwt>
<rscale>  0 0.11621087E+03</rscale>
<asrwt>0</asrwt>
<pdfrwt beam="2">  1        1 0.10226876E+00 0.12616258E+03</pdfrwt>
<pdfrwt beam="1">  1       -1 0.71700776E-02 0.12616258E+03</pdfrwt>
<totfact> 0.30190001E+03</totfact>
</mgrwt>
</event>
<event>
 6    1  0.9240440E-006  0.1449640E+03  0.7546771E-02  0.1217092E+00
         -1   -1    0    0    0  501 -0.00000000000E+00  0.00000000000E+00  0.63221271536E+02  0.63221271536E+02  0.00000000000E+00 0.  1.
          1   -1    0    0  501    0  0.00000000000E+00 -0.00000000000E+00 -0.59162819045E+03  0.59162819045E+03  0.00000000000E+00 0. -1.
          5    1    1    2  502    0 -0.14797497371E+02 -0.54826030677E+02 -0.15576073241E+03  0.16585642987E+03  0.47000000000E+01 0. -1.
         -5    1    1    2    0  502  0.81311740381E+02  0.23804202832E+02 -0.36227690523E+03  0.37208182603E+03  0.47000000000E+01 0. -1.
        -11    1    1    2    0    0 -0.37686707080E+02  0.56205292094E+02  0.17098436465E+02  0.69797415994E+02  0.00000000000E+00 0.  1.
         11    1    1    2    0    0 -0.28827535929E+02 -0.25183464249E+02 -0.27467717740E+02  0.47113790096E+02  0.00000000000E+00 0. -1.
<mgrwt>
<rscale>  0 0.13723994E+03</rscale>
<asrwt>0</asrwt>
<pdfrwt beam="2">  1        1 0.91019721E-01 0.14496404E+03</pdfrwt>
<pdfrwt beam="1">  1       -1 0.97263496E-02 0.14496404E+03</pdfrwt>
<totfact> 0.22457909E+03</totfact>
</mgrwt>
</event>
<event>
 6    1  0.9240440E-006  0.3015512E+03  0.7546771E-02  0.1084468E+00
          1   -1    0    0  501    0  0.00000000000E+00  0.00000000000E+00  0.16484989616E+03  0.16484989616E+03  0.00000000000E+00 0. -1.
         -1   -1    0    0    0  501 -0.00000000000E+00 -0.00000000000E+00 -0.13790293369E+03  0.13790293369E+03  0.00000000000E+00 0.  1.
          5    1    1    2  502    0 -0.18838794968E+02  0.15540289842E+02 -0.14902389840E+02  0.28992620219E+02  0.47000000000E+01 0. -1.
         -5    1    1    2    0  502  0.43888760553E+02 -0.90203201338E+02  0.98948818615E+02  0.14098155745E+03  0.47000000000E+01 0. -1.
        -11    1    1    2    0    0 -0.42378040766E+02  0.11432644046E+01 -0.32236329697E+02  0.53257735072E+02  0.00000000000E+00 0.  1.
         11    1    1    2    0    0  0.17328075180E+02  0.73519647091E+02 -0.24863136606E+02  0.79520917121E+02  0.00000000000E+00 0. -1.
<mgrwt>
<rscale>  0 0.30155122E+03</rscale>
<asrwt>0</asrwt>
<pdfrwt beam="1">  1        1 0.25361522E-01 0.30155122E+03</pdfrwt>
<pdfrwt beam="2">  1       -1 0.21215836E-01 0.30155122E+03</pdfrwt>
<totfact> 0.34307393E+03</totfact>
</mgrwt>
</event>
<event>
 6    1  0.9240440E-006  0.3989136E+03  0.7546771E-02  0.1044156E+00
          1   -1    0    0  501    0  0.00000000000E+00  0.00000000000E+00  0.18160257641E+04  0.18160257641E+04  0.00000000000E+00 0. -1.
         -1   -1    0    0    0  501 -0.00000000000E+00 -0.00000000000E+00 -0.21906639851E+02  0.21906639851E+02  0.00000000000E+00 0.  1.
          5    1    1    2  502    0  0.10004655503E+02 -0.39686122306E+01  0.60225122695E+03  0.60236573058E+03  0.47000000000E+01 0. -1.
         -5    1    1    2    0  502 -0.90974446221E+02 -0.10476311908E+03  0.79970606256E+03  0.81166713466E+03  0.47000000000E+01 0. -1.
        -11    1    1    2    0    0  0.89436511093E+02  0.60853780706E+02  0.31113844503E+03  0.32940735286E+03  0.00000000000E+00 0. -1.
         11    1    1    2    0    0 -0.84667203751E+01  0.47877950606E+02  0.81023389732E+02  0.94492185877E+02  0.00000000000E+00 0.  1.
<mgrwt>
<rscale>  0 0.39891364E+03</rscale>
<asrwt>0</asrwt>
<pdfrwt beam="1">  1        1 0.27938846E+00 0.39891364E+03</pdfrwt>
<pdfrwt beam="2">  1       -1 0.33702537E-02 0.39891364E+03</pdfrwt>
<totfact> 0.14001565E+03</totfact>
</mgrwt>
</event>
<event>
 6    1  0.9240440E-006  0.2321072E+03  0.7546771E-02  0.1130059E+00
          1   -1    0    0  501    0  0.00000000000E+00  0.00000000000E+00  0.31441705321E+03  0.31441705321E+03  0.00000000000E+00 0. -1.
         -1   -1    0    0    0  501 -0.00000000000E+00 -0.00000000000E+00 -0.16189613477E+03  0.16189613477E+03  0.00000000000E+00 0.  1.
          5    1    1    2  502    0 -0.21441049463E+02  0.95230930175E+02 -0.74337107970E+00  0.97730707890E+02  0.47000000000E+01 0.  1.
         -5    1    1    2    0  502  0.18425011795E+02  0.10031980045E+03  0.13886833952E+03  0.17236603245E+03  0.47000000000E+01 0.  1.
        -11    1    1    2    0    0  0.15443056016E+02 -0.80933707753E+01  0.48863728365E+01  0.18107105487E+02  0.00000000000E+00 0.  1.
         11    1    1    2    0    0 -0.12427018348E+02 -0.18745735985E+03  0.95095771543E+01  0.18810934215E+03  0.00000000000E+00 0. -1.
<mgrwt>
<rscale>  0 0.22520708E+03</rscale>
<asrwt>0</asrwt>
<pdfrwt beam="1">  1        1 0.48371854E-01 0.23210718E+03</pdfrwt>
<pdfrwt beam="2">  1       -1 0.24907098E-01 0.23210718E+03</pdfrwt>
<totfact> 0.11551628E+03</totfact>
</mgrwt>
</event>
<event>
 6    1  0.9240440E-006  0.2935309E+03  0.7546771E-02  0.1090193E+00
         -2   -1    0    0    0  501 -0.00000000000E+00  0.00000000000E+00  0.16642858017E+03  0.16642858017E+03  0.00000000000E+00 0. -1.
          2   -1    0    0  501    0  0.00000000000E+00 -0.00000000000E+00 -0.52775178310E+03  0.52775178310E+03  0.00000000000E+00 0.  1.
          5    1    1    2  502    0  0.80679522901E+02  0.51478069663E+02 -0.96015179036E+02  0.13564726933E+03  0.47000000000E+01 0.  1.
         -5    1    1    2    0  502  0.13181288708E+02  0.19696901743E+03 -0.17416314750E+03  0.26329723156E+03  0.47000000000E+01 0.  1.
        -11    1    1    2    0    0  0.12367529845E+02 -0.69981279313E+02 -0.39157401004E+02  0.81139616108E+02  0.00000000000E+00 0. -1.
         11    1    1    2    0    0 -0.10622834145E+03 -0.17846580778E+03 -0.51987475387E+02  0.21409624628E+03  0.00000000000E+00 0.  1.
<mgrwt>
<rscale>  0 0.29029882E+03</rscale>
<asrwt>0</asrwt>
<pdfrwt beam="2">  1        2 0.81192581E-01 0.29353090E+03</pdfrwt>
<pdfrwt beam="1">  1       -2 0.25604397E-01 0.29353090E+03</pdfrwt>
<totfact> 0.79972365E+02</totfact>
</mgrwt>
</event>
<event>
 6    1  0.9240440E-006  0.2021993E+03  0.7546771E-02  0.1151848E+00
         -1   -1    0    0    0  501 -0.00000000000E+00  0.00000000000E+00  0.13953849902E+03  0.13953849902E+03  0.00000000000E+00 0.  1.
          1   -1    0    0  501    0  0.00000000000E+00 -0.00000000000E+00 -0.49875826952E+03  0.49875826952E+03  0.00000000000E+00 0. -1.
          5    1    1    2  502    0 -0.66589917417E+02 -0.10828026931E+03 -0.36153579549E+03  0.38326107974E+03  0.47000000000E+01 0.  1.
         -5    1    1    2    0  502 -0.52524593119E+02  0.30694808388E+01 -0.39821359901E+02  0.66151986360E+02  0.47000000000E+01 0.  1.
        -11    1    1    2    0    0  0.20824013054E+02 -0.54791858873E+01  0.34483834802E+02  0.40654592119E+02  0.00000000000E+00 0.  1.
         11    1    1    2    0    0  0.98290497481E+02  0.11068997435E+03  0.76535500890E+01  0.14822911032E+03  0.00000000000E+00 0. -1.
<mgrwt>
<rscale>  0 0.19752043E+03</rscale>
<asrwt>0</asrwt>
<pdfrwt beam="2">  1        1 0.76732041E-01 0.20219925E+03</pdfrwt>
<pdfrwt beam="1">  1       -1 0.21467462E-01 0.20219925E+03</pdfrwt>
<totfact> 0.81553213E+02</totfact>
</mgrwt>
</event>
<event>
 6    1  0.9240440E-006  0.1897505E+03  0.7546771E-02  0.1163922E+00
          2   -1    0    0  501    0  0.00000000000E+00  0.00000000000E+00  0.61650499508E+03  0.61650499508E+03  0.00000000000E+00 0. -1.
         -2   -1    0    0    0  501 -0.00000000000E+00 -0.00000000000E+00 -0.88444120429E+02  0.88444120429E+02  0.00000000000E+00 0.  1.
          5    1    1    2  502    0  0.27719660969E+02  0.34604890468E+02  0.14453808299E+03  0.15125880299E+03  0.47000000000E+01 0.  1.
         -5    1    1    2    0  502 -0.12676881217E+03  0.68209254942E+02  0.35520475535E+03  0.38329537229E+03  0.47000000000E+01 0.  1.
        -11    1    1    2    0    0  0.59359303913E+02 -0.11211783416E+03  0.16365526957E+02  0.12791311962E+03  0.00000000000E+00 0.  1.
         11    1    1    2    0    0  0.39689847289E+02  0.93036887507E+01  0.11952509358E+02  0.42481820607E+02  0.00000000000E+00 0. -1.
<mgrwt>
<rscale>  0 0.18406913E+03</rscale>
<asrwt>0</asrwt>
<pdfrwt beam="1">  1        2 0.94846919E-01 0.18975053E+03</pdfrwt>
<pdfrwt beam="2">  1       -2 0.13606788E-01 0.18975053E+03</pdfrwt>
<totfact> 0.19516932E+03</totfact>
</mgrwt>
</event>
<event>
 6    1  0.9240440E-006  0.1305171E+03  0.7546771E-02  0.1239105E+00
          1   -1    0    0  501    0  0.00000000000E+00  0.00000000000E+00  0.25197591460E+03  0.25197591460E+03  0.00000000000E+00 0. -1.
         -1   -1    0    0    0  501 -0.00000000000E+00 -0.00000000000E+00 -0.55121595386E+02  0.55121595386E+02  0.00000000000E+00 0.  1.
          5    1    1    2  502    0  0.38856304769E+01  0.42487464594E+02  0.86041693346E+02  0.96153761058E+02  0.47000000000E+01 0.  1.
         -5    1    1    2    0  502 -0.23324512409E+02 -0.74509204171E+02  0.52604409029E+02  0.94260109456E+02  0.47000000000E+01 0.  1.
        -11    1    1    2    0    0 -0.33178296532E+02  0.13531715718E+02 -0.32686405657E+00  0.35833134542E+02  0.00000000000E+00 0.  1.
         11    1    1    2    0    0  0.52617178464E+02  0.18490023859E+02  0.58535080892E+02  0.80850504926E+02  0.00000000000E+00 0. -1.
<mgrwt>
<rscale>  0 0.12245268E+03</rscale>
<asrwt>0</asrwt>
<pdfrwt beam="1">  1        1 0.38765525E-01 0.13051705E+03</pdfrwt>
<pdfrwt beam="2">  1       -1 0.84802455E-02 0.13051705E+03</pdfrwt>
<totfact> 0.81355489E+03</totfact>
</mgrwt>
</event>
<event>
 6    1  0.9240440E-006  0.1399588E+03  0.7546771E-02  0.1223102E+00
          1   -1    0    0  501    0  0.00000000000E+00  0.00000000000E+00  0.25922573261E+02  0.25922573261E+02  0.00000000000E+00 0. -1.
         -1   -1    0    0    0  501 -0.00000000000E+00 -0.00000000000E+00 -0.77416849275E+03  0.77416849275E+03  0.00000000000E+00 0.  1.
          5    1    1    2  502    0 -0.34574791315E+02  0.62580475258E+01 -0.15307115938E+03  0.15712240193E+03  0.47000000000E+01 0. -1.
         -5    1    1    2    0  502  0.43147603497E+02 -0.68588913927E+02 -0.75259999322E+02  0.11069016352E+03  0.47000000000E+01 0. -1.
        -11    1    1    2    0    0  0.84171040599E+01 -0.23933160399E+02 -0.92602875910E+02  0.96015292710E+02  0.00000000000E+00 0. -1.
         11    1    1    2    0    0 -0.16989916242E+02  0.86264026801E+02 -0.42731188488E+03  0.43626320786E+03  0.00000000000E+00 0.  1.
<mgrwt>
<rscale>  0 0.13297828E+03</rscale>
<asrwt>0</asrwt>
<pdfrwt beam="1">  1        1 0.39880878E-02 0.13995875E+03</pdfrwt>
<pdfrwt beam="2">  1       -1 0.11910286E+00 0.13995875E+03</pdfrwt>
<totfact> 0.15017577E+03</totfact>
</mgrwt>
</event>
<event>
 6    1  0.9240440E-006  0.1804870E+03  0.7546771E-02  0.1172887E+00
         -1   -1    0    0    0  501 -0.00000000000E+00  0.00000000000E+00  0.27424272521E+02  0.27424272521E+02  0.00000000000E+00 0.  1.
          1   -1    0    0  501    0  0.00000000000E+00 -0.00000000000E+00 -0.12530580351E+04  0.12530580351E+04  0.00000000000E+00 0. -1.
          5    1    1    2  502    0  0.10092024959E+03  0.91924738956E+02 -0.60655389329E+03  0.62174333119E+03  0.47000000000E+01 0. -1.
         -5    1    1    2    0  502 -0.34277052257E+02  0.19932315810E+02 -0.29590942055E+03  0.29859117317E+03  0.47000000000E+01 0. -1.
        -11    1    1    2    0    0 -0.49833106150E+02 -0.94565256085E+02 -0.31799873420E+03  0.33548341401E+03  0.00000000000E+00 0. -1.
         11    1    1    2    0    0 -0.16810091188E+02 -0.17291798681E+02 -0.51717145816E+01  0.24664389291E+02  0.00000000000E+00 0.  1.
<mgrwt>
<rscale>  0 0.17484546E+03</rscale>
<asrwt>0</asrwt>
<pdfrwt beam="2">  1        1 0.19277823E+00 0.18048703E+03</pdfrwt>
<pdfrwt beam="1">  1       -1 0.42191174E-02 0.18048703E+03</pdfrwt>
<totfact> 0.23794128E+03</totfact>
</mgrwt>
</event>
<event>
 6    1  0.9240440E-006  0.1554821E+03  0.7546771E-02  0.1201067E+00
         -1   -1    0    0    0  501 -0.00000000000E+00  0.00000000000E+00  0.53314634502E+02  0.53314634502E+02  0.00000000000E+00 0.  1.
          1   -1    0    0  501    0  0.00000000000E+00 -0.00000000000E+00 -0.54244131469E+03  0.54244131469E+03  0.00000000000E+00 0. -1.
          5    1    1    2  502    0 -0.21593356834E+02  0.96763932550E+02 -0.22581129491E+03  0.24666244669E+03  0.47000000000E+01 0. -1.
         -5    1    1    2    0  502 -0.43041551585E+02 -0.30659529465E+02 -0.18997653542E+03  0.19724542053E+03  0.47000000000E+01 0. -1.
        -11    1    1    2    0    0  0.70662129169E+01 -0.70210581642E+02 -0.20209258259E+02  0.73402120262E+02  0.00000000000E+00 0.  1.
         11    1    1    2    0    0  0.57568695503E+02  0.41061785572E+01 -0.53129591603E+02  0.78445961706E+02  0.00000000000E+00 0. -1.
<mgrwt>
<rscale>  0 0.14951791E+03</rscale>
<asrwt>0</asrwt>
<pdfrwt beam="2">  1        1 0.83452512E-01 0.15548207E+03</pdfrwt>
<pdfrwt beam="1">  1       -1 0.82022513E-02 0.15548207E+03</pdfrwt>
<totfact> 0.32785398E+03</totfact>
</mgrwt>
</event>
<event>
 6    1  0.9240440E-006  0.1275973E+03  0.7546771E-02  0.1246148E+00
         -3   -1    0    0    0  501 -0.00000000000E+00  0.00000000000E+00  0.37787436131E+03  0.37787436131E+03  0.00000000000E+00 0.  1.
          3   -1    0    0  501    0  0.00000000000E+00 -0.00000000000E+00 -0.32648348290E+02  0.32648348290E+02  0.00000000000E+00 0. -1.
          5    1    1    2  502    0  0.12591273415E+02 -0.67303740489E+02  0.67115496288E+02  0.95994340937E+02  0.47000000000E+01 0.  1.
         -5    1    1    2    0  502 -0.89221135538E+01  0.41963506989E+02  0.14752852378E+03  0.15371172811E+03  0.47000000000E+01 0.  1.
        -11    1    1    2    0    0 -0.17871826324E+02 -0.23436095488E+02  0.93183543865E+02  0.97733441539E+02  0.00000000000E+00 0. -1.
         11    1    1    2    0    0  0.14202666463E+02  0.48776328988E+02  0.37398449089E+02  0.63083199019E+02  0.00000000000E+00 0.  1.
<mgrwt>
<rscale>  0 0.11816942E+03</rscale>
<asrwt>0</asrwt>
<pdfrwt beam="2">  1        3 0.50228231E-02 0.12759728E+03</pdfrwt>
<pdfrwt beam="1">  1       -3 0.58134514E-01 0.12759728E+03</pdfrwt>
<totfact> 0.15129091E+03</totfact>
</mgrwt>
</event>
<event>
 6    1  0.9240440E-006  0.1344311E+03  0.7546771E-02  0.1232931E+00
         -4   -1    0    0    0  501 -0.00000000000E+00  0.00000000000E+00  0.27425106824E+02  0.27425106824E+02  0.00000000000E+00 0.  1.
          4   -1    0    0  501    0  0.00000000000E+00 -0.00000000000E+00 -0.52261929990E+03  0.52261929990E+03  0.00000000000E+00 0. -1.
          5    1    1    2  502    0 -0.97346547606E+01  0.23012011773E+02 -0.25179861454E+03  0.25307893723E+03  0.47000000000E+01 0.  1.
         -5    1    1    2    0  502  0.49784310464E+02  0.60292979451E+01 -0.28702897146E+02  0.57972202879E+02  0.47000000000E+01 0.  1.
        -11    1    1    2    0    0 -0.53311905827E+02  0.15405211797E+02 -0.87563898598E+02  0.10366733425E+03  0.00000000000E+00 0.  1.
         11    1    1    2    0    0  0.13262250123E+02 -0.44446521515E+02 -0.12712878280E+03  0.13532593236E+03  0.00000000000E+00 0. -1.
<mgrwt>
<rscale>  0 0.12637794E+03</rscale>
<asrwt>0</asrwt>
<pdfrwt beam="2">  1        4 0.80402969E-01 0.13443107E+03</pdfrwt>
<pdfrwt beam="1">  1       -4 0.42192472E-02 0.13443107E+03</pdfrwt>
<totfact> 0.72972305E+02</totfact>
</mgrwt>
</event>
<event>
 6    1  0.9240440E-006  0.1300486E+03  0.7546771E-02  0.1239573E+00
         -4   -1    0    0    0  501 -0.00000000000E+00  0.00000000000E+00  0.34429099575E+02  0.34429099575E+02  0.00000000000E+00 0.  1.
          4   -1    0    0  501    0  0.00000000000E+00 -0.00000000000E+00 -0.52304927639E+03  0.52304927639E+03  0.00000000000E+00 0. -1.
          5    1    1    2  502    0 -0.14173197653E+02  0.17416370859E+02 -0.40355108113E+03  0.40420264050E+03  0.47000000000E+01 0.  1.
         -5    1    1    2    0  502  0.13210795779E+02  0.18455867135E+02 -0.39060424876E+01  0.23505134008E+02  0.47000000000E+01 0.  1.
        -11    1    1    2    0    0 -0.28228933108E+02 -0.57774641256E+02 -0.45734308555E+02  0.78907596692E+02  0.00000000000E+00 0. -1.
         11    1    1    2    0    0  0.29191334982E+02  0.21902403262E+02 -0.35428744638E+02  0.50863004761E+02  0.00000000000E+00 0.  1.
<mgrwt>
<rscale>  0 0.12216180E+03</rscale>
<asrwt>0</asrwt>
<pdfrwt beam="2">  1        4 0.80469117E-01 0.13004858E+03</pdfrwt>
<pdfrwt beam="1">  1       -4 0.52967847E-02 0.13004858E+03</pdfrwt>
<totfact> 0.50262279E+02</totfact>
</mgrwt>
</event>
<event>
 6    1  0.9240440E-006  0.1560299E+03  0.7546771E-02  0.1200741E+00
          1   -1    0    0  501    0  0.00000000000E+00  0.00000000000E+00  0.51766841018E+03  0.51766841018E+03  0.00000000000E+00 0. -1.
         -1   -1    0    0    0  501 -0.00000000000E+00 -0.00000000000E+00 -0.46373001456E+02  0.46373001456E+02  0.00000000000E+00 0.  1.
          5    1    1    2  502    0  0.10972436755E+02 -0.89746808261E+02  0.25271881121E+03  0.26844696217E+03  0.47000000000E+01 0. -1.
         -5    1    1    2    0  502 -0.60365635778E+02  0.10493802485E+02  0.10215279134E+03  0.11921162968E+03  0.47000000000E+01 0. -1.
        -11    1    1    2    0    0  0.26752400760E+02 -0.86322221870E+01 -0.81413532028E+00  0.28122393615E+02  0.00000000000E+00 0.  1.
         11    1    1    2    0    0  0.22640798263E+02  0.87885227963E+02  0.11723794150E+03  0.14826042617E+03  0.00000000000E+00 0. -1.
<mgrwt>
<rscale>  0 0.14978223E+03</rscale>
<asrwt>0</asrwt>
<pdfrwt beam="1">  1        1 0.79641290E-01 0.15602990E+03</pdfrwt>
<pdfrwt beam="2">  1       -1 0.71343083E-02 0.15602990E+03</pdfrwt>
<totfact> 0.43071510E+03</totfact>
</mgrwt>
</event>
<event>
 6    1  0.9240440E-006  0.1295714E+03  0.7546771E-02  0.1243356E+00
          1   -1    0    0  501    0  0.00000000000E+00  0.00000000000E+00  0.69742036981E+02  0.69742036981E+02  0.00000000000E+00 0. -1.
         -1   -1    0    0    0  501 -0.00000000000E+00 -0.00000000000E+00 -0.18054905888E+03  0.18054905888E+03  0.00000000000E+00 0.  1.
          5    1    1    2  502    0  0.22611781671E+02 -0.92877358092E+01 -0.97229079943E+02  0.10036502724E+03  0.47000000000E+01 0.  1.
         -5    1    1    2    0  502 -0.99090000514E+01 -0.22584418820E+02  0.35241943283E+02  0.43270415087E+02  0.47000000000E+01 0.  1.
        -11    1    1    2    0    0  0.19932149455E+02 -0.86122059989E+01 -0.50139085517E+02  0.54638709452E+02  0.00000000000E+00 0.  1.
         11    1    1    2    0    0 -0.32634931075E+02  0.40484360628E+02  0.13192002806E+01  0.52016944077E+02  0.00000000000E+00 0. -1.
<mgrwt>
<rscale>  0 0.11984338E+03</rscale>
<asrwt>0</asrwt>
<pdfrwt beam="1">  1        1 0.10729544E-01 0.12957135E+03</pdfrwt>
<pdfrwt beam="2">  1       -1 0.27776778E-01 0.12957135E+03</pdfrwt>
<totfact> 0.64270889E+03</totfact>
</mgrwt>
</event>
<event>
 6    1  0.9240440E-006  0.1401039E+03  0.7546771E-02  0.1221308E+00
         -2   -1    0    0    0  501 -0.00000000000E+00  0.00000000000E+00  0.14373640450E+02  0.14373640450E+02  0.00000000000E+00 0.  1.
          2   -1    0    0  501    0  0.00000000000E+00 -0.00000000000E+00 -0.16237252842E+04  0.16237252842E+04  0.00000000000E+00 0. -1.
          5    1    1    2  502    0  0.19374340076E+02  0.56086878093E+02 -0.49527470837E+03  0.49883888150E+03  0.47000000000E+01 0.  1.
         -5    1    1    2    0  502 -0.75351483278E+02 -0.26600920681E+02 -0.79543387150E+03  0.79945143001E+03  0.47000000000E+01 0.  1.
        -11    1    1    2    0    0  0.84347767681E+02 -0.27253024441E+02 -0.25842516596E+03  0.27320475775E+03  0.00000000000E+00 0. -1.
         11    1    1    2    0    0 -0.28370624479E+02 -0.22329329706E+01 -0.60217897894E+02  0.66603855367E+02  0.00000000000E+00 0.  1.
<mgrwt>
<rscale>  0 0.13423222E+03</rscale>
<asrwt>0</asrwt>
<pdfrwt beam="2">  1        2 0.24980398E+00 0.14010387E+03</pdfrwt>
<pdfrwt beam="1">  1       -2 0.22113285E-02 0.14010387E+03</pdfrwt>
<totfact> 0.76736968E+03</totfact>
</mgrwt>
</event>
<event>
 6    1  0.9240440E-006  0.1425639E+03  0.7546771E-02  0.1223361E+00
          1   -1    0    0  501    0  0.00000000000E+00  0.00000000000E+00  0.38615388038E+03  0.38615388038E+03  0.00000000000E+00 0. -1.
         -1   -1    0    0    0  501 -0.00000000000E+00 -0.00000000000E+00 -0.90631384770E+02  0.90631384770E+02  0.00000000000E+00 0.  1.
          5    1    1    2  502    0 -0.93079942385E+01 -0.64542587818E+02  0.16967492859E+03  0.18183524353E+03  0.47000000000E+01 0.  1.
         -5    1    1    2    0  502 -0.57912923743E+02  0.49960541807E+02  0.16401186576E+03  0.18103023113E+03  0.47000000000E+01 0.  1.
        -11    1    1    2    0    0  0.41614997200E+02  0.20645523300E+02 -0.62637645746E+02  0.77984102796E+02  0.00000000000E+00 0.  1.
         11    1    1    2    0    0  0.25605920781E+02 -0.60634772897E+01  0.24473347006E+02  0.35935687688E+02  0.00000000000E+00 0. -1.
<mgrwt>
<rscale>  0 0.13279891E+03</rscale>
<asrwt>0</asrwt>
<pdfrwt beam="1">  1        1 0.59408288E-01 0.14256394E+03</pdfrwt>
<pdfrwt beam="2">  1       -1 0.13943290E-01 0.14256394E+03</pdfrwt>
<totfact> 0.22425640E+03</totfact>
</mgrwt>
</event>
<event>
 6    1  0.9240440E-006  0.1127783E+03  0.7546771E-02  0.1267594E+00
          2   -1    0    0  501    0  0.00000000000E+00  0.00000000000E+00  0.44519204633E+02  0.44519204633E+02  0.00000000000E+00 0. -1.
         -2   -1    0    0    0  501 -0.00000000000E+00 -0.00000000000E+00 -0.24030779602E+03  0.24030779602E+03  0.00000000000E+00 0.  1.
          5    1    1    2  502    0 -0.30147286443E+02 -0.86209353630E+01  0.16230689845E+02  0.35618881218E+02  0.47000000000E+01 0. -1.
         -5    1    1    2    0  502  0.36954977486E+02  0.77989855514E+01 -0.93891203239E+02  0.10131210482E+03  0.47000000000E+01 0.  1.
        -11    1    1    2    0    0  0.11027924127E+02  0.30119477193E+02 -0.87223263854E+01  0.33239690048E+02  0.00000000000E+00 0. -1.
         11    1    1    2    0    0 -0.17835615170E+02 -0.29297527381E+02 -0.10940575161E+03  0.11465632457E+03  0.00000000000E+00 0.  1.
<mgrwt>
<rscale>  0 0.10629254E+03</rscale>
<asrwt>0</asrwt>
<pdfrwt beam="1">  1        2 0.68491082E-02 0.11277828E+03</pdfrwt>
<pdfrwt beam="2">  1       -2 0.36970431E-01 0.11277828E+03</pdfrwt>
<totfact> 0.66928567E+03</totfact>
</mgrwt>
</event>
<event>
 6    1  0.9240440E-006  0.1453450E+03  0.7546771E-02  0.1216132E+00
          2   -1    0    0  501    0  0.00000000000E+00  0.00000000000E+00  0.49774996924E+03  0.49774996924E+03  0.00000000000E+00 0. -1.
         -2   -1    0    0    0  501 -0.00000000000E+00 -0.00000000000E+00 -0.34810493583E+02  0.34810493583E+02  0.00000000000E+00 0.  1.
          5    1    1    2  502    0  0.95796023894E+02 -0.11564952946E+02  0.18070785120E+03  0.20490984314E+03  0.47000000000E+01 0. -1.
         -5    1    1    2    0  502 -0.27207654671E+02  0.39813737852E+02  0.77668312777E+02  0.91541504270E+02  0.47000000000E+01 0. -1.
        -11    1    1    2    0    0 -0.38118252317E+02  0.16181151009E+01  0.13704432098E+02  0.40539251539E+02  0.00000000000E+00 0.  1.
         11    1    1    2    0    0 -0.30470116906E+02 -0.29866900006E+02  0.19085887958E+03  0.19556986387E+03  0.00000000000E+00 0. -1.
<mgrwt>
<rscale>  0 0.13793745E+03</rscale>
<asrwt>0</asrwt>
<pdfrwt beam="1">  1        2 0.76576913E-01 0.14534497E+03</pdfrwt>
<pdfrwt beam="2">  1       -2 0.53554609E-02 0.14534497E+03</pdfrwt>
<totfact> 0.10542179E+04</totfact>
</mgrwt>
</event>
<event>
 6    1  0.9240440E-006  0.2632483E+03  0.7546771E-02  0.1105207E+00
          2   -1    0    0  501    0  0.00000000000E+00  0.00000000000E+00  0.38451769606E+03  0.38451769606E+03  0.00000000000E+00 0. -1.
         -2   -1    0    0    0  501 -0.00000000000E+00 -0.00000000000E+00 -0.45056216257E+02  0.45056216257E+02  0.00000000000E+00 0.  1.
          5    1    1    2  502    0  0.60347730290E+02 -0.32126429748E+02  0.28462814665E+03  0.29276138391E+03  0.47000000000E+01 0. -1.
         -5    1    1    2    0  502 -0.31627754526E+00  0.62924277433E+01 -0.10607305519E+02  0.13202257715E+02  0.47000000000E+01 0.  1.
        -11    1    1    2    0    0  0.19973598436E+02  0.12605025705E+02  0.17640860187E+02  0.29479336079E+02  0.00000000000E+00 0.  1.
         11    1    1    2    0    0 -0.80005051181E+02  0.13228976300E+02  0.47799778475E+02  0.94130934611E+02  0.00000000000E+00 0. -1.
<mgrwt>
<rscale>  0 0.26324827E+03</rscale>
<asrwt>0</asrwt>
<pdfrwt beam="1">  1        2 0.59156567E-01 0.26324827E+03</pdfrwt>
<pdfrwt beam="2">  1       -2 0.69317258E-02 0.26324827E+03</pdfrwt>
<totfact> 0.97715328E+03</totfact>
</mgrwt>
</event>
<event>
 6    1  0.9240440E-006  0.3830855E+03  0.7546771E-02  0.1049799E+00
         -2   -1    0    0    0  501 -0.00000000000E+00  0.00000000000E+00  0.68740086649E+03  0.68740086649E+03  0.00000000000E+00 0.  1.
          2   -1    0    0  501    0  0.00000000000E+00 -0.00000000000E+00 -0.53372962008E+02  0.53372962008E+02  0.00000000000E+00 0. -1.
          5    1    1    2  502    0  0.22151846224E+02 -0.18670656901E+02  0.39582319114E+02  0.49276238763E+02  0.47000000000E+01 0.  1.
         -5    1    1    2    0  502 -0.15256977292E+03 -0.16199619536E+02  0.13737862863E+03  0.20599742932E+03  0.47000000000E+01 0.  1.
        -11    1    1    2    0    0  0.93691520036E+02  0.64677836914E+02  0.35904619524E+03  0.37666363487E+03  0.00000000000E+00 0.  1.
         11    1    1    2    0    0  0.36726406664E+02 -0.29807560478E+02  0.98020761502E+02  0.10883652555E+03  0.00000000000E+00 0. -1.
<mgrwt>
<rscale>  0 0.38308548E+03</rscale>
<asrwt>0</asrwt>
<pdfrwt beam="2">  1        2 0.82112254E-02 0.38308548E+03</pdfrwt>
<pdfrwt beam="1">  1       -2 0.10575397E+00 0.38308548E+03</pdfrwt>
<totfact> 0.62195018E+02</totfact>
</mgrwt>
</event>
<event>
 6    1  0.9240440E-006  0.1320013E+03  0.7546771E-02  0.1236565E+00
         -2   -1    0    0    0  501 -0.00000000000E+00  0.00000000000E+00  0.12468887718E+03  0.12468887718E+03  0.00000000000E+00 0. -1.
          2   -1    0    0  501    0  0.00000000000E+00 -0.00000000000E+00 -0.11257800812E+03  0.11257800812E+03  0.00000000000E+00 0.  1.
          5    1    1    2  502    0  0.54529529477E+02 -0.40474586759E+02 -0.39352250735E+02  0.78627930128E+02  0.47000000000E+01 0.  1.
         -5    1    1    2    0  502 -0.43630149703E+02 -0.51769646576E+00  0.30854585057E+02  0.53646559925E+02  0.47000000000E+01 0.  1.
        -11    1    1    2    0    0 -0.40808384641E+02  0.24200499366E+02  0.42999330181E+02  0.64030702187E+02  0.00000000000E+00 0. -1.
         11    1    1    2    0    0  0.29909004867E+02  0.16791783859E+02 -0.22390795450E+02  0.40961693058E+02  0.00000000000E+00 0.  1.
<mgrwt>
<rscale>  0 0.12404809E+03</rscale>
<asrwt>0</asrwt>
<pdfrwt beam="2">  1        2 0.17319694E-01 0.13200125E+03</pdfrwt>
<pdfrwt beam="1">  1       -2 0.19182904E-01 0.13200125E+03</pdfrwt>
<totfact> 0.70102555E+03</totfact>
</mgrwt>
</event>
<event>
 6    1  0.9240440E-006  0.2868309E+03  0.7546771E-02  0.1092015E+00
          1   -1    0    0  501    0  0.00000000000E+00  0.00000000000E+00  0.96784797796E+02  0.96784797796E+02  0.00000000000E+00 0. -1.
         -1   -1    0    0    0  501 -0.00000000000E+00 -0.00000000000E+00 -0.21251265431E+03  0.21251265431E+03  0.00000000000E+00 0.  1.
          5    1    1    2  502    0 -0.32878876432E+02 -0.14991326990E+02 -0.33095028077E+01  0.36589659867E+02  0.47000000000E+01 0.  1.
         -5    1    1    2    0  502  0.11493853712E+03 -0.18071681888E+02 -0.26593042773E+02  0.11944342981E+03  0.47000000000E+01 0.  1.
        -11    1    1    2    0    0 -0.64775507273E+02 -0.20184598111E+02 -0.29933708891E+02  0.74157341318E+02  0.00000000000E+00 0. -1.
         11    1    1    2    0    0 -0.17284153417E+02  0.53247606989E+02 -0.55891602044E+02  0.79107021107E+02  0.00000000000E+00 0.  1.
<mgrwt>
<rscale>  0 0.28683092E+03</rscale>
<asrwt>0</asrwt>
<pdfrwt beam="1">  1        1 0.14889969E-01 0.28683092E+03</pdfrwt>
<pdfrwt beam="2">  1       -1 0.32694255E-01 0.28683092E+03</pdfrwt>
<totfact> 0.33039764E+03</totfact>
</mgrwt>
</event>
<event>
 6    1  0.9240440E-006  0.1545621E+03  0.7546771E-02  0.1203051E+00
         -1   -1    0    0    0  501 -0.00000000000E+00  0.00000000000E+00  0.19553059751E+02  0.19553059751E+02  0.00000000000E+00 0.  1.
          1   -1    0    0  501    0  0.00000000000E+00 -0.00000000000E+00 -0.10937832545E+04  0.10937832545E+04  0.00000000000E+00 0. -1.
          5    1    1    2  502    0 -0.28209667884E+02  0.26120282601E+02 -0.51410123104E+03  0.51555816382E+03  0.47000000000E+01 0.  1.
         -5    1    1    2    0  502 -0.58831574510E+02 -0.52357372657E+02 -0.19832734005E+03  0.21344383909E+03  0.47000000000E+01 0.  1.
        -11    1    1    2    0    0  0.67240258113E+01  0.81424714601E+01  0.24946865538E+01  0.10850614065E+02  0.00000000000E+00 0.  1.
         11    1    1    2    0    0  0.80317216582E+02  0.18094618596E+02 -0.36429631017E+03  0.37348369724E+03  0.00000000000E+00 0. -1.
<mgrwt>
<rscale>  0 0.14792146E+03</rscale>
<asrwt>0</asrwt>
<pdfrwt beam="2">  1        1 0.16827434E+00 0.15456213E+03</pdfrwt>
<pdfrwt beam="1">  1       -1 0.30081632E-02 0.15456213E+03</pdfrwt>
<totfact> 0.50317321E+03</totfact>
</mgrwt>
</event>
<event>
 6    1  0.9240440E-006  0.1505633E+03  0.7546771E-02  0.1209111E+00
         -1   -1    0    0    0  501 -0.00000000000E+00  0.00000000000E+00  0.38192561576E+02  0.38192561576E+02  0.00000000000E+00 0.  1.
          1   -1    0    0  501    0  0.00000000000E+00 -0.00000000000E+00 -0.49406217008E+03  0.49406217008E+03  0.00000000000E+00 0. -1.
          5    1    1    2  502    0 -0.45997487733E+02 -0.42904417927E+02 -0.27798115080E+02  0.68930277509E+02  0.47000000000E+01 0. -1.
         -5    1    1    2    0  502  0.18314151361E+02 -0.36310077491E+02 -0.19987648542E+03  0.20402580545E+03  0.47000000000E+01 0. -1.
        -11    1    1    2    0    0  0.44594379340E+02  0.29182523842E+02 -0.48695085166E+02  0.72190648189E+02  0.00000000000E+00 0.  1.
         11    1    1    2    0    0 -0.16911042969E+02  0.50031971575E+02 -0.17949992284E+03  0.18710800051E+03  0.00000000000E+00 0. -1.
<mgrwt>
<rscale>  0 0.14318147E+03</rscale>
<asrwt>0</asrwt>
<pdfrwt beam="2">  1        1 0.76009566E-01 0.15056327E+03</pdfrwt>
<pdfrwt beam="1">  1       -1 0.58757786E-02 0.15056327E+03</pdfrwt>
<totfact> 0.61144653E+03</totfact>
</mgrwt>
</event>
<event>
 6    1  0.9240440E-006  0.1670574E+03  0.7546771E-02  0.1187234E+00
         -1   -1    0    0    0  501 -0.00000000000E+00  0.00000000000E+00  0.77833772973E+02  0.77833772973E+02  0.00000000000E+00 0.  1.
          1   -1    0    0  501    0  0.00000000000E+00 -0.00000000000E+00 -0.36708800289E+03  0.36708800289E+03  0.00000000000E+00 0. -1.
          5    1    1    2  502    0 -0.33658391697E+02 -0.25892502004E+02 -0.19150326966E+03  0.19621136889E+03  0.47000000000E+01 0. -1.
         -5    1    1    2    0  502 -0.77129160386E+02  0.28819184459E+02 -0.46829364049E+02  0.94839507126E+02  0.47000000000E+01 0. -1.
        -11    1    1    2    0    0  0.89981784340E+02 -0.38490715439E+02 -0.14614320766E+02  0.98953701596E+02  0.00000000000E+00 0.  1.
         11    1    1    2    0    0  0.20805767743E+02  0.35564032984E+02 -0.36307275443E+02  0.54917198249E+02  0.00000000000E+00 0. -1.
<mgrwt>
<rscale>  0 0.16130262E+03</rscale>
<asrwt>0</asrwt>
<pdfrwt beam="2">  1        1 0.56475078E-01 0.16705738E+03</pdfrwt>
<pdfrwt beam="1">  1       -1 0.11974427E-01 0.16705738E+03</pdfrwt>
<totfact> 0.30462691E+03</totfact>
</mgrwt>
</event>
<event>
 6    1  0.9240440E-006  0.3209450E+03  0.7546771E-02  0.1075215E+00
         -1   -1    0    0    0  501 -0.00000000000E+00  0.00000000000E+00  0.51663267578E+02  0.51663267578E+02  0.00000000000E+00 0.  1.
          1   -1    0    0  501    0  0.00000000000E+00 -0.00000000000E+00 -0.49844753936E+03  0.49844753936E+03  0.00000000000E+00 0. -1.
          5    1    1    2  502    0  0.48717562339E+01 -0.18197411492E+01 -0.20360857772E+03  0.20372920357E+03  0.47000000000E+01 0. -1.
         -5    1    1    2    0  502  0.70794576425E+02 -0.76492176985E+02 -0.11395145719E+03  0.15449902843E+03  0.47000000000E+01 0. -1.
        -11    1    1    2    0    0  0.48486972885E+01  0.20448440149E+02  0.80850391299E+01  0.22517025285E+02  0.00000000000E+00 0.  1.
         11    1    1    2    0    0 -0.80515029947E+02  0.57863477985E+02 -0.13730927600E+03  0.16936554965E+03  0.00000000000E+00 0. -1.
<mgrwt>
<rscale>  0 0.32094503E+03</rscale>
<asrwt>0</asrwt>
<pdfrwt beam="2">  1        1 0.76684239E-01 0.32094503E+03</pdfrwt>
<pdfrwt beam="1">  1       -1 0.79481948E-02 0.32094503E+03</pdfrwt>
<totfact> 0.39472085E+03</totfact>
</mgrwt>
</event>
<event>
 6    1  0.9240440E-006  0.1288361E+03  0.7546771E-02  0.1242332E+00
         -2   -1    0    0    0  501 -0.00000000000E+00  0.00000000000E+00  0.38806595696E+02  0.38806595696E+02  0.00000000000E+00 0.  1.
          2   -1    0    0  501    0  0.00000000000E+00 -0.00000000000E+00 -0.41928811062E+03  0.41928811062E+03  0.00000000000E+00 0. -1.
          5    1    1    2  502    0  0.27746229555E+02  0.40844651596E+02 -0.14137462000E+03  0.14982326922E+03  0.47000000000E+01 0. -1.
         -5    1    1    2    0  502 -0.55486301396E+02 -0.55121885394E+02 -0.17228327914E+03  0.18926375818E+03  0.47000000000E+01 0. -1.
        -11    1    1    2    0    0 -0.43855676411E+01 -0.20094724862E+02  0.14423913941E+02  0.25121314937E+02  0.00000000000E+00 0.  1.
         11    1    1    2    0    0  0.32125639482E+02  0.34371958659E+02 -0.81247529729E+02  0.93886363979E+02  0.00000000000E+00 0. -1.
<mgrwt>
<rscale>  0 0.12046481E+03</rscale>
<asrwt>0</asrwt>
<pdfrwt beam="2">  1        2 0.64505862E-01 0.12883608E+03</pdfrwt>
<pdfrwt beam="1">  1       -2 0.59702456E-02 0.12883608E+03</pdfrwt>
<totfact> 0.10682740E+04</totfact>
</mgrwt>
</event>
<event>
 6    1  0.9240440E-006  0.1345524E+03  0.7546771E-02  0.1230264E+00
          2   -1    0    0  501    0  0.00000000000E+00  0.00000000000E+00  0.10398867543E+04  0.10398867543E+04  0.00000000000E+00 0. -1.
         -2   -1    0    0    0  501 -0.00000000000E+00 -0.00000000000E+00 -0.15563086544E+02  0.15563086544E+02  0.00000000000E+00 0.  1.
          5    1    1    2  502    0 -0.32054233821E+02  0.22721545412E+02  0.98180054691E+02  0.10585440790E+03  0.47000000000E+01 0.  1.
         -5    1    1    2    0  502  0.30798546817E+02 -0.72489772824E+02  0.60075898474E+03  0.60591811773E+03  0.47000000000E+01 0.  1.
        -11    1    1    2    0    0 -0.38539289435E+02  0.11863672230E+02  0.57604917851E+02  0.70316072911E+02  0.00000000000E+00 0.  1.
         11    1    1    2    0    0  0.39794976440E+02  0.37904555182E+02  0.26777971044E+03  0.27336124228E+03  0.00000000000E+00 0. -1.
<mgrwt>
<rscale>  0 0.12812579E+03</rscale>
<asrwt>0</asrwt>
<pdfrwt beam="1">  1        2 0.15998252E+00 0.13455240E+03</pdfrwt>
<pdfrwt beam="2">  1       -2 0.23943218E-02 0.13455240E+03</pdfrwt>
<totfact> 0.14108104E+04</totfact>
</mgrwt>
</event>
<event>
 6    1  0.9240440E-006  0.2694386E+03  0.7546771E-02  0.1143711E+00
         -1   -1    0    0    0  501 -0.00000000000E+00  0.00000000000E+00  0.34460264907E+02  0.34460264907E+02  0.00000000000E+00 0.  1.
          1   -1    0    0  501    0  0.00000000000E+00 -0.00000000000E+00 -0.11083355369E+04  0.11083355369E+04  0.00000000000E+00 0. -1.
          5    1    1    2  502    0 -0.72490812171E+02 -0.83658520474E+01 -0.84441229361E+03  0.84757248477E+03  0.47000000000E+01 0. -1.
         -5    1    1    2    0  502  0.90665094517E+02 -0.48780304269E+01 -0.10289707442E+03  0.13730933133E+03  0.47000000000E+01 0.  1.
        -11    1    1    2    0    0 -0.52000369778E+02 -0.10202145671E+02 -0.65101351752E+02  0.83942291089E+02  0.00000000000E+00 0.  1.
         11    1    1    2    0    0  0.33826087433E+02  0.23446028146E+02 -0.61464552169E+02  0.73971694588E+02  0.00000000000E+00 0. -1.
<mgrwt>
<rscale>  0 0.20731354E+03</rscale>
<asrwt>0</asrwt>
<pdfrwt beam="2">  1        1 0.17051312E+00 0.26943859E+03</pdfrwt>
<pdfrwt beam="1">  1       -1 0.53015806E-02 0.26943859E+03</pdfrwt>
<totfact> 0.21431170E+03</totfact>
</mgrwt>
</event>
<event>
 6    1  0.9240440E-006  0.1416258E+03  0.7546771E-02  0.1221522E+00
         -1   -1    0    0    0  501 -0.00000000000E+00  0.00000000000E+00  0.11262480822E+02  0.11262480822E+02  0.00000000000E+00 0.  1.
          1   -1    0    0  501    0  0.00000000000E+00 -0.00000000000E+00 -0.16146302716E+04  0.16146302716E+04  0.00000000000E+00 0. -1.
          5    1    1    2  502    0 -0.17285908545E+02 -0.27297753951E+02 -0.13156963531E+03  0.13556042543E+03  0.47000000000E+01 0.  1.
         -5    1    1    2    0  502  0.66419754812E+02  0.72221377860E+02 -0.10083144482E+04  0.10130881639E+04  0.47000000000E+01 0.  1.
        -11    1    1    2    0    0  0.26365603833E+02 -0.22910427144E+02 -0.12969887120E+03  0.13431987912E+03  0.00000000000E+00 0. -1.
         11    1    1    2    0    0 -0.75499450100E+02 -0.22013196765E+02 -0.33378483603E+03  0.34292428400E+03  0.00000000000E+00 0.  1.
<mgrwt>
<rscale>  0 0.13408148E+03</rscale>
<asrwt>0</asrwt>
<pdfrwt beam="2">  1        1 0.24840463E+00 0.14162577E+03</pdfrwt>
<pdfrwt beam="1">  1       -1 0.17326896E-02 0.14162577E+03</pdfrwt>
<totfact> 0.50133125E+03</totfact>
</mgrwt>
</event>
<event>
 6    1  0.9240440E-006  0.1452717E+03  0.7546771E-02  0.1216234E+00
          1   -1    0    0  501    0  0.00000000000E+00  0.00000000000E+00  0.28481646566E+03  0.28481646566E+03  0.00000000000E+00 0. -1.
         -1   -1    0    0    0  501 -0.00000000000E+00 -0.00000000000E+00 -0.62572015762E+02  0.62572015762E+02  0.00000000000E+00 0.  1.
          5    1    1    2  502    0 -0.66755045257E+02 -0.27848614005E+02  0.63506157032E+02  0.96368580721E+02  0.47000000000E+01 0.  1.
         -5    1    1    2    0  502  0.55392543346E+02 -0.45294454814E+02  0.88275917901E+02  0.11373059912E+03  0.47000000000E+01 0.  1.
        -11    1    1    2    0    0  0.18569740155E+02 -0.83630035124E+01 -0.98619445528E+01  0.22628146798E+02  0.00000000000E+00 0.  1.
         11    1    1    2    0    0 -0.72072382435E+01  0.81506072331E+02  0.80324319522E+02  0.11466115478E+03  0.00000000000E+00 0. -1.
<mgrwt>
<rscale>  0 0.13786301E+03</rscale>
<asrwt>0</asrwt>
<pdfrwt beam="1">  1        1 0.43817917E-01 0.14527170E+03</pdfrwt>
<pdfrwt beam="2">  1       -1 0.96264641E-02 0.14527170E+03</pdfrwt>
<totfact> 0.58085198E+03</totfact>
</mgrwt>
</event>
<event>
 6    1  0.9240440E-006  0.1371242E+03  0.7546771E-02  0.1225405E+00
         -2   -1    0    0    0  501 -0.00000000000E+00  0.00000000000E+00  0.29531036946E+03  0.29531036946E+03  0.00000000000E+00 0.  1.
          2   -1    0    0  501    0  0.00000000000E+00 -0.00000000000E+00 -0.54375440338E+02  0.54375440338E+02  0.00000000000E+00 0. -1.
          5    1    1    2  502    0 -0.83449192615E+02  0.29474398259E+02  0.80323259446E+02  0.11960946413E+03  0.47000000000E+01 0.  1.
         -5    1    1    2    0  502  0.46321697978E+02  0.12954330019E+02  0.37228129270E+02  0.61004409502E+02  0.47000000000E+01 0.  1.
        -11    1    1    2    0    0  0.40468819324E+02  0.10680632157E+02  0.88501900208E+01  0.42779984854E+02  0.00000000000E+00 0. -1.
         11    1    1    2    0    0 -0.33413246866E+01 -0.53109360435E+02  0.11453335039E+03  0.12629195132E+03  0.00000000000E+00 0.  1.
<mgrwt>
<rscale>  0 0.13139195E+03</rscale>
<asrwt>0</asrwt>
<pdfrwt beam="2">  1        2 0.83654525E-02 0.13712419E+03</pdfrwt>
<pdfrwt beam="1">  1       -2 0.45432364E-01 0.13712419E+03</pdfrwt>
<totfact> 0.35710136E+03</totfact>
</mgrwt>
</event>
<event>
 6    1  0.9240440E-006  0.1410515E+03  0.7546771E-02  0.1224561E+00
          1   -1    0    0  501    0  0.00000000000E+00  0.00000000000E+00  0.11947610399E+04  0.11947610399E+04  0.00000000000E+00 0. -1.
         -1   -1    0    0    0  501 -0.00000000000E+00 -0.00000000000E+00 -0.18535318566E+02  0.18535318566E+02  0.00000000000E+00 0.  1.
          5    1    1    2  502    0 -0.61110372847E+02 -0.59855293554E+02  0.52447285925E+03  0.53142356358E+03  0.47000000000E+01 0.  1.
         -5    1    1    2    0  502  0.53412256226E+02 -0.50399748332E+01  0.44800006488E+03  0.45122546315E+03  0.47000000000E+01 0.  1.
        -11    1    1    2    0    0  0.40531397856E+02  0.64792307288E+01  0.74730031929E+02  0.85260496803E+02  0.00000000000E+00 0. -1.
         11    1    1    2    0    0 -0.32833281234E+02  0.58416037658E+02  0.12902276523E+03  0.14538683489E+03  0.00000000000E+00 0.  1.
<mgrwt>
<rscale>  0 0.13197069E+03</rscale>
<asrwt>0</asrwt>
<pdfrwt beam="1">  1        1 0.18380933E+00 0.14105149E+03</pdfrwt>
<pdfrwt beam="2">  1       -1 0.28515884E-02 0.14105149E+03</pdfrwt>
<totfact> 0.46112586E+03</totfact>
</mgrwt>
</event>
<event>
 6    1  0.9240440E-006  0.1518876E+03  0.7546771E-02  0.1206686E+00
         -1   -1    0    0    0  501 -0.00000000000E+00  0.00000000000E+00  0.36650026885E+02  0.36650026885E+02  0.00000000000E+00 0.  1.
          1   -1    0    0  501    0  0.00000000000E+00 -0.00000000000E+00 -0.59872274261E+03  0.59872274261E+03  0.00000000000E+00 0. -1.
          5    1    1    2  502    0 -0.17287998053E+02 -0.37270217216E+02 -0.16835076066E+03  0.17335516312E+03  0.47000000000E+01 0. -1.
         -5    1    1    2    0  502  0.10281534181E+03  0.25910662634E+02 -0.24418063787E+03  0.26624918941E+03  0.47000000000E+01 0. -1.
        -11    1    1    2    0    0 -0.80992558469E+02 -0.28002509041E+02 -0.90234493880E+02  0.12444355719E+03  0.00000000000E+00 0.  1.
         11    1    1    2    0    0 -0.45347852838E+01  0.39362063623E+02 -0.59306823317E+02  0.71324859777E+02  0.00000000000E+00 0. -1.
<mgrwt>
<rscale>  0 0.14505405E+03</rscale>
<asrwt>0</asrwt>
<pdfrwt beam="2">  1        1 0.92111193E-01 0.15188756E+03</pdfrwt>
<pdfrwt beam="1">  1       -1 0.56384656E-02 0.15188756E+03</pdfrwt>
<totfact> 0.50343632E+03</totfact>
</mgrwt>
</event>
<event>
 6    1  0.9240440E-006  0.3776067E+03  0.7546771E-02  0.1069781E+00
          2   -1    0    0  501    0  0.00000000000E+00  0.00000000000E+00  0.77938177276E+03  0.77938177276E+03  0.00000000000E+00 0. -1.
         -2   -1    0    0    0  501 -0.00000000000E+00 -0.00000000000E+00 -0.12676696008E+03  0.12676696008E+03  0.00000000000E+00 0.  1.
          5    1    1    2  502    0  0.11060772793E+03 -0.68740151786E+02  0.51064637395E+03  0.52701146778E+03  0.47000000000E+01 0. -1.
         -5    1    1    2    0  502 -0.31169987151E+02 -0.10888057259E+03  0.67880904533E+01  0.11355490020E+03  0.47000000000E+01 0.  1.
        -11    1    1    2    0    0  0.31396108286E+02  0.25825481688E+02  0.23987619223E+02  0.47202510483E+02  0.00000000000E+00 0.  1.
         11    1    1    2    0    0 -0.11083384907E+03  0.15179524269E+03  0.11119272905E+03  0.21837985437E+03  0.00000000000E+00 0. -1.
<mgrwt>
<rscale>  0 0.33308207E+03</rscale>
<asrwt>0</asrwt>
<pdfrwt beam="1">  1        2 0.11990489E+00 0.37760674E+03</pdfrwt>
<pdfrwt beam="2">  1       -2 0.19502610E-01 0.37760674E+03</pdfrwt>
<totfact> 0.80507322E+02</totfact>
</mgrwt>
</event>
<event>
 6    1  0.9240440E-006  0.1423407E+03  0.7546771E-02  0.1220612E+00
          1   -1    0    0  501    0  0.00000000000E+00  0.00000000000E+00  0.86058719794E+03  0.86058719794E+03  0.00000000000E+00 0. -1.
         -1   -1    0    0    0  501 -0.00000000000E+00 -0.00000000000E+00 -0.25700175248E+02  0.25700175248E+02  0.00000000000E+00 0.  1.
          5    1    1    2  502    0  0.59266026320E+02  0.27059729246E+02  0.62988379289E+03  0.63326169422E+03  0.47000000000E+01 0. -1.
         -5    1    1    2    0  502 -0.19007943593E+02  0.27852381364E+02  0.44773459650E+02  0.56247753345E+02  0.47000000000E+01 0. -1.
        -11    1    1    2    0    0  0.28873952520E+02 -0.15227801960E+02  0.31480684605E+02  0.45350023041E+02  0.00000000000E+00 0.  1.
         11    1    1    2    0    0 -0.69132035247E+02 -0.39684308650E+02  0.12874908554E+03  0.15142790258E+03  0.00000000000E+00 0. -1.
<mgrwt>
<rscale>  0 0.13472235E+03</rscale>
<asrwt>0</asrwt>
<pdfrwt beam="1">  1        1 0.13239801E+00 0.14234068E+03</pdfrwt>
<pdfrwt beam="2">  1       -1 0.39538738E-02 0.14234068E+03</pdfrwt>
<totfact> 0.50107420E+03</totfact>
</mgrwt>
</event>
<event>
 6    1  0.1271463E-005  0.3610548E+03  0.7546771E-02  0.1059145E+00
         -1   -1    0    0    0  501 -0.00000000000E+00  0.00000000000E+00  0.18014014288E+03  0.18014014288E+03  0.00000000000E+00 0.  1.
          1   -1    0    0  501    0  0.00000000000E+00 -0.00000000000E+00 -0.70660627418E+03  0.70660627418E+03  0.00000000000E+00 0. -1.
          5    1    1    2  502    0  0.71395776832E+02  0.16044344002E+03 -0.71943164055E+02  0.18983509488E+03  0.47000000000E+01 0.  1.
         -5    1    1    2    0  502  0.85969305007E+02  0.13950712564E+03 -0.22069378131E+03  0.27491961482E+03  0.47000000000E+01 0.  1.
        -11    1    1    2    0    0 -0.63284304134E+02 -0.64781488818E+02 -0.10216359334E+03  0.13652451885E+03  0.00000000000E+00 0.  1.
         11    1    1    2    0    0 -0.94080777704E+02 -0.23516907684E+03 -0.13166559260E+03  0.28546718850E+03  0.00000000000E+00 0. -1.
<mgrwt>
<rscale>  0 0.35858707E+03</rscale>
<asrwt>0</asrwt>
<pdfrwt beam="2">  1        1 0.10870866E+00 0.36105479E+03</pdfrwt>
<pdfrwt beam="1">  1       -1 0.27713868E-01 0.36105479E+03</pdfrwt>
<totfact> 0.32509795E+02</totfact>
</mgrwt>
</event>
<event>
 6    1  0.9240440E-006  0.3092310E+03  0.7546771E-02  0.1080715E+00
         -1   -1    0    0    0  501 -0.00000000000E+00  0.00000000000E+00  0.11660968606E+03  0.11660968606E+03  0.00000000000E+00 0.  1.
          1   -1    0    0  501    0  0.00000000000E+00 -0.00000000000E+00 -0.20500827826E+03  0.20500827826E+03  0.00000000000E+00 0. -1.
          5    1    1    2  502    0 -0.37954603274E+02 -0.55399908123E+02 -0.14762988232E+02  0.68918339731E+02  0.47000000000E+01 0.  1.
         -5    1    1    2    0  502 -0.55869290065E+01  0.21053695154E+02 -0.12367998397E+03  0.12567139806E+03  0.47000000000E+01 0.  1.
        -11    1    1    2    0    0  0.66963026852E+02 -0.71157640852E+01  0.40118466475E+02  0.78384771582E+02  0.00000000000E+00 0.  1.
         11    1    1    2    0    0 -0.23421494571E+02  0.41461977054E+02  0.99259135306E+01  0.48643454941E+02  0.00000000000E+00 0. -1.
<mgrwt>
<rscale>  0 0.30923099E+03</rscale>
<asrwt>0</asrwt>
<pdfrwt beam="2">  1        1 0.31539735E-01 0.30923099E+03</pdfrwt>
<pdfrwt beam="1">  1       -1 0.17939952E-01 0.30923099E+03</pdfrwt>
<totfact> 0.34192818E+03</totfact>
</mgrwt>
</event>
<event>
 6    1  0.9240440E-006  0.1341411E+03  0.7546771E-02  0.1234096E+00
         -1   -1    0    0    0  501 -0.00000000000E+00  0.00000000000E+00  0.12089955726E+03  0.12089955726E+03  0.00000000000E+00 0.  1.
          1   -1    0    0  501    0  0.00000000000E+00 -0.00000000000E+00 -0.11710034365E+03  0.11710034365E+03  0.00000000000E+00 0. -1.
          5    1    1    2  502    0  0.50219567944E+02 -0.48953675724E+01  0.12605469035E+02  0.52220278415E+02  0.47000000000E+01 0. -1.
         -5    1    1    2    0  502 -0.59830956626E+02  0.52624980348E+02 -0.19125133747E+02  0.82079185353E+02  0.47000000000E+01 0. -1.
        -11    1    1    2    0    0 -0.85794650843E+01 -0.59233755579E+02 -0.22929327633E+02  0.64093674312E+02  0.00000000000E+00 0. -1.
         11    1    1    2    0    0  0.18190853766E+02  0.11504142804E+02  0.33248205961E+02  0.39606762832E+02  0.00000000000E+00 0.  1.
<mgrwt>
<rscale>  0 0.12562509E+03</rscale>
<asrwt>0</asrwt>
<pdfrwt beam="2">  1        1 0.18015438E-01 0.13414112E+03</pdfrwt>
<pdfrwt beam="1">  1       -1 0.18599932E-01 0.13414112E+03</pdfrwt>
<totfact> 0.63072761E+03</totfact>
</mgrwt>
</event>
<event>
 6    1  0.9240440E-006  0.1265267E+03  0.7546771E-02  0.1246590E+00
          2   -1    0    0  501    0  0.00000000000E+00  0.00000000000E+00  0.14151849016E+03  0.14151849016E+03  0.00000000000E+00 0. -1.
         -2   -1    0    0    0  501 -0.00000000000E+00 -0.00000000000E+00 -0.10400061680E+03  0.10400061680E+03  0.00000000000E+00 0.  1.
          5    1    1    2  502    0 -0.43500165424E+02  0.45416041220E+01 -0.18892384229E+02  0.47873821048E+02  0.47000000000E+01 0. -1.
         -5    1    1    2    0  502  0.35264667983E+02  0.13229047245E+02  0.89050464911E+02  0.96802271666E+02  0.47000000000E+01 0. -1.
        -11    1    1    2    0    0 -0.21940910725E+02 -0.55151728696E+01  0.25569280830E+02  0.34141013713E+02  0.00000000000E+00 0. -1.
         11    1    1    2    0    0  0.30176408167E+02 -0.12255478497E+02 -0.58209488160E+02  0.66702000531E+02  0.00000000000E+00 0.  1.
<mgrwt>
<rscale>  0 0.11790721E+03</rscale>
<asrwt>0</asrwt>
<pdfrwt beam="1">  1        2 0.21772075E-01 0.12652674E+03</pdfrwt>
<pdfrwt beam="2">  1       -2 0.16000095E-01 0.12652674E+03</pdfrwt>
<totfact> 0.72892559E+03</totfact>
</mgrwt>
</event>
<event>
 6    1  0.9240440E-006  0.1745838E+03  0.7546771E-02  0.1179076E+00
         -1   -1    0    0    0  501 -0.00000000000E+00  0.00000000000E+00  0.20829112410E+03  0.20829112410E+03  0.00000000000E+00 0.  1.
          1   -1    0    0  501    0  0.00000000000E+00 -0.00000000000E+00 -0.15568234226E+03  0.15568234226E+03  0.00000000000E+00 0. -1.
          5    1    1    2  502    0 -0.10639503589E+03 -0.17648581321E+02 -0.83827030817E+02  0.13667639584E+03  0.47000000000E+01 0.  1.
         -5    1    1    2    0  502 -0.15447399935E+02  0.20829989199E+02  0.35742078867E+02  0.44408296708E+02  0.47000000000E+01 0.  1.
        -11    1    1    2    0    0  0.98539582985E+02 -0.41839768666E+02  0.64075833752E+02  0.12476509178E+03  0.00000000000E+00 0.  1.
         11    1    1    2    0    0  0.23302852838E+02  0.38658360788E+02  0.36617900038E+02  0.58123682027E+02  0.00000000000E+00 0. -1.
<mgrwt>
<rscale>  0 0.16882765E+03</rscale>
<asrwt>0</asrwt>
<pdfrwt beam="2">  1        1 0.23951130E-01 0.17458380E+03</pdfrwt>
<pdfrwt beam="1">  1       -1 0.32044788E-01 0.17458380E+03</pdfrwt>
<totfact> 0.18170274E+03</totfact>
</mgrwt>
</event>
<event>
 6    1  0.9240440E-006  0.1758156E+03  0.7546771E-02  0.1179783E+00
          1   -1    0    0  501    0  0.00000000000E+00  0.00000000000E+00  0.12591199171E+03  0.12591199171E+03  0.00000000000E+00 0. -1.
         -1   -1    0    0    0  501 -0.00000000000E+00 -0.00000000000E+00 -0.22124140971E+03  0.22124140971E+03  0.00000000000E+00 0.  1.
          5    1    1    2  502    0 -0.17587397427E+02  0.58050636759E+02  0.57452871963E+02  0.83678644068E+02  0.47000000000E+01 0.  1.
         -5    1    1    2    0  502 -0.39819442654E+02  0.51454674441E+02 -0.65317521251E+02  0.92312729986E+02  0.47000000000E+01 0.  1.
        -11    1    1    2    0    0  0.68007048781E+02 -0.72468744609E+02 -0.87839500105E+02  0.13263655381E+03  0.00000000000E+00 0.  1.
         11    1    1    2    0    0 -0.10600208700E+02 -0.37036566591E+02  0.37473139464E+00  0.38525473559E+02  0.00000000000E+00 0. -1.
<mgrwt>
<rscale>  0 0.16815744E+03</rscale>
<asrwt>0</asrwt>
<pdfrwt beam="1">  1        1 0.19371076E-01 0.17581556E+03</pdfrwt>
<pdfrwt beam="2">  1       -1 0.34037140E-01 0.17581556E+03</pdfrwt>
<totfact> 0.21483673E+03</totfact>
</mgrwt>
</event>
<event>
 6    1  0.9240440E-006  0.2974035E+03  0.7546771E-02  0.1086546E+00
         -1   -1    0    0    0  501 -0.00000000000E+00  0.00000000000E+00  0.16729193331E+03  0.16729193331E+03  0.00000000000E+00 0.  1.
          1   -1    0    0  501    0  0.00000000000E+00 -0.00000000000E+00 -0.13217735185E+03  0.13217735185E+03  0.00000000000E+00 0. -1.
          5    1    1    2  502    0 -0.60075004530E+02 -0.76636540236E+02 -0.65944065829E+02  0.11769823825E+03  0.47000000000E+01 0.  1.
         -5    1    1    2    0  502 -0.12450518080E+01  0.13233813890E+02  0.35583656988E+02  0.38274934732E+02  0.47000000000E+01 0.  1.
        -11    1    1    2    0    0  0.64873621177E+02  0.31258234316E+02  0.80351532196E+02  0.10789825144E+03  0.00000000000E+00 0.  1.
         11    1    1    2    0    0 -0.35535648388E+01  0.32144492030E+02 -0.14876541898E+02  0.35597860747E+02  0.00000000000E+00 0. -1.
<mgrwt>
<rscale>  0 0.29740346E+03</rscale>
<asrwt>0</asrwt>
<pdfrwt beam="2">  1        1 0.20334977E-01 0.29740346E+03</pdfrwt>
<pdfrwt beam="1">  1       -1 0.25737220E-01 0.29740346E+03</pdfrwt>
<totfact> 0.33069991E+03</totfact>
</mgrwt>
</event>
<event>
 6    1  0.9240440E-006  0.3911813E+03  0.7546771E-02  0.1046877E+00
          2   -1    0    0  501    0  0.00000000000E+00  0.00000000000E+00  0.25170643113E+04  0.25170643113E+04  0.00000000000E+00 0. -1.
         -2   -1    0    0    0  501 -0.00000000000E+00 -0.00000000000E+00 -0.15198539781E+02  0.15198539781E+02  0.00000000000E+00 0.  1.
          5    1    1    2  502    0 -0.70245247429E+02 -0.84030283414E+01  0.22312714800E+04  0.22323977049E+04  0.47000000000E+01 0. -1.
         -5    1    1    2    0  502 -0.65302566703E+01 -0.43235201160E+01  0.12586575574E+02  0.15551493917E+02  0.47000000000E+01 0.  1.
        -11    1    1    2    0    0  0.41227725260E+02  0.32720375592E+02  0.22715652410E+03  0.23317468720E+03  0.00000000000E+00 0. -1.
         11    1    1    2    0    0  0.35547778839E+02 -0.19993827134E+02  0.30851191866E+02  0.51138965021E+02  0.00000000000E+00 0.  1.
<mgrwt>
<rscale>  0 0.39118130E+03</rscale>
<asrwt>0</asrwt>
<pdfrwt beam="1">  1        2 0.38724033E+00 0.39118130E+03</pdfrwt>
<pdfrwt beam="2">  1       -2 0.23382389E-02 0.39118130E+03</pdfrwt>
<totfact> 0.23857709E+03</totfact>
</mgrwt>
</event>
<event>
 6    1  0.9240440E-006  0.1596631E+03  0.7546771E-02  0.1196514E+00
          2   -1    0    0  501    0  0.00000000000E+00  0.00000000000E+00  0.18155804075E+04  0.18155804075E+04  0.00000000000E+00 0. -1.
         -2   -1    0    0    0  501 -0.00000000000E+00 -0.00000000000E+00 -0.21444558555E+02  0.21444558555E+02  0.00000000000E+00 0.  1.
          5    1    1    2  502    0 -0.19167097110E+02  0.10781167842E+02  0.11733635845E+04  0.11735790568E+04  0.47000000000E+01 0. -1.
         -5    1    1    2    0  502 -0.72678411393E+02  0.27052640309E+02  0.37300165387E+03  0.38100698238E+03  0.47000000000E+01 0. -1.
        -11    1    1    2    0    0  0.17143667825E+01  0.25365264792E+02  0.50228403857E+02  0.56295899189E+02  0.00000000000E+00 0.  1.
         11    1    1    2    0    0  0.90131141721E+02 -0.63199072943E+02  0.19754220678E+03  0.22614302772E+03  0.00000000000E+00 0. -1.
<mgrwt>
<rscale>  0 0.15326780E+03</rscale>
<asrwt>0</asrwt>
<pdfrwt beam="1">  1        2 0.27931994E+00 0.15966309E+03</pdfrwt>
<pdfrwt beam="2">  1       -2 0.32991643E-02 0.15966309E+03</pdfrwt>
<totfact> 0.34060799E+03</totfact>
</mgrwt>
</event>
<event>
 6    1  0.9253854E-006  0.1554285E+03  0.7546771E-02  0.1203505E+00
          1   -1    0    0  501    0  0.00000000000E+00  0.00000000000E+00  0.14348695928E+03  0.14348695928E+03  0.00000000000E+00 0.  1.
         -1   -1    0    0    0  501 -0.00000000000E+00 -0.00000000000E+00 -0.14983109169E+03  0.14983109169E+03  0.00000000000E+00 0. -1.
          5    1    1    2  502    0 -0.69522447866E+02  0.34068560380E+02  0.59565761321E+01  0.77792084191E+02  0.47000000000E+01 0.  1.
         -5    1    1    2    0  502  0.50580309083E+02  0.56340228394E+02  0.31138764086E+02  0.82001839195E+02  0.47000000000E+01 0.  1.
        -11    1    1    2    0    0  0.83898361857E+00 -0.70740696166E+02 -0.67336430999E+02  0.97668546254E+02  0.00000000000E+00 0. -1.
         11    1    1    2    0    0  0.18103155164E+02 -0.19668092608E+02  0.23896958368E+02  0.35855581336E+02  0.00000000000E+00 0.  1.
<mgrwt>
<rscale>  0 0.14755874E+03</rscale>
<asrwt>0</asrwt>
<pdfrwt beam="1">  1        1 0.22074917E-01 0.15542855E+03</pdfrwt>
<pdfrwt beam="2">  1       -1 0.23050937E-01 0.15542855E+03</pdfrwt>
<totfact> 0.34742716E+03</totfact>
</mgrwt>
</event>
<event>
 6    1  0.9240440E-006  0.2982620E+03  0.7546771E-02  0.1086113E+00
         -2   -1    0    0    0  501 -0.00000000000E+00  0.00000000000E+00  0.45214702624E+02  0.45214702624E+02  0.00000000000E+00 0.  1.
          2   -1    0    0  501    0  0.00000000000E+00 -0.00000000000E+00 -0.49187663800E+03  0.49187663800E+03  0.00000000000E+00 0. -1.
          5    1    1    2  502    0 -0.17703351921E+02  0.13052752193E+03 -0.20329460792E+03  0.24228419316E+03  0.47000000000E+01 0.  1.
         -5    1    1    2    0  502  0.78635764369E+01 -0.28438818103E+02 -0.46817799157E+02  0.55539162106E+02  0.47000000000E+01 0.  1.
        -11    1    1    2    0    0  0.13787801525E+02 -0.52093793091E+02 -0.22952412426E+02  0.58572006843E+02  0.00000000000E+00 0.  1.
         11    1    1    2    0    0 -0.39480260407E+01 -0.49994910734E+02 -0.17359711588E+03  0.18069597851E+03  0.00000000000E+00 0. -1.
<mgrwt>
<rscale>  0 0.29826201E+03</rscale>
<asrwt>0</asrwt>
<pdfrwt beam="2">  1        2 0.75673324E-01 0.29826201E+03</pdfrwt>
<pdfrwt beam="1">  1       -2 0.69561086E-02 0.29826201E+03</pdfrwt>
<totfact> 0.74493360E+03</totfact>
</mgrwt>
</event>
<event>
 6    1  0.9240440E-006  0.2695213E+03  0.7546771E-02  0.1101554E+00
         -2   -1    0    0    0  501 -0.00000000000E+00  0.00000000000E+00  0.43405679843E+02  0.43405679843E+02  0.00000000000E+00 0.  1.
          2   -1    0    0  501    0  0.00000000000E+00 -0.00000000000E+00 -0.41838824383E+03  0.41838824383E+03  0.00000000000E+00 0. -1.
          5    1    1    2  502    0 -0.80181309047E+02 -0.16314064999E+01 -0.58488571179E+02  0.99371559142E+02  0.47000000000E+01 0. -1.
         -5    1    1    2    0  502  0.40388928135E+01 -0.15098128189E+02 -0.18145635483E+03  0.18218881645E+03  0.47000000000E+01 0. -1.
        -11    1    1    2    0    0  0.23391059931E+02  0.41544059946E+01  0.97069544394E+01  0.25663704688E+02  0.00000000000E+00 0.  1.
         11    1    1    2    0    0  0.52751356303E+02  0.12575128694E+02 -0.14474459242E+03  0.15456984340E+03  0.00000000000E+00 0. -1.
<mgrwt>
<rscale>  0 0.26952125E+03</rscale>
<asrwt>0</asrwt>
<pdfrwt beam="2">  1        2 0.64367422E-01 0.26952125E+03</pdfrwt>
<pdfrwt beam="1">  1       -2 0.66777969E-02 0.26952125E+03</pdfrwt>
<totfact> 0.94535253E+03</totfact>
</mgrwt>
</event>
<event>
 6    1  0.9240440E-006  0.2964525E+03  0.7546771E-02  0.1087028E+00
         -2   -1    0    0    0  501 -0.00000000000E+00  0.00000000000E+00  0.11639056030E+03  0.11639056030E+03  0.00000000000E+00 0.  1.
          2   -1    0    0  501    0  0.00000000000E+00 -0.00000000000E+00 -0.18876980819E+03  0.18876980819E+03  0.00000000000E+00 0. -1.
          5    1    1    2  502    0 -0.44310667326E+02  0.52230150958E+02 -0.14416077677E+03  0.15967417908E+03  0.47000000000E+01 0.  1.
         -5    1    1    2    0  502  0.75698924322E+01  0.85940274793E+00  0.23827118337E+02  0.25453161155E+02  0.47000000000E+01 0.  1.
        -11    1    1    2    0    0  0.26748119405E+01 -0.44596461807E+02 -0.15686323024E+02  0.47350393395E+02  0.00000000000E+00 0.  1.
         11    1    1    2    0    0  0.34065962953E+02 -0.84930918985E+01  0.63640733561E+02  0.72682634859E+02  0.00000000000E+00 0. -1.
<mgrwt>
<rscale>  0 0.29645252E+03</rscale>
<asrwt>0</asrwt>
<pdfrwt beam="2">  1        2 0.29041509E-01 0.29645252E+03</pdfrwt>
<pdfrwt beam="1">  1       -2 0.17906240E-01 0.29645252E+03</pdfrwt>
<totfact> 0.46053532E+03</totfact>
</mgrwt>
</event>
<event>
 6    1  0.9240440E-006  0.2506486E+03  0.7546771E-02  0.1115463E+00
          1   -1    0    0  501    0  0.00000000000E+00  0.00000000000E+00  0.12188124131E+03  0.12188124131E+03  0.00000000000E+00 0. -1.
         -1   -1    0    0    0  501 -0.00000000000E+00 -0.00000000000E+00 -0.55659827452E+03  0.55659827452E+03  0.00000000000E+00 0.  1.
          5    1    1    2  502    0 -0.40983978207E+01  0.15557060708E+02 -0.12359120090E+02  0.20824429211E+02  0.47000000000E+01 0. -1.
         -5    1    1    2    0  502  0.18728079645E+02 -0.23231747070E+03 -0.88306072674E+02  0.24928337415E+03  0.47000000000E+01 0. -1.
        -11    1    1    2    0    0 -0.50718207986E+02  0.11268722634E+03 -0.15620194925E+03  0.19917278065E+03  0.00000000000E+00 0. -1.
         11    1    1    2    0    0  0.36088526162E+02  0.10407318365E+03 -0.17784989120E+03  0.20919893182E+03  0.00000000000E+00 0.  1.
<mgrwt>
<rscale>  0 0.24661450E+03</rscale>
<asrwt>0</asrwt>
<pdfrwt beam="1">  1        1 0.18750960E-01 0.25064865E+03</pdfrwt>
<pdfrwt beam="2">  1       -1 0.85630505E-01 0.25064865E+03</pdfrwt>
<totfact> 0.39409667E+02</totfact>
</mgrwt>
</event>
<event>
 6    1  0.9240440E-006  0.2484151E+03  0.7546771E-02  0.1137874E+00
         -2   -1    0    0    0  501 -0.00000000000E+00  0.00000000000E+00  0.31076148750E+02  0.31076148750E+02  0.00000000000E+00 0.  1.
          2   -1    0    0  501    0  0.00000000000E+00 -0.00000000000E+00 -0.12457464716E+04  0.12457464716E+04  0.00000000000E+00 0. -1.
          5    1    1    2  502    0  0.11246913810E+03  0.91974773582E+02 -0.46206614941E+03  0.48439228156E+03  0.47000000000E+01 0. -1.
         -5    1    1    2    0  502 -0.68296950629E+01 -0.10063011714E+03 -0.42206824854E+03  0.43397783542E+03  0.47000000000E+01 0.  1.
        -11    1    1    2    0    0  0.85771619534E+01 -0.12832400722E+02 -0.12549161078E+02  0.19892703668E+02  0.00000000000E+00 0.  1.
         11    1    1    2    0    0 -0.11421660499E+03  0.21487744282E+02 -0.31798676383E+03  0.33855979971E+03  0.00000000000E+00 0. -1.
<mgrwt>
<rscale>  0 0.21472999E+03</rscale>
<asrwt>0</asrwt>
<pdfrwt beam="2">  1        2 0.19165330E+00 0.24841505E+03</pdfrwt>
<pdfrwt beam="1">  1       -2 0.47809460E-02 0.24841505E+03</pdfrwt>
<totfact> 0.39365747E+03</totfact>
</mgrwt>
</event>
<event>
 6    1  0.9240440E-006  0.1638377E+03  0.7546771E-02  0.1191117E+00
         -2   -1    0    0    0  501 -0.00000000000E+00  0.00000000000E+00  0.46190063708E+02  0.46190063708E+02  0.00000000000E+00 0.  1.
          2   -1    0    0  501    0  0.00000000000E+00 -0.00000000000E+00 -0.55548334481E+03  0.55548334481E+03  0.00000000000E+00 0. -1.
          5    1    1    2  502    0 -0.12538813664E+02 -0.36676428239E+02 -0.19857832342E+03  0.20238039127E+03  0.47000000000E+01 0. -1.
         -5    1    1    2    0  502  0.10545206711E+03 -0.14146622382E+02 -0.16469294064E+03  0.19612781567E+03  0.47000000000E+01 0. -1.
        -11    1    1    2    0    0 -0.84648540787E+02  0.72402355600E+02 -0.92216907766E+02  0.14460786504E+03  0.00000000000E+00 0.  1.
         11    1    1    2    0    0 -0.82647126575E+01 -0.21579304979E+02 -0.53805109277E+02  0.58557336543E+02  0.00000000000E+00 0. -1.
<mgrwt>
<rscale>  0 0.15787492E+03</rscale>
<asrwt>0</asrwt>
<pdfrwt beam="2">  1        2 0.85458983E-01 0.16383766E+03</pdfrwt>
<pdfrwt beam="1">  1       -2 0.71061631E-02 0.16383766E+03</pdfrwt>
<totfact> 0.61069427E+03</totfact>
</mgrwt>
</event>
<event>
 6    1  0.9240440E-006  0.2280794E+03  0.7546771E-02  0.1130964E+00
          1   -1    0    0  501    0  0.00000000000E+00  0.00000000000E+00  0.19252226751E+03  0.19252226751E+03  0.00000000000E+00 0. -1.
         -1   -1    0    0    0  501 -0.00000000000E+00 -0.00000000000E+00 -0.31401850607E+03  0.31401850607E+03  0.00000000000E+00 0.  1.
          5    1    1    2  502    0 -0.56647553253E+02  0.12789451126E+03  0.74128059466E+02  0.15837616771E+03  0.47000000000E+01 0. -1.
         -5    1    1    2    0  502  0.34362444479E+02  0.62362667976E+02 -0.23738846778E+02  0.75203077025E+02  0.47000000000E+01 0. -1.
        -11    1    1    2    0    0  0.15964645758E+02 -0.72600035371E+02 -0.13491906175E+02  0.75549100473E+02  0.00000000000E+00 0. -1.
         11    1    1    2    0    0  0.63204630151E+01 -0.11765714386E+03 -0.15839354508E+03  0.19741242837E+03  0.00000000000E+00 0.  1.
<mgrwt>
<rscale>  0 0.22396072E+03</rscale>
<asrwt>0</asrwt>
<pdfrwt beam="1">  1        1 0.29618810E-01 0.22807935E+03</pdfrwt>
<pdfrwt beam="2">  1       -1 0.48310539E-01 0.22807935E+03</pdfrwt>
<totfact> 0.67570151E+02</totfact>
</mgrwt>
</event>
<event>
 6    1  0.9240440E-006  0.1631067E+03  0.7546771E-02  0.1194024E+00
         -1   -1    0    0    0  501 -0.00000000000E+00  0.00000000000E+00  0.10170613584E+04  0.10170613584E+04  0.00000000000E+00 0.  1.
          1   -1    0    0  501    0  0.00000000000E+00 -0.00000000000E+00 -0.21750452489E+02  0.21750452489E+02  0.00000000000E+00 0. -1.
          5    1    1    2  502    0  0.52941904329E+02 -0.97829883782E+02  0.52584043114E+03  0.53749770271E+03  0.47000000000E+01 0.  1.
         -5    1    1    2    0  502 -0.19296201681E+02 -0.13941881266E+01  0.93500037126E+01  0.21995447922E+02  0.47000000000E+01 0.  1.
        -11    1    1    2    0    0 -0.44653858074E+02  0.73763371783E+02  0.42921569113E+03  0.43779117347E+03  0.00000000000E+00 0.  1.
         11    1    1    2    0    0  0.11008155426E+02  0.25460700126E+02  0.30904779938E+02  0.41527486799E+02  0.00000000000E+00 0. -1.
<mgrwt>
<rscale>  0 0.15537098E+03</rscale>
<asrwt>0</asrwt>
<pdfrwt beam="2">  1        1 0.33462243E-02 0.16310666E+03</pdfrwt>
<pdfrwt beam="1">  1       -1 0.15647094E+00 0.16310666E+03</pdfrwt>
<totfact> 0.97526022E+02</totfact>
</mgrwt>
</event>
<event>
 6    1  0.9240440E-006  0.1325783E+03  0.7546771E-02  0.1237691E+00
         -1   -1    0    0    0  501 -0.00000000000E+00  0.00000000000E+00  0.26973416744E+02  0.26973416744E+02  0.00000000000E+00 0.  1.
          1   -1    0    0  501    0  0.00000000000E+00 -0.00000000000E+00 -0.64388584549E+03  0.64388584549E+03  0.00000000000E+00 0. -1.
          5    1    1    2  502    0 -0.17199025624E+02  0.29511032386E+02 -0.31699686988E+03  0.31886645015E+03  0.47000000000E+01 0.  1.
         -5    1    1    2    0  502  0.21833437234E+02 -0.73446066366E+02 -0.18391205763E+03  0.19929063849E+03  0.47000000000E+01 0.  1.
        -11    1    1    2    0    0 -0.36597831282E+02  0.28155725080E+02 -0.20047949883E+02  0.50339511358E+02  0.00000000000E+00 0.  1.
         11    1    1    2    0    0  0.31963419671E+02  0.15779308901E+02 -0.95955551352E+02  0.10236266224E+03  0.00000000000E+00 0. -1.
<mgrwt>
<rscale>  0 0.12333755E+03</rscale>
<asrwt>0</asrwt>
<pdfrwt beam="2">  1        1 0.99059358E-01 0.13257833E+03</pdfrwt>
<pdfrwt beam="1">  1       -1 0.41497565E-02 0.13257833E+03</pdfrwt>
<totfact> 0.71176830E+03</totfact>
</mgrwt>
</event>
<event>
 6    1  0.9240440E-006  0.2299864E+03  0.7546771E-02  0.1126649E+00
          1   -1    0    0  501    0  0.00000000000E+00  0.00000000000E+00  0.20427386578E+03  0.20427386578E+03  0.00000000000E+00 0. -1.
         -1   -1    0    0    0  501 -0.00000000000E+00 -0.00000000000E+00 -0.64733850976E+02  0.64733850976E+02  0.00000000000E+00 0.  1.
          5    1    1    2  502    0  0.52091028868E+01 -0.83814730390E+01 -0.27366923153E+02  0.29469006194E+02  0.47000000000E+01 0.  1.
         -5    1    1    2    0  502 -0.38707741778E+02  0.20874194051E+02  0.12651020220E+03  0.13401844094E+03  0.47000000000E+01 0.  1.
        -11    1    1    2    0    0  0.36100781278E+02  0.13742311636E+02 -0.17118077368E+02  0.42250989464E+02  0.00000000000E+00 0.  1.
         11    1    1    2    0    0 -0.26021423866E+01 -0.26235032648E+02  0.57514813126E+02  0.63269280160E+02  0.00000000000E+00 0. -1.
<mgrwt>
<rscale>  0 0.22998638E+03</rscale>
<asrwt>0</asrwt>
<pdfrwt beam="1">  1        1 0.31426748E-01 0.22998638E+03</pdfrwt>
<pdfrwt beam="2">  1       -1 0.99590541E-02 0.22998638E+03</pdfrwt>
<totfact> 0.85862952E+03</totfact>
</mgrwt>
</event>
<event>
 6    1  0.9240440E-006  0.1554535E+03  0.7546771E-02  0.1202244E+00
         -2   -1    0    0    0  501 -0.00000000000E+00  0.00000000000E+00  0.49480585943E+02  0.49480585943E+02  0.00000000000E+00 0. -1.
          2   -1    0    0  501    0  0.00000000000E+00 -0.00000000000E+00 -0.47316065368E+03  0.47316065368E+03  0.00000000000E+00 0.  1.
          5    1    1    2  502    0  0.17608135351E+01  0.66922125498E+02 -0.27900459908E+03  0.28696224082E+03  0.47000000000E+01 0.  1.
         -5    1    1    2    0  502  0.55913989239E+02  0.52935096649E+01 -0.43993179843E+02  0.71497449674E+02  0.47000000000E+01 0.  1.
        -11    1    1    2    0    0  0.75839197002E+01 -0.67026524583E+01  0.13740085500E+02  0.17065501385E+02  0.00000000000E+00 0. -1.
         11    1    1    2    0    0 -0.65258722475E+02 -0.65512982704E+02 -0.11442237431E+03  0.14711604775E+03  0.00000000000E+00 0.  1.
<mgrwt>
<rscale>  0 0.14856765E+03</rscale>
<asrwt>0</asrwt>
<pdfrwt beam="2">  1        2 0.72793942E-01 0.15545348E+03</pdfrwt>
<pdfrwt beam="1">  1       -2 0.76123983E-02 0.15545348E+03</pdfrwt>
<totfact> 0.65439590E+03</totfact>
</mgrwt>
</event>
<event>
 6    1  0.9240440E-006  0.1259296E+03  0.7546771E-02  0.1247588E+00
         -1   -1    0    0    0  501 -0.00000000000E+00  0.00000000000E+00  0.62801477186E+03  0.62801477186E+03  0.00000000000E+00 0.  1.
          1   -1    0    0  501    0  0.00000000000E+00 -0.00000000000E+00 -0.21001288051E+02  0.21001288051E+02  0.00000000000E+00 0. -1.
          5    1    1    2  502    0 -0.41936805265E+02 -0.20380655870E+02  0.20167889930E+03  0.20705201084E+03  0.47000000000E+01 0. -1.
         -5    1    1    2    0  502  0.42771650547E+02  0.35591001917E+02  0.52657951679E+02  0.76753393299E+02  0.47000000000E+01 0. -1.
        -11    1    1    2    0    0  0.35324896604E+02  0.21413523875E+02  0.12003380996E+03  0.12694291181E+03  0.00000000000E+00 0.  1.
         11    1    1    2    0    0 -0.36159741885E+02 -0.36623869922E+02  0.23264282287E+03  0.23826774397E+03  0.00000000000E+00 0. -1.
<mgrwt>
<rscale>  0 0.11731791E+03</rscale>
<asrwt>0</asrwt>
<pdfrwt beam="2">  1        1 0.32309679E-02 0.12592964E+03</pdfrwt>
<pdfrwt beam="1">  1       -1 0.96617643E-01 0.12592964E+03</pdfrwt>
<totfact> 0.31994731E+03</totfact>
</mgrwt>
</event>
<event>
 6    1  0.9240440E-006  0.1514779E+03  0.7546771E-02  0.1206572E+00
         -3   -1    0    0    0  501 -0.00000000000E+00  0.00000000000E+00  0.11187574406E+04  0.11187574406E+04  0.00000000000E+00 0.  1.
          3   -1    0    0  501    0  0.00000000000E+00 -0.00000000000E+00 -0.17477492387E+02  0.17477492387E+02  0.00000000000E+00 0. -1.
          5    1    1    2  502    0  0.12798395676E+02 -0.25134339607E+02  0.22208966690E+03  0.22392285301E+03  0.47000000000E+01 0.  1.
         -5    1    1    2    0  502 -0.26598754628E+02  0.10957921477E+03  0.34133004603E+03  0.35950436490E+03  0.47000000000E+01 0.  1.
        -11    1    1    2    0    0  0.13092113715E+02  0.18906202343E+02  0.13238984236E+03  0.13437231221E+03  0.00000000000E+00 0.  1.
         11    1    1    2    0    0  0.70824523789E+00 -0.10335107750E+03  0.40547039290E+03  0.41843540284E+03  0.00000000000E+00 0. -1.
<mgrwt>
<rscale>  0 0.14514245E+03</rscale>
<asrwt>0</asrwt>
<pdfrwt beam="2">  1        3 0.26888459E-02 0.15147787E+03</pdfrwt>
<pdfrwt beam="1">  1       -3 0.17211647E+00 0.15147787E+03</pdfrwt>
<totfact> 0.34389939E+02</totfact>
</mgrwt>
</event>
<event>
 6    1  0.9240440E-006  0.3222813E+03  0.7546771E-02  0.1074604E+00
         -4   -1    0    0    0  501 -0.00000000000E+00  0.00000000000E+00  0.20992661647E+03  0.20992661647E+03  0.00000000000E+00 0.  1.
          4   -1    0    0  501    0  0.00000000000E+00 -0.00000000000E+00 -0.12369234251E+03  0.12369234251E+03  0.00000000000E+00 0. -1.
          5    1    1    2  502    0 -0.71127734966E+02  0.11377159574E+03  0.40947390574E+02  0.14036349053E+03  0.47000000000E+01 0.  1.
         -5    1    1    2    0  502  0.88209185845E+01 -0.15601723444E+02 -0.24983775485E+02  0.31104684801E+02  0.47000000000E+01 0.  1.
        -11    1    1    2    0    0  0.68554459151E+02 -0.33710142678E+02  0.16924301039E+02  0.78246530622E+02  0.00000000000E+00 0. -1.
         11    1    1    2    0    0 -0.62476427687E+01 -0.64459729619E+02  0.53346357834E+02  0.83904253032E+02  0.00000000000E+00 0.  1.
<mgrwt>
<rscale>  0 0.32228134E+03</rscale>
<asrwt>0</asrwt>
<pdfrwt beam="2">  1        4 0.19029591E-01 0.32228134E+03</pdfrwt>
<pdfrwt beam="1">  1       -4 0.32296402E-01 0.32228134E+03</pdfrwt>
<totfact> 0.43521475E+02</totfact>
</mgrwt>
</event>
<event>
 6    1  0.9240440E-006  0.2722032E+03  0.7546771E-02  0.1100025E+00
          1   -1    0    0  501    0  0.00000000000E+00  0.00000000000E+00  0.75631230775E+03  0.75631230775E+03  0.00000000000E+00 0. -1.
         -1   -1    0    0    0  501 -0.00000000000E+00 -0.00000000000E+00 -0.24492049920E+02  0.24492049920E+02  0.00000000000E+00 0.  1.
          5    1    1    2  502    0  0.17367599220E+02  0.25446397193E+02  0.35455188115E+03  0.35591892203E+03  0.47000000000E+01 0.  1.
         -5    1    1    2    0  502  0.61545511726E+02 -0.39590262655E+02  0.11356128814E+03  0.13517949206E+03  0.47000000000E+01 0.  1.
        -11    1    1    2    0    0 -0.40711631820E+02 -0.70126695993E+01  0.23222829365E+03  0.23587410810E+03  0.00000000000E+00 0. -1.
         11    1    1    2    0    0 -0.38201479126E+02  0.21156535061E+02  0.31478794899E+02  0.53831835484E+02  0.00000000000E+00 0.  1.
<mgrwt>
<rscale>  0 0.27220315E+03</rscale>
<asrwt>0</asrwt>
<pdfrwt beam="1">  1        1 0.11635572E+00 0.27220315E+03</pdfrwt>
<pdfrwt beam="2">  1       -1 0.37680083E-02 0.27220315E+03</pdfrwt>
<totfact> 0.67340779E+03</totfact>
</mgrwt>
</event>
<event>
 6    1  0.9240440E-006  0.1584241E+03  0.7546771E-02  0.1198442E+00
         -2   -1    0    0    0  501 -0.00000000000E+00  0.00000000000E+00  0.68883322051E+02  0.68883322051E+02  0.00000000000E+00 0.  1.
          2   -1    0    0  501    0  0.00000000000E+00 -0.00000000000E+00 -0.31307848179E+03  0.31307848179E+03  0.00000000000E+00 0. -1.
          5    1    1    2  502    0  0.48006911513E+02  0.56163925872E+01 -0.17209861007E+02  0.51521614247E+02  0.47000000000E+01 0. -1.
         -5    1    1    2    0  502 -0.39428708439E+02  0.91344762658E+02 -0.13865701393E+03  0.17072301024E+03  0.47000000000E+01 0. -1.
        -11    1    1    2    0    0 -0.34949559740E+02 -0.56030871431E+02 -0.89242106744E+02  0.11101839440E+03  0.00000000000E+00 0.  1.
         11    1    1    2    0    0  0.26371356665E+02 -0.40930283814E+02  0.91382193828E+00  0.48698784954E+02  0.00000000000E+00 0. -1.
<mgrwt>
<rscale>  0 0.15166527E+03</rscale>
<asrwt>0</asrwt>
<pdfrwt beam="2">  1        2 0.48165919E-01 0.15842408E+03</pdfrwt>
<pdfrwt beam="1">  1       -2 0.10597435E-01 0.15842408E+03</pdfrwt>
<totfact> 0.60867784E+03</totfact>
</mgrwt>
</event>
<event>
 6    1  0.9240440E-006  0.1566469E+03  0.7546771E-02  0.1201450E+00
         -1   -1    0    0    0  501 -0.00000000000E+00  0.00000000000E+00  0.27571046758E+02  0.27571046758E+02  0.00000000000E+00 0.  1.
          1   -1    0    0  501    0  0.00000000000E+00 -0.00000000000E+00 -0.10999300779E+04  0.10999300779E+04  0.00000000000E+00 0. -1.
          5    1    1    2  502    0  0.17733596409E+02 -0.31681248163E+02 -0.53726611325E+02  0.65014003809E+02  0.47000000000E+01 0.  1.
         -5    1    1    2    0  502  0.57055480017E+02 -0.25938004610E+02 -0.83908425729E+03  0.84143483926E+03  0.47000000000E+01 0.  1.
        -11    1    1    2    0    0 -0.69048509197E+02 -0.14051358540E+01 -0.10696530322E+03  0.12732339581E+03  0.00000000000E+00 0. -1.
         11    1    1    2    0    0 -0.57405672293E+01  0.59024388627E+02 -0.72582859333E+02  0.93728885803E+02  0.00000000000E+00 0.  1.
<mgrwt>
<rscale>  0 0.14920787E+03</rscale>
<asrwt>0</asrwt>
<pdfrwt beam="2">  1        1 0.16922002E+00 0.15664692E+03</pdfrwt>
<pdfrwt beam="1">  1       -1 0.42416994E-02 0.15664692E+03</pdfrwt>
<totfact> 0.30086577E+03</totfact>
</mgrwt>
</event>
<event>
 6    1  0.9240440E-006  0.1297234E+03  0.7546771E-02  0.1244381E+00
          2   -1    0    0  501    0  0.00000000000E+00  0.00000000000E+00  0.31171043468E+03  0.31171043468E+03  0.00000000000E+00 0. -1.
         -2   -1    0    0    0  501 -0.00000000000E+00 -0.00000000000E+00 -0.40243163069E+02  0.40243163069E+02  0.00000000000E+00 0.  1.
          5    1    1    2  502    0  0.79200438499E+02  0.21375294200E+01  0.10830229352E+03  0.13427120046E+03  0.47000000000E+01 0.  1.
         -5    1    1    2    0  502 -0.45101822381E+02 -0.84363400998E+01  0.28308325565E+02  0.54118365761E+02  0.47000000000E+01 0.  1.
        -11    1    1    2    0    0 -0.40546117338E+02 -0.24389018087E+02  0.34874090000E+02  0.58779367024E+02  0.00000000000E+00 0.  1.
         11    1    1    2    0    0  0.64475012202E+01  0.30687828767E+02  0.99982562526E+02  0.10478466451E+03  0.00000000000E+00 0. -1.
<mgrwt>
<rscale>  0 0.11922480E+03</rscale>
<asrwt>0</asrwt>
<pdfrwt beam="1">  1        2 0.47955450E-01 0.12972343E+03</pdfrwt>
<pdfrwt beam="2">  1       -2 0.61912561E-02 0.12972343E+03</pdfrwt>
<totfact> 0.13861200E+04</totfact>
</mgrwt>
</event>
<event>
 6    1  0.9240440E-006  0.1613907E+03  0.7546771E-02  0.1213092E+00
          2   -1    0    0  501    0  0.00000000000E+00  0.00000000000E+00  0.25842601733E+03  0.25842601733E+03  0.00000000000E+00 0. -1.
         -2   -1    0    0    0  501 -0.00000000000E+00 -0.00000000000E+00 -0.63444274942E+02  0.63444274942E+02  0.00000000000E+00 0.  1.
          5    1    1    2  502    0 -0.36894955349E+02 -0.69582375553E+02  0.13160035093E+03  0.15343952256E+03  0.47000000000E+01 0. -1.
         -5    1    1    2    0  502  0.35369790813E+02  0.51784954542E+02  0.15130391589E+02  0.64681700416E+02  0.47000000000E+01 0.  1.
        -11    1    1    2    0    0 -0.19969569780E+02  0.48525387305E+02  0.38260776705E+02  0.64941388685E+02  0.00000000000E+00 0.  1.
         11    1    1    2    0    0  0.21494734316E+02 -0.30727966294E+02  0.99902231685E+01  0.38807680616E+02  0.00000000000E+00 0. -1.
<mgrwt>
<rscale>  0 0.14017613E+03</rscale>
<asrwt>0</asrwt>
<pdfrwt beam="1">  1        2 0.39757848E-01 0.16139070E+03</pdfrwt>
<pdfrwt beam="2">  1       -2 0.97606578E-02 0.16139070E+03</pdfrwt>
<totfact> 0.85138917E+03</totfact>
</mgrwt>
</event>
<event>
 6    1  0.9240440E-006  0.1303147E+03  0.7546771E-02  0.1235421E+00
          2   -1    0    0  501    0  0.00000000000E+00  0.00000000000E+00  0.26608593514E+03  0.26608593514E+03  0.00000000000E+00 0. -1.
         -2   -1    0    0    0  501 -0.00000000000E+00 -0.00000000000E+00 -0.58262189377E+02  0.58262189377E+02  0.00000000000E+00 0.  1.
          5    1    1    2  502    0  0.67060855009E+02  0.23171327003E+02  0.12474922438E+03  0.14359153058E+03  0.47000000000E+01 0. -1.
         -5    1    1    2    0  502 -0.33346204759E+02 -0.37982837207E+02  0.30979189936E+02  0.59468189002E+02  0.47000000000E+01 0. -1.
        -11    1    1    2    0    0 -0.14505008956E+02  0.83984833000E+01  0.82814888670E+02  0.84493997373E+02  0.00000000000E+00 0. -1.
         11    1    1    2    0    0 -0.19209641294E+02  0.64130269037E+01 -0.30719557219E+02  0.36794407570E+02  0.00000000000E+00 0.  1.
<mgrwt>
<rscale>  0 0.12477536E+03</rscale>
<asrwt>0</asrwt>
<pdfrwt beam="1">  1        2 0.40936297E-01 0.13031466E+03</pdfrwt>
<pdfrwt beam="2">  1       -2 0.89634139E-02 0.13031466E+03</pdfrwt>
<totfact> 0.92884425E+03</totfact>
</mgrwt>
</event>
<event>
 6    1  0.9240440E-006  0.1298956E+03  0.7546771E-02  0.1240349E+00
         -1   -1    0    0    0  501 -0.00000000000E+00  0.00000000000E+00  0.37988847911E+02  0.37988847911E+02  0.00000000000E+00 0.  1.
          1   -1    0    0  501    0  0.00000000000E+00 -0.00000000000E+00 -0.36022136218E+03  0.36022136218E+03  0.00000000000E+00 0. -1.
          5    1    1    2  502    0 -0.49431907435E+02  0.31756280302E+02 -0.12850805943E+03  0.14138028911E+03  0.47000000000E+01 0.  1.
         -5    1    1    2    0  502  0.67788736449E+02 -0.15339637635E+01 -0.89361226236E+02  0.11227281322E+03  0.47000000000E+01 0.  1.
        -11    1    1    2    0    0  0.22435979939E+02  0.15602454759E+02 -0.50029573658E+01  0.27781997278E+02  0.00000000000E+00 0.  1.
         11    1    1    2    0    0 -0.40792808953E+02 -0.45824771297E+02 -0.99360271234E+02  0.11677511047E+03  0.00000000000E+00 0. -1.
<mgrwt>
<rscale>  0 0.12168118E+03</rscale>
<asrwt>0</asrwt>
<pdfrwt beam="2">  1        1 0.55418671E-01 0.12989561E+03</pdfrwt>
<pdfrwt beam="1">  1       -1 0.58444382E-02 0.12989561E+03</pdfrwt>
<totfact> 0.91267105E+03</totfact>
</mgrwt>
</event>
<event>
 6    1  0.9240440E-006  0.1345013E+03  0.7546771E-02  0.1232929E+00
         -1   -1    0    0    0  501 -0.00000000000E+00  0.00000000000E+00  0.13328390816E+03  0.13328390816E+03  0.00000000000E+00 0.  1.
          1   -1    0    0  501    0  0.00000000000E+00 -0.00000000000E+00 -0.11192444943E+03  0.11192444943E+03  0.00000000000E+00 0. -1.
          5    1    1    2  502    0  0.82531213499E+02  0.46015794898E+00 -0.34247983215E+02  0.89479759171E+02  0.47000000000E+01 0.  1.
         -5    1    1    2    0  502 -0.35790483531E+02 -0.17247950370E+02  0.21862287560E+02  0.45590570524E+02  0.47000000000E+01 0.  1.
        -11    1    1    2    0    0 -0.74304629451E+02  0.13821178012E+02  0.16097075189E+02  0.77274308467E+02  0.00000000000E+00 0. -1.
         11    1    1    2    0    0  0.27563899483E+02  0.29666144091E+01  0.17648079191E+02  0.32863719432E+02  0.00000000000E+00 0.  1.
<mgrwt>
<rscale>  0 0.12637979E+03</rscale>
<asrwt>0</asrwt>
<pdfrwt beam="2">  1        1 0.17219146E-01 0.13450126E+03</pdfrwt>
<pdfrwt beam="1">  1       -1 0.20505217E-01 0.13450126E+03</pdfrwt>
<totfact> 0.57178877E+03</totfact>
</mgrwt>
</event>
<event>
 6    1  0.9240440E-006  0.1540188E+03  0.7546771E-02  0.1203841E+00
          1   -1    0    0  501    0  0.00000000000E+00  0.00000000000E+00  0.52349485587E+02  0.52349485587E+02  0.00000000000E+00 0. -1.
         -1   -1    0    0    0  501 -0.00000000000E+00 -0.00000000000E+00 -0.38311083204E+03  0.38311083204E+03  0.00000000000E+00 0.  1.
          5    1    1    2  502    0 -0.54633969708E+01  0.25332220860E+02 -0.76138144708E+02  0.80564739184E+02  0.47000000000E+01 0. -1.
         -5    1    1    2    0  502  0.91074911147E+00 -0.11520169889E+03 -0.92475354938E+02  0.14780406680E+03  0.47000000000E+01 0. -1.
        -11    1    1    2    0    0  0.18202668671E+02  0.10589586268E+03 -0.14073126647E+03  0.17706089416E+03  0.00000000000E+00 0.  1.
         11    1    1    2    0    0 -0.13650020812E+02 -0.16026384653E+02 -0.21416580346E+02  0.30030617492E+02  0.00000000000E+00 0. -1.
<mgrwt>
<rscale>  0 0.14729141E+03</rscale>
<asrwt>0</asrwt>
<pdfrwt beam="1">  1        1 0.80537670E-02 0.15401883E+03</pdfrwt>
<pdfrwt beam="2">  1       -1 0.58940128E-01 0.15401883E+03</pdfrwt>
<totfact> 0.25228228E+03</totfact>
</mgrwt>
</event>
<event>
 6    1  0.9240440E-006  0.2827859E+03  0.7546771E-02  0.1096032E+00
          4   -1    0    0  501    0  0.00000000000E+00  0.00000000000E+00  0.75016278040E+03  0.75016278040E+03  0.00000000000E+00 0. -1.
         -4   -1    0    0    0  501 -0.00000000000E+00 -0.00000000000E+00 -0.15231381096E+03  0.15231381096E+03  0.00000000000E+00 0.  1.
          5    1    1    2  502    0  0.28856681204E+02 -0.15722879282E+02  0.21721131457E+03  0.21973338881E+03  0.47000000000E+01 0. -1.
         -5    1    1    2    0  502  0.18437600077E+03 -0.12165993027E+03  0.34686626851E+03  0.41125897744E+03  0.47000000000E+01 0. -1.
        -11    1    1    2    0    0 -0.48185059670E+02  0.60333177798E+02 -0.23221233007E+02  0.80629510608E+02  0.00000000000E+00 0.  1.
         11    1    1    2    0    0 -0.16504762230E+03  0.77049631750E+02  0.56992619368E+02  0.19085471449E+03  0.00000000000E+00 0. -1.
<mgrwt>
<rscale>  0 0.27937196E+03</rscale>
<asrwt>0</asrwt>
<pdfrwt beam="1">  1        4 0.11540966E+00 0.28278587E+03</pdfrwt>
<pdfrwt beam="2">  1       -4 0.23432894E-01 0.28278587E+03</pdfrwt>
<totfact> 0.18833918E+01</totfact>
</mgrwt>
</event>
<event>
 6    1  0.9240440E-006  0.1942280E+03  0.7546771E-02  0.1159269E+00
          4   -1    0    0  501    0  0.00000000000E+00  0.00000000000E+00  0.61540981398E+03  0.61540981398E+03  0.00000000000E+00 0.  1.
         -4   -1    0    0    0  501 -0.00000000000E+00 -0.00000000000E+00 -0.11191960383E+03  0.11191960383E+03  0.00000000000E+00 0. -1.
          5    1    1    2  502    0 -0.51077111821E+01  0.28958807022E+02  0.50637167441E+02  0.58744480116E+02  0.47000000000E+01 0. -1.
         -5    1    1    2    0  502 -0.12264857763E+03 -0.10496976811E+03  0.46634868735E+03  0.49352255673E+03  0.47000000000E+01 0. -1.
        -11    1    1    2    0    0  0.12287170465E+03  0.93658538956E+02 -0.19656607374E+02  0.15574260796E+03  0.00000000000E+00 0. -1.
         11    1    1    2    0    0  0.48845841643E+01 -0.17647577869E+02  0.61609627354E+01  0.19319773004E+02  0.00000000000E+00 0.  1.
<mgrwt>
<rscale>  0 0.18910737E+03</rscale>
<asrwt>0</asrwt>
<pdfrwt beam="1">  1        4 0.94678431E-01 0.19422797E+03</pdfrwt>
<pdfrwt beam="2">  1       -4 0.17218401E-01 0.19422797E+03</pdfrwt>
<totfact> 0.50722670E+01</totfact>
</mgrwt>
</event>
<event>
 6    1  0.9240440E-006  0.2507841E+03  0.7546771E-02  0.1112810E+00
          2   -1    0    0  501    0  0.00000000000E+00  0.00000000000E+00  0.14912409762E+03  0.14912409762E+03  0.00000000000E+00 0.  1.
         -2   -1    0    0    0  501 -0.00000000000E+00 -0.00000000000E+00 -0.10543677832E+03  0.10543677832E+03  0.00000000000E+00 0. -1.
          5    1    1    2  502    0  0.65408097526E+01  0.10020956729E+03  0.29297554312E+02  0.10471473753E+03  0.47000000000E+01 0.  1.
         -5    1    1    2    0  502  0.30982784090E+01 -0.37869538768E+02 -0.21500054795E+00  0.38286257598E+02  0.47000000000E+01 0.  1.
        -11    1    1    2    0    0  0.37812616907E+02 -0.26481854072E+02 -0.99332611167E+01  0.47220252740E+02  0.00000000000E+00 0. -1.
         11    1    1    2    0    0 -0.47451705069E+02 -0.35858174447E+02  0.24538026644E+02  0.64339628070E+02  0.00000000000E+00 0.  1.
<mgrwt>
<rscale>  0 0.25078409E+03</rscale>
<asrwt>0</asrwt>
<pdfrwt beam="1">  1        2 0.22942169E-01 0.25078409E+03</pdfrwt>
<pdfrwt beam="2">  1       -2 0.16221043E-01 0.25078409E+03</pdfrwt>
<totfact> 0.70249344E+03</totfact>
</mgrwt>
</event>
<event>
 6    1  0.9240440E-006  0.1491541E+03  0.7546771E-02  0.1209998E+00
         -2   -1    0    0    0  501 -0.00000000000E+00  0.00000000000E+00  0.20158336093E+03  0.20158336093E+03  0.00000000000E+00 0.  1.
          2   -1    0    0  501    0  0.00000000000E+00 -0.00000000000E+00 -0.99524766958E+02  0.99524766958E+02  0.00000000000E+00 0. -1.
          5    1    1    2  502    0 -0.18785939024E+02  0.10784861725E+02  0.51644749720E+02  0.56200488620E+02  0.47000000000E+01 0.  1.
         -5    1    1    2    0  502 -0.12823623677E+02 -0.85773972670E+02 -0.35490603306E+02  0.93825863358E+02  0.47000000000E+01 0.  1.
        -11    1    1    2    0    0  0.12521391221E+01  0.25354601113E+02  0.89263291398E+02  0.92802795439E+02  0.00000000000E+00 0.  1.
         11    1    1    2    0    0  0.30357423579E+02  0.49634509832E+02 -0.33588438431E+01  0.58278980469E+02  0.00000000000E+00 0. -1.
<mgrwt>
<rscale>  0 0.14250460E+03</rscale>
<asrwt>0</asrwt>
<pdfrwt beam="2">  1        2 0.15311503E-01 0.14915411E+03</pdfrwt>
<pdfrwt beam="1">  1       -2 0.31012825E-01 0.14915411E+03</pdfrwt>
<totfact> 0.35285451E+03</totfact>
</mgrwt>
</event>
<event>
 6    1  0.9240440E-006  0.1297145E+03  0.7546771E-02  0.1237869E+00
          2   -1    0    0  501    0  0.00000000000E+00  0.00000000000E+00  0.10505347726E+03  0.10505347726E+03  0.00000000000E+00 0. -1.
         -2   -1    0    0    0  501 -0.00000000000E+00 -0.00000000000E+00 -0.13221137481E+03  0.13221137481E+03  0.00000000000E+00 0.  1.
          5    1    1    2  502    0 -0.24267538310E+02  0.38708464772E+02 -0.17384101828E+02  0.49107592661E+02  0.47000000000E+01 0. -1.
         -5    1    1    2    0  502  0.40239308846E+02 -0.69452087926E+02  0.88342995810E+01  0.80888375820E+02  0.47000000000E+01 0. -1.
        -11    1    1    2    0    0  0.39591076297E+02 -0.42258831095E+01 -0.40379550329E+01  0.40020201040E+02  0.00000000000E+00 0.  1.
         11    1    1    2    0    0 -0.55562846833E+02  0.34969506264E+02 -0.14570140275E+02  0.67248682546E+02  0.00000000000E+00 0. -1.
<mgrwt>
<rscale>  0 0.12322566E+03</rscale>
<asrwt>0</asrwt>
<pdfrwt beam="1">  1        2 0.16162073E-01 0.12971450E+03</pdfrwt>
<pdfrwt beam="2">  1       -2 0.20340211E-01 0.12971450E+03</pdfrwt>
<totfact> 0.68688972E+03</totfact>
</mgrwt>
</event>
<event>
 6    1  0.9240440E-006  0.1326925E+03  0.7546771E-02  0.1237486E+00
          1   -1    0    0  501    0  0.00000000000E+00  0.00000000000E+00  0.87455284864E+03  0.87455284864E+03  0.00000000000E+00 0. -1.
         -1   -1    0    0    0  501 -0.00000000000E+00 -0.00000000000E+00 -0.18461580990E+02  0.18461580990E+02  0.00000000000E+00 0.  1.
          5    1    1    2  502    0 -0.21518158525E+01 -0.95358579110E+01 -0.13557688101E+01  0.10931194200E+02  0.47000000000E+01 0.  1.
         -5    1    1    2    0  502 -0.30350206143E+01 -0.34699870747E+02  0.66061264847E+03  0.66154701548E+03  0.47000000000E+01 0.  1.
        -11    1    1    2    0    0 -0.65213241635E+01  0.61615631746E+02  0.18772567853E+03  0.19768647936E+03  0.00000000000E+00 0. -1.
         11    1    1    2    0    0  0.11708160630E+02 -0.17379903088E+02  0.91087094664E+01  0.22849740586E+02  0.00000000000E+00 0.  1.
<mgrwt>
<rscale>  0 0.12346613E+03</rscale>
<asrwt>0</asrwt>
<pdfrwt beam="1">  1        1 0.13454656E+00 0.13269254E+03</pdfrwt>
<pdfrwt beam="2">  1       -1 0.28402439E-02 0.13269254E+03</pdfrwt>
<totfact> 0.78962793E+03</totfact>
</mgrwt>
</event>
<event>
 6    1  0.9240440E-006  0.1850659E+03  0.7546771E-02  0.1168013E+00
         -1   -1    0    0    0  501 -0.00000000000E+00  0.00000000000E+00  0.23708463201E+02  0.23708463201E+02  0.00000000000E+00 0.  1.
          1   -1    0    0  501    0  0.00000000000E+00 -0.00000000000E+00 -0.18903142005E+04  0.18903142005E+04  0.00000000000E+00 0. -1.
          5    1    1    2  502    0  0.14458502781E+01  0.19953492886E+02 -0.35252426627E+02  0.40805097040E+02  0.47000000000E+01 0. -1.
         -5    1    1    2    0  502 -0.12388753430E+03  0.40329875742E+02 -0.14732091948E+04  0.14789665452E+04  0.47000000000E+01 0. -1.
        -11    1    1    2    0    0  0.13518371276E+03 -0.54972404085E+02 -0.34724034948E+03  0.37665960988E+03  0.00000000000E+00 0. -1.
         11    1    1    2    0    0 -0.12742028744E+02 -0.53109645439E+01 -0.10903766335E+02  0.17591411574E+02  0.00000000000E+00 0.  1.
<mgrwt>
<rscale>  0 0.17978328E+03</rscale>
<asrwt>0</asrwt>
<pdfrwt beam="2">  1        1 0.29081766E+00 0.18506588E+03</pdfrwt>
<pdfrwt beam="1">  1       -1 0.36474547E-02 0.18506588E+03</pdfrwt>
<totfact> 0.11296079E+03</totfact>
</mgrwt>
</event>
<event>
 6    1  0.9240440E-006  0.3872422E+03  0.7546771E-02  0.1048289E+00
         -1   -1    0    0    0  501 -0.00000000000E+00  0.00000000000E+00  0.20527856345E+03  0.20527856345E+03  0.00000000000E+00 0.  1.
          1   -1    0    0  501    0  0.00000000000E+00 -0.00000000000E+00 -0.18262565747E+03  0.18262565747E+03  0.00000000000E+00 0. -1.
          5    1    1    2  502    0 -0.34709800674E+01  0.21986110261E+02 -0.31936275559E+02  0.39210361432E+02  0.47000000000E+01 0. -1.
         -5    1    1    2    0  502 -0.15108783340E+03  0.13601069516E+02  0.66322104138E+02  0.16562981009E+03  0.47000000000E+01 0. -1.
        -11    1    1    2    0    0  0.10141800264E+03 -0.58068098135E+02  0.17852172213E+02  0.11822104438E+03  0.00000000000E+00 0.  1.
         11    1    1    2    0    0  0.53140810819E+02  0.22480918357E+02 -0.29585094818E+02  0.64843005021E+02  0.00000000000E+00 0. -1.
<mgrwt>
<rscale>  0 0.38724221E+03</rscale>
<asrwt>0</asrwt>
<pdfrwt beam="2">  1        1 0.28096255E-01 0.38724221E+03</pdfrwt>
<pdfrwt beam="1">  1       -1 0.31581318E-01 0.38724221E+03</pdfrwt>
<totfact> 0.15479193E+03</totfact>
</mgrwt>
</event>
<event>
 6    1  0.9240440E-006  0.1490600E+03  0.7546771E-02  0.1210648E+00
         -1   -1    0    0    0  501 -0.00000000000E+00  0.00000000000E+00  0.15298367970E+03  0.15298367970E+03  0.00000000000E+00 0.  1.
          1   -1    0    0  501    0  0.00000000000E+00 -0.00000000000E+00 -0.12264288459E+03  0.12264288459E+03  0.00000000000E+00 0. -1.
          5    1    1    2  502    0 -0.42559228444E+02  0.99929194155E+02  0.19454463789E+01  0.10873364949E+03  0.47000000000E+01 0.  1.
         -5    1    1    2    0  502  0.35159403031E+02 -0.19051769614E+02 -0.22353154546E+01  0.40326668374E+02  0.47000000000E+01 0.  1.
        -11    1    1    2    0    0 -0.12008034139E+02  0.29426845550E+00  0.40761071626E+02  0.42494051795E+02  0.00000000000E+00 0.  1.
         11    1    1    2    0    0  0.19407859551E+02 -0.81171692997E+02 -0.10130407442E+02  0.84072194638E+02  0.00000000000E+00 0. -1.
<mgrwt>
<rscale>  0 0.14201162E+03</rscale>
<asrwt>0</asrwt>
<pdfrwt beam="2">  1        1 0.18868136E-01 0.14906004E+03</pdfrwt>
<pdfrwt beam="1">  1       -1 0.23535951E-01 0.14906004E+03</pdfrwt>
<totfact> 0.40920292E+03</totfact>
</mgrwt>
</event>
<event>
 6    1  0.9240440E-006  0.1295214E+03  0.7546771E-02  0.1239248E+00
          1   -1    0    0  501    0  0.00000000000E+00  0.00000000000E+00  0.54849873442E+03  0.54849873442E+03  0.00000000000E+00 0. -1.
         -1   -1    0    0    0  501 -0.00000000000E+00 -0.00000000000E+00 -0.26129808043E+02  0.26129808043E+02  0.00000000000E+00 0.  1.
          5    1    1    2  502    0 -0.55689843884E+02  0.17316787592E+01  0.74640789411E+02  0.93261432903E+02  0.47000000000E+01 0. -1.
         -5    1    1    2    0  502  0.37734869272E+02 -0.30504432064E+02  0.28172802017E+03  0.28591468672E+03  0.47000000000E+01 0. -1.
        -11    1    1    2    0    0 -0.82205703526E+01  0.60529045006E+02  0.11179573234E+03  0.12739556050E+03  0.00000000000E+00 0.  1.
         11    1    1    2    0    0  0.26175544965E+02 -0.31756291702E+02  0.54204384455E+02  0.68056862336E+02  0.00000000000E+00 0. -1.
<mgrwt>
<rscale>  0 0.12236369E+03</rscale>
<asrwt>0</asrwt>
<pdfrwt beam="1">  1        1 0.84384412E-01 0.12952143E+03</pdfrwt>
<pdfrwt beam="2">  1       -1 0.40199709E-02 0.12952143E+03</pdfrwt>
<totfact> 0.92557817E+03</totfact>
</mgrwt>
</event>
<event>
 6    1  0.9240440E-006  0.1332066E+03  0.7546771E-02  0.1235466E+00
         -1   -1    0    0    0  501 -0.00000000000E+00  0.00000000000E+00  0.22096608208E+02  0.22096608208E+02  0.00000000000E+00 0.  1.
          1   -1    0    0  501    0  0.00000000000E+00 -0.00000000000E+00 -0.73556093490E+03  0.73556093490E+03  0.00000000000E+00 0. -1.
          5    1    1    2  502    0  0.84684331687E+02 -0.20541593101E+02 -0.36726481861E+03  0.37749030460E+03  0.47000000000E+01 0.  1.
         -5    1    1    2    0  502 -0.45399880133E+02 -0.34568617431E+01 -0.17281394324E+03  0.17877317469E+03  0.47000000000E+01 0.  1.
        -11    1    1    2    0    0  0.26225487871E+02 -0.62302808433E+01 -0.26777973060E+02  0.37995426759E+02  0.00000000000E+00 0. -1.
         11    1    1    2    0    0 -0.65509939425E+02  0.30228735687E+02 -0.14660759178E+03  0.16339863706E+03  0.00000000000E+00 0.  1.
<mgrwt>
<rscale>  0 0.12474624E+03</rscale>
<asrwt>0</asrwt>
<pdfrwt beam="2">  1        1 0.11316322E+00 0.13320657E+03</pdfrwt>
<pdfrwt beam="1">  1       -1 0.33994782E-02 0.13320657E+03</pdfrwt>
<totfact> 0.78921447E+03</totfact>
</mgrwt>
</event>
<event>
 6    1  0.9240440E-006  0.4772676E+03  0.7546771E-02  0.1019889E+00
         -1   -1    0    0    0  501 -0.00000000000E+00  0.00000000000E+00  0.35252205773E+02  0.35252205773E+02  0.00000000000E+00 0.  1.
          1   -1    0    0  501    0  0.00000000000E+00 -0.00000000000E+00 -0.16153910170E+04  0.16153910170E+04  0.00000000000E+00 0. -1.
          5    1    1    2  502    0  0.74411412777E+02  0.58491410917E+01 -0.14502404452E+04  0.14521675900E+04  0.47000000000E+01 0. -1.
         -5    1    1    2    0  502 -0.20451666643E+02 -0.10902577036E+02 -0.75239395720E+02  0.78868203497E+02  0.47000000000E+01 0.  1.
        -11    1    1    2    0    0 -0.16094876609E+02 -0.41593495050E+02 -0.12856530660E+02  0.46415021967E+02  0.00000000000E+00 0. -1.
         11    1    1    2    0    0 -0.37864869526E+02  0.46646930995E+02 -0.41802439661E+02  0.73192407237E+02  0.00000000000E+00 0.  1.
<mgrwt>
<rscale>  0 0.47726763E+03</rscale>
<asrwt>0</asrwt>
<pdfrwt beam="2">  1        1 0.24852175E+00 0.47726763E+03</pdfrwt>
<pdfrwt beam="1">  1       -1 0.54234151E-02 0.47726763E+03</pdfrwt>
<totfact> 0.92254165E+02</totfact>
</mgrwt>
</event>
<event>
 6    1  0.9240440E-006  0.1289336E+03  0.7546771E-02  0.1242296E+00
         -1   -1    0    0    0  501 -0.00000000000E+00  0.00000000000E+00  0.41575353250E+03  0.41575353250E+03  0.00000000000E+00 0.  1.
          1   -1    0    0  501    0  0.00000000000E+00 -0.00000000000E+00 -0.31123197725E+02  0.31123197725E+02  0.00000000000E+00 0. -1.
          5    1    1    2  502    0  0.98252643480E+01  0.52665981706E+02  0.14127929728E+03  0.15116934640E+03  0.47000000000E+01 0. -1.
         -5    1    1    2    0  502 -0.41330315706E+02 -0.50652692238E+02  0.66561133754E+02  0.93415013536E+02  0.47000000000E+01 0. -1.
        -11    1    1    2    0    0  0.56418193608E+02  0.20222194975E+02  0.80386415125E+02  0.10026926486E+03  0.00000000000E+00 0. -1.
         11    1    1    2    0    0 -0.24913142249E+02 -0.22235484443E+02  0.96403488614E+02  0.10202310543E+03  0.00000000000E+00 0.  1.
<mgrwt>
<rscale>  0 0.12048666E+03</rscale>
<asrwt>0</asrwt>
<pdfrwt beam="2">  1        1 0.47881846E-02 0.12893357E+03</pdfrwt>
<pdfrwt beam="1">  1       -1 0.63962078E-01 0.12893357E+03</pdfrwt>
<totfact> 0.43257100E+03</totfact>
</mgrwt>
</event>
<event>
 6    1  0.9240440E-006  0.1298100E+03  0.7546771E-02  0.1236080E+00
          2   -1    0    0  501    0  0.00000000000E+00  0.00000000000E+00  0.11448527564E+04  0.11448527564E+04  0.00000000000E+00 0. -1.
         -2   -1    0    0    0  501 -0.00000000000E+00 -0.00000000000E+00 -0.12569001043E+02  0.12569001043E+02  0.00000000000E+00 0.  1.
          5    1    1    2  502    0  0.53483197465E+02 -0.41680419407E+02  0.21120849115E+03  0.22187570058E+03  0.47000000000E+01 0. -1.
         -5    1    1    2    0  502 -0.18742391663E+02  0.37378401180E+02  0.44942116785E+03  0.45138663940E+03  0.47000000000E+01 0. -1.
        -11    1    1    2    0    0 -0.57591283252E+02  0.36560946184E+02  0.33638080046E+03  0.34322806064E+03  0.00000000000E+00 0. -1.
         11    1    1    2    0    0  0.22850477450E+02 -0.32258927958E+02  0.13527329587E+03  0.14093135680E+03  0.00000000000E+00 0.  1.
<mgrwt>
<rscale>  0 0.12435538E+03</rscale>
<asrwt>0</asrwt>
<pdfrwt beam="1">  1        2 0.17613111E+00 0.12980998E+03</pdfrwt>
<pdfrwt beam="2">  1       -2 0.19336934E-02 0.12980998E+03</pdfrwt>
<totfact> 0.16716893E+04</totfact>
</mgrwt>
</event>
<event>
 6    1  0.9240440E-006  0.2027769E+03  0.7546771E-02  0.1152010E+00
          1   -1    0    0  501    0  0.00000000000E+00  0.00000000000E+00  0.33288808356E+03  0.33288808356E+03  0.00000000000E+00 0. -1.
         -1   -1    0    0    0  501 -0.00000000000E+00 -0.00000000000E+00 -0.11607429433E+03  0.11607429433E+03  0.00000000000E+00 0.  1.
          5    1    1    2  502    0 -0.70655874224E+00  0.46227916220E+02  0.86012430291E+02  0.97763733705E+02  0.47000000000E+01 0.  1.
         -5    1    1    2    0  502  0.13789292516E+03  0.35814696886E+02  0.74415954190E+02  0.16080104341E+03  0.47000000000E+01 0.  1.
        -11    1    1    2    0    0 -0.46594292918E+02 -0.33809504755E+02 -0.21611445216E+02  0.61491180739E+02  0.00000000000E+00 0.  1.
         11    1    1    2    0    0 -0.90592073501E+02 -0.48233108351E+02  0.77996849971E+02  0.12890642004E+03  0.00000000000E+00 0. -1.
<mgrwt>
<rscale>  0 0.19733146E+03</rscale>
<asrwt>0</asrwt>
<pdfrwt beam="1">  1        1 0.51213551E-01 0.20277692E+03</pdfrwt>
<pdfrwt beam="2">  1       -1 0.17857584E-01 0.20277692E+03</pdfrwt>
<totfact> 0.18462356E+03</totfact>
</mgrwt>
</event>
<event>
 6    1  0.9240440E-006  0.1478830E+03  0.7546771E-02  0.1212596E+00
         -2   -1    0    0    0  501 -0.00000000000E+00  0.00000000000E+00  0.26081598211E+02  0.26081598211E+02  0.00000000000E+00 0.  1.
          2   -1    0    0  501    0  0.00000000000E+00 -0.00000000000E+00 -0.11050189623E+04  0.11050189623E+04  0.00000000000E+00 0. -1.
          5    1    1    2  502    0  0.50220327169E+02 -0.52867970716E+02 -0.40645545891E+03  0.41297122620E+03  0.47000000000E+01 0. -1.
         -5    1    1    2    0  502 -0.69904459069E+02 -0.23665570218E+02 -0.51221733637E+03  0.51752814637E+03  0.47000000000E+01 0. -1.
        -11    1    1    2    0    0 -0.60271729058E+01  0.59940930448E+02 -0.30975392508E+02  0.67740068624E+02  0.00000000000E+00 0.  1.
         11    1    1    2    0    0  0.25711304806E+02  0.16592610486E+02 -0.12928917630E+03  0.13286111932E+03  0.00000000000E+00 0. -1.
<mgrwt>
<rscale>  0 0.14054626E+03</rscale>
<asrwt>0</asrwt>
<pdfrwt beam="2">  1        2 0.17000292E+00 0.14788299E+03</pdfrwt>
<pdfrwt beam="1">  1       -2 0.40125535E-02 0.14788299E+03</pdfrwt>
<totfact> 0.60731729E+03</totfact>
</mgrwt>
</event>
<event>
 6    1  0.9240440E-006  0.1301466E+03  0.7546771E-02  0.1239655E+00
          1   -1    0    0  501    0  0.00000000000E+00  0.00000000000E+00  0.38886082436E+03  0.38886082436E+03  0.00000000000E+00 0. -1.
         -1   -1    0    0    0  501 -0.00000000000E+00 -0.00000000000E+00 -0.35376332284E+02  0.35376332284E+02  0.00000000000E+00 0.  1.
          5    1    1    2  502    0  0.62507861535E+02  0.47746589289E+02  0.19099077486E+03  0.20660720129E+03  0.47000000000E+01 0.  1.
         -5    1    1    2    0  502 -0.30261815768E+02 -0.31200229958E+02  0.44061003173E+02  0.62070072044E+02  0.47000000000E+01 0.  1.
        -11    1    1    2    0    0  0.16999507999E+02 -0.40125868525E+02  0.35209187278E+02  0.56024596972E+02  0.00000000000E+00 0.  1.
         11    1    1    2    0    0 -0.49245553766E+02  0.23579509194E+02  0.83223526766E+02  0.99535286341E+02  0.00000000000E+00 0. -1.
<mgrwt>
<rscale>  0 0.12211063E+03</rscale>
<asrwt>0</asrwt>
<pdfrwt beam="1">  1        1 0.59824739E-01 0.13014661E+03</pdfrwt>
<pdfrwt beam="2">  1       -1 0.54425129E-02 0.13014661E+03</pdfrwt>
<totfact> 0.92199078E+03</totfact>
</mgrwt>
</event>
<event>
 6    1  0.9240440E-006  0.1511552E+03  0.7546771E-02  0.1206940E+00
         -2   -1    0    0    0  501 -0.00000000000E+00  0.00000000000E+00  0.35857439438E+02  0.35857439438E+02  0.00000000000E+00 0.  1.
          2   -1    0    0  501    0  0.00000000000E+00 -0.00000000000E+00 -0.59851355443E+03  0.59851355443E+03  0.00000000000E+00 0. -1.
          5    1    1    2  502    0  0.54942968856E+02  0.61630314260E+02 -0.17492891184E+03  0.19349222119E+03  0.47000000000E+01 0.  1.
         -5    1    1    2    0  502  0.29903048451E+02 -0.56820887543E+02 -0.22572128121E+03  0.23472322501E+03  0.47000000000E+01 0.  1.
        -11    1    1    2    0    0 -0.10224619702E+03 -0.18958871604E+02 -0.14265700280E+03  0.17653539040E+03  0.00000000000E+00 0.  1.
         11    1    1    2    0    0  0.17400179709E+02  0.14149444887E+02 -0.19348919137E+02  0.29620157263E+02  0.00000000000E+00 0. -1.
<mgrwt>
<rscale>  0 0.14485649E+03</rscale>
<asrwt>0</asrwt>
<pdfrwt beam="2">  1        2 0.92078999E-01 0.15115519E+03</pdfrwt>
<pdfrwt beam="1">  1       -2 0.55165297E-02 0.15115519E+03</pdfrwt>
<totfact> 0.82212875E+03</totfact>
</mgrwt>
</event>
<event>
 6    1  0.9240440E-006  0.1519387E+03  0.7546771E-02  0.1206818E+00
         -2   -1    0    0    0  501 -0.00000000000E+00  0.00000000000E+00  0.13745810030E+03  0.13745810030E+03  0.00000000000E+00 0.  1.
          2   -1    0    0  501    0  0.00000000000E+00 -0.00000000000E+00 -0.15407651870E+03  0.15407651870E+03  0.00000000000E+00 0. -1.
          5    1    1    2  502    0 -0.17507917453E+02  0.80476210183E+02  0.21079738007E+02  0.85143366937E+02  0.47000000000E+01 0.  1.
         -5    1    1    2    0  502  0.16159099335E+02  0.58875617255E+01 -0.73426402137E+02  0.75559952390E+02  0.47000000000E+01 0.  1.
        -11    1    1    2    0    0 -0.66253611080E+01 -0.67896913576E+02 -0.20402675738E+02  0.71205024122E+02  0.00000000000E+00 0. -1.
         11    1    1    2    0    0  0.79741792262E+01 -0.18466858333E+02  0.56130921473E+02  0.59626275554E+02  0.00000000000E+00 0.  1.
<mgrwt>
<rscale>  0 0.14495123E+03</rscale>
<asrwt>0</asrwt>
<pdfrwt beam="2">  1        2 0.23704080E-01 0.15193875E+03</pdfrwt>
<pdfrwt beam="1">  1       -2 0.21147400E-01 0.15193875E+03</pdfrwt>
<totfact> 0.42052651E+03</totfact>
</mgrwt>
</event>
<event>
 6    1  0.9240440E-006  0.1561126E+03  0.7546771E-02  0.1201889E+00
          1   -1    0    0  501    0  0.00000000000E+00  0.00000000000E+00  0.84087209313E+03  0.84087209313E+03  0.00000000000E+00 0. -1.
         -1   -1    0    0    0  501 -0.00000000000E+00 -0.00000000000E+00 -0.25590244175E+02  0.25590244175E+02  0.00000000000E+00 0.  1.
          5    1    1    2  502    0 -0.79387360803E+01  0.19553706496E+02  0.38633987940E+03  0.38694439314E+03  0.47000000000E+01 0.  1.
         -5    1    1    2    0  502  0.65685455569E+02  0.53851565164E+02  0.15932823985E+03  0.18061602409E+03  0.47000000000E+01 0.  1.
        -11    1    1    2    0    0 -0.22144613627E+02 -0.78552226917E+02  0.12068525529E+03  0.14569065554E+03  0.00000000000E+00 0.  1.
         11    1    1    2    0    0 -0.35602105862E+02  0.51469552565E+01  0.14892847440E+03  0.15321126453E+03  0.00000000000E+00 0. -1.
<mgrwt>
<rscale>  0 0.14885305E+03</rscale>
<asrwt>0</asrwt>
<pdfrwt beam="1">  1        1 0.12936492E+00 0.15611256E+03</pdfrwt>
<pdfrwt beam="2">  1       -1 0.39369613E-02 0.15611256E+03</pdfrwt>
<totfact> 0.52477348E+03</totfact>
</mgrwt>
</event>
<event>
 6    1  0.9240440E-006  0.1470660E+03  0.7546771E-02  0.1212838E+00
          2   -1    0    0  501    0  0.00000000000E+00  0.00000000000E+00  0.63142875970E+03  0.63142875970E+03  0.00000000000E+00 0. -1.
         -2   -1    0    0    0  501 -0.00000000000E+00 -0.00000000000E+00 -0.31937246956E+02  0.31937246956E+02  0.00000000000E+00 0.  1.
          5    1    1    2  502    0 -0.12701479515E+02 -0.20449273269E+02  0.28196811775E+03  0.28303287757E+03  0.47000000000E+01 0. -1.
         -5    1    1    2    0  502 -0.41639837840E+02  0.75679356205E+02  0.14844117470E+03  0.17180836242E+03  0.47000000000E+01 0. -1.
        -11    1    1    2    0    0  0.30529976982E+02 -0.72591489582E+02  0.70722616891E+02  0.10584560640E+03  0.00000000000E+00 0.  1.
         11    1    1    2    0    0  0.23811340373E+02  0.17361406646E+02  0.98359603409E+02  0.10267916027E+03  0.00000000000E+00 0. -1.
<mgrwt>
<rscale>  0 0.14036529E+03</rscale>
<asrwt>0</asrwt>
<pdfrwt beam="1">  1        2 0.97142877E-01 0.14706595E+03</pdfrwt>
<pdfrwt beam="2">  1       -2 0.49134231E-02 0.14706595E+03</pdfrwt>
<totfact> 0.91904693E+03</totfact>
</mgrwt>
</event>
<event>
 6    1  0.9240440E-006  0.1338564E+03  0.7546771E-02  0.1240559E+00
         -1   -1    0    0    0  501 -0.00000000000E+00  0.00000000000E+00  0.42929195526E+03  0.42929195526E+03  0.00000000000E+00 0.  1.
          1   -1    0    0  501    0  0.00000000000E+00 -0.00000000000E+00 -0.30145877883E+02  0.30145877883E+02  0.00000000000E+00 0. -1.
          5    1    1    2  502    0 -0.49168829413E+02 -0.41844523277E+02  0.44053713873E+02  0.78302986023E+02  0.47000000000E+01 0. -1.
         -5    1    1    2    0  502  0.28997971313E+02  0.32802106897E+02  0.15835442979E+03  0.16436263563E+03  0.47000000000E+01 0.  1.
        -11    1    1    2    0    0  0.39076999323E+02 -0.26953677537E+02  0.13250924632E+03  0.14075586300E+03  0.00000000000E+00 0.  1.
         11    1    1    2    0    0 -0.18906141224E+02  0.35996093917E+02  0.64228687394E+02  0.76016348489E+02  0.00000000000E+00 0. -1.
<mgrwt>
<rscale>  0 0.12155195E+03</rscale>
<asrwt>0</asrwt>
<pdfrwt beam="2">  1        1 0.46378277E-02 0.13385644E+03</pdfrwt>
<pdfrwt beam="1">  1       -1 0.66044912E-01 0.13385644E+03</pdfrwt>
<totfact> 0.42577621E+03</totfact>
</mgrwt>
</event>
<event>
 6    1  0.9240440E-006  0.1482393E+03  0.7546771E-02  0.1227321E+00
          2   -1    0    0  501    0  0.00000000000E+00  0.00000000000E+00  0.64093784369E+03  0.64093784369E+03  0.00000000000E+00 0. -1.
         -2   -1    0    0    0  501 -0.00000000000E+00 -0.00000000000E+00 -0.21797144008E+02  0.21797144008E+02  0.00000000000E+00 0.  1.
          5    1    1    2  502    0  0.21695359083E+02 -0.48220540068E+02  0.24390213796E+03  0.24961220321E+03  0.47000000000E+01 0. -1.
         -5    1    1    2    0  502 -0.54420899093E+02  0.63421985989E+02  0.15882561767E+03  0.17953175038E+03  0.47000000000E+01 0.  1.
        -11    1    1    2    0    0  0.54380974150E+02  0.14540007574E+01  0.18017674382E+03  0.18821015776E+03  0.00000000000E+00 0.  1.
         11    1    1    2    0    0 -0.21655434140E+02 -0.16655446679E+02  0.36236200229E+02  0.45380876356E+02  0.00000000000E+00 0. -1.
<mgrwt>
<rscale>  0 0.13009075E+03</rscale>
<asrwt>0</asrwt>
<pdfrwt beam="1">  1        2 0.98605808E-01 0.14823929E+03</pdfrwt>
<pdfrwt beam="2">  1       -2 0.33534072E-02 0.14823929E+03</pdfrwt>
<totfact> 0.15970235E+04</totfact>
</mgrwt>
</event>
<event>
 6    1  0.9240440E-006  0.1138356E+03  0.7546771E-02  0.1338556E+00
          2   -1    0    0  501    0  0.00000000000E+00  0.00000000000E+00  0.85289893086E+03  0.85289893086E+03  0.00000000000E+00 0. -1.
         -2   -1    0    0    0  501 -0.00000000000E+00 -0.00000000000E+00 -0.21366513816E+02  0.21366513816E+02  0.00000000000E+00 0.  1.
          5    1    1    2  502    0 -0.34184126256E+02  0.34706895396E+02  0.48801571377E+03  0.49046360717E+03  0.47000000000E+01 0. -1.
         -5    1    1    2    0  502  0.24501143143E+02 -0.55603213584E+02  0.35316548312E+03  0.35838522828E+03  0.47000000000E+01 0.  1.
        -11    1    1    2    0    0  0.52584762520E+01  0.85956173626E+01 -0.20064899542E+01  0.10274347292E+02  0.00000000000E+00 0. -1.
         11    1    1    2    0    0  0.44245068609E+01  0.12300700825E+02 -0.76422898924E+01  0.15142261937E+02  0.00000000000E+00 0.  1.
<mgrwt>
<rscale>  0 0.76743189E+02</rscale>
<asrwt>0</asrwt>
<pdfrwt beam="1">  1        2 0.13121519E+00 0.11383558E+03</pdfrwt>
<pdfrwt beam="2">  1       -2 0.32871566E-02 0.11383558E+03</pdfrwt>
<totfact> 0.11427724E+04</totfact>
</mgrwt>
</event>
<event>
 6    1  0.9240440E-006  0.1356454E+03  0.7546771E-02  0.1233442E+00
         -1   -1    0    0    0  501 -0.00000000000E+00  0.00000000000E+00  0.94027538520E+03  0.94027538520E+03  0.00000000000E+00 0.  1.
          1   -1    0    0  501    0  0.00000000000E+00 -0.00000000000E+00 -0.15394823630E+02  0.15394823630E+02  0.00000000000E+00 0. -1.
          5    1    1    2  502    0  0.37352114324E+02 -0.79543016920E+00  0.25327477733E+02  0.45380439420E+02  0.47000000000E+01 0. -1.
         -5    1    1    2    0  502  0.21797044539E+01 -0.12748470038E+02  0.41818927420E+03  0.41841562310E+03  0.47000000000E+01 0.  1.
        -11    1    1    2    0    0 -0.57261605715E+02 -0.20985949957E+02  0.25385510213E+03  0.26107798540E+03  0.00000000000E+00 0.  1.
         11    1    1    2    0    0  0.17729786937E+02  0.34529850164E+02  0.22750870751E+03  0.23079616091E+03  0.00000000000E+00 0. -1.
<mgrwt>
<rscale>  0 0.12604723E+03</rscale>
<asrwt>0</asrwt>
<pdfrwt beam="2">  1        1 0.23684351E-02 0.13564541E+03</pdfrwt>
<pdfrwt beam="1">  1       -1 0.14465771E+00 0.13564541E+03</pdfrwt>
<totfact> 0.19198215E+03</totfact>
</mgrwt>
</event>
<event>
 6    1  0.9240440E-006  0.1654665E+03  0.7546771E-02  0.1191369E+00
         -2   -1    0    0    0  501 -0.00000000000E+00  0.00000000000E+00  0.43726308350E+03  0.43726308350E+03  0.00000000000E+00 0.  1.
          2   -1    0    0  501    0  0.00000000000E+00 -0.00000000000E+00 -0.59507173178E+02  0.59507173178E+02  0.00000000000E+00 0. -1.
          5    1    1    2  502    0  0.10419504440E+03  0.50259814875E+01  0.10067282686E+03  0.14504818453E+03  0.47000000000E+01 0.  1.
         -5    1    1    2    0  502 -0.13008839908E+02  0.53629225307E+02  0.16793808998E+02  0.57874396269E+02  0.47000000000E+01 0.  1.
        -11    1    1    2    0    0 -0.60728887501E+02 -0.19524381775E+02  0.60219666996E+02  0.87724612019E+02  0.00000000000E+00 0. -1.
         11    1    1    2    0    0 -0.30457316986E+02 -0.39130825019E+02  0.20006960747E+03  0.20612306386E+03  0.00000000000E+00 0.  1.
<mgrwt>
<rscale>  0 0.15765577E+03</rscale>
<asrwt>0</asrwt>
<pdfrwt beam="2">  1        2 0.91549500E-02 0.16546650E+03</pdfrwt>
<pdfrwt beam="1">  1       -2 0.67271241E-01 0.16546650E+03</pdfrwt>
<totfact> 0.14564949E+03</totfact>
</mgrwt>
</event>
<event>
 6    1  0.9240440E-006  0.3536914E+03  0.7546771E-02  0.1067454E+00
          1   -1    0    0  501    0  0.00000000000E+00  0.00000000000E+00  0.13633049427E+04  0.13633049427E+04  0.00000000000E+00 0. -1.
         -1   -1    0    0    0  501 -0.00000000000E+00 -0.00000000000E+00 -0.11146816512E+03  0.11146816512E+03  0.00000000000E+00 0.  1.
          5    1    1    2  502    0  0.11511860511E+03  0.10486357503E+03  0.64860781432E+03  0.66705535708E+03  0.47000000000E+01 0. -1.
         -5    1    1    2    0  502 -0.63399133372E+02  0.17285337693E+03  0.42125301404E+03  0.45975420810E+03  0.47000000000E+01 0.  1.
        -11    1    1    2    0    0 -0.39430578786E+02 -0.13667393803E+03  0.40700522790E+02  0.14795630583E+03  0.00000000000E+00 0.  1.
         11    1    1    2    0    0 -0.12288892950E+02 -0.14104301393E+03  0.14127542646E+03  0.20000723684E+03  0.00000000000E+00 0. -1.
<mgrwt>
<rscale>  0 0.33845903E+03</rscale>
<asrwt>0</asrwt>
<pdfrwt beam="1">  1        1 0.20973921E+00 0.35369140E+03</pdfrwt>
<pdfrwt beam="2">  1       -1 0.17148949E-01 0.35369140E+03</pdfrwt>
<totfact> 0.22744316E+02</totfact>
</mgrwt>
</event>
<event>
 6    1  0.9240440E-006  0.1378941E+03  0.7546771E-02  0.1227932E+00
          2   -1    0    0  501    0  0.00000000000E+00  0.00000000000E+00  0.14995337138E+04  0.14995337138E+04  0.00000000000E+00 0. -1.
         -2   -1    0    0    0  501 -0.00000000000E+00 -0.00000000000E+00 -0.10856616480E+02  0.10856616480E+02  0.00000000000E+00 0.  1.
          5    1    1    2  502    0 -0.35009838537E+02  0.79538149942E+02  0.64120187442E+03  0.64708109217E+03  0.47000000000E+01 0. -1.
         -5    1    1    2    0  502  0.45493599821E+02 -0.22203864555E+02  0.38953872143E+03  0.39284244262E+03  0.47000000000E+01 0. -1.
        -11    1    1    2    0    0 -0.10009947286E+01  0.17799570759E+02  0.23595286681E+02  0.29573032702E+02  0.00000000000E+00 0.  1.
         11    1    1    2    0    0 -0.94827665562E+01 -0.75133856146E+02  0.43434121479E+03  0.44089376279E+03  0.00000000000E+00 0. -1.
<mgrwt>
<rscale>  0 0.12967955E+03</rscale>
<asrwt>0</asrwt>
<pdfrwt beam="1">  1        2 0.23069733E+00 0.13789410E+03</pdfrwt>
<pdfrwt beam="2">  1       -2 0.16702499E-02 0.13789410E+03</pdfrwt>
<totfact> 0.13363566E+04</totfact>
</mgrwt>
</event>
<event>
 6    1  0.9240440E-006  0.3431376E+03  0.7546771E-02  0.1065467E+00
          2   -1    0    0  501    0  0.00000000000E+00  0.00000000000E+00  0.45969981837E+03  0.45969981837E+03  0.00000000000E+00 0.  1.
         -2   -1    0    0    0  501 -0.00000000000E+00 -0.00000000000E+00 -0.64032766187E+02  0.64032766187E+02  0.00000000000E+00 0. -1.
          5    1    1    2  502    0 -0.22881884577E+02 -0.15644887369E+02  0.10652897966E+03  0.11017647957E+03  0.47000000000E+01 0. -1.
         -5    1    1    2    0  502  0.74225013201E+02 -0.99666067286E+02  0.82525704655E+02  0.14924898486E+03  0.47000000000E+01 0. -1.
        -11    1    1    2    0    0 -0.13664906350E+02  0.39625310443E+02  0.16468651448E+03  0.16993687929E+03  0.00000000000E+00 0.  1.
         11    1    1    2    0    0 -0.37678222273E+02  0.75685644212E+02  0.41925853395E+02  0.94370240841E+02  0.00000000000E+00 0. -1.
<mgrwt>
<rscale>  0 0.34313759E+03</rscale>
<asrwt>0</asrwt>
<pdfrwt beam="1">  1        2 0.70723047E-01 0.34313759E+03</pdfrwt>
<pdfrwt beam="2">  1       -2 0.98511951E-02 0.34313759E+03</pdfrwt>
<totfact> 0.46651560E+03</totfact>
</mgrwt>
</event>
<event>
 6    1  0.9240440E-006  0.1293065E+03  0.7546771E-02  0.1245619E+00
          4   -1    0    0  501    0  0.00000000000E+00  0.00000000000E+00  0.10091064738E+03  0.10091064738E+03  0.00000000000E+00 0. -1.
         -4   -1    0    0    0  501 -0.00000000000E+00 -0.00000000000E+00 -0.12277583192E+03  0.12277583192E+03  0.00000000000E+00 0.  1.
          5    1    1    2  502    0 -0.27492261707E+02  0.38618962265E+02 -0.52836824455E+02  0.71141188624E+02  0.47000000000E+01 0.  1.
         -5    1    1    2    0  502  0.22826556240E+01 -0.17205704517E+02  0.55341603073E+02  0.58189602296E+02  0.47000000000E+01 0.  1.
        -11    1    1    2    0    0  0.24042719296E+02 -0.44932778656E+02  0.10739680310E+02  0.52080204321E+02  0.00000000000E+00 0. -1.
         11    1    1    2    0    0  0.11668867873E+01  0.23519520908E+02 -0.35109643467E+02  0.42275484065E+02  0.00000000000E+00 0.  1.
<mgrwt>
<rscale>  0 0.11848397E+03</rscale>
<asrwt>0</asrwt>
<pdfrwt beam="1">  1        4 0.15524715E-01 0.12930653E+03</pdfrwt>
<pdfrwt beam="2">  1       -4 0.18888590E-01 0.12930653E+03</pdfrwt>
<totfact> 0.14457860E+03</totfact>
</mgrwt>
</event>
<event>
 6    1  0.9240440E-006  0.2833906E+03  0.7546771E-02  0.1095768E+00
         -2   -1    0    0    0  501 -0.00000000000E+00  0.00000000000E+00  0.14843492984E+03  0.14843492984E+03  0.00000000000E+00 0. -1.
          2   -1    0    0  501    0  0.00000000000E+00 -0.00000000000E+00 -0.54888778666E+03  0.54888778666E+03  0.00000000000E+00 0.  1.
          5    1    1    2  502    0  0.81694488561E+01  0.63605211010E+02 -0.16752018907E+03  0.17943652501E+03  0.47000000000E+01 0. -1.
         -5    1    1    2    0  502  0.14297920449E+02  0.18973280468E+03 -0.12418281160E+03  0.22725850566E+03  0.47000000000E+01 0. -1.
        -11    1    1    2    0    0 -0.49542924618E+02 -0.11082495574E+03 -0.27912974766E+02  0.12456245965E+03  0.00000000000E+00 0.  1.
         11    1    1    2    0    0  0.27075555312E+02 -0.14251305995E+03 -0.80836881398E+02  0.16606522618E+03  0.00000000000E+00 0. -1.
<mgrwt>
<rscale>  0 0.27985589E+03</rscale>
<asrwt>0</asrwt>
<pdfrwt beam="2">  1        2 0.84444276E-01 0.28339056E+03</pdfrwt>
<pdfrwt beam="1">  1       -2 0.22836143E-01 0.28339056E+03</pdfrwt>
<totfact> 0.93577975E+02</totfact>
</mgrwt>
</event>
<event>
 6    1  0.9240440E-006  0.2730889E+03  0.7546771E-02  0.1099525E+00
          2   -1    0    0  501    0  0.00000000000E+00  0.00000000000E+00  0.18242900905E+03  0.18242900905E+03  0.00000000000E+00 0. -1.
         -2   -1    0    0    0  501 -0.00000000000E+00 -0.00000000000E+00 -0.10220077448E+03  0.10220077448E+03  0.00000000000E+00 0.  1.
          5    1    1    2  502    0 -0.21254147204E+02  0.20997797385E+02  0.64413035667E+02  0.71160209614E+02  0.47000000000E+01 0. -1.
         -5    1    1    2    0  502  0.64136776013E+02 -0.35242458822E+02 -0.69168844626E+01  0.73657927148E+02  0.47000000000E+01 0. -1.
        -11    1    1    2    0    0  0.57325753977E+00  0.50965206939E+02 -0.32556666096E+02  0.60479066212E+02  0.00000000000E+00 0.  1.
         11    1    1    2    0    0 -0.43455886348E+02 -0.36720545503E+02  0.55288749462E+02  0.79332580554E+02  0.00000000000E+00 0. -1.
<mgrwt>
<rscale>  0 0.27308889E+03</rscale>
<asrwt>0</asrwt>
<pdfrwt beam="1">  1        2 0.28066001E-01 0.27308889E+03</pdfrwt>
<pdfrwt beam="2">  1       -2 0.15723196E-01 0.27308889E+03</pdfrwt>
<totfact> 0.59297029E+03</totfact>
</mgrwt>
</event>
<event>
 6    1  0.9240440E-006  0.1254929E+03  0.7546771E-02  0.1249174E+00
          3   -1    0    0  501    0  0.00000000000E+00  0.00000000000E+00  0.12423693530E+03  0.12423693530E+03  0.00000000000E+00 0. -1.
         -3   -1    0    0    0  501 -0.00000000000E+00 -0.00000000000E+00 -0.12461381236E+03  0.12461381236E+03  0.00000000000E+00 0.  1.
          5    1    1    2  502    0  0.46333131177E+02  0.42899416127E+02  0.50947077255E+02  0.81270004488E+02  0.47000000000E+01 0. -1.
         -5    1    1    2    0  502 -0.35273619715E+02 -0.44298785901E+02  0.80146415180E+01  0.57384101969E+02  0.47000000000E+01 0. -1.
        -11    1    1    2    0    0 -0.25552122978E+02 -0.40319912815E+02 -0.38679861692E+02  0.61438896952E+02  0.00000000000E+00 0. -1.
         11    1    1    2    0    0  0.14492611517E+02  0.41719282589E+02 -0.20658734134E+02  0.48757744250E+02  0.00000000000E+00 0.  1.
<mgrwt>
<rscale>  0 0.11639033E+03</rscale>
<asrwt>0</asrwt>
<pdfrwt beam="1">  1        3 0.19113375E-01 0.12549294E+03</pdfrwt>
<pdfrwt beam="2">  1       -3 0.19171356E-01 0.12549294E+03</pdfrwt>
<totfact> 0.13352471E+03</totfact>
</mgrwt>
</event>
<event>
 6    1  0.9240440E-006  0.3242834E+03  0.7546771E-02  0.1073695E+00
          3   -1    0    0  501    0  0.00000000000E+00  0.00000000000E+00  0.22912472539E+03  0.22912472539E+03  0.00000000000E+00 0. -1.
         -3   -1    0    0    0  501 -0.00000000000E+00 -0.00000000000E+00 -0.11474068803E+03  0.11474068803E+03  0.00000000000E+00 0.  1.
          5    1    1    2  502    0 -0.42022896275E+02  0.55769570816E+02  0.17220679042E+03  0.18588554949E+03  0.47000000000E+01 0. -1.
         -5    1    1    2    0  502 -0.21146263691E+02 -0.90662725761E+00 -0.18991329285E+02  0.28822682545E+02  0.47000000000E+01 0. -1.
        -11    1    1    2    0    0  0.28014437852E+02 -0.39191785107E+02  0.25260789687E+02  0.54395884437E+02  0.00000000000E+00 0. -1.
         11    1    1    2    0    0  0.35154722114E+02 -0.15671158452E+02 -0.64092213471E+02  0.74761296951E+02  0.00000000000E+00 0.  1.
<mgrwt>
<rscale>  0 0.32428339E+03</rscale>
<asrwt>0</asrwt>
<pdfrwt beam="1">  1        3 0.35249958E-01 0.32428339E+03</pdfrwt>
<pdfrwt beam="2">  1       -3 0.17652414E-01 0.32428339E+03</pdfrwt>
<totfact> 0.57136033E+02</totfact>
</mgrwt>
</event>
<event>
 6    1  0.9240440E-006  0.1401999E+03  0.7546771E-02  0.1225218E+00
         -2   -1    0    0    0  501 -0.00000000000E+00  0.00000000000E+00  0.15569666657E+02  0.15569666657E+02  0.00000000000E+00 0.  1.
          2   -1    0    0  501    0  0.00000000000E+00 -0.00000000000E+00 -0.99486935674E+03  0.99486935674E+03  0.00000000000E+00 0. -1.
          5    1    1    2  502    0  0.76472389980E+02  0.19591970885E+01 -0.20833687467E+03  0.22198695509E+03  0.47000000000E+01 0.  1.
         -5    1    1    2    0  502 -0.29628758040E+02 -0.44799256507E+02 -0.32643003930E+03  0.33085268209E+03  0.47000000000E+01 0.  1.
        -11    1    1    2    0    0  0.18901100994E+02  0.35024203886E+02 -0.21743625497E+03  0.22104857260E+03  0.00000000000E+00 0. -1.
         11    1    1    2    0    0 -0.65744732934E+02  0.78158555329E+01 -0.22709652115E+03  0.23655081362E+03  0.00000000000E+00 0.  1.
<mgrwt>
<rscale>  0 0.13151943E+03</rscale>
<asrwt>0</asrwt>
<pdfrwt beam="2">  1        2 0.15305684E+00 0.14019990E+03</pdfrwt>
<pdfrwt beam="1">  1       -2 0.23953332E-02 0.14019990E+03</pdfrwt>
<totfact> 0.15032209E+04</totfact>
</mgrwt>
</event>
<event>
 6    1  0.1028151E-005  0.4009733E+03  0.7546771E-02  0.1044272E+00
          1   -1    0    0  501    0  0.00000000000E+00  0.00000000000E+00  0.54392230120E+03  0.54392230120E+03  0.00000000000E+00 0. -1.
         -1   -1    0    0    0  501 -0.00000000000E+00 -0.00000000000E+00 -0.28874027375E+03  0.28874027375E+03  0.00000000000E+00 0.  1.
          5    1    1    2  502    0 -0.29528873708E+03  0.16866688743E+03  0.16038802031E+03  0.37601910087E+03  0.47000000000E+01 0. -1.
         -5    1    1    2    0  502 -0.37081445626E+02  0.17570435070E+02 -0.23691809466E+02  0.47614552755E+02  0.47000000000E+01 0. -1.
        -11    1    1    2    0    0  0.20043119857E+03 -0.11338609553E+03  0.24903622053E+02  0.23162310423E+03  0.00000000000E+00 0.  1.
         11    1    1    2    0    0  0.13193898413E+03 -0.72851226966E+02  0.93582194559E+02  0.17740581711E+03  0.00000000000E+00 0. -1.
<mgrwt>
<rscale>  0 0.39858162E+03</rscale>
<asrwt>0</asrwt>
<pdfrwt beam="1">  1        1 0.83680354E-01 0.40097334E+03</pdfrwt>
<pdfrwt beam="2">  1       -1 0.44421581E-01 0.40097334E+03</pdfrwt>
<totfact> 0.20503755E+02</totfact>
</mgrwt>
</event>
<event>
 6    1  0.9240440E-006  0.1599355E+03  0.7546771E-02  0.1201043E+00
          2   -1    0    0  501    0  0.00000000000E+00  0.00000000000E+00  0.21138975494E+04  0.21138975494E+04  0.00000000000E+00 0. -1.
         -2   -1    0    0    0  501 -0.00000000000E+00 -0.00000000000E+00 -0.11470022821E+02  0.11470022821E+02  0.00000000000E+00 0.  1.
          5    1    1    2  502    0  0.20746175364E+01 -0.14749216962E+02  0.13302491736E+04  0.13303408575E+04  0.47000000000E+01 0. -1.
         -5    1    1    2    0  502  0.27882171687E+02 -0.60682578757E+02  0.28272248880E+03  0.29054067965E+03  0.47000000000E+01 0.  1.
        -11    1    1    2    0    0  0.32108954293E+02  0.16781235520E+02  0.16967552379E+03  0.17350036941E+03  0.00000000000E+00 0.  1.
         11    1    1    2    0    0 -0.62065743517E+02  0.58650560198E+02  0.31978034046E+03  0.33098566567E+03  0.00000000000E+00 0. -1.
<mgrwt>
<rscale>  0 0.14953723E+03</rscale>
<asrwt>0</asrwt>
<pdfrwt beam="1">  1        2 0.32521470E+00 0.15993553E+03</pdfrwt>
<pdfrwt beam="2">  1       -2 0.17646206E-02 0.15993553E+03</pdfrwt>
<totfact> 0.59825836E+03</totfact>
</mgrwt>
</event>
<event>
 6    1  0.9240440E-006  0.1448703E+03  0.7546771E-02  0.1217136E+00
          2   -1    0    0  501    0  0.00000000000E+00  0.00000000000E+00  0.10221272758E+03  0.10221272758E+03  0.00000000000E+00 0. -1.
         -2   -1    0    0    0  501 -0.00000000000E+00 -0.00000000000E+00 -0.21731149735E+03  0.21731149735E+03  0.00000000000E+00 0.  1.
          5    1    1    2  502    0 -0.60254203038E+02 -0.27559498131E+02 -0.44676452343E+02  0.80051048182E+02  0.47000000000E+01 0.  1.
         -5    1    1    2    0  502 -0.12947990065E+02  0.25528669120E+02  0.58725181192E+02  0.65498857240E+02  0.47000000000E+01 0.  1.
        -11    1    1    2    0    0 -0.13704648565E+02 -0.36505584985E+01 -0.63089698260E+02  0.64664163152E+02  0.00000000000E+00 0.  1.
         11    1    1    2    0    0  0.86906841668E+02  0.56813875089E+01 -0.66057800359E+02  0.10931015635E+03  0.00000000000E+00 0. -1.
<mgrwt>
<rscale>  0 0.13720785E+03</rscale>
<asrwt>0</asrwt>
<pdfrwt beam="1">  1        2 0.15725035E-01 0.14487032E+03</pdfrwt>
<pdfrwt beam="2">  1       -2 0.33432538E-01 0.14487032E+03</pdfrwt>
<totfact> 0.29778070E+03</totfact>
</mgrwt>
</event>
<event>
 6    1  0.9240440E-006  0.3480069E+03  0.7546771E-02  0.1063436E+00
         -1   -1    0    0    0  501 -0.00000000000E+00  0.00000000000E+00  0.77949022201E+03  0.77949022201E+03  0.00000000000E+00 0.  1.
          1   -1    0    0  501    0  0.00000000000E+00 -0.00000000000E+00 -0.38842307609E+02  0.38842307609E+02  0.00000000000E+00 0. -1.
          5    1    1    2  502    0  0.20349940206E+02 -0.14227874501E+02  0.94791507635E+02  0.98102356745E+02  0.47000000000E+01 0.  1.
         -5    1    1    2    0  502 -0.14736270264E+03 -0.22520318417E+02  0.22807161704E+03  0.27250996931E+03  0.47000000000E+01 0.  1.
        -11    1    1    2    0    0  0.91687846886E+02  0.49268901724E+01  0.36633327745E+03  0.37766520317E+03  0.00000000000E+00 0.  1.
         11    1    1    2    0    0  0.35324915543E+02  0.31821302745E+02  0.51451512269E+02  0.70055000402E+02  0.00000000000E+00 0. -1.
<mgrwt>
<rscale>  0 0.34800689E+03</rscale>
<asrwt>0</asrwt>
<pdfrwt beam="2">  1        1 0.59757402E-02 0.34800689E+03</pdfrwt>
<pdfrwt beam="1">  1       -1 0.11992156E+00 0.34800689E+03</pdfrwt>
<totfact> 0.86283427E+02</totfact>
</mgrwt>
</event>
<event>
 6    1  0.9240440E-006  0.2362803E+03  0.7546771E-02  0.1122296E+00
          1   -1    0    0  501    0  0.00000000000E+00  0.00000000000E+00  0.17506244825E+03  0.17506244825E+03  0.00000000000E+00 0. -1.
         -1   -1    0    0    0  501 -0.00000000000E+00 -0.00000000000E+00 -0.79726375005E+02  0.79726375005E+02  0.00000000000E+00 0.  1.
          5    1    1    2  502    0 -0.99898195925E+01 -0.14702923849E+02  0.79544544678E+02  0.81641882960E+02  0.47000000000E+01 0.  1.
         -5    1    1    2    0  502  0.21698642832E+02  0.61928805081E+02 -0.14596880755E+02  0.67388180917E+02  0.47000000000E+01 0.  1.
        -11    1    1    2    0    0 -0.37903921922E+02  0.63426759451E+01  0.25084539895E+02  0.45893038437E+02  0.00000000000E+00 0. -1.
         11    1    1    2    0    0  0.26195098683E+02 -0.53568557178E+02  0.53038694280E+01  0.59865720943E+02  0.00000000000E+00 0.  1.
<mgrwt>
<rscale>  0 0.23628029E+03</rscale>
<asrwt>0</asrwt>
<pdfrwt beam="1">  1        1 0.26932684E-01 0.23628029E+03</pdfrwt>
<pdfrwt beam="2">  1       -1 0.12265596E-01 0.23628029E+03</pdfrwt>
<totfact> 0.75605007E+03</totfact>
</mgrwt>
</event>
<event>
 6    1  0.9240440E-006  0.1308083E+03  0.7546771E-02  0.1240423E+00
          1   -1    0    0  501    0  0.00000000000E+00  0.00000000000E+00  0.37294004833E+02  0.37294004833E+02  0.00000000000E+00 0. -1.
         -1   -1    0    0    0  501 -0.00000000000E+00 -0.00000000000E+00 -0.44596965648E+03  0.44596965648E+03  0.00000000000E+00 0.  1.
          5    1    1    2  502    0 -0.26777557079E+02 -0.59058893768E+02 -0.12522938872E+03  0.14110095781E+03  0.47000000000E+01 0. -1.
         -5    1    1    2    0  502  0.20017449035E+02  0.25767497454E+02  0.86889073577E+01  0.34091777630E+02  0.47000000000E+01 0.  1.
        -11    1    1    2    0    0  0.45502846467E+02  0.29323207259E+02 -0.12094769893E+03  0.13250926532E+03  0.00000000000E+00 0.  1.
         11    1    1    2    0    0 -0.38742738422E+02  0.39681890551E+01 -0.17118747136E+03  0.17556166055E+03  0.00000000000E+00 0. -1.
<mgrwt>
<rscale>  0 0.12163557E+03</rscale>
<asrwt>0</asrwt>
<pdfrwt beam="1">  1        1 0.57375392E-02 0.13080830E+03</pdfrwt>
<pdfrwt beam="2">  1       -1 0.68610716E-01 0.13080830E+03</pdfrwt>
<totfact> 0.29524417E+03</totfact>
</mgrwt>
</event>
<event>
 6    1  0.9240440E-006  0.1730252E+03  0.7546771E-02  0.1180727E+00
          2   -1    0    0  501    0  0.00000000000E+00  0.00000000000E+00  0.45986058159E+03  0.45986058159E+03  0.00000000000E+00 0. -1.
         -2   -1    0    0    0  501 -0.00000000000E+00 -0.00000000000E+00 -0.82254025396E+02  0.82254025396E+02  0.00000000000E+00 0.  1.
          5    1    1    2  502    0  0.22275190419E+02  0.84435208759E+01  0.91980833450E+01  0.25964820242E+02  0.47000000000E+01 0.  1.
         -5    1    1    2    0  502 -0.98954860196E+02  0.83390103788E+02  0.33805827057E+03  0.36201030106E+03  0.47000000000E+01 0.  1.
        -11    1    1    2    0    0  0.53352680610E+02 -0.80599744481E+02 -0.18908938777E+02  0.98490483319E+02  0.00000000000E+00 0.  1.
         11    1    1    2    0    0  0.23326989167E+02 -0.11233880183E+02  0.49259141055E+02  0.55649002372E+02  0.00000000000E+00 0. -1.
<mgrwt>
<rscale>  0 0.16726840E+03</rscale>
<asrwt>0</asrwt>
<pdfrwt beam="1">  1        2 0.70747780E-01 0.17302520E+03</pdfrwt>
<pdfrwt beam="2">  1       -2 0.12654466E-01 0.17302520E+03</pdfrwt>
<totfact> 0.30440329E+03</totfact>
</mgrwt>
</event>
<event>
 6    1  0.9240440E-006  0.1438046E+03  0.7546771E-02  0.1218435E+00
         -2   -1    0    0    0  501 -0.00000000000E+00  0.00000000000E+00  0.40535336195E+02  0.40535336195E+02  0.00000000000E+00 0.  1.
          2   -1    0    0  501    0  0.00000000000E+00 -0.00000000000E+00 -0.45612562344E+03  0.45612562344E+03  0.00000000000E+00 0. -1.
          5    1    1    2  502    0  0.19895978231E+02 -0.22251425472E+02 -0.57995546315E+00  0.30222545122E+02  0.47000000000E+01 0.  1.
         -5    1    1    2    0  502  0.34445556681E+02 -0.23600867403E+02 -0.30065670417E+03  0.30357872303E+03  0.47000000000E+01 0.  1.
        -11    1    1    2    0    0 -0.77365867089E+02  0.28472539084E+02 -0.62243840845E+02  0.10329791186E+03  0.00000000000E+00 0.  1.
         11    1    1    2    0    0  0.23024332176E+02  0.17379753791E+02 -0.52109786777E+02  0.59561779623E+02  0.00000000000E+00 0. -1.
<mgrwt>
<rscale>  0 0.13627175E+03</rscale>
<asrwt>0</asrwt>
<pdfrwt beam="2">  1        2 0.70173176E-01 0.14380459E+03</pdfrwt>
<pdfrwt beam="1">  1       -2 0.62362053E-02 0.14380459E+03</pdfrwt>
<totfact> 0.92015263E+03</totfact>
</mgrwt>
</event>
<event>
 6    1  0.9240440E-006  0.3193055E+03  0.7546771E-02  0.1076634E+00
          1   -1    0    0  501    0  0.00000000000E+00  0.00000000000E+00  0.49256806888E+03  0.49256806888E+03  0.00000000000E+00 0. -1.
         -1   -1    0    0    0  501 -0.00000000000E+00 -0.00000000000E+00 -0.28205686929E+03  0.28205686929E+03  0.00000000000E+00 0.  1.
          5    1    1    2  502    0  0.34067964390E+02  0.16726988877E+03  0.23297352829E+03  0.28885739868E+03  0.47000000000E+01 0. -1.
         -5    1    1    2    0  502  0.80086787814E+02  0.10981634698E+03  0.77615638296E+02  0.15658799748E+03  0.47000000000E+01 0.  1.
        -11    1    1    2    0    0 -0.12690878989E+03 -0.27105989374E+03 -0.97922479356E+02  0.31490969961E+03  0.00000000000E+00 0.  1.
         11    1    1    2    0    0  0.12754037688E+02 -0.60263420079E+01 -0.21554876409E+01  0.14269842407E+02  0.00000000000E+00 0. -1.
<mgrwt>
<rscale>  0 0.31786887E+03</rscale>
<asrwt>0</asrwt>
<pdfrwt beam="1">  1        1 0.75779703E-01 0.31930545E+03</pdfrwt>
<pdfrwt beam="2">  1       -1 0.43393365E-01 0.31930545E+03</pdfrwt>
<totfact> 0.24661446E+02</totfact>
</mgrwt>
</event>
<event>
 6    1  0.9240440E-006  0.1394554E+03  0.7546771E-02  0.1225251E+00
          1   -1    0    0  501    0  0.00000000000E+00  0.00000000000E+00  0.67489729022E+03  0.67489729022E+03  0.00000000000E+00 0. -1.
         -1   -1    0    0    0  501 -0.00000000000E+00 -0.00000000000E+00 -0.26210078713E+02  0.26210078713E+02  0.00000000000E+00 0.  1.
          5    1    1    2  502    0  0.42789194002E+02  0.54098351858E+01  0.53469132585E+02  0.68856514430E+02  0.47000000000E+01 0. -1.
         -5    1    1    2    0  502 -0.14488296620E+02 -0.60387252582E+02  0.42440624596E+03  0.42895137559E+03  0.47000000000E+01 0. -1.
        -11    1    1    2    0    0  0.18281816505E+02 -0.93252855004E+01  0.77587623932E+01  0.21940468506E+02  0.00000000000E+00 0.  1.
         11    1    1    2    0    0 -0.46582713887E+02  0.64302702896E+02  0.16305307057E+03  0.18135901040E+03  0.00000000000E+00 0. -1.
<mgrwt>
<rscale>  0 0.13149719E+03</rscale>
<asrwt>0</asrwt>
<pdfrwt beam="1">  1        1 0.10383034E+00 0.13945543E+03</pdfrwt>
<pdfrwt beam="2">  1       -1 0.40323203E-02 0.13945543E+03</pdfrwt>
<totfact> 0.69705448E+03</totfact>
</mgrwt>
</event>
<event>
 6    1  0.9240440E-006  0.1310203E+03  0.7546771E-02  0.1234225E+00
         -2   -1    0    0    0  501 -0.00000000000E+00  0.00000000000E+00  0.14301009754E+02  0.14301009754E+02  0.00000000000E+00 0.  1.
          2   -1    0    0  501    0  0.00000000000E+00 -0.00000000000E+00 -0.10465492342E+04  0.10465492342E+04  0.00000000000E+00 0. -1.
          5    1    1    2  502    0  0.75015851226E+02 -0.26808055063E+02 -0.49095320877E+03  0.49739641429E+03  0.47000000000E+01 0. -1.
         -5    1    1    2    0  502 -0.45732875241E+02  0.62122443036E+00 -0.15338875088E+03  0.16013144817E+03  0.47000000000E+01 0. -1.
        -11    1    1    2    0    0 -0.12176697889E+02  0.58586594115E+02 -0.32551097158E+03  0.33096533595E+03  0.00000000000E+00 0.  1.
         11    1    1    2    0    0 -0.17106278096E+02 -0.32399763483E+02 -0.62395293262E+02  0.72357045581E+02  0.00000000000E+00 0. -1.
<mgrwt>
<rscale>  0 0.12554189E+03</rscale>
<asrwt>0</asrwt>
<pdfrwt beam="2">  1        2 0.16100765E+00 0.13102034E+03</pdfrwt>
<pdfrwt beam="1">  1       -2 0.22001543E-02 0.13102034E+03</pdfrwt>
<totfact> 0.15787737E+04</totfact>
</mgrwt>
</event>
<event>
 6    1  0.9240440E-006  0.1625906E+03  0.7546771E-02  0.1194345E+00
         -2   -1    0    0    0  501 -0.00000000000E+00  0.00000000000E+00  0.15312040818E+02  0.15312040818E+02  0.00000000000E+00 0.  1.
          2   -1    0    0  501    0  0.00000000000E+00 -0.00000000000E+00 -0.22748417445E+04  0.22748417445E+04  0.00000000000E+00 0. -1.
          5    1    1    2  502    0 -0.62363495538E+02  0.46316971362E+01 -0.14638736934E+04  0.14652163453E+04  0.47000000000E+01 0. -1.
         -5    1    1    2    0  502 -0.21771831017E+02 -0.65756500090E+02 -0.42405582871E+03  0.42970148451E+03  0.47000000000E+01 0. -1.
        -11    1    1    2    0    0  0.95961066824E+02  0.35299143549E+02 -0.32456347106E+03  0.34028811708E+03  0.00000000000E+00 0. -1.
         11    1    1    2    0    0 -0.11825740269E+02  0.25825659405E+02 -0.47036710572E+02  0.54947838521E+02  0.00000000000E+00 0.  1.
<mgrwt>
<rscale>  0 0.15509779E+03</rscale>
<asrwt>0</asrwt>
<pdfrwt beam="2">  1        2 0.34997582E+00 0.16259059E+03</pdfrwt>
<pdfrwt beam="1">  1       -2 0.23556974E-02 0.16259059E+03</pdfrwt>
<totfact> 0.32355873E+03</totfact>
</mgrwt>
</event>
<event>
 6    1  0.9240440E-006  0.2612320E+03  0.7546771E-02  0.1106405E+00
          1   -1    0    0  501    0  0.00000000000E+00  0.00000000000E+00  0.11228551011E+03  0.11228551011E+03  0.00000000000E+00 0. -1.
         -1   -1    0    0    0  501 -0.00000000000E+00 -0.00000000000E+00 -0.15193892976E+03  0.15193892976E+03  0.00000000000E+00 0.  1.
          5    1    1    2  502    0 -0.70109187573E+02  0.58485739218E+02 -0.48924852822E+02  0.10368997588E+03  0.47000000000E+01 0.  1.
         -5    1    1    2    0  502  0.40552129796E+01 -0.30867346080E+02  0.27669096763E+02  0.41915471153E+02  0.47000000000E+01 0.  1.
        -11    1    1    2    0    0  0.56271102065E+01 -0.42014208889E+02 -0.34265052695E+02  0.54506439565E+02  0.00000000000E+00 0. -1.
         11    1    1    2    0    0  0.60426864387E+02  0.14395815752E+02  0.15867389108E+02  0.64112553278E+02  0.00000000000E+00 0.  1.
<mgrwt>
<rscale>  0 0.26123201E+03</rscale>
<asrwt>0</asrwt>
<pdfrwt beam="1">  1        1 0.17274694E-01 0.26123201E+03</pdfrwt>
<pdfrwt beam="2">  1       -1 0.23375220E-01 0.26123201E+03</pdfrwt>
<totfact> 0.47748465E+03</totfact>
</mgrwt>
</event>
<event>
 6    1  0.9240440E-006  0.4233987E+03  0.7546771E-02  0.1035966E+00
         -1   -1    0    0    0  501 -0.00000000000E+00  0.00000000000E+00  0.51373857062E+02  0.51373857062E+02  0.00000000000E+00 0.  1.
          1   -1    0    0  501    0  0.00000000000E+00 -0.00000000000E+00 -0.87236247977E+03  0.87236247977E+03  0.00000000000E+00 0. -1.
          5    1    1    2  502    0 -0.67153302547E+02  0.11293157848E+03 -0.38346667615E+03  0.40537869848E+03  0.47000000000E+01 0. -1.
         -5    1    1    2    0  502  0.14429887801E+02  0.33645967774E+01 -0.32172266040E+03  0.32209797017E+03  0.47000000000E+01 0. -1.
        -11    1    1    2    0    0  0.53676892847E+02 -0.75879147045E+02 -0.24062665773E+02  0.96009716519E+02  0.00000000000E+00 0.  1.
         11    1    1    2    0    0 -0.95347810145E+00 -0.40417028208E+02 -0.91736620384E+02  0.10024995167E+03  0.00000000000E+00 0. -1.
<mgrwt>
<rscale>  0 0.42339875E+03</rscale>
<asrwt>0</asrwt>
<pdfrwt beam="2">  1        1 0.13420960E+00 0.42339875E+03</pdfrwt>
<pdfrwt beam="1">  1       -1 0.79036710E-02 0.42339875E+03</pdfrwt>
<totfact> 0.17645018E+03</totfact>
</mgrwt>
</event>
<event>
 6    1  0.9240440E-006  0.3684638E+03  0.7546771E-02  0.1055282E+00
         -2   -1    0    0    0  501 -0.00000000000E+00  0.00000000000E+00  0.12688491767E+03  0.12688491767E+03  0.00000000000E+00 0.  1.
          2   -1    0    0  501    0  0.00000000000E+00 -0.00000000000E+00 -0.26749751537E+03  0.26749751537E+03  0.00000000000E+00 0. -1.
          5    1    1    2  502    0  0.41285083844E+02 -0.89001002178E+02 -0.17800559949E+03  0.20330696001E+03  0.47000000000E+01 0. -1.
         -5    1    1    2    0  502 -0.17330283816E+02 -0.22472289495E+02  0.14292679576E+02  0.32120292990E+02  0.47000000000E+01 0. -1.
        -11    1    1    2    0    0 -0.65995554398E+02  0.64676986973E+02  0.25964725867E+02  0.95982773629E+02  0.00000000000E+00 0. -1.
         11    1    1    2    0    0  0.42040754369E+02  0.46796304701E+02 -0.28644036459E+01  0.62972406416E+02  0.00000000000E+00 0.  1.
<mgrwt>
<rscale>  0 0.36846384E+03</rscale>
<asrwt>0</asrwt>
<pdfrwt beam="2">  1        2 0.41153463E-01 0.36846384E+03</pdfrwt>
<pdfrwt beam="1">  1       -2 0.19520757E-01 0.36846384E+03</pdfrwt>
<totfact> 0.27286973E+03</totfact>
</mgrwt>
</event>
<event>
 6    1  0.9240440E-006  0.1677373E+03  0.7546771E-02  0.1189605E+00
          4   -1    0    0  501    0  0.00000000000E+00  0.00000000000E+00  0.24530721940E+03  0.24530721940E+03  0.00000000000E+00 0. -1.
         -4   -1    0    0    0  501 -0.00000000000E+00 -0.00000000000E+00 -0.10252176723E+03  0.10252176723E+03  0.00000000000E+00 0.  1.
          5    1    1    2  502    0  0.70307809211E+02 -0.53135636032E+02  0.90467908357E+02  0.12638479456E+03  0.47000000000E+01 0. -1.
         -5    1    1    2    0  502  0.41060513009E+02  0.63550288804E+02  0.37391184809E+02  0.84526892982E+02  0.47000000000E+01 0. -1.
        -11    1    1    2    0    0 -0.33340809661E+02 -0.19832015768E+02 -0.27548998523E+02  0.47580098339E+02  0.00000000000E+00 0.  1.
         11    1    1    2    0    0 -0.78027512560E+02  0.94173629950E+01  0.42475357529E+02  0.89337200758E+02  0.00000000000E+00 0. -1.
<mgrwt>
<rscale>  0 0.15919804E+03</rscale>
<asrwt>0</asrwt>
<pdfrwt beam="1">  1        4 0.37739572E-01 0.16773727E+03</pdfrwt>
<pdfrwt beam="2">  1       -4 0.15772580E-01 0.16773727E+03</pdfrwt>
<totfact> 0.40646051E+02</totfact>
</mgrwt>
</event>
<event>
 6    1  0.9240440E-006  0.2422533E+03  0.7546771E-02  0.1153313E+00
          2   -1    0    0  501    0  0.00000000000E+00  0.00000000000E+00  0.11462259519E+04  0.11462259519E+04  0.00000000000E+00 0. -1.
         -2   -1    0    0    0  501 -0.00000000000E+00 -0.00000000000E+00 -0.26125266222E+02  0.26125266222E+02  0.00000000000E+00 0.  1.
          5    1    1    2  502    0  0.30139774695E+02  0.73218551570E+01  0.67595810667E+03  0.67668564899E+03  0.47000000000E+01 0. -1.
         -5    1    1    2    0  502 -0.70628150783E+02 -0.49465845313E+02  0.82152912032E+02  0.11919058894E+03  0.47000000000E+01 0.  1.
        -11    1    1    2    0    0 -0.11746324416E+01 -0.24244077926E+02  0.67418960273E+02  0.71655225072E+02  0.00000000000E+00 0.  1.
         11    1    1    2    0    0  0.41663008530E+02  0.66388068082E+02  0.29457070670E+03  0.30481975512E+03  0.00000000000E+00 0. -1.
<mgrwt>
<rscale>  0 0.19582111E+03</rscale>
<asrwt>0</asrwt>
<pdfrwt beam="1">  1        2 0.17634242E+00 0.24225332E+03</pdfrwt>
<pdfrwt beam="2">  1       -2 0.40192726E-02 0.24225332E+03</pdfrwt>
<totfact> 0.58282615E+03</totfact>
</mgrwt>
</event>
<event>
 6    1  0.9240440E-006  0.1440914E+03  0.7546771E-02  0.1218561E+00
          2   -1    0    0  501    0  0.00000000000E+00  0.00000000000E+00  0.78915632075E+03  0.78915632075E+03  0.00000000000E+00 0. -1.
         -2   -1    0    0    0  501 -0.00000000000E+00 -0.00000000000E+00 -0.22284990435E+02  0.22284990435E+02  0.00000000000E+00 0.  1.
          5    1    1    2  502    0  0.22849545626E+02  0.35341292091E+02  0.16155340700E+03  0.16701108339E+03  0.47000000000E+01 0. -1.
         -5    1    1    2    0  502 -0.92811516193E+02 -0.20008195685E+02  0.17652387847E+03  0.20049208240E+03  0.47000000000E+01 0. -1.
        -11    1    1    2    0    0  0.65444905117E+02  0.28137267769E+02  0.26147344962E+03  0.27100388613E+03  0.00000000000E+00 0.  1.
         11    1    1    2    0    0  0.45170654501E+01 -0.43470364175E+02  0.16732059522E+03  0.17293425926E+03  0.00000000000E+00 0. -1.
<mgrwt>
<rscale>  0 0.13618180E+03</rscale>
<asrwt>0</asrwt>
<pdfrwt beam="1">  1        2 0.12140864E+00 0.14409138E+03</pdfrwt>
<pdfrwt beam="2">  1       -2 0.34284607E-02 0.14409138E+03</pdfrwt>
<totfact> 0.12022400E+04</totfact>
</mgrwt>
</event>
<event>
 6    1  0.9240440E-006  0.1274399E+03  0.7546771E-02  0.1245583E+00
          2   -1    0    0  501    0  0.00000000000E+00  0.00000000000E+00  0.61883253221E+03  0.61883253221E+03  0.00000000000E+00 0.  1.
         -2   -1    0    0    0  501 -0.00000000000E+00 -0.00000000000E+00 -0.27292244685E+02  0.27292244685E+02  0.00000000000E+00 0. -1.
          5    1    1    2  502    0 -0.48063272011E+02  0.52064599864E+02  0.23364727076E+03  0.24420060976E+03  0.47000000000E+01 0.  1.
         -5    1    1    2    0  502  0.46916500916E+02 -0.27273596716E+02  0.25872091644E+03  0.26439290789E+03  0.47000000000E+01 0.  1.
        -11    1    1    2    0    0  0.22413843815E+02  0.34216684218E+01  0.99650627441E+02  0.10219753304E+03  0.00000000000E+00 0.  1.
         11    1    1    2    0    0 -0.21267072720E+02 -0.28212671569E+02 -0.47852712403E+00  0.35333726203E+02  0.00000000000E+00 0. -1.
<mgrwt>
<rscale>  0 0.11850545E+03</rscale>
<asrwt>0</asrwt>
<pdfrwt beam="1">  1        2 0.95204994E-01 0.12743992E+03</pdfrwt>
<pdfrwt beam="2">  1       -2 0.41988073E-02 0.12743992E+03</pdfrwt>
<totfact> 0.11785250E+04</totfact>
</mgrwt>
</event>
<event>
 6    1  0.9240440E-006  0.1645954E+03  0.7546771E-02  0.1190930E+00
          2   -1    0    0  501    0  0.00000000000E+00  0.00000000000E+00  0.86743723915E+03  0.86743723915E+03  0.00000000000E+00 0. -1.
         -2   -1    0    0    0  501 -0.00000000000E+00 -0.00000000000E+00 -0.28316103922E+02  0.28316103922E+02  0.00000000000E+00 0.  1.
          5    1    1    2  502    0  0.37958598994E+02  0.25687251301E+02  0.44619923839E+03  0.44857166703E+03  0.47000000000E+01 0. -1.
         -5    1    1    2    0  502  0.60408008939E+01  0.71928756350E+02  0.11149061814E+03  0.13290028291E+03  0.47000000000E+01 0. -1.
        -11    1    1    2    0    0  0.12485147426E+02 -0.79633529304E+02  0.16358471946E+03  0.18236594621E+03  0.00000000000E+00 0. -1.
         11    1    1    2    0    0 -0.56484547314E+02 -0.17982478348E+02  0.11784655924E+03  0.13191544692E+03  0.00000000000E+00 0.  1.
<mgrwt>
<rscale>  0 0.15803745E+03</rscale>
<asrwt>0</asrwt>
<pdfrwt beam="1">  1        2 0.13345186E+00 0.16459542E+03</pdfrwt>
<pdfrwt beam="2">  1       -2 0.43563244E-02 0.16459542E+03</pdfrwt>
<totfact> 0.75213143E+03</totfact>
</mgrwt>
</event>
<event>
 6    1  0.9240440E-006  0.3344513E+03  0.7546771E-02  0.1070506E+00
          1   -1    0    0  501    0  0.00000000000E+00  0.00000000000E+00  0.39396701351E+04  0.39396701351E+04  0.00000000000E+00 0. -1.
         -1   -1    0    0    0  501 -0.00000000000E+00 -0.00000000000E+00 -0.34486685750E+02  0.34486685750E+02  0.00000000000E+00 0.  1.
          5    1    1    2  502    0  0.85857762762E+02 -0.13107001994E+03  0.15260749334E+04  0.15341048524E+04  0.47000000000E+01 0. -1.
         -5    1    1    2    0  502  0.16959373463E+03 -0.44932841792E+02  0.13559758760E+04  0.13672869711E+04  0.47000000000E+01 0. -1.
        -11    1    1    2    0    0 -0.16278016636E+03  0.15965882017E+03  0.74849091124E+03  0.78244933742E+03  0.00000000000E+00 0. -1.
         11    1    1    2    0    0 -0.92671331029E+02  0.16344041557E+02  0.27464172870E+03  0.29031565998E+03  0.00000000000E+00 0.  1.
<mgrwt>
<rscale>  0 0.33142976E+03</rscale>
<asrwt>0</asrwt>
<pdfrwt beam="1">  1        1 0.60610274E+00 0.33445126E+03</pdfrwt>
<pdfrwt beam="2">  1       -1 0.53056471E-02 0.33445126E+03</pdfrwt>
<totfact> 0.22104204E+01</totfact>
</mgrwt>
</event>
<event>
 6    1  0.9240440E-006  0.1289016E+03  0.7546771E-02  0.1239814E+00
         -1   -1    0    0    0  501 -0.00000000000E+00  0.00000000000E+00  0.65507279413E+02  0.65507279413E+02  0.00000000000E+00 0.  1.
          1   -1    0    0  501    0  0.00000000000E+00 -0.00000000000E+00 -0.23315190844E+03  0.23315190844E+03  0.00000000000E+00 0. -1.
          5    1    1    2  502    0 -0.72991737681E+02 -0.13796766551E+02 -0.50067216854E+02  0.89704853494E+02  0.47000000000E+01 0. -1.
         -5    1    1    2    0  502  0.43871141382E+02  0.17656042075E+01 -0.92476366498E+02  0.10247810871E+03  0.47000000000E+01 0. -1.
        -11    1    1    2    0    0  0.49432542491E+02  0.13237655137E+02 -0.51861187883E+02  0.72858730288E+02  0.00000000000E+00 0. -1.
         11    1    1    2    0    0 -0.20311946192E+02 -0.12064927934E+01  0.26760142209E+02  0.33617495356E+02  0.00000000000E+00 0.  1.
<mgrwt>
<rscale>  0 0.12201207E+03</rscale>
<asrwt>0</asrwt>
<pdfrwt beam="2">  1        1 0.35869524E-01 0.12890158E+03</pdfrwt>
<pdfrwt beam="1">  1       -1 0.10078043E-01 0.12890158E+03</pdfrwt>
<totfact> 0.68843136E+03</totfact>
</mgrwt>
</event>
<event>
 6    1  0.9240440E-006  0.3623480E+03  0.7546771E-02  0.1057658E+00
          1   -1    0    0  501    0  0.00000000000E+00  0.00000000000E+00  0.16502656416E+04  0.16502656416E+04  0.00000000000E+00 0. -1.
         -1   -1    0    0    0  501 -0.00000000000E+00 -0.00000000000E+00 -0.19890144563E+02  0.19890144563E+02  0.00000000000E+00 0.  1.
          5    1    1    2  502    0  0.78037034329E+01 -0.42725630169E+02  0.24575503829E+03  0.24960770442E+03  0.47000000000E+01 0.  1.
         -5    1    1    2    0  502 -0.13918451936E+03  0.13049392946E+02  0.87818971285E+03  0.88925917417E+03  0.47000000000E+01 0.  1.
        -11    1    1    2    0    0  0.61872524412E+02 -0.29183955169E+02  0.18673239835E+03  0.19886905518E+03  0.00000000000E+00 0.  1.
         11    1    1    2    0    0  0.69508291518E+02  0.58860192392E+02  0.31969834751E+03  0.33241985235E+03  0.00000000000E+00 0. -1.
<mgrwt>
<rscale>  0 0.36234802E+03</rscale>
<asrwt>0</asrwt>
<pdfrwt beam="1">  1        1 0.25388691E+00 0.36234802E+03</pdfrwt>
<pdfrwt beam="2">  1       -1 0.30600235E-02 0.36234802E+03</pdfrwt>
<totfact> 0.20830059E+03</totfact>
</mgrwt>
</event>
<event>
 6    1  0.9240440E-006  0.2847728E+03  0.7546771E-02  0.1093110E+00
         -2   -1    0    0    0  501 -0.00000000000E+00  0.00000000000E+00  0.17713510378E+03  0.17713510378E+03  0.00000000000E+00 0. -1.
          2   -1    0    0  501    0  0.00000000000E+00 -0.00000000000E+00 -0.11445433798E+03  0.11445433798E+03  0.00000000000E+00 0.  1.
          5    1    1    2  502    0 -0.13225597203E+02  0.77479825425E+01 -0.40258958725E+02  0.43333836807E+02  0.47000000000E+01 0.  1.
         -5    1    1    2    0  502  0.89913766209E+02  0.41898141838E+02  0.51577409819E+02  0.11190289919E+03  0.47000000000E+01 0.  1.
        -11    1    1    2    0    0 -0.49966859694E+02 -0.10719514051E+02 -0.16481916996E+02  0.53695890318E+02  0.00000000000E+00 0.  1.
         11    1    1    2    0    0 -0.26721309312E+02 -0.38926610329E+02  0.67844231707E+02  0.82656815442E+02  0.00000000000E+00 0. -1.
<mgrwt>
<rscale>  0 0.28477276E+03</rscale>
<asrwt>0</asrwt>
<pdfrwt beam="2">  1        2 0.17608360E-01 0.28477276E+03</pdfrwt>
<pdfrwt beam="1">  1       -2 0.27251554E-01 0.28477276E+03</pdfrwt>
<totfact> 0.39082044E+03</totfact>
</mgrwt>
</event>
<event>
 6    1  0.9240440E-006  0.1281378E+03  0.7546771E-02  0.1299313E+00
          2   -1    0    0  501    0  0.00000000000E+00  0.00000000000E+00  0.14194031591E+04  0.14194031591E+04  0.00000000000E+00 0. -1.
         -2   -1    0    0    0  501 -0.00000000000E+00 -0.00000000000E+00 -0.59544935921E+01  0.59544935921E+01  0.00000000000E+00 0.  1.
          5    1    1    2  502    0 -0.12794584618E+02  0.57322560411E+01  0.12505466690E+04  0.12506340878E+04  0.47000000000E+01 0. -1.
         -5    1    1    2    0  502  0.11777930980E+02  0.26763775197E+02  0.68580774020E+02  0.74702288360E+02  0.47000000000E+01 0.  1.
        -11    1    1    2    0    0  0.38770856883E+01 -0.21951672499E+02  0.60270783061E+02  0.64260991353E+02  0.00000000000E+00 0. -1.
         11    1    1    2    0    0 -0.28604320500E+01 -0.10544358739E+02  0.34050439404E+02  0.35760285183E+02  0.00000000000E+00 0.  1.
<mgrwt>
<rscale>  0 0.91477402E+02</rscale>
<asrwt>0</asrwt>
<pdfrwt beam="1">  1        2 0.21836945E+00 0.12813781E+03</pdfrwt>
<pdfrwt beam="2">  1       -2 0.91607707E-03 0.12813781E+03</pdfrwt>
<totfact> 0.34698143E+04</totfact>
</mgrwt>
</event>
<event>
 6    1  0.9240440E-006  0.3286681E+03  0.7546771E-02  0.1071728E+00
          2   -1    0    0  501    0  0.00000000000E+00  0.00000000000E+00  0.38352867412E+03  0.38352867412E+03  0.00000000000E+00 0. -1.
         -2   -1    0    0    0  501 -0.00000000000E+00 -0.00000000000E+00 -0.70413709084E+02  0.70413709084E+02  0.00000000000E+00 0.  1.
          5    1    1    2  502    0  0.63389465895E+01 -0.28197611576E+02  0.29255392372E+02  0.41391490977E+02  0.47000000000E+01 0. -1.
         -5    1    1    2    0  502 -0.74567530626E+02  0.11241861212E+03  0.20200579698E+03  0.24295409646E+03  0.47000000000E+01 0. -1.
        -11    1    1    2    0    0 -0.17617331691E+02 -0.46337290446E+02  0.80638524985E+01  0.50224899989E+02  0.00000000000E+00 0.  1.
         11    1    1    2    0    0  0.85845915727E+02 -0.37883710097E+02  0.73789923192E+02  0.11937189578E+03  0.00000000000E+00 0. -1.
<mgrwt>
<rscale>  0 0.32866808E+03</rscale>
<asrwt>0</asrwt>
<pdfrwt beam="1">  1        2 0.59004410E-01 0.32866808E+03</pdfrwt>
<pdfrwt beam="2">  1       -2 0.10832879E-01 0.32866808E+03</pdfrwt>
<totfact> 0.48859577E+03</totfact>
</mgrwt>
</event>
<event>
 6    1  0.9240440E-006  0.2705403E+03  0.7546771E-02  0.1100971E+00
          1   -1    0    0  501    0  0.00000000000E+00  0.00000000000E+00  0.27339143963E+03  0.27339143963E+03  0.00000000000E+00 0. -1.
         -1   -1    0    0    0  501 -0.00000000000E+00 -0.00000000000E+00 -0.66929709718E+02  0.66929709718E+02  0.00000000000E+00 0.  1.
          5    1    1    2  502    0 -0.89958396181E+01 -0.93125079258E+02  0.82443858254E+02  0.12478896298E+03  0.47000000000E+01 0. -1.
         -5    1    1    2    0  502 -0.18746026172E+02  0.34434782173E+02  0.87062925829E+02  0.95599219529E+02  0.47000000000E+01 0. -1.
        -11    1    1    2    0    0  0.29822318893E+02  0.27851987494E+02 -0.26980197867E+02  0.48918656854E+02  0.00000000000E+00 0.  1.
         11    1    1    2    0    0 -0.20804531023E+01  0.30838309591E+02  0.63935143691E+02  0.71014309983E+02  0.00000000000E+00 0. -1.
<mgrwt>
<rscale>  0 0.27054027E+03</rscale>
<asrwt>0</asrwt>
<pdfrwt beam="1">  1        1 0.42060221E-01 0.27054027E+03</pdfrwt>
<pdfrwt beam="2">  1       -1 0.10296879E-01 0.27054027E+03</pdfrwt>
<totfact> 0.56971543E+03</totfact>
</mgrwt>
</event>
<event>
 6    1  0.9240440E-006  0.1736546E+03  0.7546771E-02  0.1180216E+00
         -2   -1    0    0    0  501 -0.00000000000E+00  0.00000000000E+00  0.21220049217E+02  0.21220049217E+02  0.00000000000E+00 0.  1.
          2   -1    0    0  501    0  0.00000000000E+00 -0.00000000000E+00 -0.12496084617E+04  0.12496084617E+04  0.00000000000E+00 0. -1.
          5    1    1    2  502    0 -0.27818980249E+02  0.11785248012E+03 -0.37053422604E+03  0.38984715646E+03  0.47000000000E+01 0. -1.
         -5    1    1    2    0  502 -0.43726611750E+02 -0.20828081849E+02 -0.24107974905E+03  0.24594178370E+03  0.47000000000E+01 0. -1.
        -11    1    1    2    0    0  0.23648139415E+02 -0.99369555796E+02 -0.45395692869E+03  0.46530681944E+03  0.00000000000E+00 0. -1.
         11    1    1    2    0    0  0.47897452584E+02  0.23451575294E+01 -0.16281750876E+03  0.16973275136E+03  0.00000000000E+00 0.  1.
<mgrwt>
<rscale>  0 0.16774905E+03</rscale>
<asrwt>0</asrwt>
<pdfrwt beam="2">  1        2 0.19224747E+00 0.17365461E+03</pdfrwt>
<pdfrwt beam="1">  1       -2 0.32646226E-02 0.17365461E+03</pdfrwt>
<totfact> 0.68840136E+03</totfact>
</mgrwt>
</event>
<event>
 6    1  0.9607265E-006  0.2842899E+03  0.7546771E-02  0.1095130E+00
         -1   -1    0    0    0  501 -0.00000000000E+00  0.00000000000E+00  0.18387226370E+03  0.18387226370E+03  0.00000000000E+00 0.  1.
          1   -1    0    0  501    0  0.00000000000E+00 -0.00000000000E+00 -0.42815556630E+03  0.42815556630E+03  0.00000000000E+00 0. -1.
          5    1    1    2  502    0 -0.35600229031E+02  0.11853510398E+02  0.10631691665E+02  0.39281100843E+02  0.47000000000E+01 0. -1.
         -5    1    1    2    0  502 -0.83733302003E+02  0.21387898676E+03 -0.17794730646E+03  0.29059046908E+03  0.47000000000E+01 0. -1.
        -11    1    1    2    0    0  0.12680490493E+03 -0.16648246807E+03 -0.43674003937E+02  0.21378333590E+03  0.00000000000E+00 0.  1.
         11    1    1    2    0    0 -0.74713738915E+01 -0.59250029090E+02 -0.33293683867E+02  0.68372924176E+02  0.00000000000E+00 0. -1.
<mgrwt>
<rscale>  0 0.28102551E+03</rscale>
<asrwt>0</asrwt>
<pdfrwt beam="2">  1        1 0.65870086E-01 0.28428988E+03</pdfrwt>
<pdfrwt beam="1">  1       -1 0.28288041E-01 0.28428988E+03</pdfrwt>
<totfact> 0.62891509E+02</totfact>
</mgrwt>
</event>
<event>
 6    1  0.9240440E-006  0.1138066E+03  0.7546771E-02  0.1263857E+00
         -3   -1    0    0    0  501 -0.00000000000E+00  0.00000000000E+00  0.27771243059E+02  0.27771243059E+02  0.00000000000E+00 0.  1.
          3   -1    0    0  501    0  0.00000000000E+00 -0.00000000000E+00 -0.39554175786E+03  0.39554175786E+03  0.00000000000E+00 0. -1.
          5    1    1    2  502    0 -0.93959183948E-01  0.61041630487E+02 -0.94161426785E+02  0.11231453056E+03  0.47000000000E+01 0. -1.
         -5    1    1    2    0  502 -0.17867957108E+02 -0.44246575276E+02 -0.14117210143E+03  0.14909284201E+03  0.47000000000E+01 0.  1.
        -11    1    1    2    0    0 -0.32748230368E+02  0.31383230316E+01 -0.24579102750E+02  0.41066141232E+02  0.00000000000E+00 0. -1.
         11    1    1    2    0    0  0.50710146659E+02 -0.19933378243E+02 -0.10785788383E+03  0.12083948712E+03  0.00000000000E+00 0.  1.
<mgrwt>
<rscale>  0 0.10824361E+03</rscale>
<asrwt>0</asrwt>
<pdfrwt beam="2">  1        3 0.60852578E-01 0.11380661E+03</pdfrwt>
<pdfrwt beam="1">  1       -3 0.42724989E-02 0.11380661E+03</pdfrwt>
<totfact> 0.17422092E+03</totfact>
</mgrwt>
</event>
<event>
 6    1  0.9240440E-006  0.1409185E+03  0.7546771E-02  0.1225153E+00
          1   -1    0    0  501    0  0.00000000000E+00  0.00000000000E+00  0.64606818727E+03  0.64606818727E+03  0.00000000000E+00 0. -1.
         -1   -1    0    0    0  501 -0.00000000000E+00 -0.00000000000E+00 -0.33523405642E+02  0.33523405642E+02  0.00000000000E+00 0.  1.
          5    1    1    2  502    0  0.97178515047E+02  0.30298490007E+02  0.40011029269E+03  0.41288254819E+03  0.47000000000E+01 0.  1.
         -5    1    1    2    0  502 -0.37873613301E+02 -0.25855184150E+01  0.11766228551E+03  0.12372388178E+03  0.47000000000E+01 0.  1.
        -11    1    1    2    0    0 -0.12546461128E+02 -0.27531953204E+02  0.91202674987E+02  0.96090322400E+02  0.00000000000E+00 0. -1.
         11    1    1    2    0    0 -0.46758440617E+02 -0.18101838805E+00  0.35695284397E+01  0.46894840547E+02  0.00000000000E+00 0.  1.
<mgrwt>
<rscale>  0 0.13156434E+03</rscale>
<asrwt>0</asrwt>
<pdfrwt beam="1">  1        1 0.99395096E-01 0.14091848E+03</pdfrwt>
<pdfrwt beam="2">  1       -1 0.51574475E-02 0.14091848E+03</pdfrwt>
<totfact> 0.51565620E+03</totfact>
</mgrwt>
</event>
<event>
 6    1  0.9240440E-006  0.2739251E+03  0.7546771E-02  0.1100903E+00
          3   -1    0    0  501    0  0.00000000000E+00  0.00000000000E+00  0.50195577845E+03  0.50195577845E+03  0.00000000000E+00 0. -1.
         -3   -1    0    0    0  501 -0.00000000000E+00 -0.00000000000E+00 -0.15234859420E+03  0.15234859420E+03  0.00000000000E+00 0.  1.
          5    1    1    2  502    0  0.54229745750E+00 -0.38097264746E+01  0.58482047132E+02  0.58796666054E+02  0.47000000000E+01 0.  1.
         -5    1    1    2    0  502 -0.13810292287E+03  0.20502253946E+03  0.20312751302E+03  0.31998364886E+03  0.47000000000E+01 0.  1.
        -11    1    1    2    0    0  0.10286649838E+03 -0.17529174944E+03  0.33619232917E+02  0.20600720068E+03  0.00000000000E+00 0.  1.
         11    1    1    2    0    0  0.34694127030E+02 -0.25921063550E+02  0.54378391185E+02  0.69516857048E+02  0.00000000000E+00 0. -1.
<mgrwt>
<rscale>  0 0.27065932E+03</rscale>
<asrwt>0</asrwt>
<pdfrwt beam="1">  1        3 0.77223965E-01 0.27392511E+03</pdfrwt>
<pdfrwt beam="2">  1       -3 0.23438245E-01 0.27392511E+03</pdfrwt>
<totfact> 0.68093276E+01</totfact>
</mgrwt>
</event>
<event>
 6    1  0.9240440E-006  0.1354807E+03  0.7546771E-02  0.1232336E+00
          1   -1    0    0  501    0  0.00000000000E+00  0.00000000000E+00  0.52234262519E+02  0.52234262519E+02  0.00000000000E+00 0. -1.
         -1   -1    0    0    0  501 -0.00000000000E+00 -0.00000000000E+00 -0.29409202252E+03  0.29409202252E+03  0.00000000000E+00 0.  1.
          5    1    1    2  502    0  0.24127926923E+01 -0.89603620375E+02 -0.47317774409E+02  0.10146769007E+03  0.47000000000E+01 0. -1.
         -5    1    1    2    0  502 -0.17618505331E+02  0.39615976752E+02 -0.43762522020E+02  0.61782567749E+02  0.47000000000E+01 0. -1.
        -11    1    1    2    0    0  0.21847601208E+02  0.74690252693E+02 -0.12043900644E+03  0.14339283733E+03  0.00000000000E+00 0.  1.
         11    1    1    2    0    0 -0.66418885686E+01 -0.24702609070E+02 -0.30338457133E+02  0.39683189890E+02  0.00000000000E+00 0. -1.
<mgrwt>
<rscale>  0 0.12676534E+03</rscale>
<asrwt>0</asrwt>
<pdfrwt beam="1">  1        1 0.80360404E-02 0.13548072E+03</pdfrwt>
<pdfrwt beam="2">  1       -1 0.45244926E-01 0.13548072E+03</pdfrwt>
<totfact> 0.40890714E+03</totfact>
</mgrwt>
</event>
<event>
 6    1  0.9240440E-006  0.1271253E+03  0.7546771E-02  0.1246914E+00
          3   -1    0    0  501    0  0.00000000000E+00  0.00000000000E+00  0.86808658106E+03  0.86808658106E+03  0.00000000000E+00 0. -1.
         -3   -1    0    0    0  501 -0.00000000000E+00 -0.00000000000E+00 -0.16746907292E+02  0.16746907292E+02  0.00000000000E+00 0.  1.
          5    1    1    2  502    0  0.18909056966E+02 -0.28544453159E+02  0.45366563973E+02  0.57031161379E+02  0.47000000000E+01 0.  1.
         -5    1    1    2    0  502  0.38996908118E+01  0.24501367415E+02  0.61165306655E+03  0.61217406709E+03  0.47000000000E+01 0.  1.
        -11    1    1    2    0    0 -0.24250907300E+02  0.36118181775E+02  0.43844667052E+02  0.61765559890E+02  0.00000000000E+00 0.  1.
         11    1    1    2    0    0  0.14421595223E+01 -0.32075096032E+02  0.15047537620E+03  0.15386270000E+03  0.00000000000E+00 0. -1.
<mgrwt>
<rscale>  0 0.11771547E+03</rscale>
<asrwt>0</asrwt>
<pdfrwt beam="1">  1        3 0.13355175E+00 0.12712530E+03</pdfrwt>
<pdfrwt beam="2">  1       -3 0.25764479E-02 0.12712530E+03</pdfrwt>
<totfact> 0.67899274E+02</totfact>
</mgrwt>
</event>
<event>
 6    1  0.9240440E-006  0.1736231E+03  0.7546771E-02  0.1180245E+00
         -2   -1    0    0    0  501 -0.00000000000E+00  0.00000000000E+00  0.22355984533E+03  0.22355984533E+03  0.00000000000E+00 0.  1.
          2   -1    0    0  501    0  0.00000000000E+00 -0.00000000000E+00 -0.14278827022E+03  0.14278827022E+03  0.00000000000E+00 0. -1.
          5    1    1    2  502    0 -0.10576915590E+03 -0.18849183399E+02 -0.52380692270E+01  0.10766584149E+03  0.47000000000E+01 0. -1.
         -5    1    1    2    0  502 -0.65059745204E+01  0.62607512328E+02 -0.28268287414E+02  0.69160786416E+02  0.47000000000E+01 0. -1.
        -11    1    1    2    0    0  0.14787867575E+02 -0.95346380265E+01 -0.15630997755E+02  0.23535471964E+02  0.00000000000E+00 0. -1.
         11    1    1    2    0    0  0.97487262846E+02 -0.34223690902E+02  0.12990892950E+03  0.16598601568E+03  0.00000000000E+00 0.  1.
<mgrwt>
<rscale>  0 0.16772108E+03</rscale>
<asrwt>0</asrwt>
<pdfrwt beam="2">  1        2 0.21967426E-01 0.17362310E+03</pdfrwt>
<pdfrwt beam="1">  1       -2 0.34393822E-01 0.17362310E+03</pdfrwt>
<totfact> 0.19428114E+03</totfact>
</mgrwt>
</event>
<event>
 6    1  0.9240440E-006  0.2575258E+03  0.7546771E-02  0.1108639E+00
          3   -1    0    0  501    0  0.00000000000E+00  0.00000000000E+00  0.18439753261E+02  0.18439753261E+02  0.00000000000E+00 0. -1.
         -3   -1    0    0    0  501 -0.00000000000E+00 -0.00000000000E+00 -0.89913838650E+03  0.89913838650E+03  0.00000000000E+00 0.  1.
          5    1    1    2  502    0 -0.95181471216E+01 -0.75489956810E+02 -0.14202005011E+03  0.16118657927E+03  0.47000000000E+01 0.  1.
         -5    1    1    2    0  502 -0.18808587214E+02  0.13181156148E+02 -0.35743826583E+03  0.35820623908E+03  0.47000000000E+01 0.  1.
        -11    1    1    2    0    0  0.48369161371E+02  0.58399727032E+01 -0.10844164451E+03  0.11888343584E+03  0.00000000000E+00 0.  1.
         11    1    1    2    0    0 -0.20042427036E+02  0.56468827959E+02 -0.27279867279E+03  0.27930188558E+03  0.00000000000E+00 0. -1.
<mgrwt>
<rscale>  0 0.25752584E+03</rscale>
<asrwt>0</asrwt>
<pdfrwt beam="1">  1        3 0.28368856E-02 0.25752584E+03</pdfrwt>
<pdfrwt beam="2">  1       -3 0.13832896E+00 0.25752584E+03</pdfrwt>
<totfact> 0.58662100E+02</totfact>
</mgrwt>
</event>
<event>
 6    1  0.9240440E-006  0.1401660E+03  0.7546771E-02  0.1224160E+00
          1   -1    0    0  501    0  0.00000000000E+00  0.00000000000E+00  0.12922314660E+04  0.12922314660E+04  0.00000000000E+00 0. -1.
         -1   -1    0    0    0  501 -0.00000000000E+00 -0.00000000000E+00 -0.14399118371E+02  0.14399118371E+02  0.00000000000E+00 0.  1.
          5    1    1    2  502    0  0.64032784779E+02 -0.66708968899E+02  0.87627802649E+03  0.88115580561E+03  0.47000000000E+01 0. -1.
         -5    1    1    2    0  502 -0.18778895285E+02  0.22258491110E+02  0.78568937009E+02  0.83924103793E+02  0.47000000000E+01 0. -1.
        -11    1    1    2    0    0 -0.22770561005E+02  0.67043022798E+02  0.27481694334E+03  0.28379150393E+03  0.00000000000E+00 0. -1.
         11    1    1    2    0    0 -0.22483328489E+02 -0.22592545009E+02  0.48168440741E+02  0.57759170989E+02  0.00000000000E+00 0.  1.
<mgrwt>
<rscale>  0 0.13224661E+03</rscale>
<asrwt>0</asrwt>
<pdfrwt beam="1">  1        1 0.19880475E+00 0.14016600E+03</pdfrwt>
<pdfrwt beam="2">  1       -1 0.22152500E-02 0.14016600E+03</pdfrwt>
<totfact> 0.57121806E+03</totfact>
</mgrwt>
</event>
<event>
 6    1  0.9240440E-006  0.1265718E+03  0.7546771E-02  0.1246561E+00
          1   -1    0    0  501    0  0.00000000000E+00  0.00000000000E+00  0.47836328074E+02  0.47836328074E+02  0.00000000000E+00 0. -1.
         -1   -1    0    0    0  501 -0.00000000000E+00 -0.00000000000E+00 -0.33822912725E+03  0.33822912725E+03  0.00000000000E+00 0.  1.
          5    1    1    2  502    0  0.22583624526E+02  0.61872857514E+02 -0.21192457669E+02  0.69350420733E+02  0.47000000000E+01 0.  1.
         -5    1    1    2    0  502 -0.33962655769E+02 -0.46683281169E+02 -0.45904806291E+02  0.73906237681E+02  0.47000000000E+01 0.  1.
        -11    1    1    2    0    0  0.40385727185E+02  0.74421631136E+01 -0.18577629671E+03  0.19026093969E+03  0.00000000000E+00 0. -1.
         11    1    1    2    0    0 -0.29006695942E+02 -0.22631739459E+02 -0.37519238508E+02  0.52547857222E+02  0.00000000000E+00 0.  1.
<mgrwt>
<rscale>  0 0.11792460E+03</rscale>
<asrwt>0</asrwt>
<pdfrwt beam="1">  1        1 0.73594352E-02 0.12657183E+03</pdfrwt>
<pdfrwt beam="2">  1       -1 0.52035249E-01 0.12657183E+03</pdfrwt>
<totfact> 0.35559402E+03</totfact>
</mgrwt>
</event>
<event>
 6    1  0.9240440E-006  0.2548769E+03  0.7546771E-02  0.1131905E+00
         -1   -1    0    0    0  501 -0.00000000000E+00  0.00000000000E+00  0.25405059129E+03  0.25405059129E+03  0.00000000000E+00 0.  1.
          1   -1    0    0  501    0  0.00000000000E+00 -0.00000000000E+00 -0.64076461217E+03  0.64076461217E+03  0.00000000000E+00 0. -1.
          5    1    1    2  502    0 -0.99026592761E+02 -0.49918964711E+00 -0.99205459256E+02  0.14025094798E+03  0.47000000000E+01 0. -1.
         -5    1    1    2    0  502  0.38997027018E+02 -0.10009605469E+03 -0.49101218549E+03  0.50264803250E+03  0.47000000000E+01 0.  1.
        -11    1    1    2    0    0  0.24478537688E+02  0.10684341475E+03  0.17225779384E+03  0.20417507591E+03  0.00000000000E+00 0.  1.
         11    1    1    2    0    0  0.35551028055E+02 -0.62481704189E+01  0.31245830020E+02  0.47741147064E+02  0.00000000000E+00 0. -1.
<mgrwt>
<rscale>  0 0.22267381E+03</rscale>
<asrwt>0</asrwt>
<pdfrwt beam="2">  1        1 0.98579170E-01 0.25487689E+03</pdfrwt>
<pdfrwt beam="1">  1       -1 0.39084707E-01 0.25487689E+03</pdfrwt>
<totfact> 0.20874692E+02</totfact>
</mgrwt>
</event>
<event>
 6    1  0.9240440E-006  0.1564239E+03  0.7546771E-02  0.1197816E+00
          3   -1    0    0  501    0  0.00000000000E+00  0.00000000000E+00  0.66576083885E+03  0.66576083885E+03  0.00000000000E+00 0. -1.
         -3   -1    0    0    0  501 -0.00000000000E+00 -0.00000000000E+00 -0.45216043613E+02  0.45216043613E+02  0.00000000000E+00 0.  1.
          5    1    1    2  502    0  0.11037614462E+03 -0.15744353717E+02  0.36652894027E+03  0.38314009452E+03  0.47000000000E+01 0. -1.
         -5    1    1    2    0  502 -0.87570805601E+01  0.43684668189E+02  0.14057011127E+03  0.14753671705E+03  0.47000000000E+01 0.  1.
        -11    1    1    2    0    0 -0.35762759015E+01 -0.40962813315E+02  0.30043091825E+02  0.50924740455E+02  0.00000000000E+00 0. -1.
         11    1    1    2    0    0 -0.98042788161E+02  0.13022498843E+02  0.83402651871E+02  0.12937533044E+03  0.00000000000E+00 0.  1.
<mgrwt>
<rscale>  0 0.15218258E+03</rscale>
<asrwt>0</asrwt>
<pdfrwt beam="1">  1        3 0.10242474E+00 0.15642388E+03</pdfrwt>
<pdfrwt beam="2">  1       -3 0.69563149E-02 0.15642388E+03</pdfrwt>
<totfact> 0.27308638E+02</totfact>
</mgrwt>
</event>
<event>
 6    1  0.9240440E-006  0.1252452E+03  0.7546771E-02  0.1248940E+00
          1   -1    0    0  501    0  0.00000000000E+00  0.00000000000E+00  0.29485640769E+03  0.29485640769E+03  0.00000000000E+00 0. -1.
         -1   -1    0    0    0  501 -0.00000000000E+00 -0.00000000000E+00 -0.50304096203E+02  0.50304096203E+02  0.00000000000E+00 0.  1.
          5    1    1    2  502    0 -0.41715039265E+02 -0.19652646099E+01  0.18864344389E+03  0.19326780821E+03  0.47000000000E+01 0. -1.
         -5    1    1    2    0  502  0.46186294970E+02  0.83917271157E+01  0.22594327612E+02  0.52308589804E+02  0.47000000000E+01 0. -1.
        -11    1    1    2    0    0 -0.23537632767E+02 -0.32618308729E+02 -0.13695991361E+02  0.42491815682E+02  0.00000000000E+00 0.  1.
         11    1    1    2    0    0  0.19066377062E+02  0.26191846224E+02  0.47010531344E+02  0.57092290199E+02  0.00000000000E+00 0. -1.
<mgrwt>
<rscale>  0 0.11652665E+03</rscale>
<asrwt>0</asrwt>
<pdfrwt beam="1">  1        1 0.45362523E-01 0.12524524E+03</pdfrwt>
<pdfrwt beam="2">  1       -1 0.77390919E-02 0.12524524E+03</pdfrwt>
<totfact> 0.76693357E+03</totfact>
</mgrwt>
</event>
<event>
 6    1  0.9240440E-006  0.1371043E+03  0.7546771E-02  0.1228727E+00
         -4   -1    0    0    0  501 -0.00000000000E+00  0.00000000000E+00  0.73449340500E+02  0.73449340500E+02  0.00000000000E+00 0.  1.
          4   -1    0    0  501    0  0.00000000000E+00 -0.00000000000E+00 -0.24175765696E+03  0.24175765696E+03  0.00000000000E+00 0. -1.
          5    1    1    2  502    0  0.75885360562E+02 -0.25929922145E+01 -0.13009661227E+03  0.15070676853E+03  0.47000000000E+01 0. -1.
         -5    1    1    2    0  502 -0.34736432291E+02 -0.35857772866E+02 -0.24122531684E+02  0.55645180726E+02  0.47000000000E+01 0. -1.
        -11    1    1    2    0    0  0.15353309012E+02  0.14572693306E+02  0.27530477926E+02  0.34727722393E+02  0.00000000000E+00 0.  1.
         11    1    1    2    0    0 -0.56502237282E+02  0.23878071775E+02 -0.41619650428E+02  0.74127325808E+02  0.00000000000E+00 0. -1.
<mgrwt>
<rscale>  0 0.12914669E+03</rscale>
<asrwt>0</asrwt>
<pdfrwt beam="2">  1        4 0.37193486E-01 0.13710428E+03</pdfrwt>
<pdfrwt beam="1">  1       -4 0.11299899E-01 0.13710428E+03</pdfrwt>
<totfact> 0.71728526E+02</totfact>
</mgrwt>
</event>
<event>
 6    1  0.9240440E-006  0.2357308E+03  0.7546771E-02  0.1122670E+00
          1   -1    0    0  501    0  0.00000000000E+00  0.00000000000E+00  0.26500522740E+03  0.26500522740E+03  0.00000000000E+00 0. -1.
         -1   -1    0    0    0  501 -0.00000000000E+00 -0.00000000000E+00 -0.52422568015E+02  0.52422568015E+02  0.00000000000E+00 0.  1.
          5    1    1    2  502    0  0.66515463993E+02  0.42768925804E+02  0.12815153046E+03  0.15065985771E+03  0.47000000000E+01 0.  1.
         -5    1    1    2    0  502 -0.34225786968E+02 -0.13462144803E+02  0.55443753320E+01  0.37489517656E+02  0.47000000000E+01 0.  1.
        -11    1    1    2    0    0  0.16320513609E+02 -0.47285845605E+02  0.31954606506E+02  0.59358295427E+02  0.00000000000E+00 0. -1.
         11    1    1    2    0    0 -0.48610190634E+02  0.17979064604E+02  0.46932147079E+02  0.69920124621E+02  0.00000000000E+00 0.  1.
<mgrwt>
<rscale>  0 0.23573082E+03</rscale>
<asrwt>0</asrwt>
<pdfrwt beam="1">  1        1 0.40770034E-01 0.23573082E+03</pdfrwt>
<pdfrwt beam="2">  1       -1 0.80650106E-02 0.23573082E+03</pdfrwt>
<totfact> 0.85723919E+03</totfact>
</mgrwt>
</event>
<event>
 6    1  0.9240440E-006  0.1859904E+03  0.7546771E-02  0.1167109E+00
          1   -1    0    0  501    0  0.00000000000E+00  0.00000000000E+00  0.37203753296E+03  0.37203753296E+03  0.00000000000E+00 0. -1.
         -1   -1    0    0    0  501 -0.00000000000E+00 -0.00000000000E+00 -0.83479803876E+02  0.83479803876E+02  0.00000000000E+00 0.  1.
          5    1    1    2  502    0  0.99281594500E+02  0.19639719256E+02  0.61799197399E+02  0.11867512114E+03  0.47000000000E+01 0.  1.
         -5    1    1    2    0  502 -0.73138373800E+01  0.82842114972E+02  0.76536474515E+02  0.11312042327E+03  0.47000000000E+01 0.  1.
        -11    1    1    2    0    0  0.17868659595E+02 -0.22323679046E+02  0.16516578474E+02  0.33021705080E+02  0.00000000000E+00 0.  1.
         11    1    1    2    0    0 -0.10983641672E+03 -0.80158155182E+02  0.13370547869E+03  0.19070008734E+03  0.00000000000E+00 0. -1.
<mgrwt>
<rscale>  0 0.18071923E+03</rscale>
<asrwt>0</asrwt>
<pdfrwt beam="1">  1        1 0.57236543E-01 0.18599037E+03</pdfrwt>
<pdfrwt beam="2">  1       -1 0.12843047E-01 0.18599037E+03</pdfrwt>
<totfact> 0.26964087E+03</totfact>
</mgrwt>
</event>
<event>
 6    1  0.9240440E-006  0.2337474E+03  0.7546771E-02  0.1126778E+00
         -1   -1    0    0    0  501 -0.00000000000E+00  0.00000000000E+00  0.55192985084E+02  0.55192985084E+02  0.00000000000E+00 0.  1.
          1   -1    0    0  501    0  0.00000000000E+00 -0.00000000000E+00 -0.92786054088E+03  0.92786054088E+03  0.00000000000E+00 0. -1.
          5    1    1    2  502    0 -0.12143214048E+03 -0.65483284026E+02 -0.31716170113E+03  0.34590093942E+03  0.47000000000E+01 0.  1.
         -5    1    1    2    0  502 -0.75799883638E+02  0.54551545156E+02 -0.15675679003E+03  0.18252746275E+03  0.47000000000E+01 0.  1.
        -11    1    1    2    0    0  0.96167995294E+02 -0.18252784769E+01 -0.29037874455E+03  0.30589447567E+03  0.00000000000E+00 0. -1.
         11    1    1    2    0    0  0.10106402883E+03  0.12757017347E+02 -0.10837032009E+03  0.14873064812E+03  0.00000000000E+00 0.  1.
<mgrwt>
<rscale>  0 0.22980302E+03</rscale>
<asrwt>0</asrwt>
<pdfrwt beam="2">  1        1 0.14274777E+00 0.23374738E+03</pdfrwt>
<pdfrwt beam="1">  1       -1 0.84912288E-02 0.23374738E+03</pdfrwt>
<totfact> 0.14266276E+03</totfact>
</mgrwt>
</event>
<event>
 6    1  0.9240440E-006  0.1250398E+03  0.7546771E-02  0.1250142E+00
         -2   -1    0    0    0  501 -0.00000000000E+00  0.00000000000E+00  0.19505140557E+02  0.19505140557E+02  0.00000000000E+00 0.  1.
          2   -1    0    0  501    0  0.00000000000E+00 -0.00000000000E+00 -0.61213996443E+03  0.61213996443E+03  0.00000000000E+00 0. -1.
          5    1    1    2  502    0 -0.47635745854E+02  0.16890852971E+02 -0.73436610925E+02  0.89272005810E+02  0.47000000000E+01 0. -1.
         -5    1    1    2    0  502  0.47498570620E+02 -0.20036284140E+02 -0.30295397600E+03  0.30734470626E+03  0.47000000000E+01 0. -1.
        -11    1    1    2    0    0 -0.25197212988E+02 -0.35592902184E+02 -0.13042276539E+03  0.13752036926E+03  0.00000000000E+00 0.  1.
         11    1    1    2    0    0  0.25334388222E+02  0.38738333352E+02 -0.85821471555E+02  0.97508023656E+02  0.00000000000E+00 0. -1.
<mgrwt>
<rscale>  0 0.11582837E+03</rscale>
<asrwt>0</asrwt>
<pdfrwt beam="2">  1        2 0.94175383E-01 0.12503976E+03</pdfrwt>
<pdfrwt beam="1">  1       -2 0.30007907E-02 0.12503976E+03</pdfrwt>
<totfact> 0.19563698E+04</totfact>
</mgrwt>
</event>
<event>
 6    1  0.9240440E-006  0.3892494E+03  0.7546771E-02  0.1047567E+00
         -2   -1    0    0    0  501 -0.00000000000E+00  0.00000000000E+00  0.42199701839E+03  0.42199701839E+03  0.00000000000E+00 0.  1.
          2   -1    0    0  501    0  0.00000000000E+00 -0.00000000000E+00 -0.89760747159E+02  0.89760747159E+02  0.00000000000E+00 0. -1.
          5    1    1    2  502    0  0.14611673500E+02  0.40860910437E+02  0.27635585066E+02  0.51661693412E+02  0.47000000000E+01 0. -1.
         -5    1    1    2    0  502  0.68467774405E+02 -0.86964244977E+02  0.21392964028E+02  0.11282891893E+03  0.47000000000E+01 0. -1.
        -11    1    1    2    0    0 -0.10743350862E+03 -0.34829260305E+02  0.19327200717E+03  0.22385063078E+03  0.00000000000E+00 0.  1.
         11    1    1    2    0    0  0.24354060711E+02  0.80932594845E+02  0.89935714968E+02  0.12341652243E+03  0.00000000000E+00 0. -1.
<mgrwt>
<rscale>  0 0.38924937E+03</rscale>
<asrwt>0</asrwt>
<pdfrwt beam="2">  1        2 0.13809346E-01 0.38924937E+03</pdfrwt>
<pdfrwt beam="1">  1       -2 0.64922617E-01 0.38924937E+03</pdfrwt>
<totfact> 0.97104844E+02</totfact>
</mgrwt>
</event>
<event>
 6    1  0.9240440E-006  0.1273019E+03  0.7546771E-02  0.1247210E+00
          1   -1    0    0  501    0  0.00000000000E+00  0.00000000000E+00  0.16119112943E+03  0.16119112943E+03  0.00000000000E+00 0. -1.
         -1   -1    0    0    0  501 -0.00000000000E+00 -0.00000000000E+00 -0.76344798172E+02  0.76344798172E+02  0.00000000000E+00 0.  1.
          5    1    1    2  502    0 -0.17863576896E+02 -0.65835810707E+02  0.39859608801E+02  0.79147582178E+02  0.47000000000E+01 0.  1.
         -5    1    1    2    0  502 -0.49938600739E+01  0.58215591135E+02  0.25029024420E+02  0.63738024389E+02  0.47000000000E+01 0.  1.
        -11    1    1    2    0    0  0.37920947613E+02 -0.17850875699E+02  0.40771230438E+02  0.58471747559E+02  0.00000000000E+00 0. -1.
         11    1    1    2    0    0 -0.15063510644E+02  0.25471095271E+02 -0.20813532406E+02  0.36178573471E+02  0.00000000000E+00 0.  1.
<mgrwt>
<rscale>  0 0.11754053E+03</rscale>
<asrwt>0</asrwt>
<pdfrwt beam="1">  1        1 0.24798635E-01 0.12730185E+03</pdfrwt>
<pdfrwt beam="2">  1       -1 0.11745354E-01 0.12730185E+03</pdfrwt>
<totfact> 0.86072117E+03</totfact>
</mgrwt>
</event>
<event>
 6    1  0.9240440E-006  0.2936376E+03  0.7546771E-02  0.1088465E+00
         -1   -1    0    0    0  501 -0.00000000000E+00  0.00000000000E+00  0.16209559599E+03  0.16209559599E+03  0.00000000000E+00 0.  1.
          1   -1    0    0  501    0  0.00000000000E+00 -0.00000000000E+00 -0.13298177198E+03  0.13298177198E+03  0.00000000000E+00 0. -1.
          5    1    1    2  502    0 -0.65873090160E+02  0.53740798846E+02  0.77289246816E+01  0.85493647393E+02  0.47000000000E+01 0. -1.
         -5    1    1    2    0  502  0.54623412821E+02  0.14350696422E+02 -0.85974723638E+01  0.57320731390E+02  0.47000000000E+01 0. -1.
        -11    1    1    2    0    0  0.19933470001E+02 -0.41829704517E+02 -0.49680068845E+02  0.67935091423E+02  0.00000000000E+00 0. -1.
         11    1    1    2    0    0 -0.86837926616E+01 -0.26261790751E+02  0.79662440537E+02  0.84327897761E+02  0.00000000000E+00 0.  1.
<mgrwt>
<rscale>  0 0.29363760E+03</rscale>
<asrwt>0</asrwt>
<pdfrwt beam="2">  1        1 0.20458734E-01 0.29363760E+03</pdfrwt>
<pdfrwt beam="1">  1       -1 0.24937784E-01 0.29363760E+03</pdfrwt>
<totfact> 0.34576249E+03</totfact>
</mgrwt>
</event>
<event>
 6    1  0.9240440E-006  0.3381913E+03  0.7546771E-02  0.1099933E+00
          2   -1    0    0  501    0  0.00000000000E+00  0.00000000000E+00  0.21162040243E+04  0.21162040243E+04  0.00000000000E+00 0. -1.
         -2   -1    0    0    0  501 -0.00000000000E+00 -0.00000000000E+00 -0.43564968744E+02  0.43564968744E+02  0.00000000000E+00 0.  1.
          5    1    1    2  502    0 -0.20443004364E+03 -0.61132698262E+02  0.12885415431E+04  0.13060973347E+04  0.47000000000E+01 0. -1.
         -5    1    1    2    0  502  0.12330634372E+03 -0.10016379235E+02  0.63740959583E+03  0.64932108013E+03  0.47000000000E+01 0.  1.
        -11    1    1    2    0    0  0.62243341659E+02  0.51421699768E+01  0.30761385064E+02  0.69619956220E+02  0.00000000000E+00 0. -1.
         11    1    1    2    0    0  0.18880358256E+02  0.66006907520E+02  0.11592653156E+03  0.13473062194E+03  0.00000000000E+00 0.  1.
<mgrwt>
<rscale>  0 0.27236610E+03</rscale>
<asrwt>0</asrwt>
<pdfrwt beam="1">  1        2 0.32556977E+00 0.33819135E+03</pdfrwt>
<pdfrwt beam="2">  1       -2 0.67023045E-02 0.33819135E+03</pdfrwt>
<totfact> 0.79750899E+02</totfact>
</mgrwt>
</event>
<event>
 6    1  0.9240440E-006  0.1152415E+03  0.7546771E-02  0.1258756E+00
          1   -1    0    0  501    0  0.00000000000E+00  0.00000000000E+00  0.62206657948E+03  0.62206657948E+03  0.00000000000E+00 0. -1.
         -1   -1    0    0    0  501 -0.00000000000E+00 -0.00000000000E+00 -0.74555762430E+02  0.74555762430E+02  0.00000000000E+00 0.  1.
          5    1    1    2  502    0 -0.57060665688E+02 -0.24503039419E+02  0.49592799655E+03  0.49982295493E+03  0.47000000000E+01 0. -1.
         -5    1    1    2    0  502  0.31520707056E+02  0.17310965874E+02  0.84813322662E+02  0.92242149876E+02  0.47000000000E+01 0.  1.
        -11    1    1    2    0    0  0.54122515451E+02  0.22197717321E+02 -0.37882669626E+00  0.58498964458E+02  0.00000000000E+00 0.  1.
         11    1    1    2    0    0 -0.28582556819E+02 -0.15005643775E+02 -0.32851675461E+02  0.46058272655E+02  0.00000000000E+00 0. -1.
<mgrwt>
<rscale>  0 0.11098508E+03</rscale>
<asrwt>0</asrwt>
<pdfrwt beam="1">  1        1 0.95702548E-01 0.11524152E+03</pdfrwt>
<pdfrwt beam="2">  1       -1 0.11470118E-01 0.11524152E+03</pdfrwt>
<totfact> 0.16205756E+03</totfact>
</mgrwt>
</event>
<event>
 6    1  0.9240440E-006  0.1271833E+03  0.7546771E-02  0.1246141E+00
         -2   -1    0    0    0  501 -0.00000000000E+00  0.00000000000E+00  0.42867913177E+02  0.42867913177E+02  0.00000000000E+00 0.  1.
          2   -1    0    0  501    0  0.00000000000E+00 -0.00000000000E+00 -0.41282830325E+03  0.41282830325E+03  0.00000000000E+00 0. -1.
          5    1    1    2  502    0  0.65510788550E+02  0.30228201603E+02 -0.22801709318E+03  0.23920554419E+03  0.47000000000E+01 0. -1.
         -5    1    1    2    0  502 -0.42058913410E+02 -0.29884839165E+02 -0.10042419455E+03  0.11300072859E+03  0.47000000000E+01 0. -1.
        -11    1    1    2    0    0  0.29963256330E+02 -0.15914516153E+02 -0.32767246159E+02  0.47167371934E+02  0.00000000000E+00 0. -1.
         11    1    1    2    0    0 -0.53415131470E+02  0.15571153715E+02 -0.87518561748E+01  0.56322571714E+02  0.00000000000E+00 0.  1.
<mgrwt>
<rscale>  0 0.11817354E+03</rscale>
<asrwt>0</asrwt>
<pdfrwt beam="2">  1        2 0.63512047E-01 0.12718325E+03</pdfrwt>
<pdfrwt beam="1">  1       -2 0.65950635E-02 0.12718325E+03</pdfrwt>
<totfact> 0.93296624E+03</totfact>
</mgrwt>
</event>
<event>
 6    1  0.9240440E-006  0.1356896E+03  0.7546771E-02  0.1231500E+00
         -1   -1    0    0    0  501 -0.00000000000E+00  0.00000000000E+00  0.12137179060E+03  0.12137179060E+03  0.00000000000E+00 0.  1.
          1   -1    0    0  501    0  0.00000000000E+00 -0.00000000000E+00 -0.11964133233E+03  0.11964133233E+03  0.00000000000E+00 0. -1.
          5    1    1    2  502    0  0.15910286119E+02  0.74453469414E+01  0.48502538073E+02  0.51799194926E+02  0.47000000000E+01 0.  1.
         -5    1    1    2    0  502 -0.64407395219E+02  0.13404843405E+02 -0.51910454801E+02  0.83933233605E+02  0.47000000000E+01 0.  1.
        -11    1    1    2    0    0  0.12405351875E+02 -0.77007752589E+01  0.46556182826E+02  0.48792139265E+02  0.00000000000E+00 0.  1.
         11    1    1    2    0    0  0.36091757226E+02 -0.13149415087E+02 -0.41417807827E+02  0.56488555142E+02  0.00000000000E+00 0. -1.
<mgrwt>
<rscale>  0 0.12731153E+03</rscale>
<asrwt>0</asrwt>
<pdfrwt beam="2">  1        1 0.18406359E-01 0.13568964E+03</pdfrwt>
<pdfrwt beam="1">  1       -1 0.18672583E-01 0.13568964E+03</pdfrwt>
<totfact> 0.61031651E+03</totfact>
</mgrwt>
</event>
<event>
 6    1  0.9240440E-006  0.3755631E+03  0.7546771E-02  0.1052586E+00
          1   -1    0    0  501    0  0.00000000000E+00  0.00000000000E+00  0.98041481569E+03  0.98041481569E+03  0.00000000000E+00 0. -1.
         -1   -1    0    0    0  501 -0.00000000000E+00 -0.00000000000E+00 -0.35966314006E+02  0.35966314006E+02  0.00000000000E+00 0.  1.
          5    1    1    2  502    0 -0.70853305299E+01 -0.13080089713E+02  0.13851892431E+03  0.13939466650E+03  0.47000000000E+01 0.  1.
         -5    1    1    2    0  502  0.11618767454E+03  0.11969866449E+03  0.36356460810E+03  0.40003582372E+03  0.47000000000E+01 0.  1.
        -11    1    1    2    0    0 -0.71194450402E+02 -0.39733367925E+02  0.33574763806E+03  0.34550523405E+03  0.00000000000E+00 0. -1.
         11    1    1    2    0    0 -0.37907893604E+02 -0.66885206850E+02  0.10661733120E+03  0.13144540542E+03  0.00000000000E+00 0.  1.
<mgrwt>
<rscale>  0 0.37556308E+03</rscale>
<asrwt>0</asrwt>
<pdfrwt beam="1">  1        1 0.15083303E+00 0.37556308E+03</pdfrwt>
<pdfrwt beam="2">  1       -1 0.55332798E-02 0.37556308E+03</pdfrwt>
<totfact> 0.25047483E+03</totfact>
</mgrwt>
</event>
<event>
 6    1  0.9240440E-006  0.3515831E+03  0.7546771E-02  0.1061967E+00
          2   -1    0    0  501    0  0.00000000000E+00  0.00000000000E+00  0.22031151438E+03  0.22031151438E+03  0.00000000000E+00 0.  1.
         -2   -1    0    0    0  501 -0.00000000000E+00 -0.00000000000E+00 -0.14026802459E+03  0.14026802459E+03  0.00000000000E+00 0. -1.
          5    1    1    2  502    0 -0.13064614531E+03 -0.23598318155E+02  0.80015467988E+02  0.15508017611E+03  0.47000000000E+01 0. -1.
         -5    1    1    2    0  502  0.13211867873E+02  0.35340920178E+02  0.35649601042E+02  0.52120227802E+02  0.47000000000E+01 0. -1.
        -11    1    1    2    0    0  0.63339421744E+02  0.35635276166E+02 -0.36797382849E+02  0.81460436034E+02  0.00000000000E+00 0. -1.
         11    1    1    2    0    0  0.54094855696E+02 -0.47377878188E+02  0.11758036110E+01  0.71918699018E+02  0.00000000000E+00 0.  1.
<mgrwt>
<rscale>  0 0.35158305E+03</rscale>
<asrwt>0</asrwt>
<pdfrwt beam="1">  1        2 0.33894079E-01 0.35158305E+03</pdfrwt>
<pdfrwt beam="2">  1       -2 0.21579696E-01 0.35158305E+03</pdfrwt>
<totfact> 0.28340972E+03</totfact>
</mgrwt>
</event>
<event>
 6    1  0.9240440E-006  0.1674845E+03  0.7546771E-02  0.1187290E+00
          2   -1    0    0  501    0  0.00000000000E+00  0.00000000000E+00  0.14139069207E+03  0.14139069207E+03  0.00000000000E+00 0. -1.
         -2   -1    0    0    0  501 -0.00000000000E+00 -0.00000000000E+00 -0.17735582132E+03  0.17735582132E+03  0.00000000000E+00 0.  1.
          5    1    1    2  502    0  0.57097620875E+02 -0.35406376706E+01  0.67011581544E+02  0.88234440474E+02  0.47000000000E+01 0. -1.
         -5    1    1    2    0  502  0.50971674689E+02 -0.20471699237E+02 -0.57321463884E+02  0.79530134617E+02  0.47000000000E+01 0. -1.
        -11    1    1    2    0    0 -0.23862401336E+02 -0.51015679025E+01 -0.56193611633E+02  0.61263057228E+02  0.00000000000E+00 0.  1.
         11    1    1    2    0    0 -0.84206894228E+02  0.29113904810E+02  0.10538364721E+02  0.89718881067E+02  0.00000000000E+00 0. -1.
<mgrwt>
<rscale>  0 0.16125250E+03</rscale>
<asrwt>0</asrwt>
<pdfrwt beam="1">  1        2 0.21752414E-01 0.16748449E+03</pdfrwt>
<pdfrwt beam="2">  1       -2 0.27285511E-01 0.16748449E+03</pdfrwt>
<totfact> 0.29848559E+03</totfact>
</mgrwt>
</event>
<event>
 6    1  0.9240440E-006  0.2315967E+03  0.7546771E-02  0.1128320E+00
         -2   -1    0    0    0  501 -0.00000000000E+00  0.00000000000E+00  0.56599711085E+02  0.56599711085E+02  0.00000000000E+00 0.  1.
          2   -1    0    0  501    0  0.00000000000E+00 -0.00000000000E+00 -0.14845043089E+04  0.14845043089E+04  0.00000000000E+00 0. -1.
          5    1    1    2  502    0  0.15501456379E+03 -0.79836673879E+02 -0.91568458773E+03  0.93215007573E+03  0.47000000000E+01 0.  1.
         -5    1    1    2    0  502 -0.14327741287E+02 -0.55141939172E+02 -0.30230294645E+03  0.30766065569E+03  0.47000000000E+01 0.  1.
        -11    1    1    2    0    0 -0.13533314789E+03  0.97136161365E+02 -0.12530902663E+03  0.20845346464E+03  0.00000000000E+00 0.  1.
         11    1    1    2    0    0 -0.53536746129E+01  0.37842451686E+02 -0.84608037025E+02  0.92839823948E+02  0.00000000000E+00 0. -1.
<mgrwt>
<rscale>  0 0.22762939E+03</rscale>
<asrwt>0</asrwt>
<pdfrwt beam="2">  1        2 0.22838529E+00 0.23159667E+03</pdfrwt>
<pdfrwt beam="1">  1       -2 0.87076475E-02 0.23159667E+03</pdfrwt>
<totfact> 0.11551825E+03</totfact>
</mgrwt>
</event>
<event>
 6    1  0.9240440E-006  0.1297000E+03  0.7546771E-02  0.1241658E+00
          1   -1    0    0  501    0  0.00000000000E+00  0.00000000000E+00  0.14979983736E+04  0.14979983736E+04  0.00000000000E+00 0. -1.
         -1   -1    0    0    0  501 -0.00000000000E+00 -0.00000000000E+00 -0.15700425100E+02  0.15700425100E+02  0.00000000000E+00 0.  1.
          5    1    1    2  502    0  0.65629747779E+02 -0.23574297046E+02  0.60568261944E+03  0.60970200653E+03  0.47000000000E+01 0.  1.
         -5    1    1    2    0  502 -0.37718207945E+02  0.43998676250E+02  0.69732318261E+03  0.69974299405E+03  0.47000000000E+01 0.  1.
        -11    1    1    2    0    0 -0.38862951000E+02  0.25506927056E+02  0.11840122961E+03  0.12719977776E+03  0.00000000000E+00 0. -1.
         11    1    1    2    0    0  0.10951411167E+02 -0.45931306260E+02  0.60890916884E+02  0.77054020403E+02  0.00000000000E+00 0.  1.
<mgrwt>
<rscale>  0 0.12087634E+03</rscale>
<asrwt>0</asrwt>
<pdfrwt beam="1">  1        1 0.23046118E+00 0.12970000E+03</pdfrwt>
<pdfrwt beam="2">  1       -1 0.24154512E-02 0.12970000E+03</pdfrwt>
<totfact> 0.36823552E+03</totfact>
</mgrwt>
</event>
<event>
 6    1  0.9240440E-006  0.1780672E+03  0.7546771E-02  0.1175020E+00
         -1   -1    0    0    0  501 -0.00000000000E+00  0.00000000000E+00  0.69322018674E+02  0.69322018674E+02  0.00000000000E+00 0.  1.
          1   -1    0    0  501    0  0.00000000000E+00 -0.00000000000E+00 -0.42089817779E+03  0.42089817779E+03  0.00000000000E+00 0. -1.
          5    1    1    2  502    0 -0.97484698950E+02 -0.34356702283E+02 -0.18432395167E+03  0.21137894569E+03  0.47000000000E+01 0. -1.
         -5    1    1    2    0  502 -0.26826241192E+02  0.59442185671E+02 -0.46906661807E+02  0.80469531971E+02  0.47000000000E+01 0. -1.
        -11    1    1    2    0    0 -0.93167247369E+01 -0.10556133601E+02 -0.38512833851E+02  0.41005751885E+02  0.00000000000E+00 0. -1.
         11    1    1    2    0    0  0.13362766488E+03 -0.14529349787E+02 -0.81832711788E+02  0.15736596692E+03  0.00000000000E+00 0.  1.
<mgrwt>
<rscale>  0 0.17274033E+03</rscale>
<asrwt>0</asrwt>
<pdfrwt beam="2">  1        1 0.64753567E-01 0.17806723E+03</pdfrwt>
<pdfrwt beam="1">  1       -1 0.10664926E-01 0.17806723E+03</pdfrwt>
<totfact> 0.30704141E+03</totfact>
</mgrwt>
</event>
<event>
 6    1  0.9240440E-006  0.1278222E+03  0.7546771E-02  0.1245077E+00
          1   -1    0    0  501    0  0.00000000000E+00  0.00000000000E+00  0.49427952103E+02  0.49427952103E+02  0.00000000000E+00 0. -1.
         -1   -1    0    0    0  501 -0.00000000000E+00 -0.00000000000E+00 -0.25771678170E+03  0.25771678170E+03  0.00000000000E+00 0.  1.
          5    1    1    2  502    0  0.12425175911E+02 -0.27565402075E+02 -0.10526128257E+03  0.10961872101E+03  0.47000000000E+01 0.  1.
         -5    1    1    2    0  502  0.30395004548E+01  0.49347202572E+02  0.89019825889E+01  0.50455131144E+02  0.47000000000E+01 0.  1.
        -11    1    1    2    0    0 -0.31592703975E+02 -0.52816265071E+01  0.76332183999E+00  0.32040243184E+02  0.00000000000E+00 0. -1.
         11    1    1    2    0    0  0.16128027610E+02 -0.16500173990E+02 -0.11269285146E+03  0.11503063847E+03  0.00000000000E+00 0.  1.
<mgrwt>
<rscale>  0 0.11880772E+03</rscale>
<asrwt>0</asrwt>
<pdfrwt beam="1">  1        1 0.76043004E-02 0.12782223E+03</pdfrwt>
<pdfrwt beam="2">  1       -1 0.39648735E-01 0.12782223E+03</pdfrwt>
<totfact> 0.55403936E+03</totfact>
</mgrwt>
</event>
<event>
 6    1  0.9240440E-006  0.1313699E+03  0.7546771E-02  0.1235461E+00
         -2   -1    0    0    0  501 -0.00000000000E+00  0.00000000000E+00  0.21296378542E+02  0.21296378542E+02  0.00000000000E+00 0.  1.
          2   -1    0    0  501    0  0.00000000000E+00 -0.00000000000E+00 -0.76844860615E+03  0.76844860615E+03  0.00000000000E+00 0. -1.
          5    1    1    2  502    0  0.15519172865E+02  0.56835156953E+02 -0.15133999965E+03  0.16247142914E+03  0.47000000000E+01 0. -1.
         -5    1    1    2    0  502  0.24674221382E+02 -0.53316348444E+02 -0.39908952541E+03  0.40341788446E+03  0.47000000000E+01 0. -1.
        -11    1    1    2    0    0  0.23677102535E+02  0.19078005616E+02 -0.10814594810E+03  0.11233931446E+03  0.00000000000E+00 0. -1.
         11    1    1    2    0    0 -0.63870496782E+02 -0.22596814125E+02 -0.88576754449E+02  0.11151635663E+03  0.00000000000E+00 0.  1.
<mgrwt>
<rscale>  0 0.12474983E+03</rscale>
<asrwt>0</asrwt>
<pdfrwt beam="2">  1        2 0.11822287E+00 0.13136991E+03</pdfrwt>
<pdfrwt beam="1">  1       -2 0.32763656E-02 0.13136991E+03</pdfrwt>
<totfact> 0.13202354E+04</totfact>
</mgrwt>
</event>
<event>
 6    1  0.9240440E-006  0.3381117E+03  0.7546771E-02  0.1067603E+00
         -2   -1    0    0    0  501 -0.00000000000E+00  0.00000000000E+00  0.44104768484E+02  0.44104768484E+02  0.00000000000E+00 0.  1.
          2   -1    0    0  501    0  0.00000000000E+00 -0.00000000000E+00 -0.64799984699E+03  0.64799984699E+03  0.00000000000E+00 0. -1.
          5    1    1    2  502    0 -0.16573746168E+02  0.16793021823E+02 -0.72808304609E+01  0.25135535327E+02  0.47000000000E+01 0. -1.
         -5    1    1    2    0  502 -0.14887862816E+02 -0.14063343557E+03 -0.26867975169E+03  0.30366150666E+03  0.47000000000E+01 0. -1.
        -11    1    1    2    0    0  0.57221509253E+02  0.90649048022E+02 -0.27856918030E+03  0.29848339860E+03  0.00000000000E+00 0. -1.
         11    1    1    2    0    0 -0.25759900269E+02  0.33191365721E+02 -0.49365316053E+02  0.64824174883E+02  0.00000000000E+00 0.  1.
<mgrwt>
<rscale>  0 0.33811172E+03</rscale>
<asrwt>0</asrwt>
<pdfrwt beam="2">  1        2 0.99692286E-01 0.33811172E+03</pdfrwt>
<pdfrwt beam="1">  1       -2 0.67853489E-02 0.33811172E+03</pdfrwt>
<totfact> 0.56525057E+03</totfact>
</mgrwt>
</event>
<event>
 6    1  0.9240440E-006  0.1622662E+03  0.7546771E-02  0.1193423E+00
         -1   -1    0    0    0  501 -0.00000000000E+00  0.00000000000E+00  0.25383093807E+02  0.25383093807E+02  0.00000000000E+00 0.  1.
          1   -1    0    0  501    0  0.00000000000E+00 -0.00000000000E+00 -0.13176167456E+04  0.13176167456E+04  0.00000000000E+00 0. -1.
          5    1    1    2  502    0 -0.12619261528E+01  0.11020837736E+03 -0.72954123782E+03  0.73783466074E+03  0.47000000000E+01 0.  1.
         -5    1    1    2    0  502 -0.48010366395E+02 -0.19241270878E+02 -0.33355922351E+03  0.33757823889E+03  0.47000000000E+01 0.  1.
        -11    1    1    2    0    0 -0.95625674001E+01  0.14180941930E+02 -0.20894861299E+02  0.27002537622E+02  0.00000000000E+00 0. -1.
         11    1    1    2    0    0  0.58834859948E+02 -0.10514804842E+03 -0.20823832920E+03  0.24058440219E+03  0.00000000000E+00 0.  1.
<mgrwt>
<rscale>  0 0.15588428E+03</rscale>
<asrwt>0</asrwt>
<pdfrwt beam="2">  1        1 0.20271031E+00 0.16226618E+03</pdfrwt>
<pdfrwt beam="1">  1       -1 0.39050906E-02 0.16226618E+03</pdfrwt>
<totfact> 0.24094710E+03</totfact>
</mgrwt>
</event>
<event>
 6    1  0.9240440E-006  0.2486182E+03  0.7546771E-02  0.1116516E+00
          2   -1    0    0  501    0  0.00000000000E+00  0.00000000000E+00  0.22971796568E+03  0.22971796568E+03  0.00000000000E+00 0. -1.
         -2   -1    0    0    0  501 -0.00000000000E+00 -0.00000000000E+00 -0.34971894919E+03  0.34971894919E+03  0.00000000000E+00 0.  1.
          5    1    1    2  502    0  0.11315849106E+03 -0.41386592544E+02 -0.93845131642E+01  0.12094566230E+03  0.47000000000E+01 0. -1.
         -5    1    1    2    0  502  0.10085884867E+03  0.21843504353E+02  0.99701814076E+02  0.14356945277E+03  0.47000000000E+01 0. -1.
        -11    1    1    2    0    0 -0.97185141746E+02 -0.25918292144E+02 -0.13610322714E+03  0.16923592433E+03  0.00000000000E+00 0.  1.
         11    1    1    2    0    0 -0.11683219799E+03  0.45461380335E+02 -0.74215057280E+02  0.14568587548E+03  0.00000000000E+00 0. -1.
<mgrwt>
<rscale>  0 0.24498402E+03</rscale>
<asrwt>0</asrwt>
<pdfrwt beam="1">  1        2 0.35341226E-01 0.24861824E+03</pdfrwt>
<pdfrwt beam="2">  1       -2 0.53802915E-01 0.24861824E+03</pdfrwt>
<totfact> 0.48635064E+02</totfact>
</mgrwt>
</event>
<event>
 6    1  0.9240440E-006  0.1729662E+03  0.7546771E-02  0.1180831E+00
         -1   -1    0    0    0  501 -0.00000000000E+00  0.00000000000E+00  0.95737721536E+02  0.95737721536E+02  0.00000000000E+00 0.  1.
          1   -1    0    0  501    0  0.00000000000E+00 -0.00000000000E+00 -0.37129565443E+03  0.37129565443E+03  0.00000000000E+00 0. -1.
          5    1    1    2  502    0 -0.10488774837E+03 -0.15492877639E+01 -0.25569663103E+03  0.27641761371E+03  0.47000000000E+01 0. -1.
         -5    1    1    2    0  502 -0.93124738470E+01  0.36906101308E+02 -0.83712552092E+01  0.39254941048E+02  0.47000000000E+01 0. -1.
        -11    1    1    2    0    0  0.14228250852E+02  0.26700229577E+02  0.97612882903E+01  0.31790377961E+02  0.00000000000E+00 0.  1.
         11    1    1    2    0    0  0.99971971369E+02 -0.62057043121E+02 -0.21251334945E+02  0.11957044324E+03  0.00000000000E+00 0. -1.
<mgrwt>
<rscale>  0 0.16717087E+03</rscale>
<asrwt>0</asrwt>
<pdfrwt beam="2">  1        1 0.57122408E-01 0.17296622E+03</pdfrwt>
<pdfrwt beam="1">  1       -1 0.14728880E-01 0.17296622E+03</pdfrwt>
<totfact> 0.21755085E+03</totfact>
</mgrwt>
</event>
<event>
 6    1  0.9240440E-006  0.1385088E+03  0.7546771E-02  0.1224385E+00
          2   -1    0    0  501    0  0.00000000000E+00  0.00000000000E+00  0.11306805319E+03  0.11306805319E+03  0.00000000000E+00 0. -1.
         -2   -1    0    0    0  501 -0.00000000000E+00 -0.00000000000E+00 -0.16158053015E+03  0.16158053015E+03  0.00000000000E+00 0.  1.
          5    1    1    2  502    0 -0.77873001088E+02  0.23055311497E+02 -0.15233198670E+02  0.82764074503E+02  0.47000000000E+01 0.  1.
         -5    1    1    2    0  502  0.38065840531E+02  0.21379097474E+02  0.37048400485E+02  0.57452136624E+02  0.47000000000E+01 0.  1.
        -11    1    1    2    0    0  0.22011945095E+02 -0.11622305195E+01  0.21864290205E+02  0.31047120523E+02  0.00000000000E+00 0. -1.
         11    1    1    2    0    0  0.17795215462E+02 -0.43272178451E+02 -0.92191968984E+02  0.10338525169E+03  0.00000000000E+00 0.  1.
<mgrwt>
<rscale>  0 0.13209150E+03</rscale>
<asrwt>0</asrwt>
<pdfrwt beam="1">  1        2 0.17395085E-01 0.13850878E+03</pdfrwt>
<pdfrwt beam="2">  1       -2 0.24858543E-01 0.13850878E+03</pdfrwt>
<totfact> 0.44891549E+03</totfact>
</mgrwt>
</event>
<event>
 6    1  0.9240440E-006  0.1323987E+03  0.7546771E-02  0.1236117E+00
         -2   -1    0    0    0  501 -0.00000000000E+00  0.00000000000E+00  0.58719800119E+02  0.58719800119E+02  0.00000000000E+00 0.  1.
          2   -1    0    0  501    0  0.00000000000E+00 -0.00000000000E+00 -0.34297795530E+03  0.34297795530E+03  0.00000000000E+00 0. -1.
          5    1    1    2  502    0  0.25529840620E+02  0.51558153808E+01  0.29756426722E+01  0.26632679993E+02  0.47000000000E+01 0.  1.
         -5    1    1    2    0  502  0.26881942408E+01  0.28122547707E+02 -0.26897510680E+03  0.27049547529E+03  0.47000000000E+01 0.  1.
        -11    1    1    2    0    0 -0.44820708705E+02  0.91858520496E+01 -0.33267232141E+02  0.56568405855E+02  0.00000000000E+00 0. -1.
         11    1    1    2    0    0  0.16602673844E+02 -0.42464215137E+02  0.15008541090E+02  0.48001194273E+02  0.00000000000E+00 0.  1.
<mgrwt>
<rscale>  0 0.12433214E+03</rscale>
<asrwt>0</asrwt>
<pdfrwt beam="2">  1        2 0.52765841E-01 0.13239874E+03</pdfrwt>
<pdfrwt beam="1">  1       -2 0.90338151E-02 0.13239874E+03</pdfrwt>
<totfact> 0.70211388E+03</totfact>
</mgrwt>
</event>
<event>
 6    1  0.9240440E-006  0.1425083E+03  0.7546771E-02  0.1220084E+00
         -3   -1    0    0    0  501 -0.00000000000E+00  0.00000000000E+00  0.72948171153E+03  0.72948171153E+03  0.00000000000E+00 0.  1.
          3   -1    0    0  501    0  0.00000000000E+00 -0.00000000000E+00 -0.25084502998E+02  0.25084502998E+02  0.00000000000E+00 0. -1.
          5    1    1    2  502    0  0.36792757152E+02  0.73662462701E+02  0.22006918804E+03  0.23501575036E+03  0.47000000000E+01 0.  1.
         -5    1    1    2    0  502 -0.49194346394E+02 -0.63574149989E+01  0.51404730791E+02  0.71589362270E+02  0.47000000000E+01 0.  1.
        -11    1    1    2    0    0  0.34557771777E+02 -0.62373424321E+02  0.40826819120E+03  0.41444854880E+03  0.00000000000E+00 0.  1.
         11    1    1    2    0    0 -0.22156182535E+02 -0.49316233807E+01  0.24655098494E+02  0.33512553103E+02  0.00000000000E+00 0. -1.
<mgrwt>
<rscale>  0 0.13509616E+03</rscale>
<asrwt>0</asrwt>
<pdfrwt beam="2">  1        3 0.38591549E-02 0.14250827E+03</pdfrwt>
<pdfrwt beam="1">  1       -3 0.11222794E+00 0.14250827E+03</pdfrwt>
<totfact> 0.55575755E+02</totfact>
</mgrwt>
</event>
<event>
 6    1  0.9240440E-006  0.1265332E+03  0.7546771E-02  0.1247499E+00
         -1   -1    0    0    0  501 -0.00000000000E+00  0.00000000000E+00  0.86540359695E+02  0.86540359695E+02  0.00000000000E+00 0.  1.
          1   -1    0    0  501    0  0.00000000000E+00 -0.00000000000E+00 -0.14021271759E+03  0.14021271759E+03  0.00000000000E+00 0. -1.
          5    1    1    2  502    0  0.54946247104E+02  0.14163508169E+01 -0.45130589103E+01  0.55349379592E+02  0.47000000000E+01 0.  1.
         -5    1    1    2    0  502 -0.67486037392E+02 -0.16593799386E+02 -0.29738829477E+02  0.75737754123E+02  0.47000000000E+01 0.  1.
        -11    1    1    2    0    0  0.25134075633E+02 -0.80750322027E+01  0.29787656902E+02  0.39802417096E+02  0.00000000000E+00 0.  1.
         11    1    1    2    0    0 -0.12594285345E+02  0.23252480772E+02 -0.49208126414E+02  0.55863526478E+02  0.00000000000E+00 0. -1.
<mgrwt>
<rscale>  0 0.11737026E+03</rscale>
<asrwt>0</asrwt>
<pdfrwt beam="2">  1        1 0.21571187E-01 0.12653318E+03</pdfrwt>
<pdfrwt beam="1">  1       -1 0.13313902E-01 0.12653318E+03</pdfrwt>
<totfact> 0.84479658E+03</totfact>
</mgrwt>
</event>
<event>
 6    1  0.9240440E-006  0.5699313E+03  0.7546771E-02  0.1047222E+00
          2   -1    0    0  501    0  0.00000000000E+00  0.00000000000E+00  0.14386935056E+04  0.14386935056E+04  0.00000000000E+00 0. -1.
         -2   -1    0    0    0  501 -0.00000000000E+00 -0.00000000000E+00 -0.94994048298E+02  0.94994048298E+02  0.00000000000E+00 0.  1.
          5    1    1    2  502    0 -0.36411193999E+02 -0.16985190995E+03  0.12416215015E+04  0.12537230512E+04  0.47000000000E+01 0. -1.
         -5    1    1    2    0  502 -0.52559307840E+02  0.11682928579E+03  0.18800876868E+02  0.12956514126E+03  0.47000000000E+01 0.  1.
        -11    1    1    2    0    0  0.89814996405E+02  0.23311111558E+02  0.75629412338E+02  0.11970776713E+03  0.00000000000E+00 0. -1.
         11    1    1    2    0    0 -0.84449456615E+00  0.29711512596E+02  0.76476666208E+01  0.30691594233E+02  0.00000000000E+00 0.  1.
<mgrwt>
<rscale>  0 0.39021330E+03</rscale>
<asrwt>0</asrwt>
<pdfrwt beam="1">  1        2 0.22133745E+00 0.56993127E+03</pdfrwt>
<pdfrwt beam="2">  1       -2 0.14614470E-01 0.56993127E+03</pdfrwt>
<totfact> 0.51460450E+02</totfact>
</mgrwt>
</event>
<event>
 6    1  0.9240440E-006  0.1684592E+03  0.7546771E-02  0.1186141E+00
          2   -1    0    0  501    0  0.00000000000E+00  0.00000000000E+00  0.37829434510E+03  0.37829434510E+03  0.00000000000E+00 0.  1.
         -2   -1    0    0    0  501 -0.00000000000E+00 -0.00000000000E+00 -0.64980497926E+02  0.64980497926E+02  0.00000000000E+00 0. -1.
          5    1    1    2  502    0 -0.16690382241E+02  0.21024823654E+02  0.69268452767E+02  0.74436688654E+02  0.47000000000E+01 0. -1.
         -5    1    1    2    0  502  0.12953282135E+03 -0.16773787914E+02  0.10194217734E+03  0.16575406266E+03  0.47000000000E+01 0. -1.
        -11    1    1    2    0    0 -0.94084343677E+01  0.11250175866E+02  0.80239289182E+02  0.81568551677E+02  0.00000000000E+00 0.  1.
         11    1    1    2    0    0 -0.10343400474E+03 -0.15501211607E+02  0.61863927890E+02  0.12151554004E+03  0.00000000000E+00 0. -1.
<mgrwt>
<rscale>  0 0.16228456E+03</rscale>
<asrwt>0</asrwt>
<pdfrwt beam="1">  1        2 0.58199129E-01 0.16845924E+03</pdfrwt>
<pdfrwt beam="2">  1       -2 0.99969999E-02 0.16845924E+03</pdfrwt>
<totfact> 0.54714467E+03</totfact>
</mgrwt>
</event>
<event>
 6    1  0.9240440E-006  0.3807064E+03  0.7546771E-02  0.1050673E+00
          1   -1    0    0  501    0  0.00000000000E+00  0.00000000000E+00  0.61846511913E+02  0.61846511913E+02  0.00000000000E+00 0. -1.
         -1   -1    0    0    0  501 -0.00000000000E+00 -0.00000000000E+00 -0.58587537522E+03  0.58587537522E+03  0.00000000000E+00 0.  1.
          5    1    1    2  502    0 -0.17863396334E+02  0.10645814917E+02  0.10879509012E+02  0.23935079281E+02  0.47000000000E+01 0.  1.
         -5    1    1    2    0  502 -0.50477865612E+02  0.12936868774E+03 -0.26574702930E+03  0.29987971900E+03  0.47000000000E+01 0.  1.
        -11    1    1    2    0    0 -0.14676905910E+02 -0.70196904556E+02 -0.10682455213E+03  0.12866429930E+03  0.00000000000E+00 0. -1.
         11    1    1    2    0    0  0.83018167856E+02 -0.69817598097E+02 -0.16233679089E+03  0.19524278956E+03  0.00000000000E+00 0.  1.
<mgrwt>
<rscale>  0 0.38070644E+03</rscale>
<asrwt>0</asrwt>
<pdfrwt beam="1">  1        1 0.95148475E-02 0.38070644E+03</pdfrwt>
<pdfrwt beam="2">  1       -1 0.90134677E-01 0.38070644E+03</pdfrwt>
<totfact> 0.87173415E+02</totfact>
</mgrwt>
</event>
<event>
 6    1  0.9240440E-006  0.1301175E+03  0.7546771E-02  0.1242062E+00
          1   -1    0    0  501    0  0.00000000000E+00  0.00000000000E+00  0.24186987864E+03  0.24186987864E+03  0.00000000000E+00 0. -1.
         -1   -1    0    0    0  501 -0.00000000000E+00 -0.00000000000E+00 -0.56396068796E+02  0.56396068796E+02  0.00000000000E+00 0.  1.
          5    1    1    2  502    0 -0.78580698070E+02 -0.25570925114E+02  0.99836052518E+02  0.12968471653E+03  0.47000000000E+01 0.  1.
         -5    1    1    2    0  502  0.44282727117E+02  0.14205253687E+02  0.42691534412E+02  0.63304077781E+02  0.47000000000E+01 0.  1.
        -11    1    1    2    0    0  0.40517561889E+02  0.73940923661E+00 -0.17097907596E+02  0.43983610489E+02  0.00000000000E+00 0.  1.
         11    1    1    2    0    0 -0.62195909371E+01  0.10626262191E+02  0.60044130506E+02  0.61293542627E+02  0.00000000000E+00 0. -1.
<mgrwt>
<rscale>  0 0.12062971E+03</rscale>
<asrwt>0</asrwt>
<pdfrwt beam="1">  1        1 0.37210750E-01 0.13011749E+03</pdfrwt>
<pdfrwt beam="2">  1       -1 0.86763184E-02 0.13011749E+03</pdfrwt>
<totfact> 0.82649481E+03</totfact>
</mgrwt>
</event>
<event>
 6    1  0.9240440E-006  0.1407202E+03  0.7546771E-02  0.1222977E+00
         -1   -1    0    0    0  501 -0.00000000000E+00  0.00000000000E+00  0.25464081488E+03  0.25464081488E+03  0.00000000000E+00 0.  1.
          1   -1    0    0  501    0  0.00000000000E+00 -0.00000000000E+00 -0.63065193128E+02  0.63065193128E+02  0.00000000000E+00 0. -1.
          5    1    1    2  502    0 -0.25302096305E+02 -0.33009437330E+02  0.36712877683E+02  0.55675348387E+02  0.47000000000E+01 0.  1.
         -5    1    1    2    0  502  0.89527637250E+02  0.40441337109E+02  0.63169633686E+02  0.11688965822E+03  0.47000000000E+01 0.  1.
        -11    1    1    2    0    0 -0.54489577706E+02  0.10322091224E+02  0.10648767891E+03  0.12006367230E+03  0.00000000000E+00 0.  1.
         11    1    1    2    0    0 -0.97359632397E+01 -0.17753991004E+02 -0.14794568531E+02  0.25077329100E+02  0.00000000000E+00 0. -1.
<mgrwt>
<rscale>  0 0.13306508E+03</rscale>
<asrwt>0</asrwt>
<pdfrwt beam="2">  1        1 0.97023376E-02 0.14072017E+03</pdfrwt>
<pdfrwt beam="1">  1       -1 0.39175509E-01 0.14072017E+03</pdfrwt>
<totfact> 0.41118570E+03</totfact>
</mgrwt>
</event>
<event>
 6    1  0.9240440E-006  0.1854731E+03  0.7546771E-02  0.1187223E+00
          3   -1    0    0  501    0  0.00000000000E+00  0.00000000000E+00  0.15150042092E+04  0.15150042092E+04  0.00000000000E+00 0. -1.
         -3   -1    0    0    0  501 -0.00000000000E+00 -0.00000000000E+00 -0.16706043195E+02  0.16706043195E+02  0.00000000000E+00 0.  1.
          5    1    1    2  502    0  0.77674717507E+02  0.66087226752E+02  0.41284601532E+03  0.42528203071E+03  0.47000000000E+01 0. -1.
         -5    1    1    2    0  502 -0.40688844693E+02 -0.30372064707E+02  0.80426129819E+03  0.80587615064E+03  0.47000000000E+01 0.  1.
        -11    1    1    2    0    0 -0.12215311579E+02 -0.45790806365E+02  0.26518517304E+03  0.26938668821E+03  0.00000000000E+00 0. -1.
         11    1    1    2    0    0 -0.24770561235E+02  0.10075644320E+02  0.16005679446E+02  0.31165382829E+02  0.00000000000E+00 0.  1.
<mgrwt>
<rscale>  0 0.16131271E+03</rscale>
<asrwt>0</asrwt>
<pdfrwt beam="1">  1        3 0.23307746E+00 0.18547306E+03</pdfrwt>
<pdfrwt beam="2">  1       -3 0.25701617E-02 0.18547306E+03</pdfrwt>
<totfact> 0.16298345E+02</totfact>
</mgrwt>
</event>
<event>
 6    1  0.9240440E-006  0.1371723E+03  0.7546771E-02  0.1228487E+00
         -1   -1    0    0    0  501 -0.00000000000E+00  0.00000000000E+00  0.19341032695E+03  0.19341032695E+03  0.00000000000E+00 0.  1.
          1   -1    0    0  501    0  0.00000000000E+00 -0.00000000000E+00 -0.77942790351E+02  0.77942790351E+02  0.00000000000E+00 0. -1.
          5    1    1    2  502    0  0.37547027647E+02  0.32818283724E+02  0.29246937585E+02  0.58002520547E+02  0.47000000000E+01 0. -1.
         -5    1    1    2    0  502 -0.86578209538E+02 -0.47350250551E+01  0.38494539441E+02  0.94984874564E+02  0.47000000000E+01 0. -1.
        -11    1    1    2    0    0  0.31855944562E+02 -0.54127060168E+02  0.17820298963E+01  0.62830848132E+02  0.00000000000E+00 0. -1.
         11    1    1    2    0    0  0.17175237329E+02  0.26043801499E+02  0.45944029679E+02  0.55534874061E+02  0.00000000000E+00 0.  1.
<mgrwt>
<rscale>  0 0.12930770E+03</rscale>
<asrwt>0</asrwt>
<pdfrwt beam="2">  1        1 0.11991199E-01 0.13717228E+03</pdfrwt>
<pdfrwt beam="1">  1       -1 0.29755435E-01 0.13717228E+03</pdfrwt>
<totfact> 0.49691002E+03</totfact>
</mgrwt>
</event>
<event>
 6    1  0.9240440E-006  0.1467476E+03  0.7546771E-02  0.1216656E+00
          2   -1    0    0  501    0  0.00000000000E+00  0.00000000000E+00  0.82481766988E+03  0.82481766988E+03  0.00000000000E+00 0. -1.
         -2   -1    0    0    0  501 -0.00000000000E+00 -0.00000000000E+00 -0.20500177569E+02  0.20500177569E+02  0.00000000000E+00 0.  1.
          5    1    1    2  502    0 -0.28297841544E+02  0.50945106685E+01  0.17025789710E+02  0.33744471996E+02  0.47000000000E+01 0. -1.
         -5    1    1    2    0  502 -0.70425103808E+01 -0.73389518298E+02  0.44308321284E+03  0.44919977944E+03  0.47000000000E+01 0. -1.
        -11    1    1    2    0    0  0.32771728575E+02  0.13319359695E+02  0.40739979398E+02  0.53954957677E+02  0.00000000000E+00 0.  1.
         11    1    1    2    0    0  0.25686233501E+01  0.54975647934E+02  0.30346851036E+03  0.30841863833E+03  0.00000000000E+00 0. -1.
<mgrwt>
<rscale>  0 0.13755561E+03</rscale>
<asrwt>0</asrwt>
<pdfrwt beam="1">  1        2 0.12689500E+00 0.14674759E+03</pdfrwt>
<pdfrwt beam="2">  1       -2 0.31538741E-02 0.14674759E+03</pdfrwt>
<totfact> 0.12883433E+04</totfact>
</mgrwt>
</event>
<event>
 6    1  0.9240440E-006  0.1380440E+03  0.7546771E-02  0.1228303E+00
         -2   -1    0    0    0  501 -0.00000000000E+00  0.00000000000E+00  0.38267924002E+02  0.38267924002E+02  0.00000000000E+00 0.  1.
          2   -1    0    0  501    0  0.00000000000E+00 -0.00000000000E+00 -0.39995220888E+03  0.39995220888E+03  0.00000000000E+00 0. -1.
          5    1    1    2  502    0  0.35372200212E+02  0.11763242649E+02 -0.10746801396E+03  0.11384652146E+03  0.47000000000E+01 0.  1.
         -5    1    1    2    0  502 -0.80920321905E+02 -0.48589453439E+02 -0.12807658147E+03  0.15916888579E+03  0.47000000000E+01 0.  1.
        -11    1    1    2    0    0  0.52780375326E+02  0.19601571323E+02 -0.13368474354E+03  0.14505723103E+03  0.00000000000E+00 0. -1.
         11    1    1    2    0    0 -0.72322536333E+01  0.17224639467E+02  0.75450540916E+01  0.20147494600E+02  0.00000000000E+00 0.  1.
<mgrwt>
<rscale>  0 0.12943079E+03</rscale>
<asrwt>0</asrwt>
<pdfrwt beam="2">  1        2 0.61531105E-01 0.13804404E+03</pdfrwt>
<pdfrwt beam="1">  1       -2 0.58873733E-02 0.13804404E+03</pdfrwt>
<totfact> 0.11535829E+04</totfact>
</mgrwt>
</event>
<event>
 6    1  0.1499446E-005  0.2269340E+03  0.7546771E-02  0.1131892E+00
         -1   -1    0    0    0  501 -0.00000000000E+00  0.00000000000E+00  0.19324972959E+03  0.19324972959E+03  0.00000000000E+00 0.  1.
          1   -1    0    0  501    0  0.00000000000E+00 -0.00000000000E+00 -0.25077552345E+03  0.25077552345E+03  0.00000000000E+00 0. -1.
          5    1    1    2  502    0  0.57504238130E+02  0.60533878985E+02 -0.68662048493E+02  0.10820191685E+03  0.47000000000E+01 0. -1.
         -5    1    1    2    0  502 -0.13930645973E+02  0.12379143761E+03  0.13353981378E+02  0.12537464553E+03  0.47000000000E+01 0. -1.
        -11    1    1    2    0    0 -0.58610856433E+02 -0.13650707389E+03  0.29047017178E+02  0.15137087871E+03  0.00000000000E+00 0.  1.
         11    1    1    2    0    0  0.15037264276E+02 -0.47818242708E+02 -0.31264743926E+02  0.59077811954E+02  0.00000000000E+00 0. -1.
<mgrwt>
<rscale>  0 0.22269228E+03</rscale>
<asrwt>0</asrwt>
<pdfrwt beam="2">  1        1 0.38580850E-01 0.22693397E+03</pdfrwt>
<pdfrwt beam="1">  1       -1 0.29730728E-01 0.22693397E+03</pdfrwt>
<totfact> 0.11394977E+03</totfact>
</mgrwt>
</event>
<event>
 6    1  0.9240440E-006  0.1266308E+03  0.7546771E-02  0.1249065E+00
         -2   -1    0    0    0  501 -0.00000000000E+00  0.00000000000E+00  0.17077276755E+03  0.17077276755E+03  0.00000000000E+00 0. -1.
          2   -1    0    0  501    0  0.00000000000E+00 -0.00000000000E+00 -0.13329950769E+03  0.13329950769E+03  0.00000000000E+00 0.  1.
          5    1    1    2  502    0  0.60797723546E+01  0.65606373707E+02 -0.45363369976E+02  0.80131674377E+02  0.47000000000E+01 0. -1.
         -5    1    1    2    0  502 -0.23668978766E+02 -0.55541394733E+02 -0.39072649522E+02  0.72068224797E+02  0.47000000000E+01 0. -1.
        -11    1    1    2    0    0  0.51296420754E+02 -0.19427199321E+02  0.64784637738E+02  0.84886913847E+02  0.00000000000E+00 0.  1.
         11    1    1    2    0    0 -0.33707214343E+02  0.93622203462E+01  0.57124641618E+02  0.66985462218E+02  0.00000000000E+00 0. -1.
<mgrwt>
<rscale>  0 0.11645375E+03</rscale>
<asrwt>0</asrwt>
<pdfrwt beam="2">  1        2 0.20507617E-01 0.12663083E+03</pdfrwt>
<pdfrwt beam="1">  1       -2 0.26272733E-01 0.12663083E+03</pdfrwt>
<totfact> 0.33607051E+03</totfact>
</mgrwt>
</event>
<event>
 6    1  0.9240440E-006  0.1324488E+03  0.7546771E-02  0.1232265E+00
         -2   -1    0    0    0  501 -0.00000000000E+00  0.00000000000E+00  0.95185958031E+01  0.95185958031E+01  0.00000000000E+00 0.  1.
          2   -1    0    0  501    0  0.00000000000E+00 -0.00000000000E+00 -0.17970288112E+04  0.17970288112E+04  0.00000000000E+00 0. -1.
          5    1    1    2  502    0  0.27018531124E+02 -0.24128985275E+02 -0.12114647109E+03  0.12653365723E+03  0.47000000000E+01 0.  1.
         -5    1    1    2    0  502 -0.56492067737E+02 -0.83286122044E+01 -0.11666318203E+04  0.11680379333E+04  0.47000000000E+01 0.  1.
        -11    1    1    2    0    0  0.26344201546E+01 -0.33145005896E+02 -0.85765732840E+02  0.91985284231E+02  0.00000000000E+00 0.  1.
         11    1    1    2    0    0  0.26839116458E+02  0.65602603375E+02 -0.41396619123E+03  0.41999053230E+03  0.00000000000E+00 0. -1.
<mgrwt>
<rscale>  0 0.12681124E+03</rscale>
<asrwt>0</asrwt>
<pdfrwt beam="2">  1        2 0.27646595E+00 0.13244876E+03</pdfrwt>
<pdfrwt beam="1">  1       -2 0.14643995E-02 0.13244876E+03</pdfrwt>
<totfact> 0.11338642E+04</totfact>
</mgrwt>
</event>
<event>
 6    1  0.9240440E-006  0.1991876E+03  0.7546771E-02  0.1158010E+00
          1   -1    0    0  501    0  0.00000000000E+00  0.00000000000E+00  0.40975769415E+03  0.40975769415E+03  0.00000000000E+00 0. -1.
         -1   -1    0    0    0  501 -0.00000000000E+00 -0.00000000000E+00 -0.13728241556E+03  0.13728241556E+03  0.00000000000E+00 0.  1.
          5    1    1    2  502    0  0.15816118419E+03 -0.28355365747E+02  0.25359128146E+03  0.30024925476E+03  0.47000000000E+01 0. -1.
         -5    1    1    2    0  502 -0.17744558619E+02  0.33740298924E+02  0.63553560540E+02  0.74259155593E+02  0.47000000000E+01 0.  1.
        -11    1    1    2    0    0 -0.14295438296E+03  0.10335365031E+02 -0.22267743084E+02  0.14504698466E+03  0.00000000000E+00 0.  1.
         11    1    1    2    0    0  0.25377573823E+01 -0.15720298208E+02 -0.22401820322E+02  0.27484714698E+02  0.00000000000E+00 0. -1.
<mgrwt>
<rscale>  0 0.19050100E+03</rscale>
<asrwt>0</asrwt>
<pdfrwt beam="1">  1        1 0.63039645E-01 0.19918760E+03</pdfrwt>
<pdfrwt beam="2">  1       -1 0.21120372E-01 0.19918760E+03</pdfrwt>
<totfact> 0.10810931E+03</totfact>
</mgrwt>
</event>
<event>
 6    1  0.9240440E-006  0.1905458E+03  0.7546771E-02  0.1184918E+00
          2   -1    0    0  501    0  0.00000000000E+00  0.00000000000E+00  0.14221905941E+04  0.14221905941E+04  0.00000000000E+00 0. -1.
         -2   -1    0    0    0  501 -0.00000000000E+00 -0.00000000000E+00 -0.15969919509E+02  0.15969919509E+02  0.00000000000E+00 0.  1.
          5    1    1    2  502    0 -0.85794587133E+02 -0.27986804608E+02  0.84170244938E+03  0.84653947085E+03  0.47000000000E+01 0. -1.
         -5    1    1    2    0  502  0.73105191326E+02  0.71467163153E+01  0.21618240704E+03  0.22836892886E+03  0.47000000000E+01 0.  1.
        -11    1    1    2    0    0 -0.60699838106E+00 -0.30703646346E+02  0.40387121687E+02  0.50736593738E+02  0.00000000000E+00 0. -1.
         11    1    1    2    0    0  0.13296394189E+02  0.51543734639E+02  0.30794869651E+03  0.31251552019E+03  0.00000000000E+00 0.  1.
<mgrwt>
<rscale>  0 0.16339385E+03</rscale>
<asrwt>0</asrwt>
<pdfrwt beam="1">  1        2 0.21879845E+00 0.19054579E+03</pdfrwt>
<pdfrwt beam="2">  1       -2 0.24569118E-02 0.19054579E+03</pdfrwt>
<totfact> 0.84725896E+03</totfact>
</mgrwt>
</event>
<event>
 6    1  0.9240440E-006  0.2447943E+03  0.7546771E-02  0.1119298E+00
          1   -1    0    0  501    0  0.00000000000E+00  0.00000000000E+00  0.53027439220E+03  0.53027439220E+03  0.00000000000E+00 0. -1.
         -1   -1    0    0    0  501 -0.00000000000E+00 -0.00000000000E+00 -0.10682106281E+03  0.10682106281E+03  0.00000000000E+00 0.  1.
          5    1    1    2  502    0 -0.14763897547E+03  0.58260927535E+02  0.20524068588E+03  0.25949457007E+03  0.47000000000E+01 0.  1.
         -5    1    1    2    0  502 -0.62531856744E+02 -0.47028885450E+02  0.44152041872E+02  0.89963559156E+02  0.47000000000E+01 0.  1.
        -11    1    1    2    0    0  0.15949101086E+03  0.20080457003E+02  0.15919443627E+03  0.22623765345E+03  0.00000000000E+00 0.  1.
         11    1    1    2    0    0  0.50679821355E+02 -0.31312499089E+02  0.14866165369E+02  0.61399672348E+02  0.00000000000E+00 0. -1.
<mgrwt>
<rscale>  0 0.24074479E+03</rscale>
<asrwt>0</asrwt>
<pdfrwt beam="1">  1        1 0.81580674E-01 0.24479430E+03</pdfrwt>
<pdfrwt beam="2">  1       -1 0.16434010E-01 0.24479430E+03</pdfrwt>
<totfact> 0.11580624E+03</totfact>
</mgrwt>
</event>
<event>
 6    1  0.9240440E-006  0.1883083E+03  0.7546771E-02  0.1174201E+00
          2   -1    0    0  501    0  0.00000000000E+00  0.00000000000E+00  0.13033631632E+04  0.13033631632E+04  0.00000000000E+00 0. -1.
         -2   -1    0    0    0  501 -0.00000000000E+00 -0.00000000000E+00 -0.47846643458E+02  0.47846643458E+02  0.00000000000E+00 0.  1.
          5    1    1    2  502    0  0.67810663514E+02  0.70682915289E+02  0.83059997587E+03  0.83636880054E+03  0.47000000000E+01 0. -1.
         -5    1    1    2    0  502  0.33226681566E+02 -0.73322366781E+02  0.35109535813E+03  0.36023634234E+03  0.47000000000E+01 0.  1.
        -11    1    1    2    0    0 -0.83405040878E+02 -0.26051865778E+02  0.82130099591E+02  0.11991852990E+03  0.00000000000E+00 0.  1.
         11    1    1    2    0    0 -0.17632304202E+02  0.28691317271E+02 -0.83089138053E+01  0.34686133928E+02  0.00000000000E+00 0. -1.
<mgrwt>
<rscale>  0 0.17354437E+03</rscale>
<asrwt>0</asrwt>
<pdfrwt beam="1">  1        2 0.20051738E+00 0.18830827E+03</pdfrwt>
<pdfrwt beam="2">  1       -2 0.73610231E-02 0.18830827E+03</pdfrwt>
<totfact> 0.18835134E+03</totfact>
</mgrwt>
</event>
<event>
 6    1  0.9240440E-006  0.2519339E+03  0.7546771E-02  0.1112089E+00
          1   -1    0    0  501    0  0.00000000000E+00  0.00000000000E+00  0.22303097837E+02  0.22303097837E+02  0.00000000000E+00 0. -1.
         -1   -1    0    0    0  501 -0.00000000000E+00 -0.00000000000E+00 -0.71145612304E+03  0.71145612304E+03  0.00000000000E+00 0.  1.
          5    1    1    2  502    0 -0.70318419837E+01 -0.78853429086E+01  0.96453886687E+01  0.15058185715E+02  0.47000000000E+01 0. -1.
         -5    1    1    2    0  502 -0.18198327578E+02  0.56286369460E+02 -0.29899491386E+03  0.30482680825E+03  0.47000000000E+01 0. -1.
        -11    1    1    2    0    0  0.13290594319E+02 -0.73514778192E+02 -0.33714043601E+03  0.34531831128E+03  0.00000000000E+00 0.  1.
         11    1    1    2    0    0  0.11939575243E+02  0.25113751641E+02 -0.62663063999E+02  0.68555915632E+02  0.00000000000E+00 0. -1.
<mgrwt>
<rscale>  0 0.25193392E+03</rscale>
<asrwt>0</asrwt>
<pdfrwt beam="1">  1        1 0.34312456E-02 0.25193392E+03</pdfrwt>
<pdfrwt beam="2">  1       -1 0.10945480E+00 0.25193392E+03</pdfrwt>
<totfact> 0.23050315E+03</totfact>
</mgrwt>
</event>
<event>
 6    1  0.9240440E-006  0.1874423E+03  0.7546771E-02  0.1165790E+00
         -1   -1    0    0    0  501 -0.00000000000E+00  0.00000000000E+00  0.48011634033E+02  0.48011634033E+02  0.00000000000E+00 0.  1.
          1   -1    0    0  501    0  0.00000000000E+00 -0.00000000000E+00 -0.66803135141E+03  0.66803135141E+03  0.00000000000E+00 0. -1.
          5    1    1    2  502    0  0.91309439674E+02  0.69155611857E+02 -0.37589894198E+03  0.39299111569E+03  0.47000000000E+01 0.  1.
         -5    1    1    2    0  502  0.87581386877E+01  0.28257250902E+02 -0.34654865819E+01  0.30154217268E+02  0.47000000000E+01 0.  1.
        -11    1    1    2    0    0  0.16366611714E+02 -0.82550401329E+01 -0.14570779160E+02  0.23416218139E+02  0.00000000000E+00 0.  1.
         11    1    1    2    0    0 -0.11643419008E+03 -0.89157822626E+02 -0.22608450965E+03  0.26948143435E+03  0.00000000000E+00 0. -1.
<mgrwt>
<rscale>  0 0.18209612E+03</rscale>
<asrwt>0</asrwt>
<pdfrwt beam="2">  1        1 0.10277405E+00 0.18744227E+03</pdfrwt>
<pdfrwt beam="1">  1       -1 0.73864052E-02 0.18744227E+03</pdfrwt>
<totfact> 0.29031717E+03</totfact>
</mgrwt>
</event>
<event>
 6    1  0.9240440E-006  0.1508740E+03  0.7546771E-02  0.1209139E+00
          2   -1    0    0  501    0  0.00000000000E+00  0.00000000000E+00  0.76537131074E+03  0.76537131074E+03  0.00000000000E+00 0.  1.
         -2   -1    0    0    0  501 -0.00000000000E+00 -0.00000000000E+00 -0.48108915611E+02  0.48108915611E+02  0.00000000000E+00 0. -1.
          5    1    1    2  502    0  0.16639313619E+02 -0.29973941314E+02  0.11984970027E+03  0.12474511842E+03  0.47000000000E+01 0.  1.
         -5    1    1    2    0  502 -0.12175514754E+02  0.11433083793E+03  0.54267367656E+03  0.55474011293E+03  0.47000000000E+01 0.  1.
        -11    1    1    2    0    0 -0.12919889260E+02 -0.23697325366E+02 -0.22697457354E+02  0.35265582915E+02  0.00000000000E+00 0. -1.
         11    1    1    2    0    0  0.84560903947E+01 -0.60659571251E+02  0.77436475657E+02  0.98729412089E+02  0.00000000000E+00 0.  1.
<mgrwt>
<rscale>  0 0.14315978E+03</rscale>
<asrwt>0</asrwt>
<pdfrwt beam="1">  1        2 0.11774942E+00 0.15087397E+03</pdfrwt>
<pdfrwt beam="2">  1       -2 0.74013722E-02 0.15087397E+03</pdfrwt>
<totfact> 0.39252099E+03</totfact>
</mgrwt>
</event>
<event>
 6    1  0.9240440E-006  0.1448132E+03  0.7546771E-02  0.1216842E+00
          3   -1    0    0  501    0  0.00000000000E+00  0.00000000000E+00  0.53560510767E+02  0.53560510767E+02  0.00000000000E+00 0. -1.
         -3   -1    0    0    0  501 -0.00000000000E+00 -0.00000000000E+00 -0.32107727093E+03  0.32107727093E+03  0.00000000000E+00 0.  1.
          5    1    1    2  502    0 -0.20186464502E+01  0.17944601364E+02  0.20867880606E+02  0.27993608067E+02  0.47000000000E+01 0. -1.
         -5    1    1    2    0  502 -0.37882928806E+02  0.43382401151E+02 -0.17143189827E+03  0.18090918929E+03  0.47000000000E+01 0. -1.
        -11    1    1    2    0    0  0.45034913769E+01  0.13187588877E+02 -0.68836831415E+02  0.70233206492E+02  0.00000000000E+00 0.  1.
         11    1    1    2    0    0  0.35398083880E+02 -0.74514591393E+02 -0.48115911081E+02  0.95501777847E+02  0.00000000000E+00 0. -1.
<mgrwt>
<rscale>  0 0.13742070E+03</rscale>
<asrwt>0</asrwt>
<pdfrwt beam="1">  1        3 0.82400784E-02 0.14481317E+03</pdfrwt>
<pdfrwt beam="2">  1       -3 0.49396504E-01 0.14481317E+03</pdfrwt>
<totfact> 0.96948795E+02</totfact>
</mgrwt>
</event>
<event>
 6    1  0.9240440E-006  0.1308695E+03  0.7546771E-02  0.1239833E+00
          1   -1    0    0  501    0  0.00000000000E+00  0.00000000000E+00  0.98733311786E+03  0.98733311786E+03  0.00000000000E+00 0. -1.
         -1   -1    0    0    0  501 -0.00000000000E+00 -0.00000000000E+00 -0.14889526685E+02  0.14889526685E+02  0.00000000000E+00 0.  1.
          5    1    1    2  502    0 -0.16864743348E+02 -0.37095351742E+02  0.89038992404E+02  0.98033243633E+02  0.47000000000E+01 0.  1.
         -5    1    1    2    0  502 -0.15004336660E+02  0.59168847847E+02  0.61718202817E+03  0.62021111613E+03  0.47000000000E+01 0.  1.
        -11    1    1    2    0    0 -0.24935566450E+01 -0.41460824709E+02  0.54037455428E+02  0.68156176531E+02  0.00000000000E+00 0.  1.
         11    1    1    2    0    0  0.34362636653E+02  0.19387328604E+02  0.21218511517E+03  0.21582210824E+03  0.00000000000E+00 0. -1.
<mgrwt>
<rscale>  0 0.12200041E+03</rscale>
<asrwt>0</asrwt>
<pdfrwt beam="1">  1        1 0.15189735E+00 0.13086952E+03</pdfrwt>
<pdfrwt beam="2">  1       -1 0.22906972E-02 0.13086952E+03</pdfrwt>
<totfact> 0.88551078E+03</totfact>
</mgrwt>
</event>
<event>
 6    1  0.9240440E-006  0.1257745E+03  0.7546771E-02  0.1248387E+00
          2   -1    0    0  501    0  0.00000000000E+00  0.00000000000E+00  0.14604452213E+04  0.14604452213E+04  0.00000000000E+00 0. -1.
         -2   -1    0    0    0  501 -0.00000000000E+00 -0.00000000000E+00 -0.11113065332E+02  0.11113065332E+02  0.00000000000E+00 0.  1.
          5    1    1    2  502    0  0.10146484684E+01 -0.56258884741E+02  0.49261509448E+03  0.49584051159E+03  0.47000000000E+01 0.  1.
         -5    1    1    2    0  502  0.52730317463E+01  0.68716755632E+02  0.68141828218E+03  0.68491076985E+03  0.47000000000E+01 0.  1.
        -11    1    1    2    0    0 -0.25441284447E+02  0.33598816667E+02  0.99226229874E+02  0.10780530660E+03  0.00000000000E+00 0.  1.
         11    1    1    2    0    0  0.19153604232E+02 -0.46056687557E+02  0.17607254944E+03  0.18300169860E+03  0.00000000000E+00 0. -1.
<mgrwt>
<rscale>  0 0.11684950E+03</rscale>
<asrwt>0</asrwt>
<pdfrwt beam="1">  1        2 0.22468373E+00 0.12577448E+03</pdfrwt>
<pdfrwt beam="2">  1       -2 0.17097035E-02 0.12577448E+03</pdfrwt>
<totfact> 0.13477463E+04</totfact>
</mgrwt>
</event>
<event>
 6    1  0.9240440E-006  0.1419471E+03  0.7546771E-02  0.1221835E+00
         -2   -1    0    0    0  501 -0.00000000000E+00  0.00000000000E+00  0.18045948609E+02  0.18045948609E+02  0.00000000000E+00 0. -1.
          2   -1    0    0  501    0  0.00000000000E+00 -0.00000000000E+00 -0.95535956440E+03  0.95535956440E+03  0.00000000000E+00 0.  1.
          5    1    1    2  502    0 -0.73508508816E+02 -0.36560231209E+02 -0.52453940644E+03  0.53094616514E+03  0.47000000000E+01 0.  1.
         -5    1    1    2    0  502  0.69509686715E+01  0.46259521142E+02 -0.11665865485E+03  0.12577595562E+03  0.47000000000E+01 0.  1.
        -11    1    1    2    0    0  0.84479638375E+02 -0.24545878564E+02 -0.25002218224E+03  0.26504792221E+03  0.00000000000E+00 0. -1.
         11    1    1    2    0    0 -0.17922098230E+02  0.14846588631E+02 -0.46093372257E+02  0.51635470028E+02  0.00000000000E+00 0.  1.
<mgrwt>
<rscale>  0 0.13386231E+03</rscale>
<asrwt>0</asrwt>
<pdfrwt beam="2">  1        2 0.14697845E+00 0.14194714E+03</pdfrwt>
<pdfrwt beam="1">  1       -2 0.27762987E-02 0.14194714E+03</pdfrwt>
<totfact> 0.12807494E+04</totfact>
</mgrwt>
</event>
<event>
 6    1  0.9240440E-006  0.1533348E+03  0.7546771E-02  0.1204761E+00
          4   -1    0    0  501    0  0.00000000000E+00  0.00000000000E+00  0.17860968238E+03  0.17860968238E+03  0.00000000000E+00 0. -1.
         -4   -1    0    0    0  501 -0.00000000000E+00 -0.00000000000E+00 -0.45408371906E+03  0.45408371906E+03  0.00000000000E+00 0.  1.
          5    1    1    2  502    0 -0.44085957399E+02  0.60126241720E+02  0.14119543853E+03  0.15974034696E+03  0.47000000000E+01 0.  1.
         -5    1    1    2    0  502 -0.36514926530E+02 -0.22840969378E+02 -0.71663283787E+01  0.43914644528E+02  0.47000000000E+01 0.  1.
        -11    1    1    2    0    0  0.70761876466E+02 -0.32253176902E+02 -0.41063103393E+03  0.41792984652E+03  0.00000000000E+00 0.  1.
         11    1    1    2    0    0  0.98390074631E+01 -0.50320954398E+01  0.11278870975E+01  0.11108563439E+02  0.00000000000E+00 0. -1.
<mgrwt>
<rscale>  0 0.14656271E+03</rscale>
<asrwt>0</asrwt>
<pdfrwt beam="1">  1        4 0.27478413E-01 0.15333477E+03</pdfrwt>
<pdfrwt beam="2">  1       -4 0.69859033E-01 0.15333477E+03</pdfrwt>
<totfact> 0.41282245E+01</totfact>
</mgrwt>
</event>
<event>
 6    1  0.9240440E-006  0.1380407E+03  0.7546771E-02  0.1227767E+00
         -2   -1    0    0    0  501 -0.00000000000E+00  0.00000000000E+00  0.31735739501E+02  0.31735739501E+02  0.00000000000E+00 0.  1.
          2   -1    0    0  501    0  0.00000000000E+00 -0.00000000000E+00 -0.54091954078E+03  0.54091954078E+03  0.00000000000E+00 0. -1.
          5    1    1    2  502    0  0.38315923202E+02  0.70753150871E+01 -0.67492445374E+02  0.78073620622E+02  0.47000000000E+01 0.  1.
         -5    1    1    2    0  502 -0.80159963030E+02 -0.48049640256E+02 -0.31281056385E+03  0.32650716142E+03  0.47000000000E+01 0.  1.
        -11    1    1    2    0    0  0.10138295163E+02  0.64156511444E+02 -0.10031998299E+03  0.11951126297E+03  0.00000000000E+00 0. -1.
         11    1    1    2    0    0  0.31705744665E+02 -0.23182186276E+02 -0.28560809059E+02  0.48563235265E+02  0.00000000000E+00 0.  1.
<mgrwt>
<rscale>  0 0.12979075E+03</rscale>
<asrwt>0</asrwt>
<pdfrwt beam="2">  1        2 0.83218381E-01 0.13804068E+03</pdfrwt>
<pdfrwt beam="1">  1       -2 0.48824220E-02 0.13804068E+03</pdfrwt>
<totfact> 0.11011515E+04</totfact>
</mgrwt>
</event>
<event>
 6    1  0.9240440E-006  0.1525539E+03  0.7546771E-02  0.1207377E+00
         -2   -1    0    0    0  501 -0.00000000000E+00  0.00000000000E+00  0.31463618567E+02  0.31463618567E+02  0.00000000000E+00 0. -1.
          2   -1    0    0  501    0  0.00000000000E+00 -0.00000000000E+00 -0.60308983014E+03  0.60308983014E+03  0.00000000000E+00 0.  1.
          5    1    1    2  502    0 -0.24922655934E+01 -0.52311197841E+02 -0.94087178665E+02  0.10778292999E+03  0.47000000000E+01 0.  1.
         -5    1    1    2    0  502  0.89374642123E+02  0.42344833396E+02 -0.23061950975E+03  0.25097481915E+03  0.47000000000E+01 0.  1.
        -11    1    1    2    0    0 -0.21574402563E+02 -0.36078836615E+02 -0.10164363766E+03  0.10999348333E+03  0.00000000000E+00 0. -1.
         11    1    1    2    0    0 -0.65307973967E+02  0.46045201060E+02 -0.14527588550E+03  0.16580221624E+03  0.00000000000E+00 0.  1.
<mgrwt>
<rscale>  0 0.14451671E+03</rscale>
<asrwt>0</asrwt>
<pdfrwt beam="2">  1        2 0.92783045E-01 0.15255389E+03</pdfrwt>
<pdfrwt beam="1">  1       -2 0.48405570E-02 0.15255389E+03</pdfrwt>
<totfact> 0.99317582E+03</totfact>
</mgrwt>
</event>
<event>
 6    1  0.9240440E-006  0.1411921E+03  0.7546771E-02  0.1222507E+00
         -1   -1    0    0    0  501 -0.00000000000E+00  0.00000000000E+00  0.24845986195E+03  0.24845986195E+03  0.00000000000E+00 0.  1.
          1   -1    0    0  501    0  0.00000000000E+00 -0.00000000000E+00 -0.64810814240E+02  0.64810814240E+02  0.00000000000E+00 0. -1.
          5    1    1    2  502    0  0.44075353673E+02 -0.22683734252E+02 -0.56168394276E+01  0.50108157880E+02  0.47000000000E+01 0. -1.
         -5    1    1    2    0  502 -0.47624889095E+02 -0.42842972693E+02  0.10308518140E+03  0.12145902599E+03  0.47000000000E+01 0. -1.
        -11    1    1    2    0    0 -0.22468012203E+02 -0.14299416587E+02  0.10362563413E+02  0.28577396795E+02  0.00000000000E+00 0.  1.
         11    1    1    2    0    0  0.26017547625E+02  0.79826123533E+02  0.75818142321E+02  0.11312609552E+03  0.00000000000E+00 0. -1.
<mgrwt>
<rscale>  0 0.13339240E+03</rscale>
<asrwt>0</asrwt>
<pdfrwt beam="2">  1        1 0.99708946E-02 0.14119214E+03</pdfrwt>
<pdfrwt beam="1">  1       -1 0.38224594E-01 0.14119214E+03</pdfrwt>
<totfact> 0.41398737E+03</totfact>
</mgrwt>
</event>
<event>
 6    1  0.9240440E-006  0.1334539E+03  0.7546771E-02  0.1235422E+00
         -2   -1    0    0    0  501 -0.00000000000E+00  0.00000000000E+00  0.13744888819E+03  0.13744888819E+03  0.00000000000E+00 0.  1.
          2   -1    0    0  501    0  0.00000000000E+00 -0.00000000000E+00 -0.10663571501E+03  0.10663571501E+03  0.00000000000E+00 0. -1.
          5    1    1    2  502    0  0.17183569406E+01  0.89176255469E+02 -0.10009458491E+02  0.89875672733E+02  0.47000000000E+01 0.  1.
         -5    1    1    2    0  502 -0.85819804593E+01 -0.42913036435E+02 -0.90300354429E+00  0.44023681128E+02  0.47000000000E+01 0.  1.
        -11    1    1    2    0    0  0.38029099728E+02  0.83065935439E+01  0.19425291056E+02  0.43503492447E+02  0.00000000000E+00 0.  1.
         11    1    1    2    0    0 -0.31165476209E+02 -0.54569812577E+02  0.22300344160E+02  0.66681756888E+02  0.00000000000E+00 0. -1.
<mgrwt>
<rscale>  0 0.12477468E+03</rscale>
<asrwt>0</asrwt>
<pdfrwt beam="2">  1        2 0.16405495E-01 0.13345394E+03</pdfrwt>
<pdfrwt beam="1">  1       -2 0.21145983E-01 0.13345394E+03</pdfrwt>
<totfact> 0.63329941E+03</totfact>
</mgrwt>
</event>
<event>
 6    1  0.9240440E-006  0.1306371E+03  0.7546771E-02  0.1241092E+00
          1   -1    0    0  501    0  0.00000000000E+00  0.00000000000E+00  0.60954034125E+03  0.60954034125E+03  0.00000000000E+00 0. -1.
         -1   -1    0    0    0  501 -0.00000000000E+00 -0.00000000000E+00 -0.23306920626E+02  0.23306920626E+02  0.00000000000E+00 0.  1.
          5    1    1    2  502    0  0.24544459056E+02 -0.45374965066E+02  0.68503371061E+02  0.85884339503E+02  0.47000000000E+01 0.  1.
         -5    1    1    2    0  502 -0.38056074398E+02  0.99271476995E+01  0.35781432631E+03  0.35999999330E+03  0.47000000000E+01 0.  1.
        -11    1    1    2    0    0  0.47338181336E+02  0.33269359604E+01  0.58454282851E+02  0.75291932494E+02  0.00000000000E+00 0.  1.
         11    1    1    2    0    0 -0.33826565994E+02  0.32120881407E+02  0.10146144040E+03  0.11167099658E+03  0.00000000000E+00 0. -1.
<mgrwt>
<rscale>  0 0.12122368E+03</rscale>
<asrwt>0</asrwt>
<pdfrwt beam="1">  1        1 0.93775425E-01 0.13063713E+03</pdfrwt>
<pdfrwt beam="2">  1       -1 0.35856805E-02 0.13063713E+03</pdfrwt>
<totfact> 0.94991535E+03</totfact>
</mgrwt>
</event>
<event>
 6    1  0.9240440E-006  0.1430264E+03  0.7546771E-02  0.1218885E+00
          2   -1    0    0  501    0  0.00000000000E+00  0.00000000000E+00  0.12432897904E+03  0.12432897904E+03  0.00000000000E+00 0. -1.
         -2   -1    0    0    0  501 -0.00000000000E+00 -0.00000000000E+00 -0.14094405995E+03  0.14094405995E+03  0.00000000000E+00 0.  1.
          5    1    1    2  502    0  0.48667421479E+02 -0.17428222783E+01 -0.95752165220E+01  0.49853085304E+02  0.47000000000E+01 0.  1.
         -5    1    1    2    0  502 -0.60972524549E+02 -0.66663924421E+02  0.25918037085E+02  0.94103996809E+02  0.47000000000E+01 0.  1.
        -11    1    1    2    0    0  0.34777042070E+02  0.80353396385E+02 -0.37871494562E+02  0.95395812624E+02  0.00000000000E+00 0.  1.
         11    1    1    2    0    0 -0.22471939000E+02 -0.11946649687E+02  0.49135930878E+01  0.25920144255E+02  0.00000000000E+00 0. -1.
<mgrwt>
<rscale>  0 0.13595009E+03</rscale>
<asrwt>0</asrwt>
<pdfrwt beam="1">  1        2 0.19127535E-01 0.14302641E+03</pdfrwt>
<pdfrwt beam="2">  1       -2 0.21683701E-01 0.14302641E+03</pdfrwt>
<totfact> 0.51101541E+03</totfact>
</mgrwt>
</event>
<event>
 6    1  0.9240440E-006  0.1277241E+03  0.7546771E-02  0.1244738E+00
         -2   -1    0    0    0  501 -0.00000000000E+00  0.00000000000E+00  0.86606146022E+01  0.86606146022E+01  0.00000000000E+00 0.  1.
          2   -1    0    0  501    0  0.00000000000E+00 -0.00000000000E+00 -0.15212022074E+04  0.15212022074E+04  0.00000000000E+00 0. -1.
          5    1    1    2  502    0 -0.38979644014E+02 -0.28781186972E+02 -0.63390425431E+03  0.63577076293E+03  0.47000000000E+01 0. -1.
         -5    1    1    2    0  502  0.41602458432E+02  0.54889573258E+02 -0.38918074526E+03  0.39525608443E+03  0.47000000000E+01 0. -1.
        -11    1    1    2    0    0  0.40078625049E+02 -0.33845468753E+02 -0.24437543982E+03  0.24994232840E+03  0.00000000000E+00 0.  1.
         11    1    1    2    0    0 -0.42701439468E+02  0.77370824674E+01 -0.24508115340E+03  0.24889364622E+03  0.00000000000E+00 0. -1.
<mgrwt>
<rscale>  0 0.11901099E+03</rscale>
<asrwt>0</asrwt>
<pdfrwt beam="2">  1        2 0.23403109E+00 0.12772409E+03</pdfrwt>
<pdfrwt beam="1">  1       -2 0.13324023E-02 0.12772409E+03</pdfrwt>
<totfact> 0.17959183E+04</totfact>
</mgrwt>
</event>
<event>
 6    1  0.9240440E-006  0.1306758E+03  0.7546771E-02  0.1250488E+00
          3   -1    0    0  501    0  0.00000000000E+00  0.00000000000E+00  0.21455463379E+03  0.21455463379E+03  0.00000000000E+00 0. -1.
         -3   -1    0    0    0  501 -0.00000000000E+00 -0.00000000000E+00 -0.53543272866E+02  0.53543272866E+02  0.00000000000E+00 0.  1.
          5    1    1    2  502    0 -0.28329672652E+02 -0.62177266509E+02  0.97619993805E+02  0.11924905037E+03  0.47000000000E+01 0. -1.
         -5    1    1    2    0  502  0.46276320982E+02  0.28528644058E+02  0.25269911515E+02  0.60133516805E+02  0.47000000000E+01 0. -1.
        -11    1    1    2    0    0  0.14700614876E+02  0.30503120634E+02  0.43869170430E+02  0.55417078237E+02  0.00000000000E+00 0.  1.
         11    1    1    2    0    0 -0.32647263206E+02  0.31455018176E+01 -0.57477148225E+01  0.33298261249E+02  0.00000000000E+00 0. -1.
<mgrwt>
<rscale>  0 0.11562837E+03</rscale>
<asrwt>0</asrwt>
<pdfrwt beam="1">  1        3 0.33008405E-01 0.13067585E+03</pdfrwt>
<pdfrwt beam="2">  1       -3 0.82374267E-02 0.13067585E+03</pdfrwt>
<totfact> 0.20776899E+03</totfact>
</mgrwt>
</event>
<event>
 6    1  0.9240440E-006  0.1492659E+03  0.7546771E-02  0.1209101E+00
         -2   -1    0    0    0  501 -0.00000000000E+00  0.00000000000E+00  0.28405499149E+03  0.28405499149E+03  0.00000000000E+00 0.  1.
          2   -1    0    0  501    0  0.00000000000E+00 -0.00000000000E+00 -0.67262615712E+02  0.67262615712E+02  0.00000000000E+00 0. -1.
          5    1    1    2  502    0  0.18584592242E+02  0.76120982303E+02  0.64609953665E+01  0.78763097175E+02  0.47000000000E+01 0.  1.
         -5    1    1    2    0  502 -0.32779849435E+02  0.42211809416E+01  0.97718651132E+02  0.10326355445E+03  0.47000000000E+01 0.  1.
        -11    1    1    2    0    0  0.41138060424E+02  0.47815828225E+00  0.34062883173E+02  0.53412064750E+02  0.00000000000E+00 0.  1.
         11    1    1    2    0    0 -0.26942803231E+02 -0.80820321526E+02  0.78549846111E+02  0.11587889084E+03  0.00000000000E+00 0. -1.
<mgrwt>
<rscale>  0 0.14318913E+03</rscale>
<asrwt>0</asrwt>
<pdfrwt beam="2">  1        2 0.10348095E-01 0.14926588E+03</pdfrwt>
<pdfrwt beam="1">  1       -2 0.43700767E-01 0.14926588E+03</pdfrwt>
<totfact> 0.29738232E+03</totfact>
</mgrwt>
</event>
<event>
 6    1  0.9240440E-006  0.1260617E+03  0.7546771E-02  0.1313105E+00
         -1   -1    0    0    0  501 -0.00000000000E+00  0.00000000000E+00  0.95274412898E+01  0.95274412898E+01  0.00000000000E+00 0.  1.
          1   -1    0    0  501    0  0.00000000000E+00 -0.00000000000E+00 -0.16149357598E+04  0.16149357598E+04  0.00000000000E+00 0. -1.
          5    1    1    2  502    0 -0.70334667400E+02 -0.23173107685E+02 -0.85218477039E+03  0.85540921859E+03  0.47000000000E+01 0. -1.
         -5    1    1    2    0  502  0.50605134790E+02  0.53751454174E+01 -0.73397855255E+03  0.73575565065E+03  0.47000000000E+01 0.  1.
        -11    1    1    2    0    0  0.10324110003E+02  0.11720494471E+02 -0.85154800800E+01  0.17789621665E+02  0.00000000000E+00 0.  1.
         11    1    1    2    0    0  0.94054226069E+01  0.60774677962E+01 -0.10729515500E+02  0.15508710201E+02  0.00000000000E+00 0. -1.
<mgrwt>
<rscale>  0 0.85896311E+02</rscale>
<asrwt>0</asrwt>
<pdfrwt beam="2">  1        1 0.24845142E+00 0.12606171E+03</pdfrwt>
<pdfrwt beam="1">  1       -1 0.14657616E-02 0.12606171E+03</pdfrwt>
<totfact> 0.63481298E+03</totfact>
</mgrwt>
</event>
<event>
 6    1  0.9240440E-006  0.1329267E+03  0.7546771E-02  0.1235668E+00
          1   -1    0    0  501    0  0.00000000000E+00  0.00000000000E+00  0.28047909303E+03  0.28047909303E+03  0.00000000000E+00 0. -1.
         -1   -1    0    0    0  501 -0.00000000000E+00 -0.00000000000E+00 -0.10425789746E+03  0.10425789746E+03  0.00000000000E+00 0.  1.
          5    1    1    2  502    0 -0.73720958454E+02  0.41155568904E+02  0.18551433907E+03  0.20387795508E+03  0.47000000000E+01 0.  1.
         -5    1    1    2    0  502  0.42142636239E+02 -0.89580900995E+01  0.46858657790E+02  0.63828465259E+02  0.47000000000E+01 0.  1.
        -11    1    1    2    0    0 -0.14254635322E+02 -0.15892526139E+02  0.18283945203E+02  0.28108177946E+02  0.00000000000E+00 0. -1.
         11    1    1    2    0    0  0.45832957538E+02 -0.16304952665E+02 -0.74435746494E+02  0.88922392198E+02  0.00000000000E+00 0.  1.
<mgrwt>
<rscale>  0 0.12461791E+03</rscale>
<asrwt>0</asrwt>
<pdfrwt beam="1">  1        1 0.43150629E-01 0.13292674E+03</pdfrwt>
<pdfrwt beam="2">  1       -1 0.16039677E-01 0.13292674E+03</pdfrwt>
<totfact> 0.26735107E+03</totfact>
</mgrwt>
</event>
<event>
 6    1  0.9240440E-006  0.1337069E+03  0.7546771E-02  0.1231834E+00
         -2   -1    0    0    0  501 -0.00000000000E+00  0.00000000000E+00  0.32090296294E+02  0.32090296294E+02  0.00000000000E+00 0.  1.
          2   -1    0    0  501    0  0.00000000000E+00 -0.00000000000E+00 -0.25942767064E+04  0.25942767064E+04  0.00000000000E+00 0. -1.
          5    1    1    2  502    0 -0.35928270301E+02 -0.70109616465E+02 -0.18614035398E+04  0.18630757974E+04  0.47000000000E+01 0. -1.
         -5    1    1    2    0  502  0.46936752781E+02  0.13945494020E+02 -0.63278288592E+03  0.63469189870E+03  0.47000000000E+01 0.  1.
        -11    1    1    2    0    0 -0.22513256657E+02  0.64789993756E+01 -0.73651353055E+02  0.77287424366E+02  0.00000000000E+00 0. -1.
         11    1    1    2    0    0  0.11504774177E+02  0.49685123070E+02  0.56513687127E+01  0.51311882168E+02  0.00000000000E+00 0.  1.
<mgrwt>
<rscale>  0 0.12709299E+03</rscale>
<asrwt>0</asrwt>
<pdfrwt beam="2">  1        2 0.39911957E+00 0.13370691E+03</pdfrwt>
<pdfrwt beam="1">  1       -2 0.49369677E-02 0.13370691E+03</pdfrwt>
<totfact> 0.73532238E+02</totfact>
</mgrwt>
</event>
<event>
 6    1  0.9240440E-006  0.1281798E+03  0.7546771E-02  0.1243805E+00
          1   -1    0    0  501    0  0.00000000000E+00  0.00000000000E+00  0.13017131733E+03  0.13017131733E+03  0.00000000000E+00 0. -1.
         -1   -1    0    0    0  501 -0.00000000000E+00 -0.00000000000E+00 -0.11071558974E+03  0.11071558974E+03  0.00000000000E+00 0.  1.
          5    1    1    2  502    0 -0.14990211881E+02 -0.69796044506E+01  0.82735672833E+02  0.84502679778E+02  0.47000000000E+01 0. -1.
         -5    1    1    2    0  502  0.36152891199E+02  0.25502014762E+02 -0.30468325449E+02  0.53923957149E+02  0.47000000000E+01 0. -1.
        -11    1    1    2    0    0  0.30949518337E+02 -0.38733010706E+01  0.10735045810E+02  0.32986608722E+02  0.00000000000E+00 0. -1.
         11    1    1    2    0    0 -0.52112197654E+02 -0.14649109241E+02 -0.43546665607E+02  0.69473661421E+02  0.00000000000E+00 0.  1.
<mgrwt>
<rscale>  0 0.11957206E+03</rscale>
<asrwt>0</asrwt>
<pdfrwt beam="1">  1        1 0.20026357E-01 0.12817979E+03</pdfrwt>
<pdfrwt beam="2">  1       -1 0.17033168E-01 0.12817979E+03</pdfrwt>
<totfact> 0.63177629E+03</totfact>
</mgrwt>
</event>
<event>
 6    1  0.9240440E-006  0.2646771E+03  0.7546771E-02  0.1104365E+00
          2   -1    0    0  501    0  0.00000000000E+00  0.00000000000E+00  0.21469438178E+04  0.21469438178E+04  0.00000000000E+00 0. -1.
         -2   -1    0    0    0  501 -0.00000000000E+00 -0.00000000000E+00 -0.81574064015E+01  0.81574064015E+01  0.00000000000E+00 0.  1.
          5    1    1    2  502    0 -0.33149593157E+02  0.13834748817E+02  0.17171424625E+03  0.17549406875E+03  0.47000000000E+01 0.  1.
         -5    1    1    2    0  502  0.51528250647E+02 -0.30508012870E+02  0.14391074447E+04  0.14403604504E+04  0.47000000000E+01 0.  1.
        -11    1    1    2    0    0  0.57930687352E+01  0.59868144400E+02  0.29996761613E+03  0.30593843349E+03  0.00000000000E+00 0. -1.
         11    1    1    2    0    0 -0.24171726226E+02 -0.43194880347E+02  0.22799710426E+03  0.23330827158E+03  0.00000000000E+00 0.  1.
<mgrwt>
<rscale>  0 0.26467711E+03</rscale>
<asrwt>0</asrwt>
<pdfrwt beam="1">  1        2 0.33029860E+00 0.26467711E+03</pdfrwt>
<pdfrwt beam="2">  1       -2 0.12549873E-02 0.26467711E+03</pdfrwt>
<totfact> 0.95102393E+03</totfact>
</mgrwt>
</event>
<event>
 6    1  0.9240440E-006  0.2797506E+03  0.7546771E-02  0.1095825E+00
          2   -1    0    0  501    0  0.00000000000E+00  0.00000000000E+00  0.29758460935E+03  0.29758460935E+03  0.00000000000E+00 0. -1.
         -2   -1    0    0    0  501 -0.00000000000E+00 -0.00000000000E+00 -0.65746353616E+02  0.65746353616E+02  0.00000000000E+00 0.  1.
          5    1    1    2  502    0 -0.82271732413E+02 -0.10853161336E+02  0.66292699478E+01  0.83381450487E+02  0.47000000000E+01 0.  1.
         -5    1    1    2    0  502 -0.16975856554E+01 -0.67036609062E+01  0.10391084112E+03  0.10424669668E+03  0.47000000000E+01 0.  1.
        -11    1    1    2    0    0  0.96855773154E+02  0.33771399174E+02  0.11490195717E+03  0.15402599767E+03  0.00000000000E+00 0. -1.
         11    1    1    2    0    0 -0.12886455085E+02 -0.16214576932E+02  0.63961874930E+01  0.21676818129E+02  0.00000000000E+00 0.  1.
<mgrwt>
<rscale>  0 0.27975062E+03</rscale>
<asrwt>0</asrwt>
<pdfrwt beam="1">  1        2 0.45782247E-01 0.27975062E+03</pdfrwt>
<pdfrwt beam="2">  1       -2 0.10114824E-01 0.27975062E+03</pdfrwt>
<totfact> 0.71404577E+03</totfact>
</mgrwt>
</event>
<event>
 6    1  0.9240440E-006  0.2310312E+03  0.7546771E-02  0.1129076E+00
         -4   -1    0    0    0  501 -0.00000000000E+00  0.00000000000E+00  0.46188510451E+03  0.46188510451E+03  0.00000000000E+00 0. -1.
          4   -1    0    0  501    0  0.00000000000E+00 -0.00000000000E+00 -0.11313801629E+03  0.11313801629E+03  0.00000000000E+00 0.  1.
          5    1    1    2  502    0  0.13178409448E+03 -0.19764181622E+01  0.71164388572E+02  0.14985797939E+03  0.47000000000E+01 0. -1.
         -5    1    1    2    0  502  0.38922496196E+02 -0.90795909414E+02  0.43021528092E+02  0.10785082177E+03  0.47000000000E+01 0. -1.
        -11    1    1    2    0    0 -0.10596188404E+03  0.73093570809E+01  0.12473121498E+03  0.16382680965E+03  0.00000000000E+00 0. -1.
         11    1    1    2    0    0 -0.64744706635E+02  0.85462970495E+02  0.10982995658E+03  0.15348751000E+03  0.00000000000E+00 0.  1.
<mgrwt>
<rscale>  0 0.22657195E+03</rscale>
<asrwt>0</asrwt>
<pdfrwt beam="2">  1        4 0.17405849E-01 0.23103117E+03</pdfrwt>
<pdfrwt beam="1">  1       -4 0.71059246E-01 0.23103117E+03</pdfrwt>
<totfact> 0.96763866E+01</totfact>
</mgrwt>
</event>
<event>
 6    1  0.9240440E-006  0.3125030E+03  0.7546771E-02  0.1079152E+00
          3   -1    0    0  501    0  0.00000000000E+00  0.00000000000E+00  0.76042653062E+02  0.76042653062E+02  0.00000000000E+00 0. -1.
         -3   -1    0    0    0  501 -0.00000000000E+00 -0.00000000000E+00 -0.32106369112E+03  0.32106369112E+03  0.00000000000E+00 0.  1.
          5    1    1    2  502    0 -0.54180699873E+02 -0.10533638522E+03 -0.17414072362E+02  0.11981920634E+03  0.47000000000E+01 0. -1.
         -5    1    1    2    0  502  0.54528868199E+01  0.27153838612E+02 -0.33329708255E+02  0.43589269074E+02  0.47000000000E+01 0. -1.
        -11    1    1    2    0    0 -0.13620876666E+02  0.61639847554E+02 -0.74444023672E+02  0.97605900170E+02  0.00000000000E+00 0. -1.
         11    1    1    2    0    0  0.62348689720E+02  0.16542699059E+02 -0.11983323376E+03  0.13609196860E+03  0.00000000000E+00 0.  1.
<mgrwt>
<rscale>  0 0.31250302E+03</rscale>
<asrwt>0</asrwt>
<pdfrwt beam="1">  1        3 0.11698869E-01 0.31250302E+03</pdfrwt>
<pdfrwt beam="2">  1       -3 0.49394415E-01 0.31250302E+03</pdfrwt>
<totfact> 0.59677845E+02</totfact>
</mgrwt>
</event>
<event>
 6    1  0.9240440E-006  0.1374770E+03  0.7546771E-02  0.1227266E+00
          1   -1    0    0  501    0  0.00000000000E+00  0.00000000000E+00  0.17128689399E+03  0.17128689399E+03  0.00000000000E+00 0. -1.
         -1   -1    0    0    0  501 -0.00000000000E+00 -0.00000000000E+00 -0.92668467542E+02  0.92668467542E+02  0.00000000000E+00 0.  1.
          5    1    1    2  502    0  0.37597151481E+02 -0.25801646974E+02 -0.78240007257E+01  0.46503502808E+02  0.47000000000E+01 0.  1.
         -5    1    1    2    0  502 -0.83945441113E+01  0.75011550677E+02  0.74994416443E+02  0.10650565057E+03  0.47000000000E+01 0.  1.
        -11    1    1    2    0    0 -0.17610497561E+02 -0.75534964532E+02  0.21484278186E+02  0.80481269251E+02  0.00000000000E+00 0. -1.
         11    1    1    2    0    0 -0.11592109809E+02  0.26325060830E+02 -0.10036267460E+02  0.30464938897E+02  0.00000000000E+00 0.  1.
<mgrwt>
<rscale>  0 0.13012767E+03</rscale>
<asrwt>0</asrwt>
<pdfrwt beam="1">  1        1 0.26351830E-01 0.13747704E+03</pdfrwt>
<pdfrwt beam="2">  1       -1 0.14256687E-01 0.13747704E+03</pdfrwt>
<totfact> 0.59399074E+03</totfact>
</mgrwt>
</event>
<event>
 6    1  0.9240440E-006  0.1252773E+03  0.7546771E-02  0.1251269E+00
          2   -1    0    0  501    0  0.00000000000E+00  0.00000000000E+00  0.23691732927E+03  0.23691732927E+03  0.00000000000E+00 0. -1.
         -2   -1    0    0    0  501 -0.00000000000E+00 -0.00000000000E+00 -0.54940998497E+02  0.54940998497E+02  0.00000000000E+00 0.  1.
          5    1    1    2  502    0 -0.65871113098E+01 -0.17710422362E+02  0.16716648150E+03  0.16829667743E+03  0.47000000000E+01 0.  1.
         -5    1    1    2    0  502  0.33830064871E+01  0.25249090455E+02 -0.14105709553E+02  0.29496141166E+02  0.47000000000E+01 0.  1.
        -11    1    1    2    0    0  0.11611514477E+02  0.39248548815E+02  0.20546747806E+02  0.45797867832E+02  0.00000000000E+00 0. -1.
         11    1    1    2    0    0 -0.84074096547E+01 -0.46787216908E+02  0.83688110227E+01  0.48267641345E+02  0.00000000000E+00 0.  1.
<mgrwt>
<rscale>  0 0.11517900E+03</rscale>
<asrwt>0</asrwt>
<pdfrwt beam="1">  1        2 0.36448819E-01 0.12527729E+03</pdfrwt>
<pdfrwt beam="2">  1       -2 0.84524615E-02 0.12527729E+03</pdfrwt>
<totfact> 0.11474441E+04</totfact>
</mgrwt>
</event>
<event>
 6    1  0.9240440E-006  0.1946014E+03  0.7546771E-02  0.1157658E+00
         -1   -1    0    0    0  501 -0.00000000000E+00  0.00000000000E+00  0.29943677390E+02  0.29943677390E+02  0.00000000000E+00 0.  1.
          1   -1    0    0  501    0  0.00000000000E+00 -0.00000000000E+00 -0.24194252647E+04  0.24194252647E+04  0.00000000000E+00 0. -1.
          5    1    1    2  502    0 -0.12091889855E+02 -0.87920662517E+02 -0.18310540412E+04  0.18332095485E+04  0.47000000000E+01 0. -1.
         -5    1    1    2    0  502 -0.44219070712E+01 -0.60312665877E+02 -0.26474698846E+03  0.27160675401E+03  0.47000000000E+01 0. -1.
        -11    1    1    2    0    0  0.10024329568E+02  0.67229556581E+02 -0.23415191999E+03  0.24381842034E+03  0.00000000000E+00 0. -1.
         11    1    1    2    0    0  0.64894673574E+01  0.81003771813E+02 -0.59528637647E+02  0.10073421928E+03  0.00000000000E+00 0.  1.
<mgrwt>
<rscale>  0 0.19089382E+03</rscale>
<asrwt>0</asrwt>
<pdfrwt beam="2">  1        1 0.37221931E+00 0.19460142E+03</pdfrwt>
<pdfrwt beam="1">  1       -1 0.46067191E-02 0.19460142E+03</pdfrwt>
<totfact> 0.36297186E+02</totfact>
</mgrwt>
</event>
<event>
 6    1  0.2752688E-005  0.3522846E+03  0.7546771E-02  0.1061681E+00
         -1   -1    0    0    0  501 -0.00000000000E+00  0.00000000000E+00  0.16827090593E+03  0.16827090593E+03  0.00000000000E+00 0. -1.
          1   -1    0    0  501    0  0.00000000000E+00 -0.00000000000E+00 -0.18438188823E+03  0.18438188823E+03  0.00000000000E+00 0.  1.
          5    1    1    2  502    0 -0.71339041114E+02 -0.11326606459E+03  0.34619553535E+02  0.13834400479E+03  0.47000000000E+01 0.  1.
         -5    1    1    2    0  502 -0.19989959554E+01 -0.37692983396E+01 -0.47999639662E+02  0.48417548497E+02  0.47000000000E+01 0.  1.
        -11    1    1    2    0    0  0.29726785044E+02  0.87249176789E+02 -0.40787499923E+02  0.10079544012E+03  0.00000000000E+00 0.  1.
         11    1    1    2    0    0  0.43611252025E+02  0.29786186137E+02  0.38056603749E+02  0.65095800761E+02  0.00000000000E+00 0. -1.
<mgrwt>
<rscale>  0 0.35228459E+03</rscale>
<asrwt>0</asrwt>
<pdfrwt beam="2">  1        1 0.28366444E-01 0.35228459E+03</pdfrwt>
<pdfrwt beam="1">  1       -1 0.25887832E-01 0.35228459E+03</pdfrwt>
<totfact> 0.21437697E+03</totfact>
</mgrwt>
</event>
<event>
 6    1  0.9240440E-006  0.1462703E+03  0.7546771E-02  0.1215398E+00
          2   -1    0    0  501    0  0.00000000000E+00  0.00000000000E+00  0.30515607225E+03  0.30515607225E+03  0.00000000000E+00 0. -1.
         -2   -1    0    0    0  501 -0.00000000000E+00 -0.00000000000E+00 -0.74149564475E+02  0.74149564475E+02  0.00000000000E+00 0.  1.
          5    1    1    2  502    0 -0.13377293536E+02 -0.31988591017E+02  0.42246069343E+02  0.54854738287E+02  0.47000000000E+01 0.  1.
         -5    1    1    2    0  502  0.47169336142E+02  0.10001578370E+03  0.17374693307E+03  0.20600531549E+03  0.47000000000E+01 0.  1.
        -11    1    1    2    0    0  0.96061091375E+01 -0.22531729955E+02  0.43106981604E+02  0.49579915798E+02  0.00000000000E+00 0. -1.
         11    1    1    2    0    0 -0.43398151743E+02 -0.45495462723E+02 -0.28093476247E+02  0.68865667141E+02  0.00000000000E+00 0.  1.
<mgrwt>
<rscale>  0 0.13847375E+03</rscale>
<asrwt>0</asrwt>
<pdfrwt beam="1">  1        2 0.46947087E-01 0.14627027E+03</pdfrwt>
<pdfrwt beam="2">  1       -2 0.11407625E-01 0.14627027E+03</pdfrwt>
<totfact> 0.55380752E+03</totfact>
</mgrwt>
</event>
<event>
 6    1  0.9240440E-006  0.2878998E+03  0.7546771E-02  0.1091451E+00
         -2   -1    0    0    0  501 -0.00000000000E+00  0.00000000000E+00  0.68301286544E+03  0.68301286544E+03  0.00000000000E+00 0.  1.
          2   -1    0    0  501    0  0.00000000000E+00 -0.00000000000E+00 -0.30338489338E+02  0.30338489338E+02  0.00000000000E+00 0. -1.
          5    1    1    2  502    0 -0.11982557304E+03 -0.14925998093E+02  0.29640166449E+03  0.32008903462E+03  0.47000000000E+01 0.  1.
         -5    1    1    2    0  502  0.29075271867E+02 -0.10709600869E+02  0.38742771853E+02  0.49831308991E+02  0.47000000000E+01 0.  1.
        -11    1    1    2    0    0  0.35632400478E+02  0.46402837028E+02  0.23412946941E+03  0.24132861350E+03  0.00000000000E+00 0.  1.
         11    1    1    2    0    0  0.55117900696E+02 -0.20767238066E+02  0.83400470355E+02  0.10210239767E+03  0.00000000000E+00 0. -1.
<mgrwt>
<rscale>  0 0.28789983E+03</rscale>
<asrwt>0</asrwt>
<pdfrwt beam="2">  1        2 0.46674604E-02 0.28789983E+03</pdfrwt>
<pdfrwt beam="1">  1       -2 0.10507889E+00 0.28789983E+03</pdfrwt>
<totfact> 0.13165762E+03</totfact>
</mgrwt>
</event>
<event>
 6    1  0.9240440E-006  0.1488104E+03  0.7546771E-02  0.1209249E+00
          1   -1    0    0  501    0  0.00000000000E+00  0.00000000000E+00  0.13973351341E+03  0.13973351341E+03  0.00000000000E+00 0. -1.
         -1   -1    0    0    0  501 -0.00000000000E+00 -0.00000000000E+00 -0.14952635611E+03  0.14952635611E+03  0.00000000000E+00 0.  1.
          5    1    1    2  502    0 -0.35311583256E+02  0.16464388964E+02  0.48400261865E+02  0.62310989116E+02  0.47000000000E+01 0. -1.
         -5    1    1    2    0  502 -0.16303260292E+02 -0.88969224436E+02 -0.10694932925E+02  0.91201923133E+02  0.47000000000E+01 0.  1.
        -11    1    1    2    0    0 -0.19141302630E+02  0.43905759633E+02 -0.43934278416E+01  0.48097893961E+02  0.00000000000E+00 0. -1.
         11    1    1    2    0    0  0.70756146178E+02  0.28599075840E+02 -0.43104743804E+02  0.87649063311E+02  0.00000000000E+00 0.  1.
<mgrwt>
<rscale>  0 0.14307624E+03</rscale>
<asrwt>0</asrwt>
<pdfrwt beam="1">  1        1 0.21497464E-01 0.14881036E+03</pdfrwt>
<pdfrwt beam="2">  1       -1 0.23004055E-01 0.14881036E+03</pdfrwt>
<totfact> 0.35969953E+03</totfact>
</mgrwt>
</event>
<event>
 6    1  0.9240440E-006  0.1922839E+03  0.7546771E-02  0.1160998E+00
          1   -1    0    0  501    0  0.00000000000E+00  0.00000000000E+00  0.76022410793E+03  0.76022410793E+03  0.00000000000E+00 0. -1.
         -1   -1    0    0    0  501 -0.00000000000E+00 -0.00000000000E+00 -0.43982605005E+02  0.43982605005E+02  0.00000000000E+00 0.  1.
          5    1    1    2  502    0 -0.12359093713E+03  0.80000600710E+02  0.26559377542E+03  0.30370538256E+03  0.47000000000E+01 0. -1.
         -5    1    1    2    0  502 -0.17264049551E+02 -0.41174104433E+02  0.87918390623E+02  0.98717210721E+02  0.47000000000E+01 0. -1.
        -11    1    1    2    0    0  0.11626715294E+03 -0.44335095096E+02  0.35381191428E+03  0.37505535884E+03  0.00000000000E+00 0. -1.
         11    1    1    2    0    0  0.24587833742E+02  0.55085988193E+01  0.89174226130E+01  0.26728760823E+02  0.00000000000E+00 0.  1.
<mgrwt>
<rscale>  0 0.18721454E+03</rscale>
<asrwt>0</asrwt>
<pdfrwt beam="1">  1        1 0.11695755E+00 0.19228388E+03</pdfrwt>
<pdfrwt beam="2">  1       -1 0.67665552E-02 0.19228388E+03</pdfrwt>
<totfact> 0.27474979E+03</totfact>
</mgrwt>
</event>
<event>
 6    1  0.9240440E-006  0.1456124E+03  0.7546771E-02  0.1215823E+00
         -2   -1    0    0    0  501 -0.00000000000E+00  0.00000000000E+00  0.40315287271E+02  0.40315287271E+02  0.00000000000E+00 0.  1.
          2   -1    0    0  501    0  0.00000000000E+00 -0.00000000000E+00 -0.49997552225E+03  0.49997552225E+03  0.00000000000E+00 0. -1.
          5    1    1    2  502    0 -0.10040161846E+02  0.49152854595E+02 -0.37431176606E+02  0.62769347192E+02  0.47000000000E+01 0.  1.
         -5    1    1    2    0  502 -0.48058801966E+02 -0.22156453635E+01 -0.31299793224E+03  0.31670862495E+03  0.47000000000E+01 0.  1.
        -11    1    1    2    0    0  0.59813124197E+02  0.29430460980E+01 -0.88299700222E+02  0.10669165106E+03  0.00000000000E+00 0. -1.
         11    1    1    2    0    0 -0.17141603854E+01 -0.49880255329E+02 -0.20931425902E+02  0.54121186312E+02  0.00000000000E+00 0.  1.
<mgrwt>
<rscale>  0 0.13816246E+03</rscale>
<asrwt>0</asrwt>
<pdfrwt beam="2">  1        2 0.76919305E-01 0.14561240E+03</pdfrwt>
<pdfrwt beam="1">  1       -2 0.62023524E-02 0.14561240E+03</pdfrwt>
<totfact> 0.83990685E+03</totfact>
</mgrwt>
</event>
<event>
 6    1  0.9240440E-006  0.2527932E+03  0.7546771E-02  0.1111552E+00
          2   -1    0    0  501    0  0.00000000000E+00  0.00000000000E+00  0.11903778375E+03  0.11903778375E+03  0.00000000000E+00 0. -1.
         -2   -1    0    0    0  501 -0.00000000000E+00 -0.00000000000E+00 -0.13421027974E+03  0.13421027974E+03  0.00000000000E+00 0.  1.
          5    1    1    2  502    0  0.84130181747E+01  0.17093697909E+02 -0.38687140523E+02  0.43379237255E+02  0.47000000000E+01 0. -1.
         -5    1    1    2    0  502 -0.57393537383E+02 -0.24048680220E+02  0.71690447755E+02  0.95047185403E+02  0.47000000000E+01 0. -1.
        -11    1    1    2    0    0  0.96543093162E+01  0.35519747073E+02  0.10835527385E+02  0.38370128671E+02  0.00000000000E+00 0. -1.
         11    1    1    2    0    0  0.39326209892E+02 -0.28564764763E+02 -0.59011330614E+02  0.76451512158E+02  0.00000000000E+00 0.  1.
<mgrwt>
<rscale>  0 0.25279315E+03</rscale>
<asrwt>0</asrwt>
<pdfrwt beam="1">  1        2 0.18313505E-01 0.25279315E+03</pdfrwt>
<pdfrwt beam="2">  1       -2 0.20647735E-01 0.25279315E+03</pdfrwt>
<totfact> 0.60447637E+03</totfact>
</mgrwt>
</event>
<event>
 6    1  0.9240440E-006  0.1275964E+03  0.7546771E-02  0.1246094E+00
         -2   -1    0    0    0  501 -0.00000000000E+00  0.00000000000E+00  0.98150791333E+02  0.98150791333E+02  0.00000000000E+00 0.  1.
          2   -1    0    0  501    0  0.00000000000E+00 -0.00000000000E+00 -0.16674614250E+03  0.16674614250E+03  0.00000000000E+00 0. -1.
          5    1    1    2  502    0 -0.23467132635E+02 -0.21650514384E+02  0.17385899014E+02  0.36658021928E+02  0.47000000000E+01 0. -1.
         -5    1    1    2    0  502  0.55547572342E+01  0.39940992451E+02 -0.12125327296E+03  0.12786940373E+03  0.47000000000E+01 0. -1.
        -11    1    1    2    0    0  0.18254152434E+02  0.30228849742E+02 -0.70207263120E+01  0.36004000274E+02  0.00000000000E+00 0. -1.
         11    1    1    2    0    0 -0.34177703315E+00 -0.48519327809E+02  0.42292749089E+02  0.64365507907E+02  0.00000000000E+00 0.  1.
<mgrwt>
<rscale>  0 0.11820162E+03</rscale>
<asrwt>0</asrwt>
<pdfrwt beam="2">  1        2 0.25653253E-01 0.12759640E+03</pdfrwt>
<pdfrwt beam="1">  1       -2 0.15100122E-01 0.12759640E+03</pdfrwt>
<totfact> 0.66868986E+03</totfact>
</mgrwt>
</event>
<event>
 6    1  0.9240440E-006  0.1578633E+03  0.7546771E-02  0.1199355E+00
         -4   -1    0    0    0  501 -0.00000000000E+00  0.00000000000E+00  0.72374335101E+02  0.72374335101E+02  0.00000000000E+00 0.  1.
          4   -1    0    0  501    0  0.00000000000E+00 -0.00000000000E+00 -0.29916425686E+03  0.29916425686E+03  0.00000000000E+00 0. -1.
          5    1    1    2  502    0  0.17415079313E+02  0.72172801610E+02 -0.15564583052E+03  0.17251061659E+03  0.47000000000E+01 0. -1.
         -5    1    1    2    0  502 -0.44648739889E+02  0.20311441422E+02 -0.13829467254E+00  0.49276503039E+02  0.47000000000E+01 0. -1.
        -11    1    1    2    0    0 -0.10442654804E+02  0.12413371265E+02  0.22464327855E+01  0.16376424694E+02  0.00000000000E+00 0.  1.
         11    1    1    2    0    0  0.37676315381E+02 -0.10489761430E+03 -0.73252229352E+02  0.13337504763E+03  0.00000000000E+00 0. -1.
<mgrwt>
<rscale>  0 0.15091370E+03</rscale>
<asrwt>0</asrwt>
<pdfrwt beam="2">  1        4 0.46025270E-01 0.15786334E+03</pdfrwt>
<pdfrwt beam="1">  1       -4 0.11134513E-01 0.15786334E+03</pdfrwt>
<totfact> 0.49552748E+02</totfact>
</mgrwt>
</event>
<event>
 6    1  0.9240440E-006  0.2620446E+03  0.7546771E-02  0.1105921E+00
         -2   -1    0    0    0  501 -0.00000000000E+00  0.00000000000E+00  0.20483086906E+03  0.20483086906E+03  0.00000000000E+00 0.  1.
          2   -1    0    0  501    0  0.00000000000E+00 -0.00000000000E+00 -0.83809839214E+02  0.83809839214E+02  0.00000000000E+00 0. -1.
          5    1    1    2  502    0 -0.29733496479E+02  0.53316879969E+01  0.35518214237E+02  0.46863005157E+02  0.47000000000E+01 0. -1.
         -5    1    1    2    0  502  0.87315944553E+02 -0.21202511749E+02 -0.21078705800E+02  0.92412242240E+02  0.47000000000E+01 0. -1.
        -11    1    1    2    0    0 -0.38366450083E+02 -0.23200868937E+02  0.93835302307E+02  0.10399677289E+03  0.00000000000E+00 0.  1.
         11    1    1    2    0    0 -0.19215997991E+02  0.39071692690E+02  0.12746219098E+02  0.45368687987E+02  0.00000000000E+00 0. -1.
<mgrwt>
<rscale>  0 0.26204459E+03</rscale>
<asrwt>0</asrwt>
<pdfrwt beam="2">  1        2 0.12893822E-01 0.26204459E+03</pdfrwt>
<pdfrwt beam="1">  1       -2 0.31512441E-01 0.26204459E+03</pdfrwt>
<totfact> 0.43349783E+03</totfact>
</mgrwt>
</event>
<event>
 6    1  0.9240440E-006  0.2608497E+03  0.7546771E-02  0.1106634E+00
          1   -1    0    0  501    0  0.00000000000E+00  0.00000000000E+00  0.82673660172E+03  0.82673660172E+03  0.00000000000E+00 0. -1.
         -1   -1    0    0    0  501 -0.00000000000E+00 -0.00000000000E+00 -0.20575652863E+02  0.20575652863E+02  0.00000000000E+00 0.  1.
          5    1    1    2  502    0  0.37941170108E+02 -0.12803911873E+01  0.65049188322E+03  0.65161564739E+03  0.47000000000E+01 0. -1.
         -5    1    1    2    0  502 -0.27403420716E+01 -0.66387830356E+01 -0.27891284332E+01  0.90250846135E+01  0.47000000000E+01 0. -1.
        -11    1    1    2    0    0 -0.31072469665E+02  0.44862392112E+02  0.12604462629E+03  0.13735130292E+03  0.00000000000E+00 0. -1.
         11    1    1    2    0    0 -0.41283583710E+01 -0.36943217889E+02  0.32413567776E+02  0.49320219655E+02  0.00000000000E+00 0.  1.
<mgrwt>
<rscale>  0 0.26084973E+03</rscale>
<asrwt>0</asrwt>
<pdfrwt beam="1">  1        1 0.12719022E+00 0.26084973E+03</pdfrwt>
<pdfrwt beam="2">  1       -1 0.31654857E-02 0.26084973E+03</pdfrwt>
<totfact> 0.75954933E+03</totfact>
</mgrwt>
</event>
<event>
 6    1  0.9240440E-006  0.1321861E+03  0.7546771E-02  0.1236747E+00
          2   -1    0    0  501    0  0.00000000000E+00  0.00000000000E+00  0.22076805870E+03  0.22076805870E+03  0.00000000000E+00 0. -1.
         -2   -1    0    0    0  501 -0.00000000000E+00 -0.00000000000E+00 -0.85483997759E+02  0.85483997759E+02  0.00000000000E+00 0.  1.
          5    1    1    2  502    0  0.95528085146E+01  0.45669710572E+02  0.19123446259E+01  0.46933204410E+02  0.47000000000E+01 0.  1.
         -5    1    1    2    0  502  0.26732397544E+02 -0.22645510714E+02  0.15151467601E+03  0.15558350581E+03  0.47000000000E+01 0.  1.
        -11    1    1    2    0    0 -0.36078716603E+02  0.22530840785E+02  0.17397364321E+02  0.45956292970E+02  0.00000000000E+00 0. -1.
         11    1    1    2    0    0 -0.20648945608E+00 -0.45555040644E+02 -0.35540324014E+02  0.57779053272E+02  0.00000000000E+00 0.  1.
<mgrwt>
<rscale>  0 0.12393231E+03</rscale>
<asrwt>0</asrwt>
<pdfrwt beam="1">  1        2 0.33964316E-01 0.13218611E+03</pdfrwt>
<pdfrwt beam="2">  1       -2 0.13151384E-01 0.13218611E+03</pdfrwt>
<totfact> 0.61872649E+03</totfact>
</mgrwt>
</event>
<event>
 6    1  0.9240440E-006  0.1349642E+03  0.7546771E-02  0.1231937E+00
          3   -1    0    0  501    0  0.00000000000E+00  0.00000000000E+00  0.13505107279E+04  0.13505107279E+04  0.00000000000E+00 0. -1.
         -3   -1    0    0    0  501 -0.00000000000E+00 -0.00000000000E+00 -0.15253432330E+02  0.15253432330E+02  0.00000000000E+00 0.  1.
          5    1    1    2  502    0  0.28382863249E+02  0.81234141385E+01  0.88221497108E+03  0.88272131615E+03  0.47000000000E+01 0. -1.
         -5    1    1    2    0  502 -0.12329048808E+02 -0.56425452942E+02  0.21168794112E+03  0.21947599322E+03  0.47000000000E+01 0. -1.
        -11    1    1    2    0    0 -0.25422079965E+02 -0.77257062570E+01  0.15677608867E+02  0.30850544674E+02  0.00000000000E+00 0.  1.
         11    1    1    2    0    0  0.93682655233E+01  0.56027745061E+02  0.22567677446E+03  0.23271630615E+03  0.00000000000E+00 0. -1.
<mgrwt>
<rscale>  0 0.12702565E+03</rscale>
<asrwt>0</asrwt>
<pdfrwt beam="1">  1        3 0.20777079E+00 0.13496417E+03</pdfrwt>
<pdfrwt beam="2">  1       -3 0.23466830E-02 0.13496417E+03</pdfrwt>
<totfact> 0.25313663E+02</totfact>
</mgrwt>
</event>
<event>
 6    1  0.9240440E-006  0.1367734E+03  0.7546771E-02  0.1229165E+00
          1   -1    0    0  501    0  0.00000000000E+00  0.00000000000E+00  0.16439248266E+04  0.16439248266E+04  0.00000000000E+00 0. -1.
         -1   -1    0    0    0  501 -0.00000000000E+00 -0.00000000000E+00 -0.18673607709E+02  0.18673607709E+02  0.00000000000E+00 0.  1.
          5    1    1    2  502    0 -0.78817991566E+02 -0.16578771318E+02  0.58329693533E+03  0.58885018147E+03  0.47000000000E+01 0.  1.
         -5    1    1    2    0  502  0.34649896010E+02 -0.17062021143E+02  0.86971564028E+03  0.87058550000E+03  0.47000000000E+01 0.  1.
        -11    1    1    2    0    0  0.15865431890E+02  0.48432851921E+02  0.16168781324E+03  0.16952994433E+03  0.00000000000E+00 0. -1.
         11    1    1    2    0    0  0.28302663666E+02 -0.14792059460E+02  0.10550830039E+02  0.33632808508E+02  0.00000000000E+00 0.  1.
<mgrwt>
<rscale>  0 0.12885473E+03</rscale>
<asrwt>0</asrwt>
<pdfrwt beam="1">  1        1 0.25291140E+00 0.13677340E+03</pdfrwt>
<pdfrwt beam="2">  1       -1 0.28728640E-02 0.13677340E+03</pdfrwt>
<totfact> 0.23084618E+03</totfact>
</mgrwt>
</event>
<event>
 6    1  0.9240440E-006  0.1336225E+03  0.7546771E-02  0.1233553E+00
          1   -1    0    0  501    0  0.00000000000E+00  0.00000000000E+00  0.19114845091E+03  0.19114845091E+03  0.00000000000E+00 0. -1.
         -1   -1    0    0    0  501 -0.00000000000E+00 -0.00000000000E+00 -0.78214172933E+02  0.78214172933E+02  0.00000000000E+00 0.  1.
          5    1    1    2  502    0  0.29318735629E+02 -0.76636400963E+02  0.92745635423E+02  0.12392162483E+03  0.47000000000E+01 0. -1.
         -5    1    1    2    0  502 -0.22035286699E+02  0.29975558990E+02 -0.20798812860E+01  0.37556675876E+02  0.47000000000E+01 0. -1.
        -11    1    1    2    0    0 -0.12431388330E+02  0.60619595316E+02 -0.18417222971E+02  0.64563680611E+02  0.00000000000E+00 0.  1.
         11    1    1    2    0    0  0.51479394003E+01 -0.13958753343E+02  0.40685746812E+02  0.43320642523E+02  0.00000000000E+00 0. -1.
<mgrwt>
<rscale>  0 0.12597534E+03</rscale>
<asrwt>0</asrwt>
<pdfrwt beam="1">  1        1 0.29407454E-01 0.13362246E+03</pdfrwt>
<pdfrwt beam="2">  1       -1 0.12032950E-01 0.13362246E+03</pdfrwt>
<totfact> 0.67267635E+03</totfact>
</mgrwt>
</event>
<event>
 6    1  0.9240440E-006  0.1642465E+03  0.7546771E-02  0.1190694E+00
         -1   -1    0    0    0  501 -0.00000000000E+00  0.00000000000E+00  0.76653160058E+02  0.76653160058E+02  0.00000000000E+00 0.  1.
          1   -1    0    0  501    0  0.00000000000E+00 -0.00000000000E+00 -0.90913480636E+03  0.90913480636E+03  0.00000000000E+00 0. -1.
          5    1    1    2  502    0  0.21928293505E+02  0.26262249314E+02 -0.69265214290E+02  0.77397129829E+02  0.47000000000E+01 0.  1.
         -5    1    1    2    0  502  0.62937058102E+02 -0.90673647260E+02 -0.75880266016E+03  0.76680268039E+03  0.47000000000E+01 0.  1.
        -11    1    1    2    0    0 -0.34420598071E+02  0.10147910981E+02  0.41158143761E+02  0.54605406936E+02  0.00000000000E+00 0.  1.
         11    1    1    2    0    0 -0.50444753536E+02  0.54263486964E+02 -0.45571915616E+02  0.86982749265E+02  0.00000000000E+00 0. -1.
<mgrwt>
<rscale>  0 0.15824356E+03</rscale>
<asrwt>0</asrwt>
<pdfrwt beam="2">  1        1 0.13986688E+00 0.16424651E+03</pdfrwt>
<pdfrwt beam="1">  1       -1 0.11792795E-01 0.16424651E+03</pdfrwt>
<totfact> 0.88969280E+02</totfact>
</mgrwt>
</event>
<event>
 6    1  0.9240440E-006  0.1453970E+03  0.7546771E-02  0.1217244E+00
         -2   -1    0    0    0  501 -0.00000000000E+00  0.00000000000E+00  0.14992948305E+03  0.14992948305E+03  0.00000000000E+00 0.  1.
          2   -1    0    0  501    0  0.00000000000E+00 -0.00000000000E+00 -0.13112635608E+03  0.13112635608E+03  0.00000000000E+00 0. -1.
          5    1    1    2  502    0 -0.20422422441E+01 -0.37576250697E+02 -0.34524877780E+02  0.51285500441E+02  0.47000000000E+01 0.  1.
         -5    1    1    2    0  502  0.66941140438E+02  0.73686499821E+02 -0.69246436170E+01  0.99904240291E+02  0.47000000000E+01 0.  1.
        -11    1    1    2    0    0  0.12638305151E+02  0.13887535841E+02 -0.15157718705E+01  0.18838470564E+02  0.00000000000E+00 0. -1.
         11    1    1    2    0    0 -0.77537203345E+02 -0.49997784965E+02  0.61768420238E+02  0.11102762783E+03  0.00000000000E+00 0.  1.
<mgrwt>
<rscale>  0 0.13712961E+03</rscale>
<asrwt>0</asrwt>
<pdfrwt beam="2">  1        2 0.20173286E-01 0.14539696E+03</pdfrwt>
<pdfrwt beam="1">  1       -2 0.23066074E-01 0.14539696E+03</pdfrwt>
<totfact> 0.43296830E+03</totfact>
</mgrwt>
</event>
<event>
 6    1  0.9240440E-006  0.1262392E+03  0.7546771E-02  0.1247409E+00
         -1   -1    0    0    0  501 -0.00000000000E+00  0.00000000000E+00  0.13780943718E+02  0.13780943718E+02  0.00000000000E+00 0.  1.
          1   -1    0    0  501    0  0.00000000000E+00 -0.00000000000E+00 -0.98053084107E+03  0.98053084107E+03  0.00000000000E+00 0. -1.
          5    1    1    2  502    0  0.13196294919E+02  0.49000777112E+02 -0.49408713728E+03  0.49670857410E+03  0.47000000000E+01 0. -1.
         -5    1    1    2    0  502 -0.30606036815E+02 -0.51898269723E+02 -0.20651191123E+03  0.21517299870E+03  0.47000000000E+01 0. -1.
        -11    1    1    2    0    0 -0.29335053963E+02  0.27528765855E+02 -0.13988935830E+03  0.14555896024E+03  0.00000000000E+00 0. -1.
         11    1    1    2    0    0  0.46744795858E+02 -0.24631273244E+02 -0.12626149054E+03  0.13687125175E+03  0.00000000000E+00 0.  1.
<mgrwt>
<rscale>  0 0.11742365E+03</rscale>
<asrwt>0</asrwt>
<pdfrwt beam="2">  1        1 0.15085095E+00 0.12623924E+03</pdfrwt>
<pdfrwt beam="1">  1       -1 0.21201445E-02 0.12623924E+03</pdfrwt>
<totfact> 0.99951422E+03</totfact>
</mgrwt>
</event>
<event>
 6    1  0.9240440E-006  0.1604800E+03  0.7546771E-02  0.1195721E+00
          2   -1    0    0  501    0  0.00000000000E+00  0.00000000000E+00  0.46454920170E+03  0.46454920170E+03  0.00000000000E+00 0.  1.
         -2   -1    0    0    0  501 -0.00000000000E+00 -0.00000000000E+00 -0.47365347489E+02  0.47365347489E+02  0.00000000000E+00 0. -1.
          5    1    1    2  502    0 -0.36821706113E+02 -0.37223093983E+02  0.67852448568E+01  0.53004964998E+02  0.47000000000E+01 0. -1.
         -5    1    1    2    0  502 -0.28117721807E+01 -0.55286310305E+02  0.20691221908E+03  0.21424107583E+03  0.47000000000E+01 0. -1.
        -11    1    1    2    0    0 -0.95170267931E+00  0.27735544378E+02  0.48847327377E+00  0.27756166271E+02  0.00000000000E+00 0. -1.
         11    1    1    2    0    0  0.40585180973E+02  0.64773859909E+02  0.20299791700E+03  0.21691234209E+03  0.00000000000E+00 0.  1.
<mgrwt>
<rscale>  0 0.15393340E+03</rscale>
<asrwt>0</asrwt>
<pdfrwt beam="1">  1        2 0.71469105E-01 0.16048003E+03</pdfrwt>
<pdfrwt beam="2">  1       -2 0.72869768E-02 0.16048003E+03</pdfrwt>
<totfact> 0.71553243E+03</totfact>
</mgrwt>
</event>
<event>
 6    1  0.9240440E-006  0.2774531E+03  0.7546771E-02  0.1097088E+00
          2   -1    0    0  501    0  0.00000000000E+00  0.00000000000E+00  0.64294204855E+02  0.64294204855E+02  0.00000000000E+00 0. -1.
         -2   -1    0    0    0  501 -0.00000000000E+00 -0.00000000000E+00 -0.29932802722E+03  0.29932802722E+03  0.00000000000E+00 0.  1.
          5    1    1    2  502    0  0.26297841777E+02  0.10629973980E+03 -0.44317424436E+02  0.11822578091E+03  0.47000000000E+01 0. -1.
         -5    1    1    2    0  502  0.34135601158E+01 -0.31023279856E+02 -0.46621547881E+02  0.56300577373E+02  0.47000000000E+01 0. -1.
        -11    1    1    2    0    0  0.26508579602E+02 -0.44097710292E+02 -0.34209226380E+02  0.61786600610E+02  0.00000000000E+00 0. -1.
         11    1    1    2    0    0 -0.56219981494E+02 -0.31178749650E+02 -0.10988562367E+03  0.12730927318E+03  0.00000000000E+00 0.  1.
<mgrwt>
<rscale>  0 0.27745311E+03</rscale>
<asrwt>0</asrwt>
<pdfrwt beam="1">  1        2 0.98914159E-02 0.27745311E+03</pdfrwt>
<pdfrwt beam="2">  1       -2 0.46050467E-01 0.27745311E+03</pdfrwt>
<totfact> 0.29300773E+03</totfact>
</mgrwt>
</event>
<event>
 6    1  0.9240440E-006  0.1638608E+03  0.7546771E-02  0.1191511E+00
          2   -1    0    0  501    0  0.00000000000E+00  0.00000000000E+00  0.47599983769E+02  0.47599983769E+02  0.00000000000E+00 0.  1.
         -2   -1    0    0    0  501 -0.00000000000E+00 -0.00000000000E+00 -0.48750351625E+03  0.48750351625E+03  0.00000000000E+00 0. -1.
          5    1    1    2  502    0 -0.43883033433E+01  0.12720669560E+03 -0.19558950432E+03  0.23340553723E+03  0.47000000000E+01 0.  1.
         -5    1    1    2    0  502 -0.25494401978E+02 -0.25563783890E+02 -0.61200565782E+02  0.71211451544E+02  0.47000000000E+01 0.  1.
        -11    1    1    2    0    0 -0.23733358544E+01 -0.17616948972E+02  0.78066044920E+01  0.19414754386E+02  0.00000000000E+00 0.  1.
         11    1    1    2    0    0  0.32256041176E+02 -0.84025962741E+02 -0.19092006687E+03  0.21107175685E+03  0.00000000000E+00 0. -1.
<mgrwt>
<rscale>  0 0.15753256E+03</rscale>
<asrwt>0</asrwt>
<pdfrwt beam="1">  1        2 0.73230737E-02 0.16386082E+03</pdfrwt>
<pdfrwt beam="2">  1       -2 0.75000549E-01 0.16386082E+03</pdfrwt>
<totfact> 0.15283243E+03</totfact>
</mgrwt>
</event>
<event>
 6    1  0.9240440E-006  0.1309772E+03  0.7546771E-02  0.1241285E+00
         -3   -1    0    0    0  501 -0.00000000000E+00  0.00000000000E+00  0.24376202553E+03  0.24376202553E+03  0.00000000000E+00 0.  1.
          3   -1    0    0  501    0  0.00000000000E+00 -0.00000000000E+00 -0.55115906828E+02  0.55115906828E+02  0.00000000000E+00 0. -1.
          5    1    1    2  502    0  0.17381121460E+02  0.62638841205E+02  0.15411187357E+02  0.66972550396E+02  0.47000000000E+01 0.  1.
         -5    1    1    2    0  502  0.20841259631E+02 -0.54314287894E+02  0.62094468551E+02  0.85218618841E+02  0.47000000000E+01 0.  1.
        -11    1    1    2    0    0 -0.58388654177E+02  0.69881533486E+01  0.10544341156E+03  0.12073268930E+03  0.00000000000E+00 0.  1.
         11    1    1    2    0    0  0.20166273086E+02 -0.15312706659E+02  0.56970512378E+01  0.25954073827E+02  0.00000000000E+00 0. -1.
<mgrwt>
<rscale>  0 0.12110502E+03</rscale>
<asrwt>0</asrwt>
<pdfrwt beam="2">  1        3 0.84793704E-02 0.13097719E+03</pdfrwt>
<pdfrwt beam="1">  1       -3 0.37501850E-01 0.13097719E+03</pdfrwt>
<totfact> 0.15577291E+03</totfact>
</mgrwt>
</event>
<event>
 6    1  0.9240440E-006  0.3277318E+03  0.7546771E-02  0.1072145E+00
          4   -1    0    0  501    0  0.00000000000E+00  0.00000000000E+00  0.59329665568E+02  0.59329665568E+02  0.00000000000E+00 0. -1.
         -4   -1    0    0    0  501 -0.00000000000E+00 -0.00000000000E+00 -0.45259039168E+03  0.45259039168E+03  0.00000000000E+00 0.  1.
          5    1    1    2  502    0  0.35169200781E+02  0.13045670410E+02 -0.66474045510E+02  0.76471896318E+02  0.47000000000E+01 0.  1.
         -5    1    1    2    0  502 -0.66555336737E+02  0.72262231621E+02 -0.19099730763E+02  0.10019148009E+03  0.47000000000E+01 0.  1.
        -11    1    1    2    0    0  0.26728192189E+01 -0.49537404431E+02 -0.27372197842E+03  0.27818127160E+03  0.00000000000E+00 0.  1.
         11    1    1    2    0    0  0.28713316737E+02 -0.35770497600E+02 -0.33964971422E+02  0.57075409243E+02  0.00000000000E+00 0. -1.
<mgrwt>
<rscale>  0 0.32773182E+03</rscale>
<asrwt>0</asrwt>
<pdfrwt beam="1">  1        4 0.91276407E-02 0.32773182E+03</pdfrwt>
<pdfrwt beam="2">  1       -4 0.69629292E-01 0.32773182E+03</pdfrwt>
<totfact> 0.32595504E+02</totfact>
</mgrwt>
</event>
<event>
 6    1  0.9240440E-006  0.2103106E+03  0.7546771E-02  0.1145085E+00
          2   -1    0    0  501    0  0.00000000000E+00  0.00000000000E+00  0.37622093216E+03  0.37622093216E+03  0.00000000000E+00 0. -1.
         -2   -1    0    0    0  501 -0.00000000000E+00 -0.00000000000E+00 -0.14098308886E+03  0.14098308886E+03  0.00000000000E+00 0.  1.
          5    1    1    2  502    0  0.11006914020E+02  0.19173461430E+02  0.77938998374E+01  0.23908338590E+02  0.47000000000E+01 0.  1.
         -5    1    1    2    0  502 -0.18002854566E+03 -0.25298634902E+02  0.23955072680E+03  0.30076060063E+03  0.47000000000E+01 0.  1.
        -11    1    1    2    0    0  0.72661494236E+02  0.47140968816E+02 -0.14297470844E+02  0.87785997505E+02  0.00000000000E+00 0.  1.
         11    1    1    2    0    0  0.96360137408E+02 -0.41015795344E+02  0.21906875033E+01  0.10474908429E+03  0.00000000000E+00 0. -1.
<mgrwt>
<rscale>  0 0.20561666E+03</rscale>
<asrwt>0</asrwt>
<pdfrwt beam="1">  1        2 0.57880143E-01 0.21031062E+03</pdfrwt>
<pdfrwt beam="2">  1       -2 0.21689706E-01 0.21031062E+03</pdfrwt>
<totfact> 0.15502659E+03</totfact>
</mgrwt>
</event>
<event>
 6    1  0.9240440E-006  0.1857366E+03  0.7546771E-02  0.1170073E+00
          2   -1    0    0  501    0  0.00000000000E+00  0.00000000000E+00  0.64784516297E+02  0.64784516297E+02  0.00000000000E+00 0. -1.
         -2   -1    0    0    0  501 -0.00000000000E+00 -0.00000000000E+00 -0.46238014146E+03  0.46238014146E+03  0.00000000000E+00 0.  1.
          5    1    1    2  502    0 -0.57230970618E+02  0.27215987750E+01 -0.60448971541E+02  0.83420376756E+02  0.47000000000E+01 0. -1.
         -5    1    1    2    0  502  0.32822335111E+02  0.12354227236E+03 -0.11148150049E+03  0.16967679185E+03  0.47000000000E+01 0.  1.
        -11    1    1    2    0    0  0.17835365920E+01 -0.12494263105E+03 -0.15077820045E+03  0.19582621833E+03  0.00000000000E+00 0. -1.
         11    1    1    2    0    0  0.22625098915E+02 -0.13212400845E+01 -0.74886952687E+02  0.78241270817E+02  0.00000000000E+00 0.  1.
<mgrwt>
<rscale>  0 0.17767390E+03</rscale>
<asrwt>0</asrwt>
<pdfrwt beam="1">  1        2 0.99668486E-02 0.18573661E+03</pdfrwt>
<pdfrwt beam="2">  1       -2 0.71135407E-01 0.18573661E+03</pdfrwt>
<totfact> 0.11691046E+03</totfact>
</mgrwt>
</event>
<event>
 6    1  0.9240440E-006  0.1560378E+03  0.7546771E-02  0.1201373E+00
          3   -1    0    0  501    0  0.00000000000E+00  0.00000000000E+00  0.35983168388E+03  0.35983168388E+03  0.00000000000E+00 0. -1.
         -3   -1    0    0    0  501 -0.00000000000E+00 -0.00000000000E+00 -0.64691958429E+02  0.64691958429E+02  0.00000000000E+00 0.  1.
          5    1    1    2  502    0 -0.27096113790E+02  0.57574050468E+02  0.23719828271E+02  0.68071219491E+02  0.47000000000E+01 0. -1.
         -5    1    1    2    0  502  0.12864156781E+02  0.34728273129E+02  0.20777432138E+03  0.21110139295E+03  0.47000000000E+01 0. -1.
        -11    1    1    2    0    0 -0.20774373558E+02 -0.70522215249E+02  0.50331635892E+01  0.73690502618E+02  0.00000000000E+00 0.  1.
         11    1    1    2    0    0  0.35006330567E+02 -0.21780108348E+02  0.58612412218E+02  0.71660527248E+02  0.00000000000E+00 0. -1.
<mgrwt>
<rscale>  0 0.14926955E+03</rscale>
<asrwt>0</asrwt>
<pdfrwt beam="1">  1        3 0.55358719E-01 0.15603784E+03</pdfrwt>
<pdfrwt beam="2">  1       -3 0.99526092E-02 0.15603784E+03</pdfrwt>
<totfact> 0.57150696E+02</totfact>
</mgrwt>
</event>
<event>
 6    1  0.9240440E-006  0.1505058E+03  0.7546771E-02  0.1211040E+00
         -3   -1    0    0    0  501 -0.00000000000E+00  0.00000000000E+00  0.13871489353E+03  0.13871489353E+03  0.00000000000E+00 0.  1.
          3   -1    0    0  501    0  0.00000000000E+00 -0.00000000000E+00 -0.13351610217E+03  0.13351610217E+03  0.00000000000E+00 0. -1.
          5    1    1    2  502    0 -0.93691094920E+01  0.79715782471E+02 -0.65503960419E+02  0.10370749741E+03  0.47000000000E+01 0.  1.
         -5    1    1    2    0  502 -0.61365616840E+01  0.26811593488E+01  0.47203092722E+02  0.47906867642E+02  0.47000000000E+01 0.  1.
        -11    1    1    2    0    0  0.38232297111E+01 -0.77305431624E+02 -0.16065595506E+02  0.79049669214E+02  0.00000000000E+00 0. -1.
         11    1    1    2    0    0  0.11682441465E+02 -0.50915101960E+01  0.39565254560E+02  0.41566961437E+02  0.00000000000E+00 0.  1.
<mgrwt>
<rscale>  0 0.14171504E+03</rscale>
<asrwt>0</asrwt>
<pdfrwt beam="2">  1        3 0.20540939E-01 0.15050579E+03</pdfrwt>
<pdfrwt beam="1">  1       -3 0.21340753E-01 0.15050579E+03</pdfrwt>
<totfact> 0.10024313E+03</totfact>
</mgrwt>
</event>
<event>
 6    1  0.9240440E-006  0.1254604E+03  0.7546771E-02  0.1250048E+00
         -2   -1    0    0    0  501 -0.00000000000E+00  0.00000000000E+00  0.85605455954E+01  0.85605455954E+01  0.00000000000E+00 0. -1.
          2   -1    0    0  501    0  0.00000000000E+00 -0.00000000000E+00 -0.15567153839E+04  0.15567153839E+04  0.00000000000E+00 0.  1.
          5    1    1    2  502    0  0.25991220472E+02 -0.91677918967E+01 -0.10362201464E+04  0.10365972573E+04  0.47000000000E+01 0.  1.
         -5    1    1    2    0  502 -0.36498804395E+02  0.11414318948E+02 -0.11169887873E+03  0.11815743273E+03  0.47000000000E+01 0.  1.
        -11    1    1    2    0    0  0.29253770704E+02  0.37138725422E+02 -0.18838940592E+03  0.19423088397E+03  0.00000000000E+00 0.  1.
         11    1    1    2    0    0 -0.18746186781E+02 -0.39385252473E+02 -0.21184640727E+03  0.21629035555E+03  0.00000000000E+00 0. -1.
<mgrwt>
<rscale>  0 0.11588282E+03</rscale>
<asrwt>0</asrwt>
<pdfrwt beam="2">  1        2 0.23949447E+00 0.12546038E+03</pdfrwt>
<pdfrwt beam="1">  1       -2 0.13170082E-02 0.12546038E+03</pdfrwt>
<totfact> 0.17487476E+04</totfact>
</mgrwt>
</event>
<event>
 6    1  0.9240440E-006  0.1215476E+03  0.7546771E-02  0.1248403E+00
          1   -1    0    0  501    0  0.00000000000E+00  0.00000000000E+00  0.57308481892E+03  0.57308481892E+03  0.00000000000E+00 0. -1.
         -1   -1    0    0    0  501 -0.00000000000E+00 -0.00000000000E+00 -0.25449597074E+02  0.25449597074E+02  0.00000000000E+00 0.  1.
          5    1    1    2  502    0  0.15904683630E+01  0.49469478233E+02  0.82233028306E+02  0.96094327671E+02  0.47000000000E+01 0. -1.
         -5    1    1    2    0  502  0.42491899312E+02 -0.29267104013E+02  0.31784785268E+03  0.32204265609E+03  0.47000000000E+01 0.  1.
        -11    1    1    2    0    0  0.44348520868E+00 -0.37296610490E+02  0.16224346749E+02  0.40675093861E+02  0.00000000000E+00 0.  1.
         11    1    1    2    0    0 -0.44525852884E+02  0.17094236269E+02  0.13132999411E+03  0.13972233838E+03  0.00000000000E+00 0. -1.
<mgrwt>
<rscale>  0 0.11684002E+03</rscale>
<asrwt>0</asrwt>
<pdfrwt beam="1">  1        1 0.88166885E-01 0.12154763E+03</pdfrwt>
<pdfrwt beam="2">  1       -1 0.39153231E-02 0.12154763E+03</pdfrwt>
<totfact> 0.90344825E+03</totfact>
</mgrwt>
</event>
<event>
 6    1  0.9240440E-006  0.3438951E+03  0.7546771E-02  0.1065149E+00
          4   -1    0    0  501    0  0.00000000000E+00  0.00000000000E+00  0.10118085788E+04  0.10118085788E+04  0.00000000000E+00 0.  1.
         -4   -1    0    0    0  501 -0.00000000000E+00 -0.00000000000E+00 -0.29220906318E+02  0.29220906318E+02  0.00000000000E+00 0. -1.
          5    1    1    2  502    0 -0.10330174299E+03 -0.66873273904E+02  0.40666764524E+03  0.42490463466E+03  0.47000000000E+01 0.  1.
         -5    1    1    2    0  502 -0.14444537639E+02  0.40333869002E+02  0.28580949702E+03  0.28904086950E+03  0.47000000000E+01 0.  1.
        -11    1    1    2    0    0  0.54374490964E+02  0.22338232473E+02  0.45424301593E+02  0.74289629645E+02  0.00000000000E+00 0. -1.
         11    1    1    2    0    0  0.63371789670E+02  0.42011724287E+01  0.24468622868E+03  0.25279435136E+03  0.00000000000E+00 0.  1.
<mgrwt>
<rscale>  0 0.34389512E+03</rscale>
<asrwt>0</asrwt>
<pdfrwt beam="1">  1        4 0.15566283E+00 0.34389512E+03</pdfrwt>
<pdfrwt beam="2">  1       -4 0.44955248E-02 0.34389512E+03</pdfrwt>
<totfact> 0.15528614E+02</totfact>
</mgrwt>
</event>
<event>
 6    1  0.9240440E-006  0.3271814E+03  0.7546771E-02  0.1072391E+00
         -1   -1    0    0    0  501 -0.00000000000E+00  0.00000000000E+00  0.58696056830E+03  0.58696056830E+03  0.00000000000E+00 0.  1.
          1   -1    0    0  501    0  0.00000000000E+00 -0.00000000000E+00 -0.45594065534E+02  0.45594065534E+02  0.00000000000E+00 0. -1.
          5    1    1    2  502    0  0.72454040302E+02 -0.10625676464E+03  0.10438268669E+03  0.16570432483E+03  0.47000000000E+01 0. -1.
         -5    1    1    2    0  502 -0.13487173947E+02  0.14338708118E+02  0.79107452030E+02  0.81655259343E+02  0.47000000000E+01 0. -1.
        -11    1    1    2    0    0  0.89022369086E+01  0.60952266448E+02  0.21963836541E+03  0.22811277949E+03  0.00000000000E+00 0.  1.
         11    1    1    2    0    0 -0.67869103263E+02  0.30965790078E+02  0.13823799864E+03  0.15708227017E+03  0.00000000000E+00 0. -1.
<mgrwt>
<rscale>  0 0.32718141E+03</rscale>
<asrwt>0</asrwt>
<pdfrwt beam="2">  1        1 0.70144721E-02 0.32718141E+03</pdfrwt>
<pdfrwt beam="1">  1       -1 0.90301620E-01 0.32718141E+03</pdfrwt>
<totfact> 0.13170376E+03</totfact>
</mgrwt>
</event>
<event>
 6    1  0.9240440E-006  0.1763411E+03  0.7546771E-02  0.1177331E+00
         -1   -1    0    0    0  501 -0.00000000000E+00  0.00000000000E+00  0.38406731516E+02  0.38406731516E+02  0.00000000000E+00 0.  1.
          1   -1    0    0  501    0  0.00000000000E+00 -0.00000000000E+00 -0.71577683112E+03  0.71577683112E+03  0.00000000000E+00 0. -1.
          5    1    1    2  502    0  0.11991293945E+03 -0.78559311638E+02 -0.30993526339E+03  0.34151520608E+03  0.47000000000E+01 0.  1.
         -5    1    1    2    0  502 -0.46075503137E+01  0.31940813968E+02 -0.82908228810E+02  0.89091579407E+02  0.47000000000E+01 0.  1.
        -11    1    1    2    0    0 -0.12184484316E+03  0.17852043305E+02 -0.21029777986E+03  0.24370067187E+03  0.00000000000E+00 0. -1.
         11    1    1    2    0    0  0.65394540294E+01  0.28766454365E+02 -0.74228827541E+02  0.79876105275E+02  0.00000000000E+00 0.  1.
<mgrwt>
<rscale>  0 0.17049642E+03</rscale>
<asrwt>0</asrwt>
<pdfrwt beam="2">  1        1 0.11011950E+00 0.17634113E+03</pdfrwt>
<pdfrwt beam="1">  1       -1 0.59087287E-02 0.17634113E+03</pdfrwt>
<totfact> 0.36725125E+03</totfact>
</mgrwt>
</event>
<event>
 6    1  0.9240440E-006  0.2710560E+03  0.7546771E-02  0.1100677E+00
          4   -1    0    0  501    0  0.00000000000E+00  0.00000000000E+00  0.24344006023E+03  0.24344006023E+03  0.00000000000E+00 0. -1.
         -4   -1    0    0    0  501 -0.00000000000E+00 -0.00000000000E+00 -0.75451179167E+02  0.75451179167E+02  0.00000000000E+00 0.  1.
          5    1    1    2  502    0 -0.16181183141E+02 -0.29063030122E+01  0.15145319866E+03  0.15241534920E+03  0.47000000000E+01 0.  1.
         -5    1    1    2    0  502  0.55966417539E+02 -0.24107091464E+02  0.18270295455E+02  0.63790951138E+02  0.47000000000E+01 0.  1.
        -11    1    1    2    0    0 -0.11967983556E+02  0.48603527572E+02  0.27326599930E+02  0.57028752280E+02  0.00000000000E+00 0. -1.
         11    1    1    2    0    0 -0.27817250841E+02 -0.21590133096E+02 -0.29061212986E+02  0.45656186784E+02  0.00000000000E+00 0.  1.
<mgrwt>
<rscale>  0 0.27105601E+03</rscale>
<asrwt>0</asrwt>
<pdfrwt beam="1">  1        4 0.37452317E-01 0.27105601E+03</pdfrwt>
<pdfrwt beam="2">  1       -4 0.11607874E-01 0.27105601E+03</pdfrwt>
<totfact> 0.76254055E+02</totfact>
</mgrwt>
</event>
<event>
 6    1  0.9240440E-006  0.5372522E+03  0.7546771E-02  0.1055402E+00
         -1   -1    0    0    0  501 -0.00000000000E+00  0.00000000000E+00  0.29350399224E+03  0.29350399224E+03  0.00000000000E+00 0.  1.
          1   -1    0    0  501    0  0.00000000000E+00 -0.00000000000E+00 -0.39009706261E+03  0.39009706261E+03  0.00000000000E+00 0. -1.
          5    1    1    2  502    0  0.22992413752E+03  0.12162551688E+03 -0.29203159600E+02  0.26178768096E+03  0.47000000000E+01 0. -1.
         -5    1    1    2    0  502 -0.19474152133E+03 -0.18864989649E+03 -0.11446446423E+03  0.29434205806E+03  0.47000000000E+01 0.  1.
        -11    1    1    2    0    0 -0.31097432125E+01 -0.22826624348E+02  0.10074890392E+02  0.25144158335E+02  0.00000000000E+00 0. -1.
         11    1    1    2    0    0 -0.32072872980E+02  0.89851003960E+02  0.36999663077E+02  0.10232715750E+03  0.00000000000E+00 0.  1.
<mgrwt>
<rscale>  0 0.36815199E+03</rscale>
<asrwt>0</asrwt>
<pdfrwt beam="2">  1        1 0.60014932E-01 0.53725218E+03</pdfrwt>
<pdfrwt beam="1">  1       -1 0.45154461E-01 0.53725218E+03</pdfrwt>
<totfact> 0.30771853E+02</totfact>
</mgrwt>
</event>
<event>
 6    1  0.9240440E-006  0.3235150E+03  0.7546771E-02  0.1074043E+00
         -1   -1    0    0    0  501 -0.00000000000E+00  0.00000000000E+00  0.13186117032E+03  0.13186117032E+03  0.00000000000E+00 0.  1.
          1   -1    0    0  501    0  0.00000000000E+00 -0.00000000000E+00 -0.19843211588E+03  0.19843211588E+03  0.00000000000E+00 0. -1.
          5    1    1    2  502    0  0.47966776545E+01  0.11261040611E+03 -0.10076759323E+03  0.15126238636E+03  0.47000000000E+01 0.  1.
         -5    1    1    2    0  502 -0.29034988481E+02 -0.84481751559E+01  0.15198636482E+02  0.34168564068E+02  0.47000000000E+01 0.  1.
        -11    1    1    2    0    0 -0.29361437964E+00 -0.52719005215E+02 -0.37433558302E+02  0.64657953937E+02  0.00000000000E+00 0.  1.
         11    1    1    2    0    0  0.24531925206E+02 -0.51443225745E+02  0.56431569500E+02  0.80204381835E+02  0.00000000000E+00 0. -1.
<mgrwt>
<rscale>  0 0.32351501E+03</rscale>
<asrwt>0</asrwt>
<pdfrwt beam="2">  1        1 0.30528018E-01 0.32351501E+03</pdfrwt>
<pdfrwt beam="1">  1       -1 0.20286334E-01 0.32351501E+03</pdfrwt>
<totfact> 0.29210526E+03</totfact>
</mgrwt>
</event>
<event>
 6    1  0.9240440E-006  0.1410337E+03  0.7546771E-02  0.1224048E+00
         -1   -1    0    0    0  501 -0.00000000000E+00  0.00000000000E+00  0.46575722651E+03  0.46575722651E+03  0.00000000000E+00 0.  1.
          1   -1    0    0  501    0  0.00000000000E+00 -0.00000000000E+00 -0.33775675669E+02  0.33775675669E+02  0.00000000000E+00 0. -1.
          5    1    1    2  502    0 -0.42675486567E+02  0.34993365543E+02  0.14260641665E+03  0.15298500859E+03  0.47000000000E+01 0.  1.
         -5    1    1    2    0  502  0.78721764813E+02  0.19503115694E+02  0.11666902083E+03  0.14216623438E+03  0.47000000000E+01 0.  1.
        -11    1    1    2    0    0 -0.43635014950E+02 -0.67571764930E+01  0.13795176413E+03  0.14484599819E+03  0.00000000000E+00 0.  1.
         11    1    1    2    0    0  0.75887367047E+01 -0.47739304744E+02  0.34754349238E+02  0.59535661020E+02  0.00000000000E+00 0. -1.
<mgrwt>
<rscale>  0 0.13232381E+03</rscale>
<asrwt>0</asrwt>
<pdfrwt beam="2">  1        1 0.51962581E-02 0.14103370E+03</pdfrwt>
<pdfrwt beam="1">  1       -1 0.71654953E-01 0.14103370E+03</pdfrwt>
<totfact> 0.31147663E+03</totfact>
</mgrwt>
</event>
<event>
 6    1  0.9240440E-006  0.1329407E+03  0.7546771E-02  0.1236040E+00
         -2   -1    0    0    0  501 -0.00000000000E+00  0.00000000000E+00  0.52770894714E+02  0.52770894714E+02  0.00000000000E+00 0.  1.
          2   -1    0    0  501    0  0.00000000000E+00 -0.00000000000E+00 -0.28121663278E+03  0.28121663278E+03  0.00000000000E+00 0. -1.
          5    1    1    2  502    0 -0.13783430811E+02  0.43968985050E+02 -0.77967092466E+02  0.90687441902E+02  0.47000000000E+01 0. -1.
         -5    1    1    2    0  502  0.53442195889E+02 -0.65863944089E+02 -0.94482549098E+02  0.12705577325E+03  0.47000000000E+01 0. -1.
        -11    1    1    2    0    0 -0.50112404417E+02  0.30479799434E+02 -0.16762507192E-01  0.58653827931E+02  0.00000000000E+00 0.  1.
         11    1    1    2    0    0  0.10453639339E+02 -0.85848403937E+01 -0.55979333994E+02  0.57590484409E+02  0.00000000000E+00 0. -1.
<mgrwt>
<rscale>  0 0.12438081E+03</rscale>
<asrwt>0</asrwt>
<pdfrwt beam="2">  1        2 0.43264097E-01 0.13294070E+03</pdfrwt>
<pdfrwt beam="1">  1       -2 0.81185993E-02 0.13294070E+03</pdfrwt>
<totfact> 0.10228416E+04</totfact>
</mgrwt>
</event>
<event>
 6    1  0.9240440E-006  0.1343847E+03  0.7546771E-02  0.1233537E+00
         -2   -1    0    0    0  501 -0.00000000000E+00  0.00000000000E+00  0.18997658276E+02  0.18997658276E+02  0.00000000000E+00 0.  1.
          2   -1    0    0  501    0  0.00000000000E+00 -0.00000000000E+00 -0.74708603988E+03  0.74708603988E+03  0.00000000000E+00 0. -1.
          5    1    1    2  502    0  0.39751402277E+02  0.61339610083E+02 -0.27418718650E+03  0.28380173535E+03  0.47000000000E+01 0. -1.
         -5    1    1    2    0  502  0.93231428167E+01 -0.56260166127E+02 -0.12702645569E+03  0.13931955258E+03  0.47000000000E+01 0. -1.
        -11    1    1    2    0    0  0.62516619802E+01  0.32009609393E+02 -0.64655218377E+02  0.72415437818E+02  0.00000000000E+00 0.  1.
         11    1    1    2    0    0 -0.55326207074E+02 -0.37089053348E+02 -0.26221952104E+03  0.27054697241E+03  0.00000000000E+00 0. -1.
<mgrwt>
<rscale>  0 0.12598536E+03</rscale>
<asrwt>0</asrwt>
<pdfrwt beam="2">  1        2 0.11493629E+00 0.13438466E+03</pdfrwt>
<pdfrwt beam="1">  1       -2 0.29227172E-02 0.13438466E+03</pdfrwt>
<totfact> 0.16188936E+04</totfact>
</mgrwt>
</event>
<event>
 6    1  0.9240440E-006  0.1838921E+03  0.7546771E-02  0.1168853E+00
          1   -1    0    0  501    0  0.00000000000E+00  0.00000000000E+00  0.46641218827E+03  0.46641218827E+03  0.00000000000E+00 0. -1.
         -1   -1    0    0    0  501 -0.00000000000E+00 -0.00000000000E+00 -0.67878630879E+02  0.67878630879E+02  0.00000000000E+00 0.  1.
          5    1    1    2  502    0 -0.76413632200E+02 -0.10528922055E+01  0.12901291887E+03  0.15002191507E+03  0.47000000000E+01 0.  1.
         -5    1    1    2    0  502 -0.58769689768E+01 -0.10580789383E+03  0.13403963359E+03  0.17093438078E+03  0.47000000000E+01 0.  1.
        -11    1    1    2    0    0  0.29423408366E+01  0.77939830825E+02  0.47215757544E+02  0.91173473988E+02  0.00000000000E+00 0.  1.
         11    1    1    2    0    0  0.79348260341E+02  0.28920955212E+02  0.88265247391E+02  0.12216104930E+03  0.00000000000E+00 0. -1.
<mgrwt>
<rscale>  0 0.17891903E+03</rscale>
<asrwt>0</asrwt>
<pdfrwt beam="1">  1        1 0.71755719E-01 0.18389208E+03</pdfrwt>
<pdfrwt beam="2">  1       -1 0.10442867E-01 0.18389208E+03</pdfrwt>
<totfact> 0.27812463E+03</totfact>
</mgrwt>
</event>
<event>
 6    1  0.9240440E-006  0.1372354E+03  0.7546771E-02  0.1229490E+00
          1   -1    0    0  501    0  0.00000000000E+00  0.00000000000E+00  0.50529252937E+02  0.50529252937E+02  0.00000000000E+00 0. -1.
         -1   -1    0    0    0  501 -0.00000000000E+00 -0.00000000000E+00 -0.37104007767E+03  0.37104007767E+03  0.00000000000E+00 0.  1.
          5    1    1    2  502    0 -0.25255793315E+01 -0.39627163987E+02  0.10984091571E+02  0.41466021563E+02  0.47000000000E+01 0.  1.
         -5    1    1    2    0  502 -0.52796076390E+02  0.51740547250E+02 -0.91210948391E+02  0.11749909369E+03  0.47000000000E+01 0.  1.
        -11    1    1    2    0    0  0.41325124802E+02  0.36508405577E+02 -0.13350258326E+03  0.14444226997E+03  0.00000000000E+00 0.  1.
         11    1    1    2    0    0  0.13996530920E+02 -0.48621788840E+02 -0.10678138465E+03  0.11816194538E+03  0.00000000000E+00 0. -1.
<mgrwt>
<rscale>  0 0.12863850E+03</rscale>
<asrwt>0</asrwt>
<pdfrwt beam="1">  1        1 0.77737314E-02 0.13723542E+03</pdfrwt>
<pdfrwt beam="2">  1       -1 0.57083087E-01 0.13723542E+03</pdfrwt>
<totfact> 0.27946464E+03</totfact>
</mgrwt>
</event>
<event>
 6    1  0.9240440E-006  0.2063500E+03  0.7546771E-02  0.1148396E+00
          1   -1    0    0  501    0  0.00000000000E+00  0.00000000000E+00  0.15143821724E+04  0.15143821724E+04  0.00000000000E+00 0. -1.
         -1   -1    0    0    0  501 -0.00000000000E+00 -0.00000000000E+00 -0.51644965716E+02  0.51644965716E+02  0.00000000000E+00 0.  1.
          5    1    1    2  502    0  0.20723614853E+02  0.13717770176E+03  0.86663290984E+03  0.87767982801E+03  0.47000000000E+01 0.  1.
         -5    1    1    2    0  502 -0.63911669418E+02  0.21227163939E+02  0.43664661669E+03  0.44183441677E+03  0.47000000000E+01 0.  1.
        -11    1    1    2    0    0  0.61691219681E+02 -0.57833488246E+02  0.85963279687E+02  0.12058276993E+03  0.00000000000E+00 0.  1.
         11    1    1    2    0    0 -0.18503165116E+02 -0.10057137745E+03  0.73494400463E+02  0.12593012341E+03  0.00000000000E+00 0. -1.
<mgrwt>
<rscale>  0 0.20159953E+03</rscale>
<asrwt>0</asrwt>
<pdfrwt beam="1">  1        1 0.23298184E+00 0.20634999E+03</pdfrwt>
<pdfrwt beam="2">  1       -1 0.79453805E-02 0.20634999E+03</pdfrwt>
<totfact> 0.61484890E+02</totfact>
</mgrwt>
</event>
<event>
 6    1  0.9240440E-006  0.1443510E+03  0.7546771E-02  0.1215875E+00
          1   -1    0    0  501    0  0.00000000000E+00  0.00000000000E+00  0.15164312691E+04  0.15164312691E+04  0.00000000000E+00 0. -1.
         -1   -1    0    0    0  501 -0.00000000000E+00 -0.00000000000E+00 -0.12224438859E+02  0.12224438859E+02  0.00000000000E+00 0.  1.
          5    1    1    2  502    0 -0.40940291153E+02 -0.73663031841E+02  0.58144799707E+03  0.58754252016E+03  0.47000000000E+01 0.  1.
         -5    1    1    2    0  502 -0.27963935387E+02  0.52805116864E+02  0.40433161745E+03  0.40874993446E+03  0.47000000000E+01 0.  1.
        -11    1    1    2    0    0  0.86803962433E+02 -0.61772915159E+01  0.33658253123E+03  0.34765052445E+03  0.00000000000E+00 0.  1.
         11    1    1    2    0    0 -0.17899735893E+02  0.27035206493E+02  0.18184468452E+03  0.18471272892E+03  0.00000000000E+00 0. -1.
<mgrwt>
<rscale>  0 0.13812483E+03</rscale>
<asrwt>0</asrwt>
<pdfrwt beam="1">  1        1 0.23329697E+00 0.14435098E+03</pdfrwt>
<pdfrwt beam="2">  1       -1 0.18806841E-02 0.14435098E+03</pdfrwt>
<totfact> 0.51573118E+03</totfact>
</mgrwt>
</event>
<event>
 6    1  0.9240440E-006  0.1355212E+03  0.7546771E-02  0.1234178E+00
          1   -1    0    0  501    0  0.00000000000E+00  0.00000000000E+00  0.33566344890E+02  0.33566344890E+02  0.00000000000E+00 0. -1.
         -1   -1    0    0    0  501 -0.00000000000E+00 -0.00000000000E+00 -0.43417923127E+03  0.43417923127E+03  0.00000000000E+00 0.  1.
          5    1    1    2  502    0  0.20325362661E+02 -0.12994345725E+02  0.11026383927E+02  0.26937790010E+02  0.47000000000E+01 0. -1.
         -5    1    1    2    0  502 -0.42357040884E+02 -0.34505030618E+02 -0.18879364627E+03  0.19659564320E+03  0.47000000000E+01 0. -1.
        -11    1    1    2    0    0 -0.15807794866E+02 -0.15887920279E+02 -0.84270186108E+02  0.87199636789E+02  0.00000000000E+00 0.  1.
         11    1    1    2    0    0  0.37839473089E+02  0.63387296622E+02 -0.13857543793E+03  0.15701250617E+03  0.00000000000E+00 0. -1.
<mgrwt>
<rscale>  0 0.12557219E+03</rscale>
<asrwt>0</asrwt>
<pdfrwt beam="1">  1        1 0.51640532E-02 0.13552120E+03</pdfrwt>
<pdfrwt beam="2">  1       -1 0.66796803E-01 0.13552120E+03</pdfrwt>
<totfact> 0.35984652E+03</totfact>
</mgrwt>
</event>
<event>
 6    1  0.9240440E-006  0.2027044E+03  0.7546771E-02  0.1173532E+00
         -1   -1    0    0    0  501 -0.00000000000E+00  0.00000000000E+00  0.28542991013E+03  0.28542991013E+03  0.00000000000E+00 0.  1.
          1   -1    0    0  501    0  0.00000000000E+00 -0.00000000000E+00 -0.90770122908E+02  0.90770122908E+02  0.00000000000E+00 0. -1.
          5    1    1    2  502    0 -0.52111378078E+02  0.18618524147E+02 -0.28351134129E+02  0.62354807136E+02  0.47000000000E+01 0. -1.
         -5    1    1    2    0  502  0.10481032349E+03 -0.33890325963E+02  0.11130304966E+03  0.15666594068E+03  0.47000000000E+01 0.  1.
        -11    1    1    2    0    0 -0.43680708019E+02 -0.37173978168E+02  0.58296043365E+02  0.81782257110E+02  0.00000000000E+00 0.  1.
         11    1    1    2    0    0 -0.90182373954E+01  0.52445779984E+02  0.53411828329E+02  0.75397028119E+02  0.00000000000E+00 0. -1.
<mgrwt>
<rscale>  0 0.17420512E+03</rscale>
<asrwt>0</asrwt>
<pdfrwt beam="2">  1        1 0.13964634E-01 0.20270438E+03</pdfrwt>
<pdfrwt beam="1">  1       -1 0.43912293E-01 0.20270438E+03</pdfrwt>
<totfact> 0.21108342E+03</totfact>
</mgrwt>
</event>
<event>
 6    1  0.9240440E-006  0.1332519E+03  0.7546771E-02  0.1234702E+00
         -2   -1    0    0    0  501 -0.00000000000E+00  0.00000000000E+00  0.17720504604E+02  0.17720504604E+02  0.00000000000E+00 0.  1.
          2   -1    0    0  501    0  0.00000000000E+00 -0.00000000000E+00 -0.14567815626E+04  0.14567815626E+04  0.00000000000E+00 0. -1.
          5    1    1    2  502    0  0.40567312348E+02 -0.14030058266E+02 -0.13395921385E+03  0.14074697276E+03  0.47000000000E+01 0. -1.
         -5    1    1    2    0  502 -0.91001674100E+01 -0.19856263581E+02 -0.11292417186E+04  0.11294627189E+04  0.47000000000E+01 0. -1.
        -11    1    1    2    0    0 -0.32612179514E+02 -0.25652123216E+02 -0.49401728726E+02  0.64514467209E+02  0.00000000000E+00 0.  1.
         11    1    1    2    0    0  0.11450345759E+01  0.59538445063E+02 -0.12645839680E+03  0.13977790836E+03  0.00000000000E+00 0. -1.
<mgrwt>
<rscale>  0 0.12523513E+03</rscale>
<asrwt>0</asrwt>
<pdfrwt beam="2">  1        2 0.22412024E+00 0.13325189E+03</pdfrwt>
<pdfrwt beam="1">  1       -2 0.27262314E-02 0.13325189E+03</pdfrwt>
<totfact> 0.68884643E+03</totfact>
</mgrwt>
</event>
<event>
 6    1  0.9240440E-006  0.2050859E+03  0.7546771E-02  0.1149689E+00
         -2   -1    0    0    0  501 -0.00000000000E+00  0.00000000000E+00  0.69132638854E+02  0.69132638854E+02  0.00000000000E+00 0.  1.
          2   -1    0    0  501    0  0.00000000000E+00 -0.00000000000E+00 -0.56509272468E+03  0.56509272468E+03  0.00000000000E+00 0. -1.
          5    1    1    2  502    0 -0.68199147301E+02  0.94149934538E+02 -0.21715514479E+03  0.24636107804E+03  0.47000000000E+01 0. -1.
         -5    1    1    2    0  502  0.49723999343E+02  0.67381234795E+02 -0.90552102652E+02  0.12342803656E+03  0.47000000000E+01 0. -1.
        -11    1    1    2    0    0  0.53536718146E+02 -0.96912673486E+02 -0.12911492278E+03  0.17008500744E+03  0.00000000000E+00 0. -1.
         11    1    1    2    0    0 -0.35061570187E+02 -0.64618495847E+02 -0.59137915605E+02  0.94351241495E+02  0.00000000000E+00 0.  1.
<mgrwt>
<rscale>  0 0.20005963E+03</rscale>
<asrwt>0</asrwt>
<pdfrwt beam="2">  1        2 0.86937344E-01 0.20508593E+03</pdfrwt>
<pdfrwt beam="1">  1       -2 0.10635790E-01 0.20508593E+03</pdfrwt>
<totfact> 0.32148292E+03</totfact>
</mgrwt>
</event>
<event>
 6    1  0.9240440E-006  0.1360617E+03  0.7546771E-02  0.1230892E+00
         -2   -1    0    0    0  501 -0.00000000000E+00  0.00000000000E+00  0.14634428511E+03  0.14634428511E+03  0.00000000000E+00 0.  1.
          2   -1    0    0  501    0  0.00000000000E+00 -0.00000000000E+00 -0.11105236023E+03  0.11105236023E+03  0.00000000000E+00 0. -1.
          5    1    1    2  502    0  0.54683634378E+02 -0.55548194761E+02 -0.17364752962E+02  0.79997040292E+02  0.47000000000E+01 0. -1.
         -5    1    1    2    0  502 -0.98644150845E+00  0.57367274891E+02 -0.37120868865E+01  0.57687493309E+02  0.47000000000E+01 0. -1.
        -11    1    1    2    0    0  0.50087176456E+01  0.97074127662E+01  0.58829217614E+02  0.59834755453E+02  0.00000000000E+00 0.  1.
         11    1    1    2    0    0 -0.58705910516E+02 -0.11526492896E+02 -0.24604528852E+01  0.59877356291E+02  0.00000000000E+00 0. -1.
<mgrwt>
<rscale>  0 0.12771111E+03</rscale>
<asrwt>0</asrwt>
<pdfrwt beam="2">  1        2 0.17084978E-01 0.13606174E+03</pdfrwt>
<pdfrwt beam="1">  1       -2 0.22514505E-01 0.13606174E+03</pdfrwt>
<totfact> 0.54349079E+03</totfact>
</mgrwt>
</event>
<event>
 6    1  0.9743023E-006  0.1269129E+03  0.7546771E-02  0.1244284E+00
          1   -1    0    0  501    0  0.00000000000E+00  0.00000000000E+00  0.87608963708E+02  0.87608963708E+02  0.00000000000E+00 0. -1.
         -1   -1    0    0    0  501 -0.00000000000E+00 -0.00000000000E+00 -0.15550204570E+03  0.15550204570E+03  0.00000000000E+00 0.  1.
          5    1    1    2  502    0  0.34357957459E+01 -0.48812661305E+02 -0.23479364951E+02  0.54477987982E+02  0.47000000000E+01 0.  1.
         -5    1    1    2    0  502 -0.79995822594E+01  0.70281243498E+02  0.15931473848E+02  0.72659124430E+02  0.47000000000E+01 0.  1.
        -11    1    1    2    0    0 -0.77756332421E+01 -0.13260941812E+02 -0.85449719643E+02  0.86821469909E+02  0.00000000000E+00 0.  1.
         11    1    1    2    0    0  0.12339419756E+02 -0.82076403812E+01  0.25104528760E+02  0.29152427082E+02  0.00000000000E+00 0. -1.
<mgrwt>
<rscale>  0 0.11928313E+03</rscale>
<asrwt>0</asrwt>
<pdfrwt beam="1">  1        1 0.13478302E-01 0.12691286E+03</pdfrwt>
<pdfrwt beam="2">  1       -1 0.23923391E-01 0.12691286E+03</pdfrwt>
<totfact> 0.60868244E+03</totfact>
</mgrwt>
</event>
<event>
 6    1  0.9240440E-006  0.3062562E+03  0.7546771E-02  0.1094364E+00
          1   -1    0    0  501    0  0.00000000000E+00  0.00000000000E+00  0.20922655921E+03  0.20922655921E+03  0.00000000000E+00 0. -1.
         -1   -1    0    0    0  501 -0.00000000000E+00 -0.00000000000E+00 -0.46369249628E+03  0.46369249628E+03  0.00000000000E+00 0.  1.
          5    1    1    2  502    0 -0.12067809140E+03  0.18718269270E+03  0.91463125817E+02  0.24080729967E+03  0.47000000000E+01 0. -1.
         -5    1    1    2    0  502 -0.14176634079E+02 -0.34048712336E+02 -0.56291487862E+02  0.67461940168E+02  0.47000000000E+01 0.  1.
        -11    1    1    2    0    0 -0.12580622654E+02 -0.13338841649E+02 -0.25631200679E+02  0.31514365156E+02  0.00000000000E+00 0. -1.
         11    1    1    2    0    0  0.14743534813E+03 -0.13979513871E+03 -0.26400637434E+03  0.33313545050E+03  0.00000000000E+00 0.  1.
<mgrwt>
<rscale>  0 0.28244006E+03</rscale>
<asrwt>0</asrwt>
<pdfrwt beam="1">  1        1 0.32188702E-01 0.30625623E+03</pdfrwt>
<pdfrwt beam="2">  1       -1 0.71337307E-01 0.30625623E+03</pdfrwt>
<totfact> 0.28679793E+02</totfact>
</mgrwt>
</event>
<event>
 6    1  0.9240440E-006  0.2495312E+03  0.7546771E-02  0.1113601E+00
          4   -1    0    0  501    0  0.00000000000E+00  0.00000000000E+00  0.48035032247E+03  0.48035032247E+03  0.00000000000E+00 0. -1.
         -4   -1    0    0    0  501 -0.00000000000E+00 -0.00000000000E+00 -0.32406457351E+02  0.32406457351E+02  0.00000000000E+00 0.  1.
          5    1    1    2  502    0  0.42301010980E+02 -0.50563846993E+01  0.34744823578E+03  0.35008186057E+03  0.47000000000E+01 0.  1.
         -5    1    1    2    0  502  0.20384707920E+01 -0.87684386670E-01 -0.10707394600E+02  0.11870187481E+02  0.47000000000E+01 0.  1.
        -11    1    1    2    0    0 -0.13070558260E+02 -0.39522526426E+02  0.24264641618E+02  0.48183424755E+02  0.00000000000E+00 0.  1.
         11    1    1    2    0    0 -0.31268923512E+02  0.44666595512E+02  0.86938382325E+02  0.10262130702E+03  0.00000000000E+00 0. -1.
<mgrwt>
<rscale>  0 0.24953118E+03</rscale>
<asrwt>0</asrwt>
<pdfrwt beam="1">  1        4 0.73900044E-01 0.24953118E+03</pdfrwt>
<pdfrwt beam="2">  1       -4 0.49856092E-02 0.24953118E+03</pdfrwt>
<totfact> 0.75124340E+02</totfact>
</mgrwt>
</event>
<event>
 6    1  0.9240440E-006  0.3594976E+03  0.7546771E-02  0.1059602E+00
         -1   -1    0    0    0  501 -0.00000000000E+00  0.00000000000E+00  0.13183023426E+03  0.13183023426E+03  0.00000000000E+00 0.  1.
          1   -1    0    0  501    0  0.00000000000E+00 -0.00000000000E+00 -0.14752000009E+04  0.14752000009E+04  0.00000000000E+00 0. -1.
          5    1    1    2  502    0  0.78932220254E+02  0.28068538712E+02 -0.43504880411E+03  0.44306623683E+03  0.47000000000E+01 0.  1.
         -5    1    1    2    0  502  0.25689031618E+03 -0.56999651098E+02 -0.71729966459E+03  0.76405660365E+03  0.47000000000E+01 0.  1.
        -11    1    1    2    0    0 -0.21245767122E+03 -0.15965132265E+02 -0.15591931561E+03  0.26401511413E+03  0.00000000000E+00 0. -1.
         11    1    1    2    0    0 -0.12336486521E+03  0.44896244651E+02 -0.35101982343E+02  0.13589228056E+03  0.00000000000E+00 0.  1.
<mgrwt>
<rscale>  0 0.35743956E+03</rscale>
<asrwt>0</asrwt>
<pdfrwt beam="2">  1        1 0.22695385E+00 0.35949765E+03</pdfrwt>
<pdfrwt beam="1">  1       -1 0.20281574E-01 0.35949765E+03</pdfrwt>
<totfact> 0.14514805E+02</totfact>
</mgrwt>
</event>
<event>
 6    1  0.9240440E-006  0.1317544E+03  0.7546771E-02  0.1236244E+00
          2   -1    0    0  501    0  0.00000000000E+00  0.00000000000E+00  0.88140506567E+03  0.88140506567E+03  0.00000000000E+00 0. -1.
         -2   -1    0    0    0  501 -0.00000000000E+00 -0.00000000000E+00 -0.19688454888E+02  0.19688454888E+02  0.00000000000E+00 0.  1.
          5    1    1    2  502    0  0.19118206821E+02  0.29076185341E+02  0.77117035065E+02  0.84735219852E+02  0.47000000000E+01 0. -1.
         -5    1    1    2    0  502 -0.17034593288E+02 -0.76751389961E+02  0.59339900134E+03  0.59860288841E+03  0.47000000000E+01 0.  1.
        -11    1    1    2    0    0 -0.38384543620E+02  0.55103608879E+02  0.12255553254E+03  0.13974848642E+03  0.00000000000E+00 0. -1.
         11    1    1    2    0    0  0.36300930088E+02 -0.74284042588E+01  0.68645041836E+02  0.78006925870E+02  0.00000000000E+00 0.  1.
<mgrwt>
<rscale>  0 0.12425141E+03</rscale>
<asrwt>0</asrwt>
<pdfrwt beam="1">  1        2 0.13560075E+00 0.13175437E+03</pdfrwt>
<pdfrwt beam="2">  1       -2 0.30289937E-02 0.13175437E+03</pdfrwt>
<totfact> 0.12475167E+04</totfact>
</mgrwt>
</event>
<event>
 6    1  0.9240440E-006  0.3187624E+03  0.7546771E-02  0.1076220E+00
         -1   -1    0    0    0  501 -0.00000000000E+00  0.00000000000E+00  0.12434720334E+03  0.12434720334E+03  0.00000000000E+00 0.  1.
          1   -1    0    0  501    0  0.00000000000E+00 -0.00000000000E+00 -0.20428577535E+03  0.20428577535E+03  0.00000000000E+00 0. -1.
          5    1    1    2  502    0 -0.53813284028E+01  0.13722613364E+02 -0.62335789100E+02  0.64227014688E+02  0.47000000000E+01 0. -1.
         -5    1    1    2    0  502 -0.25602632284E+02 -0.11772975536E+03 -0.25835782271E+02  0.12331004713E+03  0.47000000000E+01 0. -1.
        -11    1    1    2    0    0  0.61763079409E+02  0.83201130461E+02  0.39118283111E+01  0.10369382088E+03  0.00000000000E+00 0.  1.
         11    1    1    2    0    0 -0.30779118722E+02  0.20806011539E+02  0.43211710442E+01  0.37402095993E+02  0.00000000000E+00 0. -1.
<mgrwt>
<rscale>  0 0.31876239E+03</rscale>
<asrwt>0</asrwt>
<pdfrwt beam="2">  1        1 0.31428581E-01 0.31876239E+03</pdfrwt>
<pdfrwt beam="1">  1       -1 0.19130339E-01 0.31876239E+03</pdfrwt>
<totfact> 0.30971256E+03</totfact>
</mgrwt>
</event>
<event>
 6    1  0.9240440E-006  0.1406949E+03  0.7546771E-02  0.1223172E+00
          2   -1    0    0  501    0  0.00000000000E+00  0.00000000000E+00  0.13278933739E+04  0.13278933739E+04  0.00000000000E+00 0. -1.
         -2   -1    0    0    0  501 -0.00000000000E+00 -0.00000000000E+00 -0.19636284729E+02  0.19636284729E+02  0.00000000000E+00 0.  1.
          5    1    1    2  502    0  0.83058694548E+02 -0.55948956653E+02  0.86628604540E+03  0.87206802197E+03  0.47000000000E+01 0.  1.
         -5    1    1    2    0  502 -0.37569068488E+02  0.10109841262E+02  0.25077957826E+03  0.25382303022E+03  0.47000000000E+01 0.  1.
        -11    1    1    2    0    0  0.14887134327E+02 -0.17099630158E+02  0.23688501569E+02  0.32789773201E+02  0.00000000000E+00 0.  1.
         11    1    1    2    0    0 -0.60376760387E+02  0.62938745549E+02  0.16750296395E+03  0.18884883325E+03  0.00000000000E+00 0. -1.
<mgrwt>
<rscale>  0 0.13293015E+03</rscale>
<asrwt>0</asrwt>
<pdfrwt beam="1">  1        2 0.20429122E+00 0.14069490E+03</pdfrwt>
<pdfrwt beam="2">  1       -2 0.30209679E-02 0.14069490E+03</pdfrwt>
<totfact> 0.69467242E+03</totfact>
</mgrwt>
</event>
<event>
 6    1  0.9240440E-006  0.3259167E+03  0.7546771E-02  0.1078873E+00
         -2   -1    0    0    0  501 -0.00000000000E+00  0.00000000000E+00  0.52799580422E+03  0.52799580422E+03  0.00000000000E+00 0. -1.
          2   -1    0    0  501    0  0.00000000000E+00 -0.00000000000E+00 -0.76525932590E+03  0.76525932590E+03  0.00000000000E+00 0.  1.
          5    1    1    2  502    0 -0.99199206980E+02 -0.57391596829E+02 -0.15286382645E+03  0.19111179317E+03  0.47000000000E+01 0. -1.
         -5    1    1    2    0  502 -0.15508575306E+03  0.12083847844E+03 -0.53662652864E+03  0.57152747083E+03  0.47000000000E+01 0.  1.
        -11    1    1    2    0    0  0.47177454296E+02  0.18010188751E+02  0.12565309982E+03  0.13542075391E+03  0.00000000000E+00 0.  1.
         11    1    1    2    0    0  0.20710750575E+03 -0.81457070361E+02  0.32657373359E+03  0.39519511222E+03  0.00000000000E+00 0. -1.
<mgrwt>
<rscale>  0 0.31309229E+03</rscale>
<asrwt>0</asrwt>
<pdfrwt beam="2">  1        2 0.11773220E+00 0.32591670E+03</pdfrwt>
<pdfrwt beam="1">  1       -2 0.81230124E-01 0.32591670E+03</pdfrwt>
<totfact> 0.51882195E+01</totfact>
</mgrwt>
</event>
<event>
 6    1  0.9240440E-006  0.1946545E+03  0.7546771E-02  0.1168964E+00
         -1   -1    0    0    0  501 -0.00000000000E+00  0.00000000000E+00  0.48674633119E+02  0.48674633119E+02  0.00000000000E+00 0.  1.
          1   -1    0    0  501    0  0.00000000000E+00 -0.00000000000E+00 -0.57043779615E+03  0.57043779615E+03  0.00000000000E+00 0. -1.
          5    1    1    2  502    0 -0.48371074563E+02 -0.15858620781E+02 -0.80481711781E+02  0.95344914067E+02  0.47000000000E+01 0. -1.
         -5    1    1    2    0  502  0.14127028536E+03 -0.24915893429E+02 -0.22125412302E+03  0.26373011248E+03  0.47000000000E+01 0.  1.
        -11    1    1    2    0    0 -0.50532753347E+02  0.23035169907E+01 -0.24306769536E+02  0.56122049113E+02  0.00000000000E+00 0.  1.
         11    1    1    2    0    0 -0.42366457455E+02  0.38470997219E+02 -0.19572055869E+03  0.20391535361E+03  0.00000000000E+00 0. -1.
<mgrwt>
<rscale>  0 0.17880593E+03</rscale>
<asrwt>0</asrwt>
<pdfrwt beam="2">  1        1 0.87759668E-01 0.19465446E+03</pdfrwt>
<pdfrwt beam="1">  1       -1 0.74884045E-02 0.19465446E+03</pdfrwt>
<totfact> 0.35458820E+03</totfact>
</mgrwt>
</event>
<event>
 6    1  0.9240440E-006  0.1634090E+03  0.7546771E-02  0.1190536E+00
         -2   -1    0    0    0  501 -0.00000000000E+00  0.00000000000E+00  0.27192427402E+03  0.27192427402E+03  0.00000000000E+00 0.  1.
          2   -1    0    0  501    0  0.00000000000E+00 -0.00000000000E+00 -0.11424419643E+03  0.11424419643E+03  0.00000000000E+00 0. -1.
          5    1    1    2  502    0 -0.13893637393E+02  0.32017775591E+02 -0.65855303126E+02  0.74680533365E+02  0.47000000000E+01 0. -1.
         -5    1    1    2    0  502 -0.35992596365E+02  0.60667194884E+02  0.54289785710E+02  0.89137233302E+02  0.47000000000E+01 0. -1.
        -11    1    1    2    0    0 -0.11764867799E+02 -0.36722805389E+02  0.11902410440E+03  0.12511480320E+03  0.00000000000E+00 0.  1.
         11    1    1    2    0    0  0.61651101557E+02 -0.55962165087E+02  0.50221490606E+02  0.97235900588E+02  0.00000000000E+00 0. -1.
<mgrwt>
<rscale>  0 0.15838127E+03</rscale>
<asrwt>0</asrwt>
<pdfrwt beam="2">  1        2 0.17576030E-01 0.16340899E+03</pdfrwt>
<pdfrwt beam="1">  1       -2 0.41834503E-01 0.16340899E+03</pdfrwt>
<totfact> 0.17290108E+03</totfact>
</mgrwt>
</event>
<event>
 6    1  0.9240440E-006  0.1778026E+03  0.7546771E-02  0.1175825E+00
          1   -1    0    0  501    0  0.00000000000E+00  0.00000000000E+00  0.40133271415E+03  0.40133271415E+03  0.00000000000E+00 0. -1.
         -1   -1    0    0    0  501 -0.00000000000E+00 -0.00000000000E+00 -0.10457658949E+03  0.10457658949E+03  0.00000000000E+00 0.  1.
          5    1    1    2  502    0  0.87910516047E+02  0.14469021968E+02  0.27665611806E+03  0.29068592860E+03  0.47000000000E+01 0.  1.
         -5    1    1    2    0  502  0.35913352805E+02 -0.40098903904E+02  0.25151278719E+02  0.59601743475E+02  0.47000000000E+01 0.  1.
        -11    1    1    2    0    0 -0.65215115004E+02 -0.20658411128E+02 -0.32907565624E+02  0.75912377453E+02  0.00000000000E+00 0.  1.
         11    1    1    2    0    0 -0.58608753849E+02  0.46288293064E+02  0.27856293499E+02  0.79709254105E+02  0.00000000000E+00 0. -1.
<mgrwt>
<rscale>  0 0.17195459E+03</rscale>
<asrwt>0</asrwt>
<pdfrwt beam="1">  1        1 0.61743494E-01 0.17780255E+03</pdfrwt>
<pdfrwt beam="2">  1       -1 0.16088706E-01 0.17780255E+03</pdfrwt>
<totfact> 0.17158086E+03</totfact>
</mgrwt>
</event>
<event>
 6    1  0.9240440E-006  0.2181490E+03  0.7546771E-02  0.1137473E+00
         -1   -1    0    0    0  501 -0.00000000000E+00  0.00000000000E+00  0.12139434715E+03  0.12139434715E+03  0.00000000000E+00 0.  1.
          1   -1    0    0  501    0  0.00000000000E+00 -0.00000000000E+00 -0.37205327393E+03  0.37205327393E+03  0.00000000000E+00 0. -1.
          5    1    1    2  502    0  0.60156165518E+01 -0.82861477563E+02 -0.50248069113E+01  0.83363965782E+02  0.47000000000E+01 0. -1.
         -5    1    1    2    0  502 -0.92287563951E+02 -0.73729640919E+02 -0.11824826490E+03  0.16720585086E+03  0.47000000000E+01 0. -1.
        -11    1    1    2    0    0  0.67256019899E+02  0.23326624650E+02 -0.32952975653E+02  0.78443624563E+02  0.00000000000E+00 0. -1.
         11    1    1    2    0    0  0.19015927500E+02  0.13326449383E+03 -0.94432879317E+02  0.16443417988E+03  0.00000000000E+00 0.  1.
<mgrwt>
<rscale>  0 0.21525228E+03</rscale>
<asrwt>0</asrwt>
<pdfrwt beam="2">  1        1 0.57238965E-01 0.21814899E+03</pdfrwt>
<pdfrwt beam="1">  1       -1 0.18676053E-01 0.21814899E+03</pdfrwt>
<totfact> 0.14944709E+03</totfact>
</mgrwt>
</event>
<event>
 6    1  0.9240440E-006  0.1400511E+03  0.7546771E-02  0.1224916E+00
          1   -1    0    0  501    0  0.00000000000E+00  0.00000000000E+00  0.38050681392E+03  0.38050681392E+03  0.00000000000E+00 0. -1.
         -1   -1    0    0    0  501 -0.00000000000E+00 -0.00000000000E+00 -0.41567546317E+02  0.41567546317E+02  0.00000000000E+00 0.  1.
          5    1    1    2  502    0 -0.20069994354E+02  0.16986107469E+02 -0.93176714059E+01  0.28288540449E+02  0.47000000000E+01 0.  1.
         -5    1    1    2    0  502 -0.29712938390E+01  0.41839181311E+02  0.22465826739E+03  0.22858865411E+03  0.47000000000E+01 0.  1.
        -11    1    1    2    0    0  0.28299461866E+02  0.12848314133E+02  0.66517674274E+02  0.73420294938E+02  0.00000000000E+00 0.  1.
         11    1    1    2    0    0 -0.52581736732E+01 -0.71673602913E+02  0.57080997336E+02  0.91776870735E+02  0.00000000000E+00 0. -1.
<mgrwt>
<rscale>  0 0.13172662E+03</rscale>
<asrwt>0</asrwt>
<pdfrwt beam="1">  1        1 0.58539507E-01 0.14005114E+03</pdfrwt>
<pdfrwt beam="2">  1       -1 0.63950074E-02 0.14005114E+03</pdfrwt>
<totfact> 0.74900313E+03</totfact>
</mgrwt>
</event>
<event>
 6    1  0.9240440E-006  0.1293094E+03  0.7546771E-02  0.1242450E+00
          2   -1    0    0  501    0  0.00000000000E+00  0.00000000000E+00  0.71656392777E+02  0.71656392777E+02  0.00000000000E+00 0. -1.
         -2   -1    0    0    0  501 -0.00000000000E+00 -0.00000000000E+00 -0.19251178456E+03  0.19251178456E+03  0.00000000000E+00 0.  1.
          5    1    1    2  502    0  0.30319365947E+02  0.44673328337E+02 -0.28276560825E+02  0.61127932308E+02  0.47000000000E+01 0. -1.
         -5    1    1    2    0  502 -0.62335627189E+02 -0.36308747884E+02 -0.53925611882E+01  0.72492932802E+02  0.47000000000E+01 0. -1.
        -11    1    1    2    0    0 -0.31341959668E+01 -0.27079909214E+02 -0.86526796668E+02  0.90719519449E+02  0.00000000000E+00 0.  1.
         11    1    1    2    0    0  0.35150457209E+02  0.18715328762E+02 -0.65947309928E+00  0.39827792776E+02  0.00000000000E+00 0. -1.
<mgrwt>
<rscale>  0 0.12039287E+03</rscale>
<asrwt>0</asrwt>
<pdfrwt beam="1">  1        2 0.11024061E-01 0.12930942E+03</pdfrwt>
<pdfrwt beam="2">  1       -2 0.29617197E-01 0.12930942E+03</pdfrwt>
<totfact> 0.56189003E+03</totfact>
</mgrwt>
</event>
<event>
 6    1  0.9240440E-006  0.1309299E+03  0.7546771E-02  0.1241898E+00
          1   -1    0    0  501    0  0.00000000000E+00  0.00000000000E+00  0.22322403453E+02  0.22322403453E+02  0.00000000000E+00 0. -1.
         -1   -1    0    0    0  501 -0.00000000000E+00 -0.00000000000E+00 -0.57078180019E+03  0.57078180019E+03  0.00000000000E+00 0.  1.
          5    1    1    2  502    0 -0.51858403680E+02  0.46854994358E+02 -0.29101494467E+03  0.29932669869E+03  0.47000000000E+01 0.  1.
         -5    1    1    2    0  502  0.37965835628E+02 -0.10441471531E+02 -0.38597414697E+02  0.55337866095E+02  0.47000000000E+01 0.  1.
        -11    1    1    2    0    0  0.26518562715E+02  0.11985959819E+02 -0.15303143893E+03  0.15577393461E+03  0.00000000000E+00 0.  1.
         11    1    1    2    0    0 -0.12625994663E+02 -0.48399482646E+02 -0.65815598444E+02  0.82665704256E+02  0.00000000000E+00 0. -1.
<mgrwt>
<rscale>  0 0.12072974E+03</rscale>
<asrwt>0</asrwt>
<pdfrwt beam="1">  1        1 0.34342163E-02 0.13092993E+03</pdfrwt>
<pdfrwt beam="2">  1       -1 0.87812576E-01 0.13092993E+03</pdfrwt>
<totfact> 0.36156433E+03</totfact>
</mgrwt>
</event>
<event>
 6    1  0.9240440E-006  0.2671969E+03  0.7546771E-02  0.1102895E+00
          1   -1    0    0  501    0  0.00000000000E+00  0.00000000000E+00  0.84380421056E+03  0.84380421056E+03  0.00000000000E+00 0. -1.
         -1   -1    0    0    0  501 -0.00000000000E+00 -0.00000000000E+00 -0.21152472605E+02  0.21152472605E+02  0.00000000000E+00 0.  1.
          5    1    1    2  502    0 -0.58194623173E+02 -0.78646641068E+02  0.31466969378E+03  0.32956185232E+03  0.47000000000E+01 0.  1.
         -5    1    1    2    0  502  0.38087727050E+02  0.10645708337E+02  0.24768273977E+03  0.25086417767E+03  0.47000000000E+01 0.  1.
        -11    1    1    2    0    0 -0.21071062097E+01  0.41107077491E+02  0.24134869531E+03  0.24483346267E+03  0.00000000000E+00 0. -1.
         11    1    1    2    0    0  0.22214002333E+02  0.26893855240E+02  0.18950609100E+02  0.39697190513E+02  0.00000000000E+00 0.  1.
<mgrwt>
<rscale>  0 0.26719690E+03</rscale>
<asrwt>0</asrwt>
<pdfrwt beam="1">  1        1 0.12981601E+00 0.26719690E+03</pdfrwt>
<pdfrwt beam="2">  1       -1 0.32542272E-02 0.26719690E+03</pdfrwt>
<totfact> 0.70664424E+03</totfact>
</mgrwt>
</event>
<event>
 6    1  0.9240440E-006  0.1813234E+03  0.7546771E-02  0.1171522E+00
          1   -1    0    0  501    0  0.00000000000E+00  0.00000000000E+00  0.21504441788E+04  0.21504441788E+04  0.00000000000E+00 0. -1.
         -1   -1    0    0    0  501 -0.00000000000E+00 -0.00000000000E+00 -0.22703018112E+02  0.22703018112E+02  0.00000000000E+00 0.  1.
          5    1    1    2  502    0 -0.11695051592E+02  0.85375098383E+02  0.92673054305E+03  0.93074017377E+03  0.47000000000E+01 0. -1.
         -5    1    1    2    0  502 -0.93994155766E+02 -0.74066075794E+01  0.85808492596E+03  0.86326217878E+03  0.47000000000E+01 0. -1.
        -11    1    1    2    0    0  0.12101762439E+02 -0.58275937182E+02  0.82618617295E+02  0.10182521020E+03  0.00000000000E+00 0.  1.
         11    1    1    2    0    0  0.93587444919E+02 -0.19692553621E+02  0.26030707437E+03  0.27731963415E+03  0.00000000000E+00 0. -1.
<mgrwt>
<rscale>  0 0.17620984E+03</rscale>
<asrwt>0</asrwt>
<pdfrwt beam="1">  1        1 0.33083740E+00 0.18132342E+03</pdfrwt>
<pdfrwt beam="2">  1       -1 0.34927737E-02 0.18132342E+03</pdfrwt>
<totfact> 0.81987280E+02</totfact>
</mgrwt>
</event>
<event>
 6    1  0.9240440E-006  0.1268244E+03  0.7546771E-02  0.1266568E+00
         -1   -1    0    0    0  501 -0.00000000000E+00  0.00000000000E+00  0.17422074420E+03  0.17422074420E+03  0.00000000000E+00 0.  1.
          1   -1    0    0  501    0  0.00000000000E+00 -0.00000000000E+00 -0.85120009484E+02  0.85120009484E+02  0.00000000000E+00 0. -1.
          5    1    1    2  502    0 -0.69244623707E+01  0.52312080251E+02 -0.16758180463E+02  0.55564633822E+02  0.47000000000E+01 0.  1.
         -5    1    1    2    0  502  0.18277423279E+02 -0.70710228066E+02 -0.76139032006E+01  0.73580310388E+02  0.47000000000E+01 0.  1.
        -11    1    1    2    0    0  0.19090287430E+02 -0.88198023181E+01  0.54927002200E+02  0.58814994327E+02  0.00000000000E+00 0. -1.
         11    1    1    2    0    0 -0.30443248338E+02  0.27217950133E+02  0.58545816180E+02  0.71380815147E+02  0.00000000000E+00 0.  1.
<mgrwt>
<rscale>  0 0.10682335E+03</rscale>
<asrwt>0</asrwt>
<pdfrwt beam="2">  1        1 0.13095386E-01 0.12682436E+03</pdfrwt>
<pdfrwt beam="1">  1       -1 0.26803191E-01 0.12682436E+03</pdfrwt>
<totfact> 0.52431390E+03</totfact>
</mgrwt>
</event>
<event>
 6    1  0.9240440E-006  0.3139036E+03  0.7546771E-02  0.1078490E+00
          2   -1    0    0  501    0  0.00000000000E+00  0.00000000000E+00  0.16188013957E+04  0.16188013957E+04  0.00000000000E+00 0. -1.
         -2   -1    0    0    0  501 -0.00000000000E+00 -0.00000000000E+00 -0.15217347342E+02  0.15217347342E+02  0.00000000000E+00 0.  1.
          5    1    1    2  502    0  0.65936039401E+01  0.28366221768E+02  0.36474430275E+03  0.36593526004E+03  0.47000000000E+01 0. -1.
         -5    1    1    2    0  502  0.23764788874E+02 -0.12153163192E+03  0.78292240905E+03  0.79266909321E+03  0.47000000000E+01 0. -1.
        -11    1    1    2    0    0  0.29571824895E+02  0.39415594267E+02  0.11483490733E+03  0.12496054513E+03  0.00000000000E+00 0.  1.
         11    1    1    2    0    0 -0.59930217708E+02  0.53749815887E+02  0.34108242919E+03  0.35045384462E+03  0.00000000000E+00 0. -1.
<mgrwt>
<rscale>  0 0.31390357E+03</rscale>
<asrwt>0</asrwt>
<pdfrwt beam="1">  1        2 0.24904623E+00 0.31390357E+03</pdfrwt>
<pdfrwt beam="2">  1       -2 0.23411316E-02 0.31390357E+03</pdfrwt>
<totfact> 0.72373819E+03</totfact>
</mgrwt>
</event>
<event>
 6    1  0.9240440E-006  0.1327297E+03  0.7546771E-02  0.1235482E+00
          1   -1    0    0  501    0  0.00000000000E+00  0.00000000000E+00  0.21201950813E+03  0.21201950813E+03  0.00000000000E+00 0. -1.
         -1   -1    0    0    0  501 -0.00000000000E+00 -0.00000000000E+00 -0.45106684621E+03  0.45106684621E+03  0.00000000000E+00 0.  1.
          5    1    1    2  502    0 -0.29044801697E+02 -0.49418474351E+02  0.19135986472E+03  0.19981610029E+03  0.47000000000E+01 0. -1.
         -5    1    1    2    0  502  0.25993103083E+02  0.16273372854E+01 -0.69794259592E+01  0.27369545507E+02  0.47000000000E+01 0.  1.
        -11    1    1    2    0    0 -0.18748834296E+02 -0.22737003768E+02 -0.10786283298E+03  0.11181628176E+03  0.00000000000E+00 0. -1.
         11    1    1    2    0    0  0.21800532910E+02  0.70528140834E+02 -0.31556494387E+03  0.32408442678E+03  0.00000000000E+00 0.  1.
<mgrwt>
<rscale>  0 0.12473606E+03</rscale>
<asrwt>0</asrwt>
<pdfrwt beam="1">  1        1 0.32618386E-01 0.13272969E+03</pdfrwt>
<pdfrwt beam="2">  1       -1 0.69394899E-01 0.13272969E+03</pdfrwt>
<totfact> 0.30184902E+02</totfact>
</mgrwt>
</event>
<event>
 6    1  0.9240440E-006  0.3169081E+03  0.7546771E-02  0.1077081E+00
          1   -1    0    0  501    0  0.00000000000E+00  0.00000000000E+00  0.16000651774E+04  0.16000651774E+04  0.00000000000E+00 0. -1.
         -1   -1    0    0    0  501 -0.00000000000E+00 -0.00000000000E+00 -0.15691664670E+02  0.15691664670E+02  0.00000000000E+00 0.  1.
          5    1    1    2  502    0  0.75906743401E+01 -0.16315917216E+02  0.45090270359E+03  0.45128612387E+03  0.47000000000E+01 0. -1.
         -5    1    1    2    0  502 -0.10209602830E+03  0.69235384668E+02  0.60558324560E+03  0.61803745423E+03  0.47000000000E+01 0. -1.
        -11    1    1    2    0    0  0.90925000085E+02 -0.13260478496E+02  0.44612443158E+03  0.45548897285E+03  0.00000000000E+00 0. -1.
         11    1    1    2    0    0  0.35803538769E+01 -0.39658988956E+02  0.81763131908E+02  0.90944291070E+02  0.00000000000E+00 0.  1.
<mgrwt>
<rscale>  0 0.31690810E+03</rscale>
<asrwt>0</asrwt>
<pdfrwt beam="1">  1        1 0.24616374E+00 0.31690810E+03</pdfrwt>
<pdfrwt beam="2">  1       -1 0.24141035E-02 0.31690810E+03</pdfrwt>
<totfact> 0.31974712E+03</totfact>
</mgrwt>
</event>
<event>
 6    1  0.9240440E-006  0.2224303E+03  0.7546771E-02  0.1135934E+00
         -3   -1    0    0    0  501 -0.00000000000E+00  0.00000000000E+00  0.15386678158E+03  0.15386678158E+03  0.00000000000E+00 0.  1.
          3   -1    0    0  501    0  0.00000000000E+00 -0.00000000000E+00 -0.29853545053E+03  0.29853545053E+03  0.00000000000E+00 0. -1.
          5    1    1    2  502    0 -0.19388075678E+02 -0.83365179153E+02  0.24162463835E+02  0.89059335458E+02  0.47000000000E+01 0.  1.
         -5    1    1    2    0  502  0.75333484184E+02 -0.91907892921E+02 -0.70143487402E+02  0.13807386952E+03  0.47000000000E+01 0.  1.
        -11    1    1    2    0    0 -0.60408539417E+02  0.11933294731E+03 -0.30914459339E+02  0.13727799440E+03  0.00000000000E+00 0.  1.
         11    1    1    2    0    0  0.44631309110E+01  0.55940124761E+02 -0.67773186042E+02  0.87991032736E+02  0.00000000000E+00 0. -1.
<mgrwt>
<rscale>  0 0.21727140E+03</rscale>
<asrwt>0</asrwt>
<pdfrwt beam="2">  1        3 0.45928531E-01 0.22243030E+03</pdfrwt>
<pdfrwt beam="1">  1       -3 0.23671813E-01 0.22243030E+03</pdfrwt>
<totfact> 0.19392134E+02</totfact>
</mgrwt>
</event>
<event>
 6    1  0.9240440E-006  0.2214600E+03  0.7546771E-02  0.1136124E+00
          1   -1    0    0  501    0  0.00000000000E+00  0.00000000000E+00  0.82895117724E+03  0.82895117724E+03  0.00000000000E+00 0. -1.
         -1   -1    0    0    0  501 -0.00000000000E+00 -0.00000000000E+00 -0.62151304863E+02  0.62151304863E+02  0.00000000000E+00 0.  1.
          5    1    1    2  502    0 -0.67298224461E+02 -0.73178161615E+02  0.45896279284E+03  0.46963073746E+03  0.47000000000E+01 0. -1.
         -5    1    1    2    0  502 -0.60339919358E+02 -0.57681570956E+02  0.92752480146E+02  0.12487266342E+03  0.47000000000E+01 0. -1.
        -11    1    1    2    0    0  0.53330491477E+02  0.66886961918E+01  0.29649697814E+02  0.61383911234E+02  0.00000000000E+00 0.  1.
         11    1    1    2    0    0  0.74307652342E+02  0.12417103638E+03  0.18543490158E+03  0.23521516999E+03  0.00000000000E+00 0. -1.
<mgrwt>
<rscale>  0 0.21702066E+03</rscale>
<asrwt>0</asrwt>
<pdfrwt beam="1">  1        1 0.12753094E+00 0.22146004E+03</pdfrwt>
<pdfrwt beam="2">  1       -1 0.95617398E-02 0.22146004E+03</pdfrwt>
<totfact> 0.14238133E+03</totfact>
</mgrwt>
</event>
<event>
 6    1  0.9240440E-006  0.1287614E+03  0.7546771E-02  0.1244733E+00
         -1   -1    0    0    0  501 -0.00000000000E+00  0.00000000000E+00  0.90757470583E+02  0.90757470583E+02  0.00000000000E+00 0.  1.
          1   -1    0    0  501    0  0.00000000000E+00 -0.00000000000E+00 -0.13739988817E+03  0.13739988817E+03  0.00000000000E+00 0. -1.
          5    1    1    2  502    0 -0.90619136974E+01  0.53333666507E+02 -0.16466363916E+02  0.56743540633E+02  0.47000000000E+01 0. -1.
         -5    1    1    2    0  502  0.38621768398E+02 -0.63440514856E+02 -0.18721259358E+02  0.76739269422E+02  0.47000000000E+01 0. -1.
        -11    1    1    2    0    0  0.23153201440E+02 -0.20415059149E+02 -0.13585316077E+02  0.33725453146E+02  0.00000000000E+00 0. -1.
         11    1    1    2    0    0 -0.52713056141E+02  0.30521907498E+02  0.21305217689E+01  0.60949095548E+02  0.00000000000E+00 0.  1.
<mgrwt>
<rscale>  0 0.11901370E+03</rscale>
<asrwt>0</asrwt>
<pdfrwt beam="2">  1        1 0.21138444E-01 0.12876138E+03</pdfrwt>
<pdfrwt beam="1">  1       -1 0.13962688E-01 0.12876138E+03</pdfrwt>
<totfact> 0.80604331E+03</totfact>
</mgrwt>
</event>
<event>
 6    1  0.9240440E-006  0.2485865E+03  0.7546771E-02  0.1114201E+00
         -1   -1    0    0    0  501 -0.00000000000E+00  0.00000000000E+00  0.24305765639E+03  0.24305765639E+03  0.00000000000E+00 0.  1.
          1   -1    0    0  501    0  0.00000000000E+00 -0.00000000000E+00 -0.63560277527E+02  0.63560277527E+02  0.00000000000E+00 0. -1.
          5    1    1    2  502    0  0.66400081167E+01 -0.81948798444E+02  0.98784684018E+02  0.12860870527E+03  0.47000000000E+01 0.  1.
         -5    1    1    2    0  502 -0.13913132645E+02  0.23071344963E+02 -0.16922296197E+02  0.32160788656E+02  0.47000000000E+01 0.  1.
        -11    1    1    2    0    0  0.41924331112E+02  0.31832713098E+01  0.30148780189E+02  0.51737140454E+02  0.00000000000E+00 0.  1.
         11    1    1    2    0    0 -0.34651206583E+02  0.55694182171E+02  0.67486210851E+02  0.94111299537E+02  0.00000000000E+00 0. -1.
<mgrwt>
<rscale>  0 0.24858650E+03</rscale>
<asrwt>0</asrwt>
<pdfrwt beam="2">  1        1 0.97785044E-02 0.24858650E+03</pdfrwt>
<pdfrwt beam="1">  1       -1 0.37393485E-01 0.24858650E+03</pdfrwt>
<totfact> 0.45550922E+03</totfact>
</mgrwt>
</event>
<event>
 6    1  0.9240440E-006  0.2677310E+03  0.7546771E-02  0.1102585E+00
          2   -1    0    0  501    0  0.00000000000E+00  0.00000000000E+00  0.77735596477E+03  0.77735596477E+03  0.00000000000E+00 0. -1.
         -2   -1    0    0    0  501 -0.00000000000E+00 -0.00000000000E+00 -0.23052457643E+02  0.23052457643E+02  0.00000000000E+00 0.  1.
          5    1    1    2  502    0  0.17730306219E+02 -0.19369675493E+01  0.42949418646E+03  0.42989005781E+03  0.47000000000E+01 0.  1.
         -5    1    1    2    0  502 -0.55599398309E+02 -0.41721892356E+02  0.14487218797E+03  0.16075462744E+03  0.47000000000E+01 0.  1.
        -11    1    1    2    0    0  0.62791059819E+02  0.80580457871E+01  0.12071683011E+03  0.13630921600E+03  0.00000000000E+00 0. -1.
         11    1    1    2    0    0 -0.24921967729E+02  0.35600814118E+02  0.59220302587E+02  0.73454521167E+02  0.00000000000E+00 0.  1.
<mgrwt>
<rscale>  0 0.26773095E+03</rscale>
<asrwt>0</asrwt>
<pdfrwt beam="1">  1        2 0.11959321E+00 0.26773095E+03</pdfrwt>
<pdfrwt beam="2">  1       -2 0.35465325E-02 0.26773095E+03</pdfrwt>
<totfact> 0.12067055E+04</totfact>
</mgrwt>
</event>
<event>
 6    1  0.9240440E-006  0.1337734E+03  0.7546771E-02  0.1234720E+00
          2   -1    0    0  501    0  0.00000000000E+00  0.00000000000E+00  0.39651923691E+02  0.39651923691E+02  0.00000000000E+00 0. -1.
         -2   -1    0    0    0  501 -0.00000000000E+00 -0.00000000000E+00 -0.35707757179E+03  0.35707757179E+03  0.00000000000E+00 0.  1.
          5    1    1    2  502    0  0.59356019655E+02 -0.16309978841E+02 -0.76556911569E+02  0.98347359842E+02  0.47000000000E+01 0. -1.
         -5    1    1    2    0  502 -0.39803099690E+02  0.59743432078E+02 -0.80748362361E+02  0.10814782682E+03  0.47000000000E+01 0. -1.
        -11    1    1    2    0    0 -0.46613883496E+02 -0.31863118043E+02 -0.14800111746E+03  0.15840594432E+03  0.00000000000E+00 0.  1.
         11    1    1    2    0    0  0.27060963530E+02 -0.11570335194E+02 -0.12119256708E+02  0.31828364502E+02  0.00000000000E+00 0. -1.
<mgrwt>
<rscale>  0 0.12522374E+03</rscale>
<asrwt>0</asrwt>
<pdfrwt beam="1">  1        2 0.61002959E-02 0.13377336E+03</pdfrwt>
<pdfrwt beam="2">  1       -2 0.54935012E-01 0.13377336E+03</pdfrwt>
<totfact> 0.36550980E+03</totfact>
</mgrwt>
</event>
<event>
 6    1  0.9240440E-006  0.2940880E+03  0.7546771E-02  0.1088234E+00
          1   -1    0    0  501    0  0.00000000000E+00  0.00000000000E+00  0.31397048016E+03  0.31397048016E+03  0.00000000000E+00 0. -1.
         -1   -1    0    0    0  501 -0.00000000000E+00 -0.00000000000E+00 -0.68866141538E+02  0.68866141538E+02  0.00000000000E+00 0.  1.
          5    1    1    2  502    0  0.23283950427E+02 -0.33466003593E+01  0.11141098582E+03  0.11396420422E+03  0.47000000000E+01 0.  1.
         -5    1    1    2    0  502 -0.36537120028E+02  0.94875125537E+02  0.62986769104E+02  0.11968990629E+03  0.47000000000E+01 0.  1.
        -11    1    1    2    0    0  0.41688997172E+02 -0.25410814574E+02  0.58474723915E+02  0.76177262484E+02  0.00000000000E+00 0. -1.
         11    1    1    2    0    0 -0.28435827571E+02 -0.66117710604E+02  0.12231859784E+02  0.73005248708E+02  0.00000000000E+00 0.  1.
<mgrwt>
<rscale>  0 0.29408798E+03</rscale>
<asrwt>0</asrwt>
<pdfrwt beam="1">  1        1 0.48303150E-01 0.29408798E+03</pdfrwt>
<pdfrwt beam="2">  1       -1 0.10594791E-01 0.29408798E+03</pdfrwt>
<totfact> 0.45911375E+03</totfact>
</mgrwt>
</event>
<event>
 6    1  0.9240440E-006  0.1172671E+03  0.7546771E-02  0.1258231E+00
          3   -1    0    0  501    0  0.00000000000E+00  0.00000000000E+00  0.47083919274E+03  0.47083919274E+03  0.00000000000E+00 0. -1.
         -3   -1    0    0    0  501 -0.00000000000E+00 -0.00000000000E+00 -0.24229918359E+02  0.24229918359E+02  0.00000000000E+00 0.  1.
          5    1    1    2  502    0  0.58353841390E+01 -0.62422400986E+02  0.13628708556E+03  0.15008953176E+03  0.47000000000E+01 0. -1.
         -5    1    1    2    0  502  0.12086126146E+02  0.51598431513E+02  0.83102758441E+02  0.98674368710E+02  0.47000000000E+01 0.  1.
        -11    1    1    2    0    0 -0.45041247011E+02 -0.15998139903E+01  0.20282047325E+03  0.20776770131E+03  0.00000000000E+00 0. -1.
         11    1    1    2    0    0  0.27119736726E+02  0.12423783464E+02  0.24398957124E+02  0.38537509318E+02  0.00000000000E+00 0.  1.
<mgrwt>
<rscale>  0 0.11127272E+03</rscale>
<asrwt>0</asrwt>
<pdfrwt beam="1">  1        3 0.72436792E-01 0.11726711E+03</pdfrwt>
<pdfrwt beam="2">  1       -3 0.37276801E-02 0.11726711E+03</pdfrwt>
<totfact> 0.15058260E+03</totfact>
</mgrwt>
</event>
<event>
 6    1  0.9240440E-006  0.1288442E+03  0.7546771E-02  0.1245028E+00
         -1   -1    0    0    0  501 -0.00000000000E+00  0.00000000000E+00  0.30843383066E+02  0.30843383066E+02  0.00000000000E+00 0.  1.
          1   -1    0    0  501    0  0.00000000000E+00 -0.00000000000E+00 -0.48079214660E+03  0.48079214660E+03  0.00000000000E+00 0. -1.
          5    1    1    2  502    0 -0.41898385199E+02  0.31833968020E+02 -0.28086665955E+03  0.28579196393E+03  0.47000000000E+01 0.  1.
         -5    1    1    2    0  502  0.54797381493E+02 -0.33838097771E+01 -0.77975007127E+02  0.95479814221E+02  0.47000000000E+01 0.  1.
        -11    1    1    2    0    0  0.37047796121E+01  0.31118076372E+02 -0.28347460772E+02  0.42256817217E+02  0.00000000000E+00 0. -1.
         11    1    1    2    0    0 -0.16603775907E+02 -0.59568234615E+02 -0.62759636083E+02  0.88106934295E+02  0.00000000000E+00 0.  1.
<mgrwt>
<rscale>  0 0.11883719E+03</rscale>
<asrwt>0</asrwt>
<pdfrwt beam="2">  1        1 0.73968020E-01 0.12884420E+03</pdfrwt>
<pdfrwt beam="1">  1       -1 0.47451360E-02 0.12884420E+03</pdfrwt>
<totfact> 0.86147898E+03</totfact>
</mgrwt>
</event>
<event>
 6    1  0.9240440E-006  0.1706003E+03  0.7546771E-02  0.1185255E+00
          1   -1    0    0  501    0  0.00000000000E+00  0.00000000000E+00  0.24725156817E+04  0.24725156817E+04  0.00000000000E+00 0. -1.
         -1   -1    0    0    0  501 -0.00000000000E+00 -0.00000000000E+00 -0.12605456121E+02  0.12605456121E+02  0.00000000000E+00 0.  1.
          5    1    1    2  502    0 -0.19464078310E+02 -0.13475454433E+03  0.18012543184E+04  0.18063988616E+04  0.47000000000E+01 0.  1.
         -5    1    1    2    0  502  0.63041445129E+01  0.19832197027E+02  0.88278948655E+02  0.90820267851E+02  0.47000000000E+01 0.  1.
        -11    1    1    2    0    0 -0.21170854398E+02  0.10310393899E+03  0.39327199073E+03  0.40711360332E+03  0.00000000000E+00 0.  1.
         11    1    1    2    0    0  0.34330788195E+02  0.11818408309E+02  0.17710496785E+03  0.18078840513E+03  0.00000000000E+00 0. -1.
<mgrwt>
<rscale>  0 0.16308682E+03</rscale>
<asrwt>0</asrwt>
<pdfrwt beam="1">  1        1 0.38038664E+00 0.17060029E+03</pdfrwt>
<pdfrwt beam="2">  1       -1 0.19393029E-02 0.17060029E+03</pdfrwt>
<totfact> 0.11984447E+03</totfact>
</mgrwt>
</event>
<event>
 6    1  0.9240440E-006  0.1282835E+03  0.7546771E-02  0.1244707E+00
          1   -1    0    0  501    0  0.00000000000E+00  0.00000000000E+00  0.85543907764E+02  0.85543907764E+02  0.00000000000E+00 0. -1.
         -1   -1    0    0    0  501 -0.00000000000E+00 -0.00000000000E+00 -0.14580972161E+03  0.14580972161E+03  0.00000000000E+00 0.  1.
          5    1    1    2  502    0 -0.23337816612E+02 -0.51771407781E+02  0.12005590177E+02  0.58233637559E+02  0.47000000000E+01 0.  1.
         -5    1    1    2    0  502 -0.48205036325E+01  0.57932319829E+02 -0.46544416310E+02  0.74618118615E+02  0.47000000000E+01 0.  1.
        -11    1    1    2    0    0  0.37975410331E+02 -0.14001114090E+02  0.24106341452E+02  0.47109220793E+02  0.00000000000E+00 0. -1.
         11    1    1    2    0    0 -0.98170900866E+01  0.78402020417E+01 -0.49833329162E+02  0.51392652404E+02  0.00000000000E+00 0.  1.
<mgrwt>
<rscale>  0 0.11902923E+03</rscale>
<asrwt>0</asrwt>
<pdfrwt beam="1">  1        1 0.13160601E-01 0.12828351E+03</pdfrwt>
<pdfrwt beam="2">  1       -1 0.22432265E-01 0.12828351E+03</pdfrwt>
<totfact> 0.69772065E+03</totfact>
</mgrwt>
</event>
<event>
 6    1  0.9240440E-006  0.3894416E+03  0.7546771E-02  0.1047498E+00
         -2   -1    0    0    0  501 -0.00000000000E+00  0.00000000000E+00  0.28371927838E+02  0.28371927838E+02  0.00000000000E+00 0.  1.
          2   -1    0    0  501    0  0.00000000000E+00 -0.00000000000E+00 -0.13363983867E+04  0.13363983867E+04  0.00000000000E+00 0. -1.
          5    1    1    2  502    0  0.12543238431E+03 -0.48868349978E+02 -0.55588161329E+03  0.57196840530E+03  0.47000000000E+01 0. -1.
         -5    1    1    2    0  502  0.18261736808E+02  0.44182986304E+02 -0.38670633339E+03  0.38967872099E+03  0.47000000000E+01 0. -1.
        -11    1    1    2    0    0 -0.79040314504E+02 -0.48739146225E+01 -0.89296776982E+02  0.11935259000E+03  0.00000000000E+00 0.  1.
         11    1    1    2    0    0 -0.64653806614E+02  0.95592782969E+01 -0.27614173519E+03  0.28377059824E+03  0.00000000000E+00 0. -1.
<mgrwt>
<rscale>  0 0.38944164E+03</rscale>
<asrwt>0</asrwt>
<pdfrwt beam="2">  1        2 0.20559976E+00 0.38944164E+03</pdfrwt>
<pdfrwt beam="1">  1       -2 0.43649117E-02 0.38944164E+03</pdfrwt>
<totfact> 0.40444807E+03</totfact>
</mgrwt>
</event>
<event>
 6    1  0.9240440E-006  0.1226361E+03  0.7546771E-02  0.1281436E+00
         -2   -1    0    0    0  501 -0.00000000000E+00  0.00000000000E+00  0.36930674864E+02  0.36930674864E+02  0.00000000000E+00 0.  1.
          2   -1    0    0  501    0  0.00000000000E+00 -0.00000000000E+00 -0.25281153507E+03  0.25281153507E+03  0.00000000000E+00 0. -1.
          5    1    1    2  502    0 -0.32325829766E+02  0.53799163175E+02 -0.41360643526E+02  0.75313359115E+02  0.47000000000E+01 0. -1.
         -5    1    1    2    0  502  0.73034690467E+01 -0.12326818150E+02 -0.15820273237E+03  0.15891974590E+03  0.47000000000E+01 0.  1.
        -11    1    1    2    0    0  0.26573200544E+02 -0.25122265182E+02 -0.99870796545E+01  0.37907848199E+02  0.00000000000E+00 0.  1.
         11    1    1    2    0    0 -0.15508398253E+01 -0.16350079843E+02 -0.63304046490E+01  0.17601256718E+02  0.00000000000E+00 0. -1.
<mgrwt>
<rscale>  0 0.99460007E+02</rscale>
<asrwt>0</asrwt>
<pdfrwt beam="2">  1        2 0.38894082E-01 0.12263607E+03</pdfrwt>
<pdfrwt beam="1">  1       -2 0.56816424E-02 0.12263607E+03</pdfrwt>
<totfact> 0.19599168E+04</totfact>
</mgrwt>
</event>
<event>
 6    1  0.9240440E-006  0.1332298E+03  0.7546771E-02  0.1235448E+00
         -2   -1    0    0    0  501 -0.00000000000E+00  0.00000000000E+00  0.12901826233E+03  0.12901826233E+03  0.00000000000E+00 0.  1.
          2   -1    0    0  501    0  0.00000000000E+00 -0.00000000000E+00 -0.20665751887E+03  0.20665751887E+03  0.00000000000E+00 0. -1.
          5    1    1    2  502    0  0.77222950202E+02  0.34019456293E+02 -0.93671241753E+02  0.12616298576E+03  0.47000000000E+01 0. -1.
         -5    1    1    2    0  502 -0.31222103782E+02 -0.36763803157E+02 -0.63460095851E+02  0.79847797418E+02  0.47000000000E+01 0. -1.
        -11    1    1    2    0    0 -0.27636804775E+02 -0.56539470399E+01 -0.15748298135E+02  0.32307413846E+02  0.00000000000E+00 0. -1.
         11    1    1    2    0    0 -0.18364041646E+02  0.83982939041E+01  0.95240379196E+02  0.97357584170E+02  0.00000000000E+00 0.  1.
<mgrwt>
<rscale>  0 0.12475812E+03</rscale>
<asrwt>0</asrwt>
<pdfrwt beam="2">  1        2 0.31793464E-01 0.13322982E+03</pdfrwt>
<pdfrwt beam="1">  1       -2 0.19848964E-01 0.13322982E+03</pdfrwt>
<totfact> 0.33725414E+03</totfact>
</mgrwt>
</event>
<event>
 6    1  0.9240440E-006  0.1420242E+03  0.7546771E-02  0.1220699E+00
          3   -1    0    0  501    0  0.00000000000E+00  0.00000000000E+00  0.61702821520E+02  0.61702821520E+02  0.00000000000E+00 0. -1.
         -3   -1    0    0    0  501 -0.00000000000E+00 -0.00000000000E+00 -0.28491894185E+03  0.28491894185E+03  0.00000000000E+00 0.  1.
          5    1    1    2  502    0  0.28327694300E+02  0.43507758019E+02  0.21686296281E+02  0.56460328715E+02  0.47000000000E+01 0. -1.
         -5    1    1    2    0  502  0.30235432589E+02 -0.10096108044E+02 -0.10141904135E+03  0.10641440095E+03  0.47000000000E+01 0. -1.
        -11    1    1    2    0    0 -0.52831194569E+02  0.11711570965E+02 -0.12195949938E+03  0.13342569282E+03  0.00000000000E+00 0.  1.
         11    1    1    2    0    0 -0.57319323210E+01 -0.45123220939E+02 -0.21523875882E+02  0.50321340891E+02  0.00000000000E+00 0. -1.
<mgrwt>
<rscale>  0 0.13466123E+03</rscale>
<asrwt>0</asrwt>
<pdfrwt beam="1">  1        3 0.94927417E-02 0.14202418E+03</pdfrwt>
<pdfrwt beam="2">  1       -3 0.43833684E-01 0.14202418E+03</pdfrwt>
<totfact> 0.97037237E+02</totfact>
</mgrwt>
</event>
<event>
 6    1  0.9240440E-006  0.1712036E+03  0.7546771E-02  0.1203093E+00
          2   -1    0    0  501    0  0.00000000000E+00  0.00000000000E+00  0.14503285356E+03  0.14503285356E+03  0.00000000000E+00 0. -1.
         -2   -1    0    0    0  501 -0.00000000000E+00 -0.00000000000E+00 -0.12354574391E+03  0.12354574391E+03  0.00000000000E+00 0.  1.
          5    1    1    2  502    0  0.86816043500E+02 -0.17814807593E+02  0.15453185756E+02  0.90084869587E+02  0.47000000000E+01 0. -1.
         -5    1    1    2    0  502 -0.75428241932E+02  0.26053350793E+02 -0.13828000474E+02  0.81126446771E+02  0.47000000000E+01 0.  1.
        -11    1    1    2    0    0  0.21326527176E+02 -0.39011419191E+02  0.26812569887E+02  0.51919413447E+02  0.00000000000E+00 0.  1.
         11    1    1    2    0    0 -0.32714328743E+02  0.30772875991E+02 -0.69506455202E+01  0.45447867662E+02  0.00000000000E+00 0. -1.
<mgrwt>
<rscale>  0 0.14788721E+03</rscale>
<asrwt>0</asrwt>
<pdfrwt beam="1">  1        2 0.22312747E-01 0.17120360E+03</pdfrwt>
<pdfrwt beam="2">  1       -2 0.19007037E-01 0.17120360E+03</pdfrwt>
<totfact> 0.54318875E+03</totfact>
</mgrwt>
</event>
<event>
 6    1  0.9240440E-006  0.1405056E+03  0.7546771E-02  0.1230920E+00
          3   -1    0    0  501    0  0.00000000000E+00  0.00000000000E+00  0.87949801677E+02  0.87949801677E+02  0.00000000000E+00 0. -1.
         -3   -1    0    0    0  501 -0.00000000000E+00 -0.00000000000E+00 -0.19550029273E+03  0.19550029273E+03  0.00000000000E+00 0.  1.
          5    1    1    2  502    0 -0.38803006255E+02 -0.32972424865E+01  0.14319093208E+01  0.39251566424E+02  0.47000000000E+01 0. -1.
         -5    1    1    2    0  502  0.99665654956E+02 -0.17029962789E+02 -0.29445851751E+01  0.10126214985E+03  0.47000000000E+01 0. -1.
        -11    1    1    2    0    0 -0.30800986951E+02  0.81198087190E+01 -0.10579868205E+03  0.11048978783E+03  0.00000000000E+00 0.  1.
         11    1    1    2    0    0 -0.30061661750E+02  0.12207396556E+02 -0.23913314913E+00  0.32446590306E+02  0.00000000000E+00 0. -1.
<mgrwt>
<rscale>  0 0.12769257E+03</rscale>
<asrwt>0</asrwt>
<pdfrwt beam="1">  1        3 0.13530739E-01 0.14050557E+03</pdfrwt>
<pdfrwt beam="2">  1       -3 0.30076968E-01 0.14050557E+03</pdfrwt>
<totfact> 0.10966974E+03</totfact>
</mgrwt>
</event>
<event>
 6    1  0.9240440E-006  0.1499832E+03  0.7546771E-02  0.1209811E+00
         -2   -1    0    0    0  501 -0.00000000000E+00  0.00000000000E+00  0.65816745005E+02  0.65816745005E+02  0.00000000000E+00 0.  1.
          2   -1    0    0  501    0  0.00000000000E+00 -0.00000000000E+00 -0.29120823169E+03  0.29120823169E+03  0.00000000000E+00 0. -1.
          5    1    1    2  502    0 -0.10245256321E+02  0.58312641109E+02 -0.17089909687E+03  0.18092517984E+03  0.47000000000E+01 0. -1.
         -5    1    1    2    0  502 -0.24349555473E+02  0.16998244519E+02  0.16527306202E+02  0.34308643500E+02  0.47000000000E+01 0. -1.
        -11    1    1    2    0    0  0.59189750856E+02 -0.20891115277E+02 -0.40775364497E+02  0.74849820666E+02  0.00000000000E+00 0. -1.
         11    1    1    2    0    0 -0.24594939062E+02 -0.54419770351E+02 -0.30244331516E+02  0.66941332683E+02  0.00000000000E+00 0.  1.
<mgrwt>
<rscale>  0 0.14264724E+03</rscale>
<asrwt>0</asrwt>
<pdfrwt beam="2">  1        2 0.44801266E-01 0.14998316E+03</pdfrwt>
<pdfrwt beam="1">  1       -2 0.10125653E-01 0.14998316E+03</pdfrwt>
<totfact> 0.70409655E+03</totfact>
</mgrwt>
</event>
<event>
 6    1  0.9240440E-006  0.5569000E+03  0.7546771E-02  0.1053692E+00
         -1   -1    0    0    0  501 -0.00000000000E+00  0.00000000000E+00  0.13092974966E+03  0.13092974966E+03  0.00000000000E+00 0.  1.
          1   -1    0    0  501    0  0.00000000000E+00 -0.00000000000E+00 -0.11813180448E+04  0.11813180448E+04  0.00000000000E+00 0. -1.
          5    1    1    2  502    0 -0.17354988487E+03 -0.23175833346E+02 -0.10703444959E+04  0.10845810766E+04  0.47000000000E+01 0. -1.
         -5    1    1    2    0  502  0.10997817885E+03  0.33630035416E+02  0.74793731195E+01  0.11534387772E+03  0.47000000000E+01 0.  1.
        -11    1    1    2    0    0  0.81449589853E+02 -0.23759305717E+02 -0.34769161168E+01  0.84915424047E+02  0.00000000000E+00 0.  1.
         11    1    1    2    0    0 -0.17877883830E+02  0.13305103646E+02  0.15953743815E+02  0.27407416059E+02  0.00000000000E+00 0. -1.
<mgrwt>
<rscale>  0 0.37262839E+03</rscale>
<asrwt>0</asrwt>
<pdfrwt beam="2">  1        1 0.18174123E+00 0.55690002E+03</pdfrwt>
<pdfrwt beam="1">  1       -1 0.20143039E-01 0.55690002E+03</pdfrwt>
<totfact> 0.22922693E+02</totfact>
</mgrwt>
</event>
<event>
 6    1  0.9240440E-006  0.1422029E+03  0.7546771E-02  0.1221018E+00
         -4   -1    0    0    0  501 -0.00000000000E+00  0.00000000000E+00  0.28777875997E+02  0.28777875997E+02  0.00000000000E+00 0.  1.
          4   -1    0    0  501    0  0.00000000000E+00 -0.00000000000E+00 -0.57557021005E+03  0.57557021005E+03  0.00000000000E+00 0. -1.
          5    1    1    2  502    0 -0.18042100465E+02  0.10478318402E+02 -0.18143410104E+01  0.21463792280E+02  0.47000000000E+01 0. -1.
         -5    1    1    2    0  502  0.10550873292E+02 -0.77862120549E+02 -0.33530265476E+03  0.34441804690E+03  0.47000000000E+01 0. -1.
        -11    1    1    2    0    0  0.16219806096E+02  0.88581498717E+02 -0.17641809091E+03  0.19807348845E+03  0.00000000000E+00 0.  1.
         11    1    1    2    0    0 -0.87285789234E+01 -0.21197696570E+02 -0.33257247376E+02  0.40392758422E+02  0.00000000000E+00 0. -1.
<mgrwt>
<rscale>  0 0.13443584E+03</rscale>
<asrwt>0</asrwt>
<pdfrwt beam="2">  1        4 0.88549250E-01 0.14220285E+03</pdfrwt>
<pdfrwt beam="1">  1       -4 0.44273662E-02 0.14220285E+03</pdfrwt>
<totfact> 0.55074066E+02</totfact>
</mgrwt>
</event>
<event>
 6    1  0.9240440E-006  0.1336909E+03  0.7546771E-02  0.1236055E+00
         -2   -1    0    0    0  501 -0.00000000000E+00  0.00000000000E+00  0.99910564446E+02  0.99910564446E+02  0.00000000000E+00 0.  1.
          2   -1    0    0  501    0  0.00000000000E+00 -0.00000000000E+00 -0.15549807581E+03  0.15549807581E+03  0.00000000000E+00 0. -1.
          5    1    1    2  502    0 -0.48515425430E+02 -0.38438894180E+02 -0.94787716788E+02  0.11330532355E+03  0.47000000000E+01 0. -1.
         -5    1    1    2    0  502  0.60950850388E+01  0.34086575203E+02  0.19612165703E+02  0.40072081481E+02  0.47000000000E+01 0.  1.
        -11    1    1    2    0    0 -0.18013643496E+02 -0.19434242319E+02  0.25551798743E+02  0.36811350770E+02  0.00000000000E+00 0. -1.
         11    1    1    2    0    0  0.60433983888E+02  0.23786561296E+02 -0.59637590218E+01  0.65219884456E+02  0.00000000000E+00 0.  1.
<mgrwt>
<rscale>  0 0.12437157E+03</rscale>
<asrwt>0</asrwt>
<pdfrwt beam="2">  1        2 0.23922781E-01 0.13369093E+03</pdfrwt>
<pdfrwt beam="1">  1       -2 0.15370856E-01 0.13369093E+03</pdfrwt>
<totfact> 0.70391081E+03</totfact>
</mgrwt>
</event>
<event>
 6    1  0.9240440E-006  0.1641264E+03  0.7546771E-02  0.1191219E+00
          2   -1    0    0  501    0  0.00000000000E+00  0.00000000000E+00  0.19379630521E+03  0.19379630521E+03  0.00000000000E+00 0.  1.
         -2   -1    0    0    0  501 -0.00000000000E+00 -0.00000000000E+00 -0.12510635968E+03  0.12510635968E+03  0.00000000000E+00 0. -1.
          5    1    1    2  502    0 -0.12907256047E+02  0.16666616899E+00 -0.32065916189E+02  0.34884638702E+02  0.47000000000E+01 0.  1.
         -5    1    1    2    0  502 -0.41486779401E+02 -0.91565371055E+02  0.10272648369E+03  0.14380608643E+03  0.47000000000E+01 0.  1.
        -11    1    1    2    0    0  0.67414307837E+02  0.99330567716E+02  0.10514006610E+02  0.12050641028E+03  0.00000000000E+00 0.  1.
         11    1    1    2    0    0 -0.13020272389E+02 -0.79318628298E+01 -0.12484628580E+02  0.19705529474E+02  0.00000000000E+00 0. -1.
<mgrwt>
<rscale>  0 0.15778629E+03</rscale>
<asrwt>0</asrwt>
<pdfrwt beam="1">  1        2 0.29814816E-01 0.16412635E+03</pdfrwt>
<pdfrwt beam="2">  1       -2 0.19247132E-01 0.16412635E+03</pdfrwt>
<totfact> 0.38499534E+03</totfact>
</mgrwt>
</event>
<event>
 6    1  0.9240440E-006  0.1393357E+03  0.7546771E-02  0.1224710E+00
          3   -1    0    0  501    0  0.00000000000E+00  0.00000000000E+00  0.49723755289E+03  0.49723755289E+03  0.00000000000E+00 0. -1.
         -3   -1    0    0    0  501 -0.00000000000E+00 -0.00000000000E+00 -0.35511450480E+02  0.35511450480E+02  0.00000000000E+00 0.  1.
          5    1    1    2  502    0  0.72493654044E+02 -0.24819718948E+02  0.13632984323E+03  0.15645850721E+03  0.47000000000E+01 0.  1.
         -5    1    1    2    0  502 -0.17266832303E+02  0.52047782527E+02  0.20389257228E+03  0.21119040271E+03  0.47000000000E+01 0.  1.
        -11    1    1    2    0    0 -0.47082592168E+02  0.27071100045E+02  0.42857243812E+02  0.69183511692E+02  0.00000000000E+00 0.  1.
         11    1    1    2    0    0 -0.81442295733E+01 -0.54299163623E+02  0.78646443089E+02  0.95916581757E+02  0.00000000000E+00 0. -1.
<mgrwt>
<rscale>  0 0.13186766E+03</rscale>
<asrwt>0</asrwt>
<pdfrwt beam="1">  1        3 0.76498080E-01 0.13933567E+03</pdfrwt>
<pdfrwt beam="2">  1       -3 0.54633004E-02 0.13933567E+03</pdfrwt>
<totfact> 0.75596313E+02</totfact>
</mgrwt>
</event>
<event>
 6    1  0.9240440E-006  0.1307512E+03  0.7546771E-02  0.1240141E+00
          3   -1    0    0  501    0  0.00000000000E+00  0.00000000000E+00  0.75931279330E+02  0.75931279330E+02  0.00000000000E+00 0. -1.
         -3   -1    0    0    0  501 -0.00000000000E+00 -0.00000000000E+00 -0.20714428568E+03  0.20714428568E+03  0.00000000000E+00 0.  1.
          5    1    1    2  502    0 -0.47173640957E+02 -0.40916890415E+02  0.35573243500E+02  0.72021454966E+02  0.47000000000E+01 0. -1.
         -5    1    1    2    0  502  0.28180528222E+02  0.75815356124E+01 -0.51924291453E+02  0.59748170650E+02  0.47000000000E+01 0. -1.
        -11    1    1    2    0    0  0.23164662919E+02 -0.17247077746E+02 -0.90521795300E+02  0.95017149627E+02  0.00000000000E+00 0.  1.
         11    1    1    2    0    0 -0.41715501840E+01  0.50582432549E+02 -0.24340163092E+02  0.56288789762E+02  0.00000000000E+00 0. -1.
<mgrwt>
<rscale>  0 0.12180972E+03</rscale>
<asrwt>0</asrwt>
<pdfrwt beam="1">  1        3 0.11681735E-01 0.13075120E+03</pdfrwt>
<pdfrwt beam="2">  1       -3 0.31868351E-01 0.13075120E+03</pdfrwt>
<totfact> 0.12469346E+03</totfact>
</mgrwt>
</event>
<event>
 6    1  0.9240440E-006  0.3403402E+03  0.7546771E-02  0.1066651E+00
          1   -1    0    0  501    0  0.00000000000E+00  0.00000000000E+00  0.41411675491E+03  0.41411675491E+03  0.00000000000E+00 0. -1.
         -1   -1    0    0    0  501 -0.00000000000E+00 -0.00000000000E+00 -0.69926793058E+02  0.69926793058E+02  0.00000000000E+00 0.  1.
          5    1    1    2  502    0  0.25348374192E+02  0.13234210577E+02  0.37387211517E+02  0.47303044181E+02  0.47000000000E+01 0. -1.
         -5    1    1    2    0  502 -0.58759423265E+02 -0.13976699127E+03  0.15861906214E+03  0.21947569010E+03  0.47000000000E+01 0. -1.
        -11    1    1    2    0    0 -0.15790048840E+02  0.65353315158E+02  0.26112099223E+02  0.72126438775E+02  0.00000000000E+00 0.  1.
         11    1    1    2    0    0  0.49201097913E+02  0.61179465532E+02  0.12207158898E+03  0.14513837492E+03  0.00000000000E+00 0. -1.
<mgrwt>
<rscale>  0 0.34034016E+03</rscale>
<asrwt>0</asrwt>
<pdfrwt beam="1">  1        1 0.63710269E-01 0.34034016E+03</pdfrwt>
<pdfrwt beam="2">  1       -1 0.10757968E-01 0.34034016E+03</pdfrwt>
<totfact> 0.31571070E+03</totfact>
</mgrwt>
</event>
<event>
 6    1  0.9240440E-006  0.1463290E+03  0.7546771E-02  0.1214654E+00
          2   -1    0    0  501    0  0.00000000000E+00  0.00000000000E+00  0.38242995576E+03  0.38242995576E+03  0.00000000000E+00 0. -1.
         -2   -1    0    0    0  501 -0.00000000000E+00 -0.00000000000E+00 -0.46630133733E+02  0.46630133733E+02  0.00000000000E+00 0.  1.
          5    1    1    2  502    0 -0.15680006423E+02  0.34117244613E+02  0.15693098271E+03  0.16142884599E+03  0.47000000000E+01 0.  1.
         -5    1    1    2    0  502 -0.55832898800E+02 -0.82347201950E+01  0.50453808671E+01  0.56856565788E+02  0.47000000000E+01 0.  1.
        -11    1    1    2    0    0  0.39215588527E+02 -0.48096871687E+02  0.46479389416E+02  0.77533896394E+02  0.00000000000E+00 0.  1.
         11    1    1    2    0    0  0.32297316696E+02  0.22214347269E+02  0.12734406903E+03  0.13324078132E+03  0.00000000000E+00 0. -1.
<mgrwt>
<rscale>  0 0.13902001E+03</rscale>
<asrwt>0</asrwt>
<pdfrwt beam="1">  1        2 0.58835376E-01 0.14632901E+03</pdfrwt>
<pdfrwt beam="2">  1       -2 0.71738670E-02 0.14632901E+03</pdfrwt>
<totfact> 0.89889868E+03</totfact>
</mgrwt>
</event>
<event>
 6    1  0.9240440E-006  0.4754287E+03  0.7546771E-02  0.1073087E+00
          2   -1    0    0  501    0  0.00000000000E+00  0.00000000000E+00  0.51780231583E+03  0.51780231583E+03  0.00000000000E+00 0. -1.
         -2   -1    0    0    0  501 -0.00000000000E+00 -0.00000000000E+00 -0.31952377136E+03  0.31952377136E+03  0.00000000000E+00 0.  1.
          5    1    1    2  502    0 -0.12796056672E+03 -0.39636848677E+02  0.48164898009E+03  0.49995281420E+03  0.47000000000E+01 0. -1.
         -5    1    1    2    0  502  0.71904934107E+02  0.22138047861E+02 -0.89015222329E+02  0.11664567081E+03  0.47000000000E+01 0.  1.
        -11    1    1    2    0    0 -0.20874614472E+02  0.89487202610E+01 -0.75897466483E+02  0.79222815793E+02  0.00000000000E+00 0.  1.
         11    1    1    2    0    0  0.76930247090E+02  0.85500805547E+01 -0.11845774680E+03  0.14150478639E+03  0.00000000000E+00 0. -1.
<mgrwt>
<rscale>  0 0.32563011E+03</rscale>
<asrwt>0</asrwt>
<pdfrwt beam="1">  1        2 0.79661895E-01 0.47542867E+03</pdfrwt>
<pdfrwt beam="2">  1       -2 0.49157503E-01 0.47542867E+03</pdfrwt>
<totfact> 0.23655766E+02</totfact>
</mgrwt>
</event>
<event>
 6    1  0.9240440E-006  0.4327024E+03  0.7546771E-02  0.1033010E+00
          1   -1    0    0  501    0  0.00000000000E+00  0.00000000000E+00  0.31125738210E+03  0.31125738210E+03  0.00000000000E+00 0. -1.
         -1   -1    0    0    0  501 -0.00000000000E+00 -0.00000000000E+00 -0.15038310112E+03  0.15038310112E+03  0.00000000000E+00 0.  1.
          5    1    1    2  502    0  0.17675363933E+02  0.78679825156E+01  0.66781458885E+02  0.69686274759E+02  0.47000000000E+01 0.  1.
         -5    1    1    2    0  502 -0.14888140151E+03 -0.38326821406E+02  0.15548442935E+03  0.21870554342E+03  0.47000000000E+01 0.  1.
        -11    1    1    2    0    0  0.33750184031E+02  0.95869497935E+01  0.23583761804E+02  0.42275032221E+02  0.00000000000E+00 0. -1.
         11    1    1    2    0    0  0.97455853542E+02  0.20871889097E+02 -0.84975369063E+02  0.13097363281E+03  0.00000000000E+00 0.  1.
<mgrwt>
<rscale>  0 0.43270244E+03</rscale>
<asrwt>0</asrwt>
<pdfrwt beam="1">  1        1 0.47885751E-01 0.43270244E+03</pdfrwt>
<pdfrwt beam="2">  1       -1 0.23135862E-01 0.43270244E+03</pdfrwt>
<totfact> 0.13313965E+03</totfact>
</mgrwt>
</event>
<event>
 6    1  0.9240440E-006  0.3486657E+03  0.7546771E-02  0.1063164E+00
         -2   -1    0    0    0  501 -0.00000000000E+00  0.00000000000E+00  0.11496259586E+03  0.11496259586E+03  0.00000000000E+00 0. -1.
          2   -1    0    0  501    0  0.00000000000E+00 -0.00000000000E+00 -0.26436373105E+03  0.26436373105E+03  0.00000000000E+00 0.  1.
          5    1    1    2  502    0  0.12007797562E+03 -0.23815202434E+02 -0.17285511915E+03  0.21186520788E+03  0.47000000000E+01 0. -1.
         -5    1    1    2    0  502 -0.26010484393E+02 -0.82510512560E+01 -0.68114973433E+01  0.28515112506E+02  0.47000000000E+01 0. -1.
        -11    1    1    2    0    0 -0.40518479937E+02  0.25281462648E+02 -0.31274968293E+02  0.57087855203E+02  0.00000000000E+00 0.  1.
         11    1    1    2    0    0 -0.53549011292E+02  0.67847910424E+01  0.61540449598E+02  0.81858151314E+02  0.00000000000E+00 0. -1.
<mgrwt>
<rscale>  0 0.34866569E+03</rscale>
<asrwt>0</asrwt>
<pdfrwt beam="2">  1        2 0.40671343E-01 0.34866569E+03</pdfrwt>
<pdfrwt beam="1">  1       -2 0.17686553E-01 0.34866569E+03</pdfrwt>
<totfact> 0.32670246E+03</totfact>
</mgrwt>
</event>
<event>
 6    1  0.9240440E-006  0.1412597E+03  0.7546771E-02  0.1222172E+00
          1   -1    0    0  501    0  0.00000000000E+00  0.00000000000E+00  0.19913161279E+03  0.19913161279E+03  0.00000000000E+00 0. -1.
         -1   -1    0    0    0  501 -0.00000000000E+00 -0.00000000000E+00 -0.81787695148E+02  0.81787695148E+02  0.00000000000E+00 0.  1.
          5    1    1    2  502    0  0.81242718272E+02 -0.19662339948E+02  0.38216515412E+01  0.83807409606E+02  0.47000000000E+01 0. -1.
         -5    1    1    2    0  502 -0.15461187037E+02  0.18807859245E+02  0.72773505654E+02  0.76882098041E+02  0.47000000000E+01 0. -1.
        -11    1    1    2    0    0 -0.22322394068E+02  0.49095639100E+01 -0.29626285028E+02  0.37418041895E+02  0.00000000000E+00 0.  1.
         11    1    1    2    0    0 -0.43459137166E+02 -0.40550832070E+01  0.70375045479E+02  0.82811758399E+02  0.00000000000E+00 0. -1.
<mgrwt>
<rscale>  0 0.13362651E+03</rscale>
<asrwt>0</asrwt>
<pdfrwt beam="1">  1        1 0.30635633E-01 0.14125969E+03</pdfrwt>
<pdfrwt beam="2">  1       -1 0.12582722E-01 0.14125969E+03</pdfrwt>
<totfact> 0.59879012E+03</totfact>
</mgrwt>
</event>
<event>
 6    1  0.9240440E-006  0.1346903E+03  0.7546771E-02  0.1232687E+00
          2   -1    0    0  501    0  0.00000000000E+00  0.00000000000E+00  0.86627726537E+02  0.86627726537E+02  0.00000000000E+00 0. -1.
         -2   -1    0    0    0  501 -0.00000000000E+00 -0.00000000000E+00 -0.18636192532E+03  0.18636192532E+03  0.00000000000E+00 0.  1.
          5    1    1    2  502    0  0.46692052824E+02  0.98341647853E+01  0.19376921187E-02  0.47947352354E+02  0.47000000000E+01 0.  1.
         -5    1    1    2    0  502 -0.65508639527E+02 -0.56335109018E+02 -0.10229932643E+02  0.87130751647E+02  0.47000000000E+01 0.  1.
        -11    1    1    2    0    0 -0.17178733961E+02  0.29646324004E+01  0.12401881673E+02  0.21394032224E+02  0.00000000000E+00 0. -1.
         11    1    1    2    0    0  0.35995320664E+02  0.43536311832E+02 -0.10190808550E+03  0.11651751563E+03  0.00000000000E+00 0.  1.
<mgrwt>
<rscale>  0 0.12653684E+03</rscale>
<asrwt>0</asrwt>
<pdfrwt beam="1">  1        2 0.13327343E-01 0.13469032E+03</pdfrwt>
<pdfrwt beam="2">  1       -2 0.28671065E-01 0.13469032E+03</pdfrwt>
<totfact> 0.47561828E+03</totfact>
</mgrwt>
</event>
<event>
 6    1  0.9240440E-006  0.1362522E+03  0.7546771E-02  0.1229785E+00
          2   -1    0    0  501    0  0.00000000000E+00  0.00000000000E+00  0.27388312637E+03  0.27388312637E+03  0.00000000000E+00 0. -1.
         -2   -1    0    0    0  501 -0.00000000000E+00 -0.00000000000E+00 -0.54351448535E+02  0.54351448535E+02  0.00000000000E+00 0.  1.
          5    1    1    2  502    0 -0.69712301978E+02  0.56150981375E+02  0.57603594031E+02  0.10655046599E+03  0.47000000000E+01 0. -1.
         -5    1    1    2    0  502  0.21216037470E+02 -0.31865678215E+02  0.71046931075E+02  0.80841190672E+02  0.47000000000E+01 0. -1.
        -11    1    1    2    0    0 -0.11577927364E+02 -0.12187761387E+02  0.75925430851E+02  0.77764136847E+02  0.00000000000E+00 0. -1.
         11    1    1    2    0    0  0.60074191871E+02 -0.12097541773E+02  0.14955721875E+02  0.63078781399E+02  0.00000000000E+00 0.  1.
<mgrwt>
<rscale>  0 0.12844254E+03</rscale>
<asrwt>0</asrwt>
<pdfrwt beam="1">  1        2 0.42135865E-01 0.13625225E+03</pdfrwt>
<pdfrwt beam="2">  1       -2 0.83617615E-02 0.13625225E+03</pdfrwt>
<totfact> 0.10067835E+04</totfact>
</mgrwt>
</event>
<event>
 6    1  0.9240440E-006  0.1357088E+03  0.7546771E-02  0.1231298E+00
         -3   -1    0    0    0  501 -0.00000000000E+00  0.00000000000E+00  0.27738638681E+03  0.27738638681E+03  0.00000000000E+00 0.  1.
          3   -1    0    0  501    0  0.00000000000E+00 -0.00000000000E+00 -0.62228035218E+02  0.62228035218E+02  0.00000000000E+00 0. -1.
          5    1    1    2  502    0 -0.23942761483E+02 -0.45165307022E+02  0.20477402136E+01  0.51375519713E+02  0.47000000000E+01 0.  1.
         -5    1    1    2    0  502 -0.18045478854E+02  0.77342584234E+02  0.50033759848E+02  0.93983944201E+02  0.47000000000E+01 0.  1.
        -11    1    1    2    0    0  0.45767325713E+02 -0.59739534116E+02  0.98646237284E+02  0.12407473623E+03  0.00000000000E+00 0. -1.
         11    1    1    2    0    0 -0.37790853771E+01  0.27562256904E+02  0.64430614246E+02  0.70180221887E+02  0.00000000000E+00 0.  1.
<mgrwt>
<rscale>  0 0.12744456E+03</rscale>
<asrwt>0</asrwt>
<pdfrwt beam="2">  1        3 0.95735441E-02 0.13570885E+03</pdfrwt>
<pdfrwt beam="1">  1       -3 0.42674828E-01 0.13570885E+03</pdfrwt>
<totfact> 0.10012063E+03</totfact>
</mgrwt>
</event>
<event>
 6    1  0.9240440E-006  0.1896545E+03  0.7546771E-02  0.1164312E+00
          2   -1    0    0  501    0  0.00000000000E+00  0.00000000000E+00  0.11617366255E+04  0.11617366255E+04  0.00000000000E+00 0. -1.
         -2   -1    0    0    0  501 -0.00000000000E+00 -0.00000000000E+00 -0.31313311522E+02  0.31313311522E+02  0.00000000000E+00 0.  1.
          5    1    1    2  502    0 -0.66871062711E+02  0.67061735796E+02  0.64461505298E+03  0.65155174158E+03  0.47000000000E+01 0. -1.
         -5    1    1    2    0  502  0.21792371266E+02  0.68259051288E+02  0.16443507829E+03  0.17943018280E+03  0.47000000000E+01 0. -1.
        -11    1    1    2    0    0  0.20608580927E+02 -0.10903661577E+03  0.14780842451E+03  0.18482702060E+03  0.00000000000E+00 0.  1.
         11    1    1    2    0    0  0.24470110517E+02 -0.26284171316E+02  0.17356475816E+03  0.17724099200E+03  0.00000000000E+00 0. -1.
<mgrwt>
<rscale>  0 0.18365488E+03</rscale>
<asrwt>0</asrwt>
<pdfrwt beam="1">  1        2 0.17872868E+00 0.18965454E+03</pdfrwt>
<pdfrwt beam="2">  1       -2 0.48174334E-02 0.18965454E+03</pdfrwt>
<totfact> 0.43177939E+03</totfact>
</mgrwt>
</event>
<event>
 6    1  0.9240440E-006  0.1398227E+03  0.7546771E-02  0.1227471E+00
          1   -1    0    0  501    0  0.00000000000E+00  0.00000000000E+00  0.68874840742E+03  0.68874840742E+03  0.00000000000E+00 0. -1.
         -1   -1    0    0    0  501 -0.00000000000E+00 -0.00000000000E+00 -0.38238472894E+02  0.38238472894E+02  0.00000000000E+00 0.  1.
          5    1    1    2  502    0  0.37478024792E+02  0.89127659142E+02  0.51200287057E+03  0.52107328797E+03  0.47000000000E+01 0.  1.
         -5    1    1    2    0  502 -0.14886552745E+02 -0.30693735654E+02  0.77860289214E+02  0.85135359854E+02  0.47000000000E+01 0.  1.
        -11    1    1    2    0    0  0.93389628778E-01 -0.27987909003E+02 -0.18117572786E+02  0.33340339165E+02  0.00000000000E+00 0.  1.
         11    1    1    2    0    0 -0.22684861676E+02 -0.30446014484E+02  0.78764347529E+02  0.87437893324E+02  0.00000000000E+00 0. -1.
<mgrwt>
<rscale>  0 0.12998943E+03</rscale>
<asrwt>0</asrwt>
<pdfrwt beam="1">  1        1 0.10596128E+00 0.13982266E+03</pdfrwt>
<pdfrwt beam="2">  1       -1 0.58828425E-02 0.13982266E+03</pdfrwt>
<totfact> 0.38741308E+03</totfact>
</mgrwt>
</event>
<event>
 6    1  0.9240440E-006  0.1325054E+03  0.7546771E-02  0.1237045E+00
         -1   -1    0    0    0  501 -0.00000000000E+00  0.00000000000E+00  0.11363775483E+03  0.11363775483E+03  0.00000000000E+00 0.  1.
          1   -1    0    0  501    0  0.00000000000E+00 -0.00000000000E+00 -0.12369197510E+03  0.12369197510E+03  0.00000000000E+00 0. -1.
          5    1    1    2  502    0 -0.56494841730E+02 -0.22354437895E+02  0.22996305225E+02  0.65133003076E+02  0.47000000000E+01 0.  1.
         -5    1    1    2    0  502  0.32607728312E+02  0.59291462946E+02 -0.76442540521E+01  0.68258817335E+02  0.47000000000E+01 0.  1.
        -11    1    1    2    0    0 -0.23518124978E+02  0.95502533056E+01  0.11619841040E+02  0.27916487001E+02  0.00000000000E+00 0.  1.
         11    1    1    2    0    0  0.47405238397E+02 -0.46487278357E+02 -0.37026112475E+02  0.76021422517E+02  0.00000000000E+00 0. -1.
<mgrwt>
<rscale>  0 0.12374402E+03</rscale>
<asrwt>0</asrwt>
<pdfrwt beam="2">  1        1 0.19029535E-01 0.13250544E+03</pdfrwt>
<pdfrwt beam="1">  1       -1 0.17482731E-01 0.13250544E+03</pdfrwt>
<totfact> 0.64845488E+03</totfact>
</mgrwt>
</event>
<event>
 6    1  0.9240440E-006  0.3058676E+03  0.7546771E-02  0.1082344E+00
          1   -1    0    0  501    0  0.00000000000E+00  0.00000000000E+00  0.11991606437E+03  0.11991606437E+03  0.00000000000E+00 0. -1.
         -1   -1    0    0    0  501 -0.00000000000E+00 -0.00000000000E+00 -0.19504265442E+03  0.19504265442E+03  0.00000000000E+00 0.  1.
          5    1    1    2  502    0  0.60188618979E+02  0.10582805789E+03  0.15600551890E+02  0.12283205979E+03  0.47000000000E+01 0. -1.
         -5    1    1    2    0  502 -0.27119280072E+02 -0.65171776422E+01 -0.29391240917E+02  0.40790489071E+02  0.47000000000E+01 0. -1.
        -11    1    1    2    0    0  0.25120867236E+02 -0.61230912404E+02 -0.15277288824E+02  0.67924061703E+02  0.00000000000E+00 0.  1.
         11    1    1    2    0    0 -0.58190206143E+02 -0.38079967848E+02 -0.46058612195E+02  0.83412108232E+02  0.00000000000E+00 0. -1.
<mgrwt>
<rscale>  0 0.30586760E+03</rscale>
<asrwt>0</asrwt>
<pdfrwt beam="1">  1        1 0.18448625E-01 0.30586760E+03</pdfrwt>
<pdfrwt beam="2">  1       -1 0.30006562E-01 0.30586760E+03</pdfrwt>
<totfact> 0.28965264E+03</totfact>
</mgrwt>
</event>
<event>
 6    1  0.9240440E-006  0.1249474E+03  0.7546771E-02  0.1250322E+00
         -2   -1    0    0    0  501 -0.00000000000E+00  0.00000000000E+00  0.10509659864E+02  0.10509659864E+02  0.00000000000E+00 0. -1.
          2   -1    0    0  501    0  0.00000000000E+00 -0.00000000000E+00 -0.13360310217E+04  0.13360310217E+04  0.00000000000E+00 0.  1.
          5    1    1    2  502    0 -0.53111387742E+02 -0.14597198344E+02 -0.26905333529E+03  0.27467377912E+03  0.47000000000E+01 0.  1.
         -5    1    1    2    0  502  0.54471686263E+02  0.73106079229E+01 -0.74688986647E+03  0.74892400965E+03  0.47000000000E+01 0.  1.
        -11    1    1    2    0    0 -0.20829674979E+02 -0.31040524411E+02 -0.22481585134E+03  0.22790251541E+03  0.00000000000E+00 0.  1.
         11    1    1    2    0    0  0.19469376457E+02  0.38327114832E+02 -0.84762308741E+02  0.95040377388E+02  0.00000000000E+00 0. -1.
<mgrwt>
<rscale>  0 0.11572435E+03</rscale>
<asrwt>0</asrwt>
<pdfrwt beam="2">  1        2 0.20554308E+00 0.12494736E+03</pdfrwt>
<pdfrwt beam="1">  1       -2 0.16168720E-02 0.12494736E+03</pdfrwt>
<totfact> 0.16981059E+04</totfact>
</mgrwt>
</event>
<event>
 6    1  0.9240440E-006  0.2293974E+03  0.7546771E-02  0.1127065E+00
          2   -1    0    0  501    0  0.00000000000E+00  0.00000000000E+00  0.74743968688E+03  0.74743968688E+03  0.00000000000E+00 0. -1.
         -2   -1    0    0    0  501 -0.00000000000E+00 -0.00000000000E+00 -0.17601143738E+02  0.17601143738E+02  0.00000000000E+00 0.  1.
          5    1    1    2  502    0 -0.21647762454E+02 -0.24574140978E+02  0.48486982075E+03  0.48599727067E+03  0.47000000000E+01 0. -1.
         -5    1    1    2    0  502  0.10412252819E+01 -0.15673201482E+00 -0.72430945795E+01  0.86983408820E+01  0.47000000000E+01 0.  1.
        -11    1    1    2    0    0  0.44486824770E+02  0.23106544492E+02  0.23640458097E+03  0.24166115923E+03  0.00000000000E+00 0. -1.
         11    1    1    2    0    0 -0.23880287598E+02  0.16243285012E+01  0.15807236003E+02  0.28684059839E+02  0.00000000000E+00 0.  1.
<mgrwt>
<rscale>  0 0.22939741E+03</rscale>
<asrwt>0</asrwt>
<pdfrwt beam="1">  1        2 0.11499070E+00 0.22939741E+03</pdfrwt>
<pdfrwt beam="2">  1       -2 0.27078688E-02 0.22939741E+03</pdfrwt>
<totfact> 0.18794118E+04</totfact>
</mgrwt>
</event>
<event>
 6    1  0.9240440E-006  0.1384222E+03  0.7546771E-02  0.1239518E+00
          1   -1    0    0  501    0  0.00000000000E+00  0.00000000000E+00  0.29053281110E+03  0.29053281110E+03  0.00000000000E+00 0. -1.
         -1   -1    0    0    0  501 -0.00000000000E+00 -0.00000000000E+00 -0.43597599026E+02  0.43597599026E+02  0.00000000000E+00 0.  1.
          5    1    1    2  502    0  0.14278384618E+02  0.67413845970E+02  0.14589714936E+03  0.16142046676E+03  0.47000000000E+01 0.  1.
         -5    1    1    2    0  502  0.38289262225E+02 -0.39606411246E+02  0.31639090727E+02  0.63701314551E+02  0.47000000000E+01 0.  1.
        -11    1    1    2    0    0  0.12249641142E+00 -0.27190303304E+02  0.85241304186E+01  0.28495410131E+02  0.00000000000E+00 0.  1.
         11    1    1    2    0    0 -0.52690143255E+02 -0.61713142031E+00  0.60874841561E+02  0.80513218682E+02  0.00000000000E+00 0. -1.
<mgrwt>
<rscale>  0 0.12219574E+03</rscale>
<asrwt>0</asrwt>
<pdfrwt beam="1">  1        1 0.44697354E-01 0.13842218E+03</pdfrwt>
<pdfrwt beam="2">  1       -1 0.67073231E-02 0.13842218E+03</pdfrwt>
<totfact> 0.97512028E+03</totfact>
</mgrwt>
</event>
<event>
 6    1  0.9240440E-006  0.1412390E+03  0.7546771E-02  0.1223152E+00
         -1   -1    0    0    0  501 -0.00000000000E+00  0.00000000000E+00  0.18627877840E+02  0.18627877840E+02  0.00000000000E+00 0.  1.
          1   -1    0    0  501    0  0.00000000000E+00 -0.00000000000E+00 -0.11475724602E+04  0.11475724602E+04  0.00000000000E+00 0. -1.
          5    1    1    2  502    0  0.23684442098E+02  0.51163644120E+01 -0.34482461627E+02  0.42405897493E+02  0.47000000000E+01 0.  1.
         -5    1    1    2    0  502 -0.15857133679E+02 -0.70402594655E+02 -0.87436460064E+03  0.87735028288E+03  0.47000000000E+01 0.  1.
        -11    1    1    2    0    0 -0.38721639055E+02  0.52076519468E+02 -0.19191421808E+03  0.20258923049E+03  0.00000000000E+00 0. -1.
         11    1    1    2    0    0  0.30894330637E+02  0.13209710775E+02 -0.28183301997E+02  0.43854927154E+02  0.00000000000E+00 0.  1.
<mgrwt>
<rscale>  0 0.13294374E+03</rscale>
<asrwt>0</asrwt>
<pdfrwt beam="2">  1        1 0.17654961E+00 0.14123898E+03</pdfrwt>
<pdfrwt beam="1">  1       -1 0.28658274E-02 0.14123898E+03</pdfrwt>
<totfact> 0.49347875E+03</totfact>
</mgrwt>
</event>
<event>
 6    1  0.1119707E-005  0.1687532E+03  0.7546771E-02  0.1185479E+00
         -1   -1    0    0    0  501 -0.00000000000E+00  0.00000000000E+00  0.11401210452E+03  0.11401210452E+03  0.00000000000E+00 0.  1.
          1   -1    0    0  501    0  0.00000000000E+00 -0.00000000000E+00 -0.21790413197E+03  0.21790413197E+03  0.00000000000E+00 0. -1.
          5    1    1    2  502    0 -0.60793275732E+02  0.63726803604E+02 -0.79621871061E+02  0.11882196860E+03  0.47000000000E+01 0. -1.
         -5    1    1    2    0  502 -0.46837014714E+02 -0.28114082559E+02  0.22601118118E+02  0.59304368521E+02  0.47000000000E+01 0. -1.
        -11    1    1    2    0    0  0.43516917763E+02 -0.20978189704E+02  0.26630501649E+02  0.55163304768E+02  0.00000000000E+00 0.  1.
         11    1    1    2    0    0  0.64113372683E+02 -0.14634531341E+02 -0.73501776153E+02  0.98626594599E+02  0.00000000000E+00 0. -1.
<mgrwt>
<rscale>  0 0.16288403E+03</rscale>
<asrwt>0</asrwt>
<pdfrwt beam="2">  1        1 0.33523713E-01 0.16875315E+03</pdfrwt>
<pdfrwt beam="1">  1       -1 0.17540324E-01 0.16875315E+03</pdfrwt>
<totfact> 0.32061906E+03</totfact>
</mgrwt>
</event>
<event>
 6    1  0.9240440E-006  0.1659303E+03  0.7546771E-02  0.1188173E+00
          2   -1    0    0  501    0  0.00000000000E+00  0.00000000000E+00  0.57413501144E+03  0.57413501144E+03  0.00000000000E+00 0. -1.
         -2   -1    0    0    0  501 -0.00000000000E+00 -0.00000000000E+00 -0.61357492431E+02  0.61357492431E+02  0.00000000000E+00 0.  1.
          5    1    1    2  502    0 -0.10217991683E+03  0.63938677873E+02  0.44088751530E+03  0.45709165501E+03  0.47000000000E+01 0. -1.
         -5    1    1    2    0  502  0.16794556450E+02  0.40166103512E+01  0.48694813911E+01  0.18547024939E+02  0.47000000000E+01 0. -1.
        -11    1    1    2    0    0  0.21095480196E+01  0.21107411021E+02  0.10918723438E+01  0.21240649191E+02  0.00000000000E+00 0.  1.
         11    1    1    2    0    0  0.83275812361E+02 -0.89062699245E+02  0.65928649973E+02  0.13861317473E+03  0.00000000000E+00 0. -1.
<mgrwt>
<rscale>  0 0.16046501E+03</rscale>
<asrwt>0</asrwt>
<pdfrwt beam="1">  1        2 0.88328460E-01 0.16593027E+03</pdfrwt>
<pdfrwt beam="2">  1       -2 0.94396146E-02 0.16593027E+03</pdfrwt>
<totfact> 0.37856171E+03</totfact>
</mgrwt>
</event>
<event>
 6    1  0.9240440E-006  0.2993514E+03  0.7546771E-02  0.1087188E+00
         -2   -1    0    0    0  501 -0.00000000000E+00  0.00000000000E+00  0.14827100882E+04  0.14827100882E+04  0.00000000000E+00 0. -1.
          2   -1    0    0  501    0  0.00000000000E+00 -0.00000000000E+00 -0.63266767232E+02  0.63266767232E+02  0.00000000000E+00 0.  1.
          5    1    1    2  502    0 -0.10719539626E+02  0.25911103040E+01  0.24685349341E+01  0.12239528059E+02  0.47000000000E+01 0.  1.
         -5    1    1    2    0  502  0.13169681744E+03 -0.24619087547E+03  0.49640893168E+03  0.56955940545E+03  0.47000000000E+01 0.  1.
        -11    1    1    2    0    0 -0.25965453990E+02  0.14383356028E+03  0.40676248215E+03  0.43222449577E+03  0.00000000000E+00 0.  1.
         11    1    1    2    0    0 -0.95011823822E+02  0.99766204883E+02  0.51380337223E+03  0.53195342617E+03  0.00000000000E+00 0. -1.
<mgrwt>
<rscale>  0 0.29613747E+03</rscale>
<asrwt>0</asrwt>
<pdfrwt beam="2">  1        2 0.97333499E-02 0.29935142E+03</pdfrwt>
<pdfrwt beam="1">  1       -2 0.22810922E+00 0.29935142E+03</pdfrwt>
<totfact> 0.63936153E+01</totfact>
</mgrwt>
</event>
<event>
 6    1  0.9240440E-006  0.1288673E+03  0.7546771E-02  0.1241618E+00
          1   -1    0    0  501    0  0.00000000000E+00  0.00000000000E+00  0.10635076508E+04  0.10635076508E+04  0.00000000000E+00 0. -1.
         -1   -1    0    0    0  501 -0.00000000000E+00 -0.00000000000E+00 -0.33941957363E+02  0.33941957363E+02  0.00000000000E+00 0.  1.
          5    1    1    2  502    0  0.43332913391E+02 -0.31737774700E+02  0.86539427698E+03  0.86707229938E+03  0.47000000000E+01 0. -1.
         -5    1    1    2    0  502 -0.17174205031E+02  0.34994014364E+02  0.10998696942E+03  0.11678509238E+03  0.47000000000E+01 0.  1.
        -11    1    1    2    0    0 -0.41927397883E+02 -0.26121644188E+02 -0.35476198503E+01  0.49526079947E+02  0.00000000000E+00 0.  1.
         11    1    1    2    0    0  0.15768689524E+02  0.22865404524E+02  0.57732066901E+02  0.64066136469E+02  0.00000000000E+00 0. -1.
<mgrwt>
<rscale>  0 0.12090075E+03</rscale>
<asrwt>0</asrwt>
<pdfrwt beam="1">  1        1 0.16361654E+00 0.12886734E+03</pdfrwt>
<pdfrwt beam="2">  1       -1 0.52218404E-02 0.12886734E+03</pdfrwt>
<totfact> 0.23391297E+03</totfact>
</mgrwt>
</event>
<event>
 6    1  0.9240440E-006  0.4303329E+03  0.7546771E-02  0.1033755E+00
         -1   -1    0    0    0  501 -0.00000000000E+00  0.00000000000E+00  0.31929718614E+02  0.31929718614E+02  0.00000000000E+00 0.  1.
          1   -1    0    0  501    0  0.00000000000E+00 -0.00000000000E+00 -0.14499532621E+04  0.14499532621E+04  0.00000000000E+00 0. -1.
          5    1    1    2  502    0  0.35215780132E+02 -0.11297092702E+03 -0.10394432149E+04  0.10461677057E+04  0.47000000000E+01 0.  1.
         -5    1    1    2    0  502 -0.12831529636E+01 -0.20936691366E+02 -0.19450721814E+02  0.28989862124E+02  0.47000000000E+01 0.  1.
        -11    1    1    2    0    0 -0.67760280209E+02  0.14093011627E+03 -0.29400173578E+03  0.33300116199E+03  0.00000000000E+00 0. -1.
         11    1    1    2    0    0  0.33827653041E+02 -0.70224978745E+01 -0.65127871064E+02  0.73724250936E+02  0.00000000000E+00 0.  1.
<mgrwt>
<rscale>  0 0.43033289E+03</rscale>
<asrwt>0</asrwt>
<pdfrwt beam="2">  1        1 0.22306969E+00 0.43033289E+03</pdfrwt>
<pdfrwt beam="1">  1       -1 0.49122654E-02 0.43033289E+03</pdfrwt>
<totfact> 0.13888308E+03</totfact>
</mgrwt>
</event>
<event>
 6    1  0.9240440E-006  0.1472235E+03  0.7546771E-02  0.1213437E+00
         -1   -1    0    0    0  501 -0.00000000000E+00  0.00000000000E+00  0.31329739141E+02  0.31329739141E+02  0.00000000000E+00 0.  1.
          1   -1    0    0  501    0  0.00000000000E+00 -0.00000000000E+00 -0.57181878870E+03  0.57181878870E+03  0.00000000000E+00 0. -1.
          5    1    1    2  502    0 -0.36485252704E+00 -0.24602956951E+02 -0.15877346342E+03  0.16073749188E+03  0.47000000000E+01 0.  1.
         -5    1    1    2    0  502  0.55758035797E+01  0.10221198959E+03 -0.15433067243E+03  0.18525233292E+03  0.47000000000E+01 0.  1.
        -11    1    1    2    0    0 -0.22998651376E+02 -0.89843470088E+02 -0.20955273252E+03  0.22915744541E+03  0.00000000000E+00 0.  1.
         11    1    1    2    0    0  0.17787700323E+02  0.12234437453E+02 -0.17832181180E+02  0.28001257618E+02  0.00000000000E+00 0. -1.
<mgrwt>
<rscale>  0 0.13991966E+03</rscale>
<asrwt>0</asrwt>
<pdfrwt beam="2">  1        1 0.87972111E-01 0.14722350E+03</pdfrwt>
<pdfrwt beam="1">  1       -1 0.48199605E-02 0.14722350E+03</pdfrwt>
<totfact> 0.67531591E+03</totfact>
</mgrwt>
</event>
<event>
 6    1  0.9240440E-006  0.1954608E+03  0.7546771E-02  0.1158270E+00
          2   -1    0    0  501    0  0.00000000000E+00  0.00000000000E+00  0.80729485455E+03  0.80729485455E+03  0.00000000000E+00 0. -1.
         -2   -1    0    0    0  501 -0.00000000000E+00 -0.00000000000E+00 -0.53838306142E+02  0.53838306142E+02  0.00000000000E+00 0.  1.
          5    1    1    2  502    0 -0.52201829416E+02  0.28027202856E+02  0.10118418281E+03  0.11734940965E+03  0.47000000000E+01 0. -1.
         -5    1    1    2    0  502  0.27941654565E+02  0.12027051494E+03  0.48850753128E+03  0.50389228109E+03  0.47000000000E+01 0. -1.
        -11    1    1    2    0    0  0.26644559010E+02 -0.47757877947E+01  0.83435855251E+01  0.28325890866E+02  0.00000000000E+00 0.  1.
         11    1    1    2    0    0 -0.23843841599E+01 -0.14352193000E+03  0.15542124880E+03  0.21156557909E+03  0.00000000000E+00 0. -1.
<mgrwt>
<rscale>  0 0.19021216E+03</rscale>
<asrwt>0</asrwt>
<pdfrwt beam="1">  1        2 0.12419920E+00 0.19546079E+03</pdfrwt>
<pdfrwt beam="2">  1       -2 0.82828169E-02 0.19546079E+03</pdfrwt>
<totfact> 0.31087578E+03</totfact>
</mgrwt>
</event>
<event>
 6    1  0.9240440E-006  0.1407643E+03  0.7546771E-02  0.1224755E+00
          4   -1    0    0  501    0  0.00000000000E+00  0.00000000000E+00  0.73499510100E+02  0.73499510100E+02  0.00000000000E+00 0.  1.
         -4   -1    0    0    0  501 -0.00000000000E+00 -0.00000000000E+00 -0.22448457996E+03  0.22448457996E+03  0.00000000000E+00 0. -1.
          5    1    1    2  502    0  0.48219730208E+02  0.11017078877E+02 -0.89873164528E+02  0.10269271693E+03  0.47000000000E+01 0.  1.
         -5    1    1    2    0  502  0.16502722334E+02 -0.11471827810E+02  0.41337540388E+02  0.46204165646E+02  0.47000000000E+01 0.  1.
        -11    1    1    2    0    0 -0.77611805054E+02  0.17282139941E+02 -0.53752530936E+02  0.95977076569E+02  0.00000000000E+00 0.  1.
         11    1    1    2    0    0  0.12889352511E+02 -0.16827391008E+02 -0.48696914788E+02  0.53110130918E+02  0.00000000000E+00 0. -1.
<mgrwt>
<rscale>  0 0.13183680E+03</rscale>
<asrwt>0</asrwt>
<pdfrwt beam="1">  1        4 0.11307617E-01 0.14076425E+03</pdfrwt>
<pdfrwt beam="2">  1       -4 0.34536089E-01 0.14076425E+03</pdfrwt>
<totfact> 0.83146418E+02</totfact>
</mgrwt>
</event>
<event>
 6    1  0.9240440E-006  0.1271626E+03  0.7546771E-02  0.1245357E+00
         -3   -1    0    0    0  501 -0.00000000000E+00  0.00000000000E+00  0.68275821015E+02  0.68275821015E+02  0.00000000000E+00 0.  1.
          3   -1    0    0  501    0  0.00000000000E+00 -0.00000000000E+00 -0.22164629724E+03  0.22164629724E+03  0.00000000000E+00 0. -1.
          5    1    1    2  502    0 -0.11950137347E+02  0.15766357710E+02 -0.15290391300E+03  0.15425005811E+03  0.47000000000E+01 0. -1.
         -5    1    1    2    0  502  0.42236297854E+01 -0.37771853432E+02  0.73839090096E+01  0.39002103437E+02  0.47000000000E+01 0. -1.
        -11    1    1    2    0    0 -0.17457882364E+02  0.41505928211E+02  0.24507671421E+02  0.51265443447E+02  0.00000000000E+00 0.  1.
         11    1    1    2    0    0  0.25184389926E+02 -0.19500432489E+02 -0.32358143657E+02  0.45404513257E+02  0.00000000000E+00 0. -1.
<mgrwt>
<rscale>  0 0.11864057E+03</rscale>
<asrwt>0</asrwt>
<pdfrwt beam="2">  1        3 0.34099430E-01 0.12716260E+03</pdfrwt>
<pdfrwt beam="1">  1       -3 0.10503973E-01 0.12716260E+03</pdfrwt>
<totfact> 0.13052458E+03</totfact>
</mgrwt>
</event>
<event>
 6    1  0.9240440E-006  0.1250520E+03  0.7546771E-02  0.1251524E+00
          1   -1    0    0  501    0  0.00000000000E+00  0.00000000000E+00  0.79871010001E+02  0.79871010001E+02  0.00000000000E+00 0. -1.
         -1   -1    0    0    0  501 -0.00000000000E+00 -0.00000000000E+00 -0.14531724472E+03  0.14531724472E+03  0.00000000000E+00 0.  1.
          5    1    1    2  502    0 -0.54542268020E+02 -0.25487935456E+02 -0.33511078738E+02  0.69062118797E+02  0.47000000000E+01 0.  1.
         -5    1    1    2    0  502  0.58028174959E+02  0.24753669754E+02 -0.14596938651E+02  0.64924370412E+02  0.47000000000E+01 0.  1.
        -11    1    1    2    0    0 -0.14830420428E+02  0.16720180496E+02 -0.49060660587E+02  0.53911540723E+02  0.00000000000E+00 0.  1.
         11    1    1    2    0    0  0.11344513489E+02 -0.15985914794E+02  0.31722443261E+02  0.37290224785E+02  0.00000000000E+00 0. -1.
<mgrwt>
<rscale>  0 0.11503246E+03</rscale>
<asrwt>0</asrwt>
<pdfrwt beam="1">  1        1 0.12287848E-01 0.12505198E+03</pdfrwt>
<pdfrwt beam="2">  1       -1 0.22356499E-01 0.12505198E+03</pdfrwt>
<totfact> 0.76576044E+03</totfact>
</mgrwt>
</event>
<event>
 6    1  0.9240440E-006  0.1530824E+03  0.7546771E-02  0.1206249E+00
         -1   -1    0    0    0  501 -0.00000000000E+00  0.00000000000E+00  0.95122896088E+02  0.95122896088E+02  0.00000000000E+00 0.  1.
          1   -1    0    0  501    0  0.00000000000E+00 -0.00000000000E+00 -0.20622781652E+03  0.20622781652E+03  0.00000000000E+00 0. -1.
          5    1    1    2  502    0 -0.68742998909E+02 -0.40579394363E+02 -0.95778438116E+02  0.12477133627E+03  0.47000000000E+01 0. -1.
         -5    1    1    2    0  502  0.26828490836E+02 -0.37217321054E+02  0.14766398707E+02  0.48425545301E+02  0.47000000000E+01 0. -1.
        -11    1    1    2    0    0 -0.23997835517E+02  0.50897617586E+01  0.27086894579E+01  0.24680737081E+02  0.00000000000E+00 0.  1.
         11    1    1    2    0    0  0.65912343590E+02  0.72706953658E+02 -0.32801570482E+02  0.10347309396E+03  0.00000000000E+00 0. -1.
<mgrwt>
<rscale>  0 0.14539441E+03</rscale>
<asrwt>0</asrwt>
<pdfrwt beam="2">  1        1 0.31727356E-01 0.15308236E+03</pdfrwt>
<pdfrwt beam="1">  1       -1 0.14634292E-01 0.15308236E+03</pdfrwt>
<totfact> 0.45515188E+03</totfact>
</mgrwt>
</event>
<event>
 6    1  0.9240440E-006  0.1421228E+03  0.7546771E-02  0.1219611E+00
         -1   -1    0    0    0  501 -0.00000000000E+00  0.00000000000E+00  0.82862874601E+02  0.82862874601E+02  0.00000000000E+00 0.  1.
          1   -1    0    0  501    0  0.00000000000E+00 -0.00000000000E+00 -0.20370246658E+03  0.20370246658E+03  0.00000000000E+00 0. -1.
          5    1    1    2  502    0 -0.60248709101E+02 -0.71194889770E+02 -0.20998278945E+02  0.95716440575E+02  0.47000000000E+01 0. -1.
         -5    1    1    2    0  502  0.44088955090E+02  0.55168384499E+01 -0.36120917649E+02  0.57455044681E+02  0.47000000000E+01 0. -1.
        -11    1    1    2    0    0 -0.20768647561E+01  0.72697229001E+02 -0.79886567791E+02  0.10803269961E+03  0.00000000000E+00 0. -1.
         11    1    1    2    0    0  0.18236618767E+02 -0.70191776817E+01  0.16166172406E+02  0.25361156315E+02  0.00000000000E+00 0.  1.
<mgrwt>
<rscale>  0 0.13543193E+03</rscale>
<asrwt>0</asrwt>
<pdfrwt beam="2">  1        1 0.31338840E-01 0.14212284E+03</pdfrwt>
<pdfrwt beam="1">  1       -1 0.12748135E-01 0.14212284E+03</pdfrwt>
<totfact> 0.57067470E+03</totfact>
</mgrwt>
</event>
<event>
 6    1  0.9240440E-006  0.1296181E+03  0.7546771E-02  0.1242339E+00
          4   -1    0    0  501    0  0.00000000000E+00  0.00000000000E+00  0.50557740263E+02  0.50557740263E+02  0.00000000000E+00 0. -1.
         -4   -1    0    0    0  501 -0.00000000000E+00 -0.00000000000E+00 -0.30624992397E+03  0.30624992397E+03  0.00000000000E+00 0.  1.
          5    1    1    2  502    0 -0.19129464669E+02 -0.76006381697E+01  0.30799871449E+02  0.37342043334E+02  0.47000000000E+01 0.  1.
         -5    1    1    2    0  502  0.39144136052E+02 -0.20271366334E+02 -0.10046500221E+03  0.10981119410E+03  0.47000000000E+01 0.  1.
        -11    1    1    2    0    0 -0.22646041762E+02 -0.29343744147E+02 -0.96495160442E+02  0.10336931129E+03  0.00000000000E+00 0. -1.
         11    1    1    2    0    0  0.26313703793E+01  0.57215748651E+02 -0.89531892504E+02  0.10628511551E+03  0.00000000000E+00 0.  1.
<mgrwt>
<rscale>  0 0.12046040E+03</rscale>
<asrwt>0</asrwt>
<pdfrwt beam="1">  1        4 0.77781139E-02 0.12961807E+03</pdfrwt>
<pdfrwt beam="2">  1       -4 0.47115373E-01 0.12961807E+03</pdfrwt>
<totfact> 0.83012351E+02</totfact>
</mgrwt>
</event>
<event>
 6    1  0.9240440E-006  0.1364130E+03  0.7546771E-02  0.1229308E+00
          2   -1    0    0  501    0  0.00000000000E+00  0.00000000000E+00  0.12003596222E+03  0.12003596222E+03  0.00000000000E+00 0. -1.
         -2   -1    0    0    0  501 -0.00000000000E+00 -0.00000000000E+00 -0.12715478078E+03  0.12715478078E+03  0.00000000000E+00 0.  1.
          5    1    1    2  502    0  0.17853404077E+02  0.23458238858E+02 -0.45749495725E+02  0.54627276763E+02  0.47000000000E+01 0.  1.
         -5    1    1    2    0  502 -0.71142323973E+02 -0.35488907119E+02  0.24736350412E+02  0.83394663022E+02  0.47000000000E+01 0.  1.
        -11    1    1    2    0    0  0.60198521298E+02 -0.16357022534E+02 -0.18963752615E+02  0.65199985168E+02  0.00000000000E+00 0.  1.
         11    1    1    2    0    0 -0.69096014019E+01  0.28387690795E+02  0.32858079366E+02  0.43968818040E+02  0.00000000000E+00 0. -1.
<mgrwt>
<rscale>  0 0.12875967E+03</rscale>
<asrwt>0</asrwt>
<pdfrwt beam="1">  1        2 0.18467071E-01 0.13641299E+03</pdfrwt>
<pdfrwt beam="2">  1       -2 0.19562274E-01 0.13641299E+03</pdfrwt>
<totfact> 0.63167122E+03</totfact>
</mgrwt>
</event>
<event>
 6    1  0.9240440E-006  0.2128960E+03  0.7546771E-02  0.1142849E+00
          1   -1    0    0  501    0  0.00000000000E+00  0.00000000000E+00  0.18204981625E+03  0.18204981625E+03  0.00000000000E+00 0. -1.
         -1   -1    0    0    0  501 -0.00000000000E+00 -0.00000000000E+00 -0.23125042384E+03  0.23125042384E+03  0.00000000000E+00 0.  1.
          5    1    1    2  502    0  0.14854406480E+03 -0.77211052107E+01 -0.22216163706E+02  0.15046794537E+03  0.47000000000E+01 0.  1.
         -5    1    1    2    0  502  0.89927356521E+01 -0.62149010450E+02 -0.23974273454E+02  0.67381188637E+02  0.47000000000E+01 0.  1.
        -11    1    1    2    0    0 -0.98178465383E+02  0.34176549356E+01 -0.29363823212E+02  0.10253255846E+03  0.00000000000E+00 0.  1.
         11    1    1    2    0    0 -0.59358335070E+02  0.66452460725E+02  0.26353652774E+02  0.92918547627E+02  0.00000000000E+00 0. -1.
<mgrwt>
<rscale>  0 0.20838776E+03</rscale>
<asrwt>0</asrwt>
<pdfrwt beam="1">  1        1 0.28007664E-01 0.21289596E+03</pdfrwt>
<pdfrwt beam="2">  1       -1 0.35576988E-01 0.21289596E+03</pdfrwt>
<totfact> 0.12511660E+03</totfact>
</mgrwt>
</event>
<event>
 6    1  0.9240440E-006  0.1223880E+03  0.7546771E-02  0.1247931E+00
          1   -1    0    0  501    0  0.00000000000E+00  0.00000000000E+00  0.57504565298E+02  0.57504565298E+02  0.00000000000E+00 0. -1.
         -1   -1    0    0    0  501 -0.00000000000E+00 -0.00000000000E+00 -0.32160556655E+03  0.32160556655E+03  0.00000000000E+00 0.  1.
          5    1    1    2  502    0 -0.72128799186E+02  0.24653585431E+02 -0.30662493337E+02  0.82296059712E+02  0.47000000000E+01 0. -1.
         -5    1    1    2    0  502  0.42483574810E+02  0.12597696541E+02 -0.31241762298E+01  0.44669973851E+02  0.47000000000E+01 0.  1.
        -11    1    1    2    0    0  0.25632614894E+01 -0.51810971517E+02 -0.61063623822E+02  0.80123112978E+02  0.00000000000E+00 0. -1.
         11    1    1    2    0    0  0.27081962886E+02  0.14559689546E+02 -0.16925070786E+03  0.17202098530E+03  0.00000000000E+00 0.  1.
<mgrwt>
<rscale>  0 0.11711645E+03</rscale>
<asrwt>0</asrwt>
<pdfrwt beam="1">  1        1 0.88468562E-02 0.12238805E+03</pdfrwt>
<pdfrwt beam="2">  1       -1 0.49477780E-01 0.12238805E+03</pdfrwt>
<totfact> 0.30422122E+03</totfact>
</mgrwt>
</event>
<event>
 6    1  0.9240440E-006  0.1313738E+03  0.7546771E-02  0.1238986E+00
          1   -1    0    0  501    0  0.00000000000E+00  0.00000000000E+00  0.70986191962E+03  0.70986191962E+03  0.00000000000E+00 0. -1.
         -1   -1    0    0    0  501 -0.00000000000E+00 -0.00000000000E+00 -0.20177584101E+02  0.20177584101E+02  0.00000000000E+00 0.  1.
          5    1    1    2  502    0 -0.30140827585E+02 -0.45188367691E+02  0.21297939696E+03  0.21984715507E+03  0.47000000000E+01 0.  1.
         -5    1    1    2    0  502  0.43040977401E+01  0.76450857949E+02  0.27227814712E+03  0.28287937065E+03  0.47000000000E+01 0.  1.
        -11    1    1    2    0    0  0.30063982448E+01 -0.43674112185E+02  0.19470848577E+03  0.19956918835E+03  0.00000000000E+00 0. -1.
         11    1    1    2    0    0  0.22830331600E+02  0.12411621927E+02  0.97183056722E+01  0.27743789665E+02  0.00000000000E+00 0.  1.
<mgrwt>
<rscale>  0 0.12252678E+03</rscale>
<asrwt>0</asrwt>
<pdfrwt beam="1">  1        1 0.10920951E+00 0.13137380E+03</pdfrwt>
<pdfrwt beam="2">  1       -1 0.31042443E-02 0.13137380E+03</pdfrwt>
<totfact> 0.94770642E+03</totfact>
</mgrwt>
</event>
<event>
 6    1  0.9240440E-006  0.1403442E+03  0.7546771E-02  0.1224050E+00
         -1   -1    0    0    0  501 -0.00000000000E+00  0.00000000000E+00  0.11247973737E+02  0.11247973737E+02  0.00000000000E+00 0.  1.
          1   -1    0    0  501    0  0.00000000000E+00 -0.00000000000E+00 -0.15552550790E+04  0.15552550790E+04  0.00000000000E+00 0. -1.
          5    1    1    2  502    0 -0.28499616731E+02  0.91507805024E+01 -0.95357809453E+02  0.10005581823E+03  0.47000000000E+01 0. -1.
         -5    1    1    2    0  502  0.76997827551E+02 -0.50659042668E+02 -0.10017492919E+04  0.10059914203E+04  0.47000000000E+01 0. -1.
        -11    1    1    2    0    0 -0.46101486583E+01 -0.17768351430E+02 -0.19665506940E+02  0.26901671814E+02  0.00000000000E+00 0.  1.
         11    1    1    2    0    0 -0.43888062161E+02  0.59276613596E+02 -0.42723449704E+03  0.43355414239E+03  0.00000000000E+00 0. -1.
<mgrwt>
<rscale>  0 0.13232253E+03</rscale>
<asrwt>0</asrwt>
<pdfrwt beam="2">  1        1 0.23926990E+00 0.14034423E+03</pdfrwt>
<pdfrwt beam="1">  1       -1 0.17304583E-02 0.14034423E+03</pdfrwt>
<totfact> 0.54833576E+03</totfact>
</mgrwt>
</event>
<event>
 6    1  0.9240440E-006  0.1462202E+03  0.7546771E-02  0.1214440E+00
         -2   -1    0    0    0  501 -0.00000000000E+00  0.00000000000E+00  0.38178600718E+03  0.38178600718E+03  0.00000000000E+00 0.  1.
          2   -1    0    0  501    0  0.00000000000E+00 -0.00000000000E+00 -0.91569425768E+02  0.91569425768E+02  0.00000000000E+00 0. -1.
          5    1    1    2  502    0 -0.26879598238E+02  0.10032635824E+02  0.52166965824E+02  0.59721427531E+02  0.47000000000E+01 0. -1.
         -5    1    1    2    0  502 -0.10084357263E+02  0.56219261584E+02 -0.65610256738E+02  0.87115414387E+02  0.47000000000E+01 0. -1.
        -11    1    1    2    0    0 -0.25577666370E+02 -0.45075830800E+02  0.16483756520E+03  0.17279314350E+03  0.00000000000E+00 0.  1.
         11    1    1    2    0    0  0.62541621871E+02 -0.21176066608E+02  0.13882230713E+03  0.15372544754E+03  0.00000000000E+00 0. -1.
<mgrwt>
<rscale>  0 0.13917777E+03</rscale>
<asrwt>0</asrwt>
<pdfrwt beam="2">  1        2 0.14087604E-01 0.14622016E+03</pdfrwt>
<pdfrwt beam="1">  1       -2 0.58736308E-01 0.14622016E+03</pdfrwt>
<totfact> 0.11388120E+03</totfact>
</mgrwt>
</event>
<event>
 6    1  0.9240440E-006  0.1709834E+03  0.7546771E-02  0.1183547E+00
          2   -1    0    0  501    0  0.00000000000E+00  0.00000000000E+00  0.10767628664E+04  0.10767628664E+04  0.00000000000E+00 0. -1.
         -2   -1    0    0    0  501 -0.00000000000E+00 -0.00000000000E+00 -0.31877299038E+02  0.31877299038E+02  0.00000000000E+00 0.  1.
          5    1    1    2  502    0 -0.76853695013E+02 -0.79453619910E+01  0.71527272612E+03  0.71944894325E+03  0.47000000000E+01 0. -1.
         -5    1    1    2    0  502 -0.33070474343E+02  0.47052178274E+02  0.12010305100E+03  0.13324562512E+03  0.47000000000E+01 0. -1.
        -11    1    1    2    0    0  0.10157756913E+03 -0.62418422129E+02  0.15085912179E+03  0.19228243965E+03  0.00000000000E+00 0.  1.
         11    1    1    2    0    0  0.83466002239E+01  0.23311605846E+02  0.58650668465E+02  0.63663157429E+02  0.00000000000E+00 0. -1.
<mgrwt>
<rscale>  0 0.16464818E+03</rscale>
<asrwt>0</asrwt>
<pdfrwt beam="1">  1        2 0.16565580E+00 0.17098344E+03</pdfrwt>
<pdfrwt beam="2">  1       -2 0.49042007E-02 0.17098344E+03</pdfrwt>
<totfact> 0.46909419E+03</totfact>
</mgrwt>
</event>
<event>
 6    1  0.9240440E-006  0.2077346E+03  0.7546771E-02  0.1165274E+00
         -2   -1    0    0    0  501 -0.00000000000E+00  0.00000000000E+00  0.15688009377E+02  0.15688009377E+02  0.00000000000E+00 0.  1.
          2   -1    0    0  501    0  0.00000000000E+00 -0.00000000000E+00 -0.18948667778E+04  0.18948667778E+04  0.00000000000E+00 0. -1.
          5    1    1    2  502    0 -0.10862587282E+03 -0.47530979877E+02 -0.12427767019E+04  0.12484289307E+04  0.47000000000E+01 0. -1.
         -5    1    1    2    0  502  0.24053639862E+02  0.51974888359E+02 -0.16790132470E+03  0.17746242264E+03  0.47000000000E+01 0.  1.
        -11    1    1    2    0    0  0.74115068880E+02 -0.40502103548E+02 -0.28003542326E+03  0.29249496083E+03  0.00000000000E+00 0.  1.
         11    1    1    2    0    0  0.10457164074E+02  0.36058195066E+02 -0.18846531864E+03  0.19216847307E+03  0.00000000000E+00 0. -1.
<mgrwt>
<rscale>  0 0.18263827E+03</rscale>
<asrwt>0</asrwt>
<pdfrwt beam="2">  1        2 0.29151785E+00 0.20773458E+03</pdfrwt>
<pdfrwt beam="1">  1       -2 0.24135408E-02 0.20773458E+03</pdfrwt>
<totfact> 0.49277369E+03</totfact>
</mgrwt>
</event>
<event>
 6    1  0.9240440E-006  0.2536946E+03  0.7546771E-02  0.1110992E+00
          3   -1    0    0  501    0  0.00000000000E+00  0.00000000000E+00  0.22902005531E+02  0.22902005531E+02  0.00000000000E+00 0. -1.
         -3   -1    0    0    0  501 -0.00000000000E+00 -0.00000000000E+00 -0.70256867362E+03  0.70256867362E+03  0.00000000000E+00 0.  1.
          5    1    1    2  502    0 -0.26823807663E+02  0.71641940955E+02 -0.91325674695E+02  0.11922480119E+03  0.47000000000E+01 0.  1.
         -5    1    1    2    0  502  0.31579660859E+02 -0.25199289837E+02 -0.16267448824E+03  0.16768231365E+03  0.47000000000E+01 0.  1.
        -11    1    1    2    0    0 -0.48273992295E+02 -0.14956802771E+02 -0.17192228041E+03  0.17919641397E+03  0.00000000000E+00 0. -1.
         11    1    1    2    0    0  0.43518139099E+02 -0.31485848347E+02 -0.25374422475E+03  0.25936715033E+03  0.00000000000E+00 0.  1.
<mgrwt>
<rscale>  0 0.25369455E+03</rscale>
<asrwt>0</asrwt>
<pdfrwt beam="1">  1        3 0.35233857E-02 0.25369455E+03</pdfrwt>
<pdfrwt beam="2">  1       -3 0.10808748E+00 0.25369455E+03</pdfrwt>
<totfact> 0.75429933E+02</totfact>
</mgrwt>
</event>
<event>
 6    1  0.9240440E-006  0.3468465E+03  0.7546771E-02  0.1063917E+00
         -1   -1    0    0    0  501 -0.00000000000E+00  0.00000000000E+00  0.25327327645E+02  0.25327327645E+02  0.00000000000E+00 0.  1.
          1   -1    0    0  501    0  0.00000000000E+00 -0.00000000000E+00 -0.11874771894E+04  0.11874771894E+04  0.00000000000E+00 0. -1.
          5    1    1    2  502    0 -0.20913495091E+02 -0.24711845978E+02 -0.18012185363E+03  0.18306835271E+03  0.47000000000E+01 0.  1.
         -5    1    1    2    0  502  0.10518406463E+03  0.62520124314E+02 -0.77841807317E+03  0.78799063449E+03  0.47000000000E+01 0.  1.
        -11    1    1    2    0    0 -0.39966198392E+02 -0.38301335386E+02 -0.30803504791E+02  0.63349390002E+02  0.00000000000E+00 0. -1.
         11    1    1    2    0    0 -0.44304371147E+02  0.49305704954E+00 -0.17280643020E+03  0.17839613988E+03  0.00000000000E+00 0.  1.
<mgrwt>
<rscale>  0 0.34684650E+03</rscale>
<asrwt>0</asrwt>
<pdfrwt beam="2">  1        1 0.18268873E+00 0.34684650E+03</pdfrwt>
<pdfrwt beam="1">  1       -1 0.38965134E-02 0.34684650E+03</pdfrwt>
<totfact> 0.29943709E+03</totfact>
</mgrwt>
</event>
<event>
 6    1  0.9240440E-006  0.3109130E+03  0.7546771E-02  0.1079909E+00
         -2   -1    0    0    0  501 -0.00000000000E+00  0.00000000000E+00  0.53455083772E+03  0.53455083772E+03  0.00000000000E+00 0. -1.
          2   -1    0    0  501    0  0.00000000000E+00 -0.00000000000E+00 -0.45209391924E+02  0.45209391924E+02  0.00000000000E+00 0.  1.
          5    1    1    2  502    0 -0.17161908478E+02 -0.12963732248E+03  0.15545025106E+03  0.20319261068E+03  0.47000000000E+01 0.  1.
         -5    1    1    2    0  502  0.27061155601E+01  0.28754741822E+02  0.22066626579E+02  0.36649478131E+02  0.47000000000E+01 0.  1.
        -11    1    1    2    0    0  0.14075711922E+01  0.44093397359E+02  0.25408675597E+03  0.25788813176E+03  0.00000000000E+00 0. -1.
         11    1    1    2    0    0  0.13048221725E+02  0.56789183301E+02  0.57737812196E+02  0.82030009066E+02  0.00000000000E+00 0.  1.
<mgrwt>
<rscale>  0 0.31091297E+03</rscale>
<asrwt>0</asrwt>
<pdfrwt beam="2">  1        2 0.69552915E-02 0.31091297E+03</pdfrwt>
<pdfrwt beam="1">  1       -2 0.82238586E-01 0.31091297E+03</pdfrwt>
<totfact> 0.13682606E+03</totfact>
</mgrwt>
</event>
<event>
 6    1  0.9240440E-006  0.1663850E+03  0.7546771E-02  0.1188369E+00
         -2   -1    0    0    0  501 -0.00000000000E+00  0.00000000000E+00  0.47624684328E+03  0.47624684328E+03  0.00000000000E+00 0.  1.
          2   -1    0    0  501    0  0.00000000000E+00 -0.00000000000E+00 -0.65693394707E+02  0.65693394707E+02  0.00000000000E+00 0. -1.
          5    1    1    2  502    0  0.57281715382E+02 -0.53675834587E+02  0.48055927148E+02  0.92161555270E+02  0.47000000000E+01 0.  1.
         -5    1    1    2    0  502  0.51229930516E+02  0.70483194013E+02  0.38258665849E+02  0.95279598716E+02  0.47000000000E+01 0.  1.
        -11    1    1    2    0    0 -0.71272962797E+02  0.42619608869E+01  0.29286472655E+03  0.30144277665E+03  0.00000000000E+00 0.  1.
         11    1    1    2    0    0 -0.37238683101E+02 -0.21069320313E+02  0.31374129022E+02  0.53056307348E+02  0.00000000000E+00 0. -1.
<mgrwt>
<rscale>  0 0.16029039E+03</rscale>
<asrwt>0</asrwt>
<pdfrwt beam="2">  1        2 0.10106676E-01 0.16638503E+03</pdfrwt>
<pdfrwt beam="1">  1       -2 0.73268743E-01 0.16638503E+03</pdfrwt>
<totfact> 0.10741811E+03</totfact>
</mgrwt>
</event>
<event>
 6    1  0.9240440E-006  0.1269518E+03  0.7546771E-02  0.1245406E+00
         -1   -1    0    0    0  501 -0.00000000000E+00  0.00000000000E+00  0.13486632053E+02  0.13486632053E+02  0.00000000000E+00 0. -1.
          1   -1    0    0  501    0  0.00000000000E+00 -0.00000000000E+00 -0.95115028596E+03  0.95115028596E+03  0.00000000000E+00 0.  1.
          5    1    1    2  502    0 -0.18490934593E+02  0.46789447829E+02 -0.32960800105E+03  0.33345868027E+03  0.47000000000E+01 0.  1.
         -5    1    1    2    0  502  0.22099255548E+02 -0.68695317694E+02 -0.27635175079E+03  0.28565679395E+03  0.47000000000E+01 0.  1.
        -11    1    1    2    0    0  0.32027477302E+02 -0.22978644785E+02 -0.13704099940E+03  0.14259738053E+03  0.00000000000E+00 0. -1.
         11    1    1    2    0    0 -0.35635798257E+02  0.44884514649E+02 -0.19466290267E+03  0.20292406326E+03  0.00000000000E+00 0.  1.
<mgrwt>
<rscale>  0 0.11861088E+03</rscale>
<asrwt>0</asrwt>
<pdfrwt beam="2">  1        1 0.14633078E+00 0.12695176E+03</pdfrwt>
<pdfrwt beam="1">  1       -1 0.20748669E-02 0.12695176E+03</pdfrwt>
<totfact> 0.10844949E+04</totfact>
</mgrwt>
</event>
<event>
 6    1  0.9240440E-006  0.1280454E+03  0.7546771E-02  0.1250167E+00
          1   -1    0    0  501    0  0.00000000000E+00  0.00000000000E+00  0.77439168333E+03  0.77439168333E+03  0.00000000000E+00 0. -1.
         -1   -1    0    0    0  501 -0.00000000000E+00 -0.00000000000E+00 -0.14748533848E+02  0.14748533848E+02  0.00000000000E+00 0.  1.
          5    1    1    2  502    0  0.55013875322E+02  0.14965437330E+02  0.12527813446E+03  0.13772142813E+03  0.47000000000E+01 0.  1.
         -5    1    1    2    0  502 -0.43101795666E+02 -0.40034254525E+02  0.32931479229E+03  0.33456065032E+03  0.47000000000E+01 0.  1.
        -11    1    1    2    0    0 -0.81170639403E+01 -0.29700658606E+02  0.10829424533E+03  0.11258623104E+03  0.00000000000E+00 0.  1.
         11    1    1    2    0    0 -0.37950157159E+01  0.54769475801E+02  0.19675597740E+03  0.20427190768E+03  0.00000000000E+00 0. -1.
<mgrwt>
<rscale>  0 0.11581386E+03</rscale>
<asrwt>0</asrwt>
<pdfrwt beam="1">  1        1 0.11913715E+00 0.12804543E+03</pdfrwt>
<pdfrwt beam="2">  1       -1 0.22690058E-02 0.12804543E+03</pdfrwt>
<totfact> 0.13128221E+04</totfact>
</mgrwt>
</event>
<event>
 6    1  0.9240440E-006  0.1395005E+03  0.7546771E-02  0.1223103E+00
         -4   -1    0    0    0  501 -0.00000000000E+00  0.00000000000E+00  0.59466813431E+02  0.59466813431E+02  0.00000000000E+00 0.  1.
          4   -1    0    0  501    0  0.00000000000E+00 -0.00000000000E+00 -0.35423580823E+03  0.35423580823E+03  0.00000000000E+00 0. -1.
          5    1    1    2  502    0  0.23502988017E+02 -0.35284897374E+02 -0.78399294862E+02  0.89252192484E+02  0.47000000000E+01 0.  1.
         -5    1    1    2    0  502 -0.11512274990E+02  0.96043061650E+02 -0.17871555864E+03  0.20326864752E+03  0.47000000000E+01 0.  1.
        -11    1    1    2    0    0 -0.34544799986E+02 -0.29183437282E-01  0.15038278019E+02  0.37676171031E+02  0.00000000000E+00 0.  1.
         11    1    1    2    0    0  0.22554086959E+02 -0.60728980839E+02 -0.52692419324E+02  0.83505610629E+02  0.00000000000E+00 0. -1.
<mgrwt>
<rscale>  0 0.13297783E+03</rscale>
<asrwt>0</asrwt>
<pdfrwt beam="2">  1        4 0.54497815E-01 0.13950052E+03</pdfrwt>
<pdfrwt beam="1">  1       -4 0.91487408E-02 0.13950052E+03</pdfrwt>
<totfact> 0.47782212E+02</totfact>
</mgrwt>
</event>
<event>
 6    1  0.9240440E-006  0.1564179E+03  0.7546771E-02  0.1200475E+00
          2   -1    0    0  501    0  0.00000000000E+00  0.00000000000E+00  0.12770735234E+04  0.12770735234E+04  0.00000000000E+00 0.  1.
         -2   -1    0    0    0  501 -0.00000000000E+00 -0.00000000000E+00 -0.42993318015E+02  0.42993318015E+02  0.00000000000E+00 0. -1.
          5    1    1    2  502    0 -0.46098802099E+02  0.26626931480E+02  0.81862615783E+03  0.82036880079E+03  0.47000000000E+01 0.  1.
         -5    1    1    2    0  502  0.38502234810E+02  0.67107166884E+02  0.33722887199E+03  0.34602195889E+03  0.47000000000E+01 0.  1.
        -11    1    1    2    0    0  0.35048561531E+02 -0.70679377576E+02  0.86303422364E+02  0.11692842593E+03  0.00000000000E+00 0.  1.
         11    1    1    2    0    0 -0.27451994242E+02 -0.23054720787E+02 -0.80782467580E+01  0.36747655832E+02  0.00000000000E+00 0. -1.
<mgrwt>
<rscale>  0 0.14999810E+03</rscale>
<asrwt>0</asrwt>
<pdfrwt beam="1">  1        2 0.19647282E+00 0.15641788E+03</pdfrwt>
<pdfrwt beam="2">  1       -2 0.66143576E-02 0.15641788E+03</pdfrwt>
<totfact> 0.22932044E+03</totfact>
</mgrwt>
</event>
<event>
 6    1  0.9240440E-006  0.2943055E+03  0.7546771E-02  0.1088122E+00
          4   -1    0    0  501    0  0.00000000000E+00  0.00000000000E+00  0.13226868463E+03  0.13226868463E+03  0.00000000000E+00 0. -1.
         -4   -1    0    0    0  501 -0.00000000000E+00 -0.00000000000E+00 -0.16371173279E+03  0.16371173279E+03  0.00000000000E+00 0.  1.
          5    1    1    2  502    0 -0.55881862921E+01 -0.29661919837E+02  0.59170377550E+02  0.66590396409E+02  0.47000000000E+01 0.  1.
         -5    1    1    2    0  502  0.61206908511E+02  0.60028620732E+02  0.84600254044E+00  0.85863418735E+02  0.47000000000E+01 0.  1.
        -11    1    1    2    0    0 -0.52541595349E+02  0.16570773045E+02 -0.21318909881E+02  0.59073730876E+02  0.00000000000E+00 0. -1.
         11    1    1    2    0    0 -0.30771268699E+01 -0.46937473940E+02 -0.70140518368E+02  0.84452871394E+02  0.00000000000E+00 0.  1.
<mgrwt>
<rscale>  0 0.29430553E+03</rscale>
<asrwt>0</asrwt>
<pdfrwt beam="1">  1        4 0.20349028E-01 0.29430553E+03</pdfrwt>
<pdfrwt beam="2">  1       -4 0.25186420E-01 0.29430553E+03</pdfrwt>
<totfact> 0.61098193E+02</totfact>
</mgrwt>
</event>
<event>
 6    1  0.9240440E-006  0.1496480E+03  0.7546771E-02  0.1210077E+00
          2   -1    0    0  501    0  0.00000000000E+00  0.00000000000E+00  0.74059170565E+03  0.74059170565E+03  0.00000000000E+00 0. -1.
         -2   -1    0    0    0  501 -0.00000000000E+00 -0.00000000000E+00 -0.29175939953E+02  0.29175939953E+02  0.00000000000E+00 0.  1.
          5    1    1    2  502    0 -0.18679462307E+01 -0.71234976316E+02  0.20593069315E+03  0.21796204132E+03  0.47000000000E+01 0.  1.
         -5    1    1    2    0  502  0.70727959049E+02  0.26202310821E+02  0.32368559007E+03  0.33239051807E+03  0.47000000000E+01 0.  1.
        -11    1    1    2    0    0 -0.69559364925E+02 -0.75337314283E+01  0.96002939446E+02  0.11879320999E+03  0.00000000000E+00 0. -1.
         11    1    1    2    0    0  0.69935210676E+00  0.52566396923E+02  0.85796543034E+02  0.10062187623E+03  0.00000000000E+00 0.  1.
<mgrwt>
<rscale>  0 0.14244471E+03</rscale>
<asrwt>0</asrwt>
<pdfrwt beam="1">  1        2 0.11393717E+00 0.14964803E+03</pdfrwt>
<pdfrwt beam="2">  1       -2 0.44886067E-02 0.14964803E+03</pdfrwt>
<totfact> 0.87241600E+03</totfact>
</mgrwt>
</event>
<event>
 6    1  0.9240440E-006  0.1794774E+03  0.7546771E-02  0.1174107E+00
          2   -1    0    0  501    0  0.00000000000E+00  0.00000000000E+00  0.16004790277E+04  0.16004790277E+04  0.00000000000E+00 0.  1.
         -2   -1    0    0    0  501 -0.00000000000E+00 -0.00000000000E+00 -0.27625360994E+02  0.27625360994E+02  0.00000000000E+00 0. -1.
          5    1    1    2  502    0  0.49603188039E+02  0.13335064350E+02  0.81652163601E+03  0.81814911372E+03  0.47000000000E+01 0. -1.
         -5    1    1    2    0  502  0.57462195625E+02 -0.84980856591E+02  0.49024859664E+03  0.50088863675E+03  0.47000000000E+01 0. -1.
        -11    1    1    2    0    0 -0.63113981363E+02  0.12889488615E+01  0.60757786717E+02  0.87615892847E+02  0.00000000000E+00 0. -1.
         11    1    1    2    0    0 -0.43951402300E+02  0.70356843380E+02  0.20532564730E+03  0.22145074535E+03  0.00000000000E+00 0.  1.
<mgrwt>
<rscale>  0 0.17363704E+03</rscale>
<asrwt>0</asrwt>
<pdfrwt beam="1">  1        2 0.24622747E+00 0.17947743E+03</pdfrwt>
<pdfrwt beam="2">  1       -2 0.42500568E-02 0.17947743E+03</pdfrwt>
<totfact> 0.30194161E+03</totfact>
</mgrwt>
</event>
<event>
 6    1  0.9240440E-006  0.1493140E+03  0.7546771E-02  0.1210421E+00
          2   -1    0    0  501    0  0.00000000000E+00  0.00000000000E+00  0.64140202979E+03  0.64140202979E+03  0.00000000000E+00 0.  1.
         -2   -1    0    0    0  501 -0.00000000000E+00 -0.00000000000E+00 -0.41743504824E+02  0.41743504824E+02  0.00000000000E+00 0. -1.
          5    1    1    2  502    0 -0.45290929969E+02  0.34760703291E+02  0.79440715255E+02  0.97941268478E+02  0.47000000000E+01 0. -1.
         -5    1    1    2    0  502  0.23916876101E+02  0.44053875836E+02  0.42978328021E+03  0.43272221908E+03  0.47000000000E+01 0. -1.
        -11    1    1    2    0    0  0.49749064993E+02 -0.14040501970E+02  0.32461787849E+02  0.61039928191E+02  0.00000000000E+00 0. -1.
         11    1    1    2    0    0 -0.28375011125E+02 -0.64774077157E+02  0.57972741655E+02  0.91442118867E+02  0.00000000000E+00 0.  1.
<mgrwt>
<rscale>  0 0.14218311E+03</rscale>
<asrwt>0</asrwt>
<pdfrwt beam="1">  1        2 0.98677228E-01 0.14931396E+03</pdfrwt>
<pdfrwt beam="2">  1       -2 0.64220782E-02 0.14931396E+03</pdfrwt>
<totfact> 0.60219471E+03</totfact>
</mgrwt>
</event>
<event>
 6    1  0.9240440E-006  0.1582691E+03  0.7546771E-02  0.1198663E+00
         -1   -1    0    0    0  501 -0.00000000000E+00  0.00000000000E+00  0.35610133608E+03  0.35610133608E+03  0.00000000000E+00 0.  1.
          1   -1    0    0  501    0  0.00000000000E+00 -0.00000000000E+00 -0.60000698055E+02  0.60000698055E+02  0.00000000000E+00 0. -1.
          5    1    1    2  502    0  0.29452226312E+01  0.11175382213E+02 -0.16443631260E+02  0.20640894190E+02  0.47000000000E+01 0.  1.
         -5    1    1    2    0  502 -0.45354220545E+02 -0.98469977767E+02  0.15813666299E+03  0.19178799760E+03  0.47000000000E+01 0.  1.
        -11    1    1    2    0    0 -0.14229258197E+02 -0.97856914161E+01  0.78235814173E+01  0.18958902171E+02  0.00000000000E+00 0.  1.
         11    1    1    2    0    0  0.56638256110E+02  0.97080286970E+02  0.14658402488E+03  0.18471424017E+03  0.00000000000E+00 0. -1.
<mgrwt>
<rscale>  0 0.15148258E+03</rscale>
<asrwt>0</asrwt>
<pdfrwt beam="2">  1        1 0.92308768E-02 0.15826913E+03</pdfrwt>
<pdfrwt beam="1">  1       -1 0.54784820E-01 0.15826913E+03</pdfrwt>
<totfact> 0.24139469E+03</totfact>
</mgrwt>
</event>
<event>
 6    1  0.9240440E-006  0.1284958E+03  0.7546771E-02  0.1244066E+00
         -2   -1    0    0    0  501 -0.00000000000E+00  0.00000000000E+00  0.25451432845E+02  0.25451432845E+02  0.00000000000E+00 0.  1.
          2   -1    0    0  501    0  0.00000000000E+00 -0.00000000000E+00 -0.50036678735E+03  0.50036678735E+03  0.00000000000E+00 0. -1.
          5    1    1    2  502    0  0.23253290235E+02 -0.10168972540E+02 -0.25984544342E+03  0.26112423858E+03  0.47000000000E+01 0.  1.
         -5    1    1    2    0  502 -0.34835054898E+02  0.37585106711E+02 -0.40276478772E+02  0.65348343808E+02  0.47000000000E+01 0.  1.
        -11    1    1    2    0    0  0.36105065256E+02  0.17895143065E+02 -0.10597492503E+03  0.11337767248E+03  0.00000000000E+00 0.  1.
         11    1    1    2    0    0 -0.24523300593E+02 -0.45311277236E+02 -0.68818507283E+02  0.85967965321E+02  0.00000000000E+00 0. -1.
<mgrwt>
<rscale>  0 0.11941454E+03</rscale>
<asrwt>0</asrwt>
<pdfrwt beam="2">  1        2 0.76979497E-01 0.12849583E+03</pdfrwt>
<pdfrwt beam="1">  1       -2 0.39156055E-02 0.12849583E+03</pdfrwt>
<totfact> 0.16587482E+04</totfact>
</mgrwt>
</event>
<event>
 6    1  0.9240440E-006  0.3512694E+03  0.7546771E-02  0.1062095E+00
         -2   -1    0    0    0  501 -0.00000000000E+00  0.00000000000E+00  0.16785512541E+03  0.16785512541E+03  0.00000000000E+00 0.  1.
          2   -1    0    0  501    0  0.00000000000E+00 -0.00000000000E+00 -0.18377483052E+03  0.18377483052E+03  0.00000000000E+00 0. -1.
          5    1    1    2  502    0  0.28592263656E+02  0.14556601249E+02 -0.11673995238E+03  0.12115988884E+03  0.47000000000E+01 0. -1.
         -5    1    1    2    0  502 -0.56086850182E+02 -0.15697591285E+02 -0.32470274504E+02  0.66847272658E+02  0.47000000000E+01 0.  1.
        -11    1    1    2    0    0  0.43017315680E+01  0.35979771019E+02  0.16991135152E+02  0.40021837675E+02  0.00000000000E+00 0.  1.
         11    1    1    2    0    0  0.23192854958E+02 -0.34838780984E+02  0.11629938662E+03  0.12360095675E+03  0.00000000000E+00 0. -1.
<mgrwt>
<rscale>  0 0.35126940E+03</rscale>
<asrwt>0</asrwt>
<pdfrwt beam="2">  1        2 0.28273051E-01 0.35126940E+03</pdfrwt>
<pdfrwt beam="1">  1       -2 0.25823866E-01 0.35126940E+03</pdfrwt>
<totfact> 0.25240315E+03</totfact>
</mgrwt>
</event>
<event>
 6    1  0.9240440E-006  0.1314346E+03  0.7546771E-02  0.1239469E+00
         -2   -1    0    0    0  501 -0.00000000000E+00  0.00000000000E+00  0.62798953310E+02  0.62798953310E+02  0.00000000000E+00 0.  1.
          2   -1    0    0  501    0  0.00000000000E+00 -0.00000000000E+00 -0.22380270995E+03  0.22380270995E+03  0.00000000000E+00 0. -1.
          5    1    1    2  502    0  0.69023957739E+02 -0.27873088415E+02 -0.98909697776E+02  0.12388072535E+03  0.47000000000E+01 0.  1.
         -5    1    1    2    0  502 -0.30677903615E+02  0.41267302109E+02 -0.27610061258E+02  0.58553646140E+02  0.47000000000E+01 0.  1.
        -11    1    1    2    0    0  0.28005317873E+02 -0.14098008365E+02 -0.16441211014E+02  0.35402896614E+02  0.00000000000E+00 0. -1.
         11    1    1    2    0    0 -0.66351371998E+02  0.70379467085E+00 -0.18042786593E+02  0.68764395154E+02  0.00000000000E+00 0.  1.
<mgrwt>
<rscale>  0 0.12222606E+03</rscale>
<asrwt>0</asrwt>
<pdfrwt beam="2">  1        2 0.34431186E-01 0.13143459E+03</pdfrwt>
<pdfrwt beam="1">  1       -2 0.96613774E-02 0.13143459E+03</pdfrwt>
<totfact> 0.99424680E+03</totfact>
</mgrwt>
</event>
<event>
 6    1  0.9240440E-006  0.3532305E+03  0.7546771E-02  0.1061297E+00
         -2   -1    0    0    0  501 -0.00000000000E+00  0.00000000000E+00  0.57212050208E+02  0.57212050208E+02  0.00000000000E+00 0.  1.
          2   -1    0    0  501    0  0.00000000000E+00 -0.00000000000E+00 -0.54521633158E+03  0.54521633158E+03  0.00000000000E+00 0. -1.
          5    1    1    2  502    0  0.29764644135E+02 -0.13203890507E+02 -0.34077077801E+02  0.47366802684E+02  0.47000000000E+01 0.  1.
         -5    1    1    2    0  502 -0.17229006300E+02  0.89512620812E+02 -0.42402677921E+03  0.43373972314E+03  0.47000000000E+01 0.  1.
        -11    1    1    2    0    0  0.25518223947E+02 -0.34084782855E+02  0.18729978718E+02  0.46516279714E+02  0.00000000000E+00 0.  1.
         11    1    1    2    0    0 -0.38053861781E+02 -0.42223947450E+02 -0.48630403085E+02  0.74805576256E+02  0.00000000000E+00 0. -1.
<mgrwt>
<rscale>  0 0.35323049E+03</rscale>
<asrwt>0</asrwt>
<pdfrwt beam="2">  1        2 0.83879433E-01 0.35323049E+03</pdfrwt>
<pdfrwt beam="1">  1       -2 0.88018542E-02 0.35323049E+03</pdfrwt>
<totfact> 0.46044935E+03</totfact>
</mgrwt>
</event>
<event>
 6    1  0.9240440E-006  0.1656054E+03  0.7546771E-02  0.1189731E+00
          2   -1    0    0  501    0  0.00000000000E+00  0.00000000000E+00  0.94931015863E+02  0.94931015863E+02  0.00000000000E+00 0.  1.
         -2   -1    0    0    0  501 -0.00000000000E+00 -0.00000000000E+00 -0.33244280448E+03  0.33244280448E+03  0.00000000000E+00 0. -1.
          5    1    1    2  502    0 -0.51682702714E+00  0.58662469351E+02  0.53046054309E+02  0.79230841838E+02  0.47000000000E+01 0.  1.
         -5    1    1    2    0  502 -0.94410283533E+01  0.49507090580E+02 -0.71210581836E+02  0.87367740038E+02  0.47000000000E+01 0.  1.
        -11    1    1    2    0    0  0.22025465742E+02 -0.86700830442E+02 -0.21853390558E+03  0.23613390911E+03  0.00000000000E+00 0. -1.
         11    1    1    2    0    0 -0.12067610361E+02 -0.21468729489E+02 -0.81335551374E+00  0.24641329365E+02  0.00000000000E+00 0.  1.
<mgrwt>
<rscale>  0 0.15908767E+03</rscale>
<asrwt>0</asrwt>
<pdfrwt beam="1">  1        2 0.14604772E-01 0.16560537E+03</pdfrwt>
<pdfrwt beam="2">  1       -2 0.51145047E-01 0.16560537E+03</pdfrwt>
<totfact> 0.14500979E+03</totfact>
</mgrwt>
</event>
<event>
 6    1  0.9240440E-006  0.2301777E+03  0.7546771E-02  0.1126515E+00
         -1   -1    0    0    0  501 -0.00000000000E+00  0.00000000000E+00  0.34377536831E+03  0.34377536831E+03  0.00000000000E+00 0.  1.
          1   -1    0    0  501    0  0.00000000000E+00 -0.00000000000E+00 -0.38529369138E+02  0.38529369138E+02  0.00000000000E+00 0. -1.
          5    1    1    2  502    0  0.26643113219E+02  0.35972952009E+02  0.15594871419E+03  0.16231451018E+03  0.47000000000E+01 0.  1.
         -5    1    1    2    0  502 -0.14355131584E+02 -0.48894484870E+01 -0.19889219457E+02  0.25448920604E+02  0.47000000000E+01 0.  1.
        -11    1    1    2    0    0 -0.28085199044E+02  0.43719015767E+01  0.14722516370E+03  0.14994379198E+03  0.00000000000E+00 0.  1.
         11    1    1    2    0    0  0.15797217409E+02 -0.35455405099E+02  0.21961340747E+02  0.44597514684E+02  0.00000000000E+00 0. -1.
<mgrwt>
<rscale>  0 0.23017774E+03</rscale>
<asrwt>0</asrwt>
<pdfrwt beam="2">  1        1 0.59275955E-02 0.23017774E+03</pdfrwt>
<pdfrwt beam="1">  1       -1 0.52888516E-01 0.23017774E+03</pdfrwt>
<totfact> 0.47939885E+03</totfact>
</mgrwt>
</event>
<event>
 6    1  0.9240440E-006  0.1275637E+03  0.7546771E-02  0.1242558E+00
          2   -1    0    0  501    0  0.00000000000E+00  0.00000000000E+00  0.94453484213E+02  0.94453484213E+02  0.00000000000E+00 0.  1.
         -2   -1    0    0    0  501 -0.00000000000E+00 -0.00000000000E+00 -0.14240979954E+03  0.14240979954E+03  0.00000000000E+00 0. -1.
          5    1    1    2  502    0 -0.68418280770E+02  0.26532293985E+02  0.11256791357E+02  0.74389711112E+02  0.47000000000E+01 0. -1.
         -5    1    1    2    0  502  0.42975905585E+02 -0.25646980781E+02 -0.17856515968E+02  0.53344552174E+02  0.47000000000E+01 0. -1.
        -11    1    1    2    0    0 -0.40201352832E+01  0.44097829800E+02 -0.31793384942E+02  0.54512378473E+02  0.00000000000E+00 0. -1.
         11    1    1    2    0    0  0.29462510468E+02 -0.44983143003E+02 -0.95632057697E+01  0.54616641989E+02  0.00000000000E+00 0.  1.
<mgrwt>
<rscale>  0 0.12032717E+03</rscale>
<asrwt>0</asrwt>
<pdfrwt beam="1">  1        2 0.14531305E-01 0.12756365E+03</pdfrwt>
<pdfrwt beam="2">  1       -2 0.21909200E-01 0.12756365E+03</pdfrwt>
<totfact> 0.68429283E+03</totfact>
</mgrwt>
</event>
<event>
 6    1  0.9240440E-006  0.1888407E+03  0.7546771E-02  0.1164111E+00
         -1   -1    0    0    0  501 -0.00000000000E+00  0.00000000000E+00  0.29105322343E+02  0.29105322343E+02  0.00000000000E+00 0.  1.
          1   -1    0    0  501    0  0.00000000000E+00 -0.00000000000E+00 -0.11812876983E+04  0.11812876983E+04  0.00000000000E+00 0. -1.
          5    1    1    2  502    0  0.32748569372E+02 -0.15965224056E+03 -0.67395306909E+03  0.69339464668E+03  0.47000000000E+01 0.  1.
         -5    1    1    2    0  502 -0.15996331259E+02  0.19100434319E+02 -0.85128316517E+02  0.88823586270E+02  0.47000000000E+01 0.  1.
        -11    1    1    2    0    0 -0.22633452179E+02  0.18915127453E+02 -0.19834386242E+02  0.35545155531E+02  0.00000000000E+00 0.  1.
         11    1    1    2    0    0  0.58812140668E+01  0.12163667879E+03 -0.37326660409E+03  0.39262963214E+03  0.00000000000E+00 0. -1.
<mgrwt>
<rscale>  0 0.18386781E+03</rscale>
<asrwt>0</asrwt>
<pdfrwt beam="2">  1        1 0.18173655E+00 0.18884071E+03</pdfrwt>
<pdfrwt beam="1">  1       -1 0.44777423E-02 0.18884071E+03</pdfrwt>
<totfact> 0.24423495E+03</totfact>
</mgrwt>
</event>
<event>
 6    1  0.9240440E-006  0.2614231E+03  0.7546771E-02  0.1106291E+00
         -2   -1    0    0    0  501 -0.00000000000E+00  0.00000000000E+00  0.13917270139E+03  0.13917270139E+03  0.00000000000E+00 0.  1.
          2   -1    0    0  501    0  0.00000000000E+00 -0.00000000000E+00 -0.12276484202E+03  0.12276484202E+03  0.00000000000E+00 0. -1.
          5    1    1    2  502    0 -0.20649261611E+01 -0.21027832804E+02  0.31919367153E+02  0.38566431932E+02  0.47000000000E+01 0.  1.
         -5    1    1    2    0  502  0.71433442253E+01  0.79102755305E+02 -0.66342083298E+02  0.10359360637E+03  0.47000000000E+01 0.  1.
        -11    1    1    2    0    0  0.31452614903E+02 -0.56719234495E+02  0.11120041321E+02  0.65802688888E+02  0.00000000000E+00 0. -1.
         11    1    1    2    0    0 -0.36531032967E+02 -0.13556880051E+01  0.39710534193E+02  0.53974816215E+02  0.00000000000E+00 0.  1.
<mgrwt>
<rscale>  0 0.26142314E+03</rscale>
<asrwt>0</asrwt>
<pdfrwt beam="2">  1        2 0.18886899E-01 0.26142314E+03</pdfrwt>
<pdfrwt beam="1">  1       -2 0.21411185E-01 0.26142314E+03</pdfrwt>
<totfact> 0.54876430E+03</totfact>
</mgrwt>
</event>
<event>
 6    1  0.9240440E-006  0.1479445E+03  0.7546771E-02  0.1212613E+00
         -1   -1    0    0    0  501 -0.00000000000E+00  0.00000000000E+00  0.10905631067E+03  0.10905631067E+03  0.00000000000E+00 0.  1.
          1   -1    0    0  501    0  0.00000000000E+00 -0.00000000000E+00 -0.20624323760E+03  0.20624323760E+03  0.00000000000E+00 0. -1.
          5    1    1    2  502    0  0.59436074820E+02  0.45536141898E+02 -0.15740902123E+02  0.76655418652E+02  0.47000000000E+01 0.  1.
         -5    1    1    2    0  502  0.19424878616E+02 -0.38918177148E+02 -0.10692107372E+03  0.11552556612E+03  0.47000000000E+01 0.  1.
        -11    1    1    2    0    0 -0.81514865218E+02 -0.33451703579E+02  0.34585446023E+02  0.94656446164E+02  0.00000000000E+00 0.  1.
         11    1    1    2    0    0  0.26539117815E+01  0.26833738829E+02 -0.91103971067E+01  0.28462117327E+02  0.00000000000E+00 0. -1.
<mgrwt>
<rscale>  0 0.14053339E+03</rscale>
<asrwt>0</asrwt>
<pdfrwt beam="2">  1        1 0.31729729E-01 0.14794448E+03</pdfrwt>
<pdfrwt beam="1">  1       -1 0.16777894E-01 0.14794448E+03</pdfrwt>
<totfact> 0.36621964E+03</totfact>
</mgrwt>
</event>
<event>
 6    1  0.9240440E-006  0.1273159E+03  0.7546771E-02  0.1246808E+00
         -1   -1    0    0    0  501 -0.00000000000E+00  0.00000000000E+00  0.23495706434E+02  0.23495706434E+02  0.00000000000E+00 0.  1.
          1   -1    0    0  501    0  0.00000000000E+00 -0.00000000000E+00 -0.52208699493E+03  0.52208699493E+03  0.00000000000E+00 0. -1.
          5    1    1    2  502    0  0.61367495546E+02 -0.19077461343E+02 -0.19664739830E+03  0.20693527562E+03  0.47000000000E+01 0. -1.
         -5    1    1    2    0  502 -0.46298605820E+02  0.37994660383E+02 -0.11581792924E+03  0.13047236432E+03  0.47000000000E+01 0. -1.
        -11    1    1    2    0    0 -0.43421326307E+02 -0.38314542223E+02 -0.10176336746E+03  0.11708628733E+03  0.00000000000E+00 0. -1.
         11    1    1    2    0    0  0.28352436582E+02  0.19397343184E+02 -0.84362593495E+02  0.91088774083E+02  0.00000000000E+00 0.  1.
<mgrwt>
<rscale>  0 0.11777803E+03</rscale>
<asrwt>0</asrwt>
<pdfrwt beam="2">  1        1 0.80321077E-01 0.12731589E+03</pdfrwt>
<pdfrwt beam="1">  1       -1 0.36147241E-02 0.12731589E+03</pdfrwt>
<totfact> 0.11527187E+04</totfact>
</mgrwt>
</event>
<event>
 6    1  0.9240440E-006  0.1264509E+03  0.7546771E-02  0.1240205E+00
         -1   -1    0    0    0  501 -0.00000000000E+00  0.00000000000E+00  0.66826622868E+02  0.66826622868E+02  0.00000000000E+00 0.  1.
          1   -1    0    0  501    0  0.00000000000E+00 -0.00000000000E+00 -0.21092329981E+03  0.21092329981E+03  0.00000000000E+00 0. -1.
          5    1    1    2  502    0 -0.77042453218E+01 -0.28468311113E+02 -0.10662069874E+03  0.11072426805E+03  0.47000000000E+01 0. -1.
         -5    1    1    2    0  502  0.28532448458E+01  0.46873752961E+02  0.10211131258E+02  0.48287130008E+02  0.47000000000E+01 0. -1.
        -11    1    1    2    0    0  0.47498837680E+02 -0.28782405665E+02 -0.22804651686E+01  0.55585672419E+02  0.00000000000E+00 0.  1.
         11    1    1    2    0    0 -0.42647837205E+02  0.10376963817E+02 -0.45406644286E+02  0.63152852205E+02  0.00000000000E+00 0. -1.
<mgrwt>
<rscale>  0 0.12177004E+03</rscale>
<asrwt>0</asrwt>
<pdfrwt beam="2">  1        1 0.32449739E-01 0.12645086E+03</pdfrwt>
<pdfrwt beam="1">  1       -1 0.10281019E-01 0.12645086E+03</pdfrwt>
<totfact> 0.75486256E+03</totfact>
</mgrwt>
</event>
<event>
 6    1  0.9240440E-006  0.1329726E+03  0.7546771E-02  0.1236042E+00
         -2   -1    0    0    0  501 -0.00000000000E+00  0.00000000000E+00  0.36031232505E+02  0.36031232505E+02  0.00000000000E+00 0.  1.
          2   -1    0    0  501    0  0.00000000000E+00 -0.00000000000E+00 -0.38264908465E+03  0.38264908465E+03  0.00000000000E+00 0. -1.
          5    1    1    2  502    0 -0.12000296740E+02  0.61032202352E+02 -0.44722812087E+02  0.76753871347E+02  0.47000000000E+01 0. -1.
         -5    1    1    2    0  502 -0.28717443622E+02 -0.41091034105E+02 -0.15679876748E+03  0.16468487525E+03  0.47000000000E+01 0. -1.
        -11    1    1    2    0    0 -0.17725501176E+02  0.17591635485E+02 -0.72898857791E+02  0.77057786746E+02  0.00000000000E+00 0. -1.
         11    1    1    2    0    0  0.58443241538E+02 -0.37532803732E+02 -0.72197414788E+02  0.10018378382E+03  0.00000000000E+00 0.  1.
<mgrwt>
<rscale>  0 0.12437993E+03</rscale>
<asrwt>0</asrwt>
<pdfrwt beam="2">  1        2 0.58869089E-01 0.13297263E+03</pdfrwt>
<pdfrwt beam="1">  1       -2 0.55432667E-02 0.13297263E+03</pdfrwt>
<totfact> 0.13208411E+04</totfact>
</mgrwt>
</event>
<event>
 6    1  0.9240440E-006  0.1583832E+03  0.7546771E-02  0.1198466E+00
         -1   -1    0    0    0  501 -0.00000000000E+00  0.00000000000E+00  0.21139060216E+02  0.21139060216E+02  0.00000000000E+00 0.  1.
          1   -1    0    0  501    0  0.00000000000E+00 -0.00000000000E+00 -0.10064906118E+04  0.10064906118E+04  0.00000000000E+00 0. -1.
          5    1    1    2  502    0 -0.50826444052E+02  0.17938200082E+02 -0.16584167991E+03  0.17444385696E+03  0.47000000000E+01 0.  1.
         -5    1    1    2    0  502  0.68296908051E+02  0.77735058113E+02 -0.39030449256E+03  0.40381542049E+03  0.47000000000E+01 0.  1.
        -11    1    1    2    0    0 -0.50478998198E+02 -0.29782841248E+02 -0.21482022758E+03  0.22267212908E+03  0.00000000000E+00 0. -1.
         11    1    1    2    0    0  0.33008534200E+02 -0.65890416946E+02 -0.21438515151E+03  0.22669826547E+03  0.00000000000E+00 0.  1.
<mgrwt>
<rscale>  0 0.15164531E+03</rscale>
<asrwt>0</asrwt>
<pdfrwt beam="2">  1        1 0.15484471E+00 0.15838316E+03</pdfrwt>
<pdfrwt beam="1">  1       -1 0.32521630E-02 0.15838316E+03</pdfrwt>
<totfact> 0.51942381E+03</totfact>
</mgrwt>
</event>
<event>
 6    1  0.1010773E-005  0.1457910E+03  0.7546771E-02  0.1214972E+00
          1   -1    0    0  501    0  0.00000000000E+00  0.00000000000E+00  0.46516084764E+03  0.46516084764E+03  0.00000000000E+00 0. -1.
         -1   -1    0    0    0  501 -0.00000000000E+00 -0.00000000000E+00 -0.38466701760E+02  0.38466701760E+02  0.00000000000E+00 0.  1.
          5    1    1    2  502    0  0.73271375776E+02 -0.40849883343E+02  0.12188814448E+03  0.14804126871E+03  0.47000000000E+01 0. -1.
         -5    1    1    2    0  502 -0.18575728588E+00  0.57845272323E+02  0.14278476940E+03  0.15412881109E+03  0.47000000000E+01 0. -1.
        -11    1    1    2    0    0 -0.52791886950E+02 -0.19537638269E+02  0.17032332830E+03  0.17938433265E+03  0.00000000000E+00 0. -1.
         11    1    1    2    0    0 -0.20293731539E+02  0.25422492892E+01 -0.83020963076E+01  0.22073136939E+02  0.00000000000E+00 0.  1.
<mgrwt>
<rscale>  0 0.13878571E+03</rscale>
<asrwt>0</asrwt>
<pdfrwt beam="1">  1        1 0.71563203E-01 0.14579097E+03</pdfrwt>
<pdfrwt beam="2">  1       -1 0.59179544E-02 0.14579097E+03</pdfrwt>
<totfact> 0.65299135E+03</totfact>
</mgrwt>
</event>
<event>
 6    1  0.9240440E-006  0.2304684E+03  0.7546771E-02  0.1129418E+00
         -2   -1    0    0    0  501 -0.00000000000E+00  0.00000000000E+00  0.70305499040E+03  0.70305499040E+03  0.00000000000E+00 0.  1.
          2   -1    0    0  501    0  0.00000000000E+00 -0.00000000000E+00 -0.71818282584E+02  0.71818282584E+02  0.00000000000E+00 0. -1.
          5    1    1    2  502    0 -0.16114692917E+03 -0.80632073090E+01  0.38591670418E+03  0.41831464314E+03  0.47000000000E+01 0. -1.
         -5    1    1    2    0  502 -0.32215482370E+02 -0.19362262304E+01  0.17195305182E+01  0.32659348762E+02  0.47000000000E+01 0. -1.
        -11    1    1    2    0    0  0.11093863253E+03 -0.18890907267E+02  0.19173249351E+03  0.22231868035E+03  0.00000000000E+00 0.  1.
         11    1    1    2    0    0  0.82423779011E+02  0.28890340806E+02  0.51867979605E+02  0.10158060074E+03  0.00000000000E+00 0. -1.
<mgrwt>
<rscale>  0 0.22609602E+03</rscale>
<asrwt>0</asrwt>
<pdfrwt beam="2">  1        2 0.11048967E-01 0.23046842E+03</pdfrwt>
<pdfrwt beam="1">  1       -2 0.10816230E+00 0.23046842E+03</pdfrwt>
<totfact> 0.40281404E+02</totfact>
</mgrwt>
</event>
<event>
 6    1  0.9240440E-006  0.1823220E+03  0.7546771E-02  0.1171178E+00
         -4   -1    0    0    0  501 -0.00000000000E+00  0.00000000000E+00  0.55148094144E+03  0.55148094144E+03  0.00000000000E+00 0. -1.
          4   -1    0    0  501    0  0.00000000000E+00 -0.00000000000E+00 -0.56387327565E+02  0.56387327565E+02  0.00000000000E+00 0.  1.
          5    1    1    2  502    0 -0.45924622523E+02  0.73294489676E+02  0.19254435515E+03  0.21113164583E+03  0.47000000000E+01 0.  1.
         -5    1    1    2    0  502  0.32003721228E+01  0.52367300682E+02 -0.18362837456E+01  0.52707101043E+02  0.47000000000E+01 0.  1.
        -11    1    1    2    0    0  0.56621207634E+02 -0.30937654420E+02  0.12755687716E+03  0.14294704098E+03  0.00000000000E+00 0. -1.
         11    1    1    2    0    0 -0.13896957233E+02 -0.94724135938E+02  0.17682866531E+03  0.20108248115E+03  0.00000000000E+00 0.  1.
<mgrwt>
<rscale>  0 0.17655626E+03</rscale>
<asrwt>0</asrwt>
<pdfrwt beam="2">  1        4 0.86749738E-02 0.18232201E+03</pdfrwt>
<pdfrwt beam="1">  1       -4 0.84843218E-01 0.18232201E+03</pdfrwt>
<totfact> 0.21073317E+02</totfact>
</mgrwt>
</event>
<event>
 6    1  0.9240440E-006  0.1446982E+03  0.7546771E-02  0.1217158E+00
         -1   -1    0    0    0  501 -0.00000000000E+00  0.00000000000E+00  0.15582923538E+02  0.15582923538E+02  0.00000000000E+00 0.  1.
          1   -1    0    0  501    0  0.00000000000E+00 -0.00000000000E+00 -0.10999889560E+04  0.10999889560E+04  0.00000000000E+00 0. -1.
          5    1    1    2  502    0  0.25683497064E+02  0.55780267029E+02 -0.14308934554E+03  0.15578103549E+03  0.47000000000E+01 0.  1.
         -5    1    1    2    0  502 -0.60593734833E+02  0.82067186895E+01 -0.47928488433E+03  0.48319255094E+03  0.47000000000E+01 0.  1.
        -11    1    1    2    0    0  0.55772419286E+02 -0.74631328774E+01 -0.20327073909E+03  0.21091527795E+03  0.00000000000E+00 0.  1.
         11    1    1    2    0    0 -0.20862181517E+02 -0.56523852841E+02 -0.25876106351E+03  0.26568301516E+03  0.00000000000E+00 0. -1.
<mgrwt>
<rscale>  0 0.13719190E+03</rscale>
<asrwt>0</asrwt>
<pdfrwt beam="2">  1        1 0.16922909E+00 0.14469818E+03</pdfrwt>
<pdfrwt beam="1">  1       -1 0.23973725E-02 0.14469818E+03</pdfrwt>
<totfact> 0.69129019E+03</totfact>
</mgrwt>
</event>
<event>
 6    1  0.9240440E-006  0.3674414E+03  0.7546771E-02  0.1055676E+00
         -1   -1    0    0    0  501 -0.00000000000E+00  0.00000000000E+00  0.80324461263E+03  0.80324461263E+03  0.00000000000E+00 0.  1.
          1   -1    0    0  501    0  0.00000000000E+00 -0.00000000000E+00 -0.42021196734E+02  0.42021196734E+02  0.00000000000E+00 0. -1.
          5    1    1    2  502    0  0.23195117138E+02 -0.11324863249E+02  0.12190668351E+03  0.12469801711E+03  0.47000000000E+01 0.  1.
         -5    1    1    2    0  502  0.30715507579E+02  0.14240103137E+03  0.18194770483E+03  0.23312776204E+03  0.47000000000E+01 0.  1.
        -11    1    1    2    0    0 -0.37389079633E+02 -0.19103472890E+02  0.53487182483E+02  0.67998269406E+02  0.00000000000E+00 0. -1.
         11    1    1    2    0    0 -0.16521545084E+02 -0.11197269523E+03  0.40388184507E+03  0.41944176081E+03  0.00000000000E+00 0.  1.
<mgrwt>
<rscale>  0 0.36744142E+03</rscale>
<asrwt>0</asrwt>
<pdfrwt beam="2">  1        1 0.64648001E-02 0.36744142E+03</pdfrwt>
<pdfrwt beam="1">  1       -1 0.12357608E+00 0.36744142E+03</pdfrwt>
<totfact> 0.71956283E+02</totfact>
</mgrwt>
</event>
<event>
 6    1  0.9240440E-006  0.1534913E+03  0.7546771E-02  0.1215368E+00
          2   -1    0    0  501    0  0.00000000000E+00  0.00000000000E+00  0.28124936684E+03  0.28124936684E+03  0.00000000000E+00 0. -1.
         -2   -1    0    0    0  501 -0.00000000000E+00 -0.00000000000E+00 -0.76963200908E+02  0.76963200908E+02  0.00000000000E+00 0.  1.
          5    1    1    2  502    0 -0.45618487681E+02  0.85913127454E+01  0.13283480150E+03  0.14079073678E+03  0.47000000000E+01 0.  1.
         -5    1    1    2    0  502  0.40444936331E+02  0.80299257569E+02  0.72628969578E+02  0.11567549811E+03  0.47000000000E+01 0.  1.
        -11    1    1    2    0    0 -0.80717569046E+01 -0.10318291739E+02 -0.16020436618E+02  0.20694801119E+02  0.00000000000E+00 0.  1.
         11    1    1    2    0    0  0.13245308255E+02 -0.78572278575E+02  0.14842831470E+02  0.81051531740E+02  0.00000000000E+00 0. -1.
<mgrwt>
<rscale>  0 0.13849534E+03</rscale>
<asrwt>0</asrwt>
<pdfrwt beam="1">  1        2 0.43269133E-01 0.15349126E+03</pdfrwt>
<pdfrwt beam="2">  1       -2 0.11840493E-01 0.15349126E+03</pdfrwt>
<totfact> 0.57074377E+03</totfact>
</mgrwt>
</event>
<event>
 6    1  0.9240440E-006  0.1722627E+03  0.7546771E-02  0.1182291E+00
         -3   -1    0    0    0  501 -0.00000000000E+00  0.00000000000E+00  0.18026827567E+03  0.18026827567E+03  0.00000000000E+00 0.  1.
          3   -1    0    0  501    0  0.00000000000E+00 -0.00000000000E+00 -0.14348972181E+03  0.14348972181E+03  0.00000000000E+00 0. -1.
          5    1    1    2  502    0  0.11166561719E+02 -0.29388858066E+02  0.73819319650E+02  0.80372750560E+02  0.47000000000E+01 0. -1.
         -5    1    1    2    0  502  0.17734032266E+02 -0.85573167147E+02 -0.38270790921E+02  0.95519664330E+02  0.47000000000E+01 0. -1.
        -11    1    1    2    0    0 -0.54837630501E+02  0.81997742423E+02 -0.20308933624E+02  0.10071369453E+03  0.00000000000E+00 0. -1.
         11    1    1    2    0    0  0.25937036517E+02  0.32964282789E+02  0.21538958759E+02  0.47151888058E+02  0.00000000000E+00 0.  1.
<mgrwt>
<rscale>  0 0.16580838E+03</rscale>
<asrwt>0</asrwt>
<pdfrwt beam="2">  1        3 0.22075342E-01 0.17226272E+03</pdfrwt>
<pdfrwt beam="1">  1       -3 0.27733581E-01 0.17226272E+03</pdfrwt>
<totfact> 0.55969766E+02</totfact>
</mgrwt>
</event>
<event>
 6    1  0.9240440E-006  0.1315880E+03  0.7546771E-02  0.1238787E+00
          2   -1    0    0  501    0  0.00000000000E+00  0.00000000000E+00  0.58124352718E+03  0.58124352718E+03  0.00000000000E+00 0. -1.
         -2   -1    0    0    0  501 -0.00000000000E+00 -0.00000000000E+00 -0.23450536445E+02  0.23450536445E+02  0.00000000000E+00 0.  1.
          5    1    1    2  502    0 -0.47472570646E+02 -0.25433931445E+02  0.16216421248E+03  0.17093815151E+03  0.47000000000E+01 0.  1.
         -5    1    1    2    0  502  0.40012738007E+02  0.65865512519E+02  0.19934588784E+03  0.21377595267E+03  0.47000000000E+01 0.  1.
        -11    1    1    2    0    0 -0.21709529074E+02 -0.96518352984E+01  0.52954424723E+01  0.24341390433E+02  0.00000000000E+00 0.  1.
         11    1    1    2    0    0  0.29169361713E+02 -0.30779745776E+02  0.19098744794E+03  0.19563856900E+03  0.00000000000E+00 0. -1.
<mgrwt>
<rscale>  0 0.12265066E+03</rscale>
<asrwt>0</asrwt>
<pdfrwt beam="1">  1        2 0.89422070E-01 0.13158795E+03</pdfrwt>
<pdfrwt beam="2">  1       -2 0.36077753E-02 0.13158795E+03</pdfrwt>
<totfact> 0.15884974E+04</totfact>
</mgrwt>
</event>
<event>
 6    1  0.9240440E-006  0.1683368E+03  0.7546771E-02  0.1184368E+00
         -1   -1    0    0    0  501 -0.00000000000E+00  0.00000000000E+00  0.38354115128E+02  0.38354115128E+02  0.00000000000E+00 0.  1.
          1   -1    0    0  501    0  0.00000000000E+00 -0.00000000000E+00 -0.67012727082E+03  0.67012727082E+03  0.00000000000E+00 0. -1.
          5    1    1    2  502    0 -0.12857871996E+02 -0.25055140051E+02 -0.50296144886E+02  0.57834912515E+02  0.47000000000E+01 0. -1.
         -5    1    1    2    0  502  0.13283591949E+03  0.41530823159E+02 -0.31081521189E+03  0.34058534425E+03  0.47000000000E+01 0.  1.
        -11    1    1    2    0    0 -0.11878084656E+03 -0.33960461248E+02 -0.26369831750E+03  0.29120268730E+03  0.00000000000E+00 0. -1.
         11    1    1    2    0    0 -0.11972009360E+01  0.17484778140E+02 -0.69634814187E+01  0.18858441880E+02  0.00000000000E+00 0.  1.
<mgrwt>
<rscale>  0 0.16389533E+03</rscale>
<asrwt>0</asrwt>
<pdfrwt beam="2">  1        1 0.10309651E+00 0.16833683E+03</pdfrwt>
<pdfrwt beam="1">  1       -1 0.59006327E-02 0.16833683E+03</pdfrwt>
<totfact> 0.40389003E+03</totfact>
</mgrwt>
</event>
<event>
 6    1  0.9240440E-006  0.1345556E+03  0.7546771E-02  0.1233637E+00
         -2   -1    0    0    0  501 -0.00000000000E+00  0.00000000000E+00  0.17646820493E+02  0.17646820493E+02  0.00000000000E+00 0.  1.
          2   -1    0    0  501    0  0.00000000000E+00 -0.00000000000E+00 -0.84874054284E+03  0.84874054284E+03  0.00000000000E+00 0. -1.
          5    1    1    2  502    0  0.17189173280E+02 -0.72784779268E+01 -0.62815226204E+01  0.20248245490E+02  0.47000000000E+01 0. -1.
         -5    1    1    2    0  502 -0.11518649179E+02 -0.42221438217E+02 -0.56304109426E+03  0.56475896890E+03  0.47000000000E+01 0. -1.
        -11    1    1    2    0    0 -0.38767743500E+02  0.56766593299E+02 -0.18880587057E+03  0.20093043775E+03  0.00000000000E+00 0. -1.
         11    1    1    2    0    0  0.33097219399E+02 -0.72666771562E+01 -0.72965234896E+02  0.80449711200E+02  0.00000000000E+00 0.  1.
<mgrwt>
<rscale>  0 0.12592106E+03</rscale>
<asrwt>0</asrwt>
<pdfrwt beam="2">  1        2 0.13057543E+00 0.13455556E+03</pdfrwt>
<pdfrwt beam="1">  1       -2 0.27148962E-02 0.13455556E+03</pdfrwt>
<totfact> 0.15396938E+04</totfact>
</mgrwt>
</event>
<event>
 6    1  0.9240440E-006  0.1950777E+03  0.7546771E-02  0.1158040E+00
         -1   -1    0    0    0  501 -0.00000000000E+00  0.00000000000E+00  0.12234956523E+03  0.12234956523E+03  0.00000000000E+00 0.  1.
          1   -1    0    0  501    0  0.00000000000E+00 -0.00000000000E+00 -0.29133125925E+03  0.29133125925E+03  0.00000000000E+00 0. -1.
          5    1    1    2  502    0  0.41958235189E+02  0.12335692870E+02 -0.52108335650E+01  0.44293403631E+02  0.47000000000E+01 0.  1.
         -5    1    1    2    0  502 -0.64675564284E+02  0.13570095394E+03 -0.48930232350E+02  0.15815794370E+03  0.47000000000E+01 0.  1.
        -11    1    1    2    0    0  0.26992052751E+02 -0.13534654611E+03 -0.52811061130E+02  0.14777099389E+03  0.00000000000E+00 0.  1.
         11    1    1    2    0    0 -0.42747236557E+01 -0.12690100698E+02 -0.62029566982E+02  0.63458483263E+02  0.00000000000E+00 0. -1.
<mgrwt>
<rscale>  0 0.19046837E+03</rscale>
<asrwt>0</asrwt>
<pdfrwt beam="2">  1        1 0.44820193E-01 0.19507766E+03</pdfrwt>
<pdfrwt beam="1">  1       -1 0.18823010E-01 0.19507766E+03</pdfrwt>
<totfact> 0.20033545E+03</totfact>
</mgrwt>
</event>
<event>
 6    1  0.9240440E-006  0.1523538E+03  0.7546771E-02  0.1213938E+00
          3   -1    0    0  501    0  0.00000000000E+00  0.00000000000E+00  0.48691530082E+03  0.48691530082E+03  0.00000000000E+00 0. -1.
         -3   -1    0    0    0  501 -0.00000000000E+00 -0.00000000000E+00 -0.35161127408E+02  0.35161127408E+02  0.00000000000E+00 0.  1.
          5    1    1    2  502    0 -0.19866681705E+02 -0.30738640785E+02  0.36575705194E+02  0.51955955286E+02  0.47000000000E+01 0. -1.
         -5    1    1    2    0  502 -0.26803001803E+02  0.10427212483E+03  0.26045586060E+03  0.28186951279E+03  0.47000000000E+01 0. -1.
        -11    1    1    2    0    0  0.24727079843E+02 -0.29381683622E+01  0.12273873787E+02  0.27761651403E+02  0.00000000000E+00 0.  1.
         11    1    1    2    0    0  0.21942603665E+02 -0.70595315679E+02  0.14244873383E+03  0.16048930875E+03  0.00000000000E+00 0. -1.
<mgrwt>
<rscale>  0 0.13954817E+03</rscale>
<asrwt>0</asrwt>
<pdfrwt beam="1">  1        3 0.74910042E-01 0.15235384E+03</pdfrwt>
<pdfrwt beam="2">  1       -3 0.54094046E-02 0.15235384E+03</pdfrwt>
<totfact> 0.81417437E+02</totfact>
</mgrwt>
</event>
<event>
 6    1  0.9240440E-006  0.1968475E+03  0.7546771E-02  0.1157014E+00
          2   -1    0    0  501    0  0.00000000000E+00  0.00000000000E+00  0.30971751422E+03  0.30971751422E+03  0.00000000000E+00 0. -1.
         -2   -1    0    0    0  501 -0.00000000000E+00 -0.00000000000E+00 -0.11266915509E+03  0.11266915509E+03  0.00000000000E+00 0.  1.
          5    1    1    2  502    0 -0.13184534227E+03 -0.79755971241E+02  0.71212596720E+02  0.16981617461E+03  0.47000000000E+01 0.  1.
         -5    1    1    2    0  502  0.27042159999E+02 -0.30301577146E+02  0.35216770949E+02  0.53960864995E+02  0.47000000000E+01 0.  1.
        -11    1    1    2    0    0  0.85749724629E+02  0.74262277786E+02  0.10598635492E+03  0.15524499543E+03  0.00000000000E+00 0. -1.
         11    1    1    2    0    0  0.19053457647E+02  0.35795270600E+02 -0.15367363465E+02  0.43364634272E+02  0.00000000000E+00 0.  1.
<mgrwt>
<rscale>  0 0.19161342E+03</rscale>
<asrwt>0</asrwt>
<pdfrwt beam="1">  1        2 0.47648848E-01 0.19684754E+03</pdfrwt>
<pdfrwt beam="2">  1       -2 0.17333716E-01 0.19684754E+03</pdfrwt>
<totfact> 0.27930775E+03</totfact>
</mgrwt>
</event>
<event>
 6    1  0.9240440E-006  0.1368232E+03  0.7546771E-02  0.1229930E+00
          2   -1    0    0  501    0  0.00000000000E+00  0.00000000000E+00  0.36592327837E+03  0.36592327837E+03  0.00000000000E+00 0.  1.
         -2   -1    0    0    0  501 -0.00000000000E+00 -0.00000000000E+00 -0.44497579623E+02  0.44497579623E+02  0.00000000000E+00 0. -1.
          5    1    1    2  502    0 -0.52934130095E+02 -0.26644184347E+02  0.44514276623E+02  0.74266718735E+02  0.47000000000E+01 0. -1.
         -5    1    1    2    0  502  0.23307213655E+01  0.49774809902E+02  0.19753576474E+03  0.20377789948E+03  0.47000000000E+01 0. -1.
        -11    1    1    2    0    0 -0.23474223981E+02  0.60649998980E+01  0.30446804726E+02  0.38920834181E+02  0.00000000000E+00 0.  1.
         11    1    1    2    0    0  0.74077632711E+02 -0.29195625453E+02  0.48928852658E+02  0.93455405601E+02  0.00000000000E+00 0. -1.
<mgrwt>
<rscale>  0 0.12834628E+03</rscale>
<asrwt>0</asrwt>
<pdfrwt beam="1">  1        2 0.56295887E-01 0.13682320E+03</pdfrwt>
<pdfrwt beam="2">  1       -2 0.68457817E-02 0.13682320E+03</pdfrwt>
<totfact> 0.10075389E+04</totfact>
</mgrwt>
</event>
<event>
 6    1  0.9240440E-006  0.1278961E+03  0.7546771E-02  0.1245964E+00
         -2   -1    0    0    0  501 -0.00000000000E+00  0.00000000000E+00  0.30159798966E+02  0.30159798966E+02  0.00000000000E+00 0.  1.
          2   -1    0    0  501    0  0.00000000000E+00 -0.00000000000E+00 -0.42042440289E+03  0.42042440289E+03  0.00000000000E+00 0. -1.
          5    1    1    2  502    0  0.39641921711E+02  0.39652570160E+02 -0.11141693263E+03  0.12481839269E+03  0.47000000000E+01 0.  1.
         -5    1    1    2    0  502 -0.64878989683E+02 -0.29794580933E+02 -0.15350292443E+03  0.16935831295E+03  0.47000000000E+01 0.  1.
        -11    1    1    2    0    0 -0.74138325256E+01  0.18257791199E+02 -0.10828782864E+03  0.11006618774E+03  0.00000000000E+00 0. -1.
         11    1    1    2    0    0  0.32650900498E+02 -0.28115780427E+02 -0.17056918225E+02  0.46341308480E+02  0.00000000000E+00 0.  1.
<mgrwt>
<rscale>  0 0.11827863E+03</rscale>
<asrwt>0</asrwt>
<pdfrwt beam="2">  1        2 0.64680681E-01 0.12789607E+03</pdfrwt>
<pdfrwt beam="1">  1       -2 0.46399688E-02 0.12789607E+03</pdfrwt>
<totfact> 0.15550916E+04</totfact>
</mgrwt>
</event>
<event>
 6    1  0.9240440E-006  0.1311237E+03  0.7546771E-02  0.1239931E+00
          2   -1    0    0  501    0  0.00000000000E+00  0.00000000000E+00  0.37342419802E+02  0.37342419802E+02  0.00000000000E+00 0. -1.
         -2   -1    0    0    0  501 -0.00000000000E+00 -0.00000000000E+00 -0.35392618015E+03  0.35392618015E+03  0.00000000000E+00 0.  1.
          5    1    1    2  502    0 -0.79607731976E+01 -0.47363279782E+02 -0.42038108624E+02  0.63999584048E+02  0.47000000000E+01 0.  1.
         -5    1    1    2    0  502 -0.16963005569E+02  0.78098920998E+02 -0.12350346852E+03  0.14718145860E+03  0.47000000000E+01 0.  1.
        -11    1    1    2    0    0  0.40380676783E+02 -0.40027447205E+02 -0.44967037579E+02  0.72490206620E+02  0.00000000000E+00 0. -1.
         11    1    1    2    0    0 -0.15456898017E+02  0.92918059888E+01 -0.10607514562E+03  0.10759735068E+03  0.00000000000E+00 0.  1.
<mgrwt>
<rscale>  0 0.12193973E+03</rscale>
<asrwt>0</asrwt>
<pdfrwt beam="1">  1        2 0.57449875E-02 0.13112368E+03</pdfrwt>
<pdfrwt beam="2">  1       -2 0.54450183E-01 0.13112368E+03</pdfrwt>
<totfact> 0.40141728E+03</totfact>
</mgrwt>
</event>
<event>
 6    1  0.9240440E-006  0.1289252E+03  0.7546771E-02  0.1242868E+00
         -2   -1    0    0    0  501 -0.00000000000E+00  0.00000000000E+00  0.12832528292E+02  0.12832528292E+02  0.00000000000E+00 0. -1.
          2   -1    0    0  501    0  0.00000000000E+00 -0.00000000000E+00 -0.19814675670E+04  0.19814675670E+04  0.00000000000E+00 0.  1.
          5    1    1    2  502    0  0.46431072609E+01 -0.21190688063E+02 -0.51407719280E+02  0.55995065025E+02  0.47000000000E+01 0.  1.
         -5    1    1    2    0  502  0.21524013932E+02  0.35171147397E+01 -0.17019534474E+04  0.17020996682E+04  0.47000000000E+01 0.  1.
        -11    1    1    2    0    0  0.16505002963E+02 -0.57480012554E+00 -0.55102704858E+00  0.16524198885E+02  0.00000000000E+00 0. -1.
         11    1    1    2    0    0 -0.42672124156E+02  0.18248373449E+02 -0.21472284500E+03  0.21968116323E+03  0.00000000000E+00 0.  1.
<mgrwt>
<rscale>  0 0.12013876E+03</rscale>
<asrwt>0</asrwt>
<pdfrwt beam="2">  1        2 0.30484122E+00 0.12892521E+03</pdfrwt>
<pdfrwt beam="1">  1       -2 0.19742347E-02 0.12892521E+03</pdfrwt>
<totfact> 0.59257584E+03</totfact>
</mgrwt>
</event>
<event>
 6    1  0.9240440E-006  0.1447320E+03  0.7546771E-02  0.1217060E+00
          2   -1    0    0  501    0  0.00000000000E+00  0.00000000000E+00  0.19831752082E+03  0.19831752082E+03  0.00000000000E+00 0. -1.
         -2   -1    0    0    0  501 -0.00000000000E+00 -0.00000000000E+00 -0.15478774342E+03  0.15478774342E+03  0.00000000000E+00 0.  1.
          5    1    1    2  502    0  0.62394731580E+02 -0.22750187917E+02  0.23272046902E+02  0.70529084399E+02  0.47000000000E+01 0.  1.
         -5    1    1    2    0  502 -0.37164849951E+02 -0.45693071795E+02  0.11674957499E+03  0.13084967001E+03  0.47000000000E+01 0.  1.
        -11    1    1    2    0    0 -0.59822681180E+02  0.48884527253E+02 -0.66598573278E+02  0.10199911838E+03  0.00000000000E+00 0. -1.
         11    1    1    2    0    0  0.34592799552E+02  0.19558732458E+02 -0.29893271209E+02  0.49727391444E+02  0.00000000000E+00 0.  1.
<mgrwt>
<rscale>  0 0.13726319E+03</rscale>
<asrwt>0</asrwt>
<pdfrwt beam="1">  1        2 0.30510388E-01 0.14473199E+03</pdfrwt>
<pdfrwt beam="2">  1       -2 0.23813499E-01 0.14473199E+03</pdfrwt>
<totfact> 0.25915236E+03</totfact>
</mgrwt>
</event>
<event>
 6    1  0.9240440E-006  0.1389759E+03  0.7546771E-02  0.1226398E+00
          2   -1    0    0  501    0  0.00000000000E+00  0.00000000000E+00  0.33235945587E+02  0.33235945587E+02  0.00000000000E+00 0. -1.
         -2   -1    0    0    0  501 -0.00000000000E+00 -0.00000000000E+00 -0.54751526585E+03  0.54751526585E+03  0.00000000000E+00 0.  1.
          5    1    1    2  502    0 -0.24150715876E+02  0.69492587530E+02 -0.70068122088E+02  0.10170599064E+03  0.47000000000E+01 0.  1.
         -5    1    1    2    0  502  0.59176974538E+02 -0.19874881567E+02 -0.99252865048E+02  0.11734626732E+03  0.47000000000E+01 0.  1.
        -11    1    1    2    0    0 -0.47067999763E+02 -0.49148154750E+02 -0.34275889642E+03  0.34944899312E+03  0.00000000000E+00 0.  1.
         11    1    1    2    0    0  0.12041741101E+02 -0.46955121320E+00 -0.21994367073E+01  0.12249960363E+02  0.00000000000E+00 0. -1.
<mgrwt>
<rscale>  0 0.13071551E+03</rscale>
<asrwt>0</asrwt>
<pdfrwt beam="1">  1        2 0.51132231E-02 0.13897588E+03</pdfrwt>
<pdfrwt beam="2">  1       -2 0.84233106E-01 0.13897588E+03</pdfrwt>
<totfact> 0.18670168E+03</totfact>
</mgrwt>
</event>
<event>
 6    1  0.9240440E-006  0.2144580E+03  0.7546771E-02  0.1141660E+00
         -1   -1    0    0    0  501 -0.00000000000E+00  0.00000000000E+00  0.40296696350E+03  0.40296696350E+03  0.00000000000E+00 0.  1.
          1   -1    0    0  501    0  0.00000000000E+00 -0.00000000000E+00 -0.10493551858E+03  0.10493551858E+03  0.00000000000E+00 0. -1.
          5    1    1    2  502    0 -0.81462968880E+02 -0.16302344607E+02  0.51487646126E+02  0.97852181590E+02  0.47000000000E+01 0. -1.
         -5    1    1    2    0  502 -0.62582756279E+02  0.11437644491E+03  0.10904919692E+03  0.17003643693E+03  0.47000000000E+01 0. -1.
        -11    1    1    2    0    0  0.83195689456E+02 -0.99269306849E+01  0.32039689515E+02  0.89702889592E+02  0.00000000000E+00 0.  1.
         11    1    1    2    0    0  0.60850035703E+02 -0.88147169614E+02  0.10545491236E+03  0.15031097397E+03  0.00000000000E+00 0. -1.
<mgrwt>
<rscale>  0 0.20988104E+03</rscale>
<asrwt>0</asrwt>
<pdfrwt beam="2">  1        1 0.16143926E-01 0.21445800E+03</pdfrwt>
<pdfrwt beam="1">  1       -1 0.61994917E-01 0.21445800E+03</pdfrwt>
<totfact> 0.91958751E+02</totfact>
</mgrwt>
</event>
<event>
 6    1  0.9240440E-006  0.1189974E+03  0.7546771E-02  0.1253635E+00
         -2   -1    0    0    0  501 -0.00000000000E+00  0.00000000000E+00  0.15938963589E+02  0.15938963589E+02  0.00000000000E+00 0.  1.
          2   -1    0    0  501    0  0.00000000000E+00 -0.00000000000E+00 -0.82029151646E+03  0.82029151646E+03  0.00000000000E+00 0. -1.
          5    1    1    2  502    0 -0.40491978754E+02 -0.96597162446E+01 -0.28245507680E+03  0.28554486665E+03  0.47000000000E+01 0. -1.
         -5    1    1    2    0  502  0.59464102174E+02  0.41667021330E+02 -0.27441300264E+03  0.28389559020E+03  0.47000000000E+01 0.  1.
        -11    1    1    2    0    0  0.14649908156E+02 -0.54375538694E+02 -0.11117182416E+03  0.12462140067E+03  0.00000000000E+00 0.  1.
         11    1    1    2    0    0 -0.33622031575E+02  0.22368233609E+02 -0.13631264927E+03  0.14216862253E+03  0.00000000000E+00 0. -1.
<mgrwt>
<rscale>  0 0.11383156E+03</rscale>
<asrwt>0</asrwt>
<pdfrwt beam="2">  1        2 0.12619869E+00 0.11899738E+03</pdfrwt>
<pdfrwt beam="1">  1       -2 0.24521482E-02 0.11899738E+03</pdfrwt>
<totfact> 0.18476660E+04</totfact>
</mgrwt>
</event>
<event>
 6    1  0.9240440E-006  0.1451478E+03  0.7546771E-02  0.1215503E+00
         -1   -1    0    0    0  501 -0.00000000000E+00  0.00000000000E+00  0.15558486829E+02  0.15558486829E+02  0.00000000000E+00 0.  1.
          1   -1    0    0  501    0  0.00000000000E+00 -0.00000000000E+00 -0.11373958346E+04  0.11373958346E+04  0.00000000000E+00 0. -1.
          5    1    1    2  502    0  0.17530050085E+02 -0.28365894654E+02 -0.92506122869E+02  0.98444905423E+02  0.47000000000E+01 0. -1.
         -5    1    1    2    0  502 -0.74211393176E+02  0.75590051606E+02 -0.56942394561E+03  0.57921231566E+03  0.47000000000E+01 0. -1.
        -11    1    1    2    0    0 -0.22863563898E+02 -0.18020673172E+02 -0.62374071409E+02  0.68833218723E+02  0.00000000000E+00 0.  1.
         11    1    1    2    0    0  0.79544906989E+02 -0.29203483781E+02 -0.39753320788E+03  0.40646388162E+03  0.00000000000E+00 0. -1.
<mgrwt>
<rscale>  0 0.13839660E+03</rscale>
<asrwt>0</asrwt>
<pdfrwt beam="2">  1        1 0.17498400E+00 0.14514783E+03</pdfrwt>
<pdfrwt beam="1">  1       -1 0.23936130E-02 0.14514783E+03</pdfrwt>
<totfact> 0.65229780E+03</totfact>
</mgrwt>
</event>
<event>
 6    1  0.9240440E-006  0.1423672E+03  0.7546771E-02  0.1221196E+00
          1   -1    0    0  501    0  0.00000000000E+00  0.00000000000E+00  0.32753718084E+03  0.32753718084E+03  0.00000000000E+00 0. -1.
         -1   -1    0    0    0  501 -0.00000000000E+00 -0.00000000000E+00 -0.17823404015E+03  0.17823404015E+03  0.00000000000E+00 0.  1.
          5    1    1    2  502    0  0.41102934545E+02 -0.40383772775E+02  0.13706983621E+03  0.14876333665E+03  0.47000000000E+01 0. -1.
         -5    1    1    2    0  502 -0.82395160676E+02 -0.13815659630E+02  0.15435544259E+03  0.17557769680E+03  0.47000000000E+01 0. -1.
        -11    1    1    2    0    0  0.59698392481E+02  0.73195974535E+01 -0.95125709760E+02  0.11254499202E+03  0.00000000000E+00 0.  1.
         11    1    1    2    0    0 -0.18406166350E+02  0.46879834952E+02 -0.46996428354E+02  0.68885195527E+02  0.00000000000E+00 0. -1.
<mgrwt>
<rscale>  0 0.13431071E+03</rscale>
<asrwt>0</asrwt>
<pdfrwt beam="1">  1        1 0.50390336E-01 0.14236718E+03</pdfrwt>
<pdfrwt beam="2">  1       -1 0.27420622E-01 0.14236718E+03</pdfrwt>
<totfact> 0.92962253E+02</totfact>
</mgrwt>
</event>
<event>
 6    1  0.9240440E-006  0.1389636E+03  0.7546771E-02  0.1225381E+00
         -1   -1    0    0    0  501 -0.00000000000E+00  0.00000000000E+00  0.36041678245E+03  0.36041678245E+03  0.00000000000E+00 0.  1.
          1   -1    0    0  501    0  0.00000000000E+00 -0.00000000000E+00 -0.44185613055E+02  0.44185613055E+02  0.00000000000E+00 0. -1.
          5    1    1    2  502    0  0.22414003342E+02 -0.25907983613E+02  0.93680613375E+02  0.99858692576E+02  0.47000000000E+01 0.  1.
         -5    1    1    2    0  502 -0.83085733656E+02  0.27860575746E+02  0.54583655282E+02  0.10334851833E+03  0.47000000000E+01 0.  1.
        -11    1    1    2    0    0  0.67321984365E+02  0.18233189634E+02  0.16599257121E+03  0.18005063865E+03  0.00000000000E+00 0.  1.
         11    1    1    2    0    0 -0.66502540519E+01 -0.20185781768E+02  0.19743295347E+01  0.21344545946E+02  0.00000000000E+00 0. -1.
<mgrwt>
<rscale>  0 0.13140792E+03</rscale>
<asrwt>0</asrwt>
<pdfrwt beam="2">  1        1 0.67977868E-02 0.13896358E+03</pdfrwt>
<pdfrwt beam="1">  1       -1 0.55448734E-01 0.13896358E+03</pdfrwt>
<totfact> 0.35379069E+03</totfact>
</mgrwt>
</event>
<event>
 6    1  0.9240440E-006  0.3605730E+03  0.7546771E-02  0.1058357E+00
         -1   -1    0    0    0  501 -0.00000000000E+00  0.00000000000E+00  0.50277804847E+03  0.50277804847E+03  0.00000000000E+00 0.  1.
          1   -1    0    0  501    0  0.00000000000E+00 -0.00000000000E+00 -0.64647258492E+02  0.64647258492E+02  0.00000000000E+00 0. -1.
          5    1    1    2  502    0 -0.26748380265E+02 -0.25504950964E+02 -0.22438225942E+02  0.43491865376E+02  0.47000000000E+01 0.  1.
         -5    1    1    2    0  502 -0.95092591927E+02  0.12774868774E+02  0.13104082183E+03  0.16247949193E+03  0.47000000000E+01 0.  1.
        -11    1    1    2    0    0  0.58277805632E+02 -0.11226009543E+02  0.24960628132E+03  0.25656504359E+03  0.00000000000E+00 0.  1.
         11    1    1    2    0    0  0.63563166560E+02  0.23956091733E+02  0.79921912764E+02  0.10488890606E+03  0.00000000000E+00 0. -1.
<mgrwt>
<rscale>  0 0.36057300E+03</rscale>
<asrwt>0</asrwt>
<pdfrwt beam="2">  1        1 0.99457324E-02 0.36057300E+03</pdfrwt>
<pdfrwt beam="1">  1       -1 0.77350466E-01 0.36057300E+03</pdfrwt>
<totfact> 0.11344642E+03</totfact>
</mgrwt>
</event>
<event>
 6    1  0.9240440E-006  0.1307021E+03  0.7546771E-02  0.1239145E+00
         -4   -1    0    0    0  501 -0.00000000000E+00  0.00000000000E+00  0.22469064009E+03  0.22469064009E+03  0.00000000000E+00 0.  1.
          4   -1    0    0  501    0  0.00000000000E+00 -0.00000000000E+00 -0.64709605429E+02  0.64709605429E+02  0.00000000000E+00 0. -1.
          5    1    1    2  502    0 -0.22600006482E+02 -0.41288209015E+02  0.66435567683E+02  0.81555203084E+02  0.47000000000E+01 0. -1.
         -5    1    1    2    0  502 -0.13605912475E+02  0.53419344613E+02 -0.17470589569E+02  0.58017744984E+02  0.47000000000E+01 0. -1.
        -11    1    1    2    0    0  0.38211648732E+02 -0.49105598193E+02  0.81129051506E+02  0.10224193304E+03  0.00000000000E+00 0. -1.
         11    1    1    2    0    0 -0.20057297758E+01  0.36974462595E+02  0.29887005039E+02  0.47585364413E+02  0.00000000000E+00 0.  1.
<mgrwt>
<rscale>  0 0.12242753E+03</rscale>
<asrwt>0</asrwt>
<pdfrwt beam="2">  1        4 0.99553240E-02 0.13070210E+03</pdfrwt>
<pdfrwt beam="1">  1       -4 0.34567790E-01 0.13070210E+03</pdfrwt>
<totfact> 0.10141323E+03</totfact>
</mgrwt>
</event>
<event>
 6    1  0.9240440E-006  0.6052271E+03  0.7546771E-02  0.9894620E-01
         -1   -1    0    0    0  501 -0.00000000000E+00  0.00000000000E+00  0.12377967254E+03  0.12377967254E+03  0.00000000000E+00 0.  1.
          1   -1    0    0  501    0  0.00000000000E+00 -0.00000000000E+00 -0.73982222920E+03  0.73982222920E+03  0.00000000000E+00 0. -1.
          5    1    1    2  502    0  0.73467465006E+02  0.48231666913E+02 -0.67662161265E+03  0.68232152158E+03  0.47000000000E+01 0. -1.
         -5    1    1    2    0  502  0.16009532239E+02 -0.88765100198E+01 -0.12337091214E+02  0.22569700314E+02  0.47000000000E+01 0.  1.
        -11    1    1    2    0    0 -0.47980268303E+02 -0.49630447213E+02  0.89350509535E+02  0.11291058848E+03  0.00000000000E+00 0.  1.
         11    1    1    2    0    0 -0.41496728942E+02  0.10275290320E+02 -0.16434362331E+02  0.45800091368E+02  0.00000000000E+00 0. -1.
<mgrwt>
<rscale>  0 0.60522708E+03</rscale>
<asrwt>0</asrwt>
<pdfrwt beam="2">  1        1 0.11381880E+00 0.60522708E+03</pdfrwt>
<pdfrwt beam="1">  1       -1 0.19043027E-01 0.60522708E+03</pdfrwt>
<totfact> 0.56127239E+02</totfact>
</mgrwt>
</event>
<event>
 6    1  0.9240440E-006  0.1269998E+03  0.7546771E-02  0.1250654E+00
          2   -1    0    0  501    0  0.00000000000E+00  0.00000000000E+00  0.67272410461E+03  0.67272410461E+03  0.00000000000E+00 0. -1.
         -2   -1    0    0    0  501 -0.00000000000E+00 -0.00000000000E+00 -0.19513116681E+02  0.19513116681E+02  0.00000000000E+00 0.  1.
          5    1    1    2  502    0  0.26525476394E+02  0.18534182058E+02  0.41026988647E+03  0.41157087670E+03  0.47000000000E+01 0.  1.
         -5    1    1    2    0  502 -0.48724010439E+02 -0.21745511906E+02  0.91529077387E+02  0.10604979250E+03  0.47000000000E+01 0.  1.
        -11    1    1    2    0    0 -0.24731570776E+02 -0.19306584223E+02  0.34458342851E+02  0.46602276548E+02  0.00000000000E+00 0.  1.
         11    1    1    2    0    0  0.46930104821E+02  0.22517914072E+02  0.11695368122E+03  0.12801427555E+03  0.00000000000E+00 0. -1.
<mgrwt>
<rscale>  0 0.11553296E+03</rscale>
<asrwt>0</asrwt>
<pdfrwt beam="1">  1        2 0.10349600E+00 0.12699983E+03</pdfrwt>
<pdfrwt beam="2">  1       -2 0.30020185E-02 0.12699983E+03</pdfrwt>
<totfact> 0.17556748E+04</totfact>
</mgrwt>
</event>
<event>
 6    1  0.9240440E-006  0.1367857E+03  0.7546771E-02  0.1232321E+00
         -1   -1    0    0    0  501 -0.00000000000E+00  0.00000000000E+00  0.29747987895E+02  0.29747987895E+02  0.00000000000E+00 0.  1.
          1   -1    0    0  501    0  0.00000000000E+00 -0.00000000000E+00 -0.49925823915E+03  0.49925823915E+03  0.00000000000E+00 0. -1.
          5    1    1    2  502    0  0.79902499383E+02 -0.15505094796E+02 -0.13706341024E+03  0.15947816716E+03  0.47000000000E+01 0. -1.
         -5    1    1    2    0  502 -0.27616293232E+02  0.34223093444E+02 -0.18917057913E+03  0.19427165976E+03  0.47000000000E+01 0. -1.
        -11    1    1    2    0    0 -0.54480176261E+02  0.12818395999E+02 -0.44373160445E+02  0.71423933309E+02  0.00000000000E+00 0.  1.
         11    1    1    2    0    0  0.21939701101E+01 -0.31536394647E+02 -0.98903101444E+02  0.10383246683E+03  0.00000000000E+00 0. -1.
<mgrwt>
<rscale>  0 0.12677534E+03</rscale>
<asrwt>0</asrwt>
<pdfrwt beam="2">  1        1 0.76808958E-01 0.13678569E+03</pdfrwt>
<pdfrwt beam="1">  1       -1 0.45766137E-02 0.13678569E+03</pdfrwt>
<totfact> 0.86876491E+03</totfact>
</mgrwt>
</event>
<event>
 6    1  0.9240440E-006  0.1316230E+03  0.7546771E-02  0.1239402E+00
          3   -1    0    0  501    0  0.00000000000E+00  0.00000000000E+00  0.58234569685E+03  0.58234569685E+03  0.00000000000E+00 0. -1.
         -3   -1    0    0    0  501 -0.00000000000E+00 -0.00000000000E+00 -0.27257507880E+02  0.27257507880E+02  0.00000000000E+00 0.  1.
          5    1    1    2  502    0  0.73173800676E+02 -0.23846970252E+02  0.17342401422E+03  0.18979215422E+03  0.47000000000E+01 0. -1.
         -5    1    1    2    0  502 -0.31957015089E+02  0.24124488688E+02  0.26223689021E+03  0.26531776863E+03  0.47000000000E+01 0. -1.
        -11    1    1    2    0    0 -0.26954576602E+02  0.15073442469E+02 -0.23067898350E+01  0.30969003003E+02  0.00000000000E+00 0.  1.
         11    1    1    2    0    0 -0.14262208985E+02 -0.15350960906E+02  0.12173407438E+03  0.12352427887E+03  0.00000000000E+00 0. -1.
<mgrwt>
<rscale>  0 0.12226798E+03</rscale>
<asrwt>0</asrwt>
<pdfrwt beam="1">  1        3 0.89591636E-01 0.13162302E+03</pdfrwt>
<pdfrwt beam="2">  1       -3 0.41934632E-02 0.13162302E+03</pdfrwt>
<totfact> 0.80606986E+02</totfact>
</mgrwt>
</event>
<event>
 6    1  0.9240440E-006  0.1390905E+03  0.7546771E-02  0.1225685E+00
         -2   -1    0    0    0  501 -0.00000000000E+00  0.00000000000E+00  0.16632747797E+03  0.16632747797E+03  0.00000000000E+00 0.  1.
          2   -1    0    0  501    0  0.00000000000E+00 -0.00000000000E+00 -0.98528185236E+02  0.98528185236E+02  0.00000000000E+00 0. -1.
          5    1    1    2  502    0  0.30551593487E+02 -0.53411762025E+02  0.10277767051E+02  0.62561479224E+02  0.47000000000E+01 0. -1.
         -5    1    1    2    0  502 -0.75556196582E+02  0.12188533965E+02 -0.28180788887E+01  0.76728943501E+02  0.47000000000E+01 0. -1.
        -11    1    1    2    0    0 -0.47729030859E+01  0.57479461947E+02  0.29309969870E+02  0.64697322073E+02  0.00000000000E+00 0.  1.
         11    1    1    2    0    0  0.49777506181E+02 -0.16256233888E+02  0.31029634707E+02  0.60867918413E+02  0.00000000000E+00 0. -1.
<mgrwt>
<rscale>  0 0.13120089E+03</rscale>
<asrwt>0</asrwt>
<pdfrwt beam="2">  1        2 0.15158182E-01 0.13909053E+03</pdfrwt>
<pdfrwt beam="1">  1       -2 0.25588843E-01 0.13909053E+03</pdfrwt>
<totfact> 0.50078019E+03</totfact>
</mgrwt>
</event>
<event>
 6    1  0.9240440E-006  0.4341144E+03  0.7546771E-02  0.1032568E+00
          1   -1    0    0  501    0  0.00000000000E+00  0.00000000000E+00  0.17436394168E+03  0.17436394168E+03  0.00000000000E+00 0. -1.
         -1   -1    0    0    0  501 -0.00000000000E+00 -0.00000000000E+00 -0.27020395087E+03  0.27020395087E+03  0.00000000000E+00 0.  1.
          5    1    1    2  502    0  0.66407131653E+01  0.10671973205E+02  0.10516757882E+03  0.10602027975E+03  0.47000000000E+01 0. -1.
         -5    1    1    2    0  502  0.89213060722E+02 -0.16830788603E+02 -0.42093670658E+01  0.91005793329E+02  0.47000000000E+01 0.  1.
        -11    1    1    2    0    0 -0.37568601845E+02  0.59384670025E+02 -0.78837451736E+02  0.10560910318E+03  0.00000000000E+00 0. -1.
         11    1    1    2    0    0 -0.58285172042E+02 -0.53225854627E+02 -0.11796076921E+03  0.14193271629E+03  0.00000000000E+00 0.  1.
<mgrwt>
<rscale>  0 0.43411439E+03</rscale>
<asrwt>0</asrwt>
<pdfrwt beam="1">  1        1 0.26825222E-01 0.43411439E+03</pdfrwt>
<pdfrwt beam="2">  1       -1 0.41569838E-01 0.43411439E+03</pdfrwt>
<totfact> 0.10112506E+03</totfact>
</mgrwt>
</event>
<event>
 6    1  0.9240440E-006  0.3709559E+03  0.7546771E-02  0.1055297E+00
          1   -1    0    0  501    0  0.00000000000E+00  0.00000000000E+00  0.90046633918E+03  0.90046633918E+03  0.00000000000E+00 0. -1.
         -1   -1    0    0    0  501 -0.00000000000E+00 -0.00000000000E+00 -0.16677113493E+03  0.16677113493E+03  0.00000000000E+00 0.  1.
          5    1    1    2  502    0 -0.12465553058E+02 -0.65654581998E+01  0.59641357131E+02  0.61462807736E+02  0.47000000000E+01 0.  1.
         -5    1    1    2    0  502 -0.16192068769E+03  0.30917587168E+03  0.48723207598E+03  0.59935399774E+03  0.47000000000E+01 0.  1.
        -11    1    1    2    0    0  0.22940099034E+02 -0.30453235628E+01  0.24016322370E+02  0.33351250044E+02  0.00000000000E+00 0.  1.
         11    1    1    2    0    0  0.15144614172E+03 -0.29956508992E+03  0.16280544876E+03  0.37306941859E+03  0.00000000000E+00 0. -1.
<mgrwt>
<rscale>  0 0.36842537E+03</rscale>
<asrwt>0</asrwt>
<pdfrwt beam="1">  1        1 0.13853328E+00 0.37095593E+03</pdfrwt>
<pdfrwt beam="2">  1       -1 0.25657098E-01 0.37095593E+03</pdfrwt>
<totfact> 0.25346820E+02</totfact>
</mgrwt>
</event>
<event>
 6    1  0.9240440E-006  0.2062157E+03  0.7546771E-02  0.1148466E+00
          1   -1    0    0  501    0  0.00000000000E+00  0.00000000000E+00  0.64771028006E+03  0.64771028006E+03  0.00000000000E+00 0. -1.
         -1   -1    0    0    0  501 -0.00000000000E+00 -0.00000000000E+00 -0.13998136008E+03  0.13998136008E+03  0.00000000000E+00 0.  1.
          5    1    1    2  502    0 -0.48734056648E+02  0.14416423796E+01  0.20704500327E+03  0.21275998211E+03  0.47000000000E+01 0.  1.
         -5    1    1    2    0  502 -0.22045500789E+02 -0.14939625731E+03  0.34940534790E+03  0.38067234329E+03  0.47000000000E+01 0.  1.
        -11    1    1    2    0    0  0.37773632939E+02  0.13736413554E+03 -0.10784178483E+02  0.14287075133E+03  0.00000000000E+00 0. -1.
         11    1    1    2    0    0  0.33005924498E+02  0.10590479391E+02 -0.37937252710E+02  0.51388563405E+02  0.00000000000E+00 0.  1.
<mgrwt>
<rscale>  0 0.20151615E+03</rscale>
<asrwt>0</asrwt>
<pdfrwt beam="1">  1        1 0.99647733E-01 0.20621574E+03</pdfrwt>
<pdfrwt beam="2">  1       -1 0.21535594E-01 0.20621574E+03</pdfrwt>
<totfact> 0.56805548E+02</totfact>
</mgrwt>
</event>
<event>
 6    1  0.9240440E-006  0.1478572E+03  0.7546771E-02  0.1223750E+00
         -1   -1    0    0    0  501 -0.00000000000E+00  0.00000000000E+00  0.17477070372E+02  0.17477070372E+02  0.00000000000E+00 0.  1.
          1   -1    0    0  501    0  0.00000000000E+00 -0.00000000000E+00 -0.16767499178E+04  0.16767499178E+04  0.00000000000E+00 0. -1.
          5    1    1    2  502    0  0.63003738050E+02  0.12838851747E+02 -0.14196075232E+04  0.14210706939E+04  0.47000000000E+01 0. -1.
         -5    1    1    2    0  502 -0.32238529347E+02 -0.96826841504E+00 -0.89273998437E+02  0.95037872005E+02  0.47000000000E+01 0.  1.
        -11    1    1    2    0    0 -0.61981259345E+02 -0.52514898564E+00 -0.91765363641E+02  0.11073768218E+03  0.00000000000E+00 0.  1.
         11    1    1    2    0    0  0.31216050641E+02 -0.11345434346E+02 -0.58625962232E+02  0.67380740169E+02  0.00000000000E+00 0. -1.
<mgrwt>
<rscale>  0 0.13252974E+03</rscale>
<asrwt>0</asrwt>
<pdfrwt beam="2">  1        1 0.25796146E+00 0.14785715E+03</pdfrwt>
<pdfrwt beam="1">  1       -1 0.26887807E-02 0.14785715E+03</pdfrwt>
<totfact> 0.24231946E+03</totfact>
</mgrwt>
</event>
<event>
 6    1  0.9240440E-006  0.1387788E+03  0.7546771E-02  0.1226411E+00
         -2   -1    0    0    0  501 -0.00000000000E+00  0.00000000000E+00  0.13313717963E+02  0.13313717963E+02  0.00000000000E+00 0.  1.
          2   -1    0    0  501    0  0.00000000000E+00 -0.00000000000E+00 -0.11949498978E+04  0.11949498978E+04  0.00000000000E+00 0. -1.
          5    1    1    2  502    0 -0.13595866794E+02 -0.70836317712E+02 -0.73669690000E+03  0.74023445203E+03  0.47000000000E+01 0. -1.
         -5    1    1    2    0  502 -0.16742384882E+02  0.18737384133E+02 -0.32336661273E+02  0.41220706908E+02  0.47000000000E+01 0. -1.
        -11    1    1    2    0    0 -0.20407822265E+02 -0.25059401434E+01 -0.26321395796E+02  0.33400221889E+02  0.00000000000E+00 0.  1.
         11    1    1    2    0    0  0.50746073941E+02  0.54604873722E+02 -0.38628122281E+03  0.39340823498E+03  0.00000000000E+00 0. -1.
<mgrwt>
<rscale>  0 0.13070659E+03</rscale>
<asrwt>0</asrwt>
<pdfrwt beam="2">  1        2 0.18383842E+00 0.13877877E+03</pdfrwt>
<pdfrwt beam="1">  1       -2 0.20482646E-02 0.13877877E+03</pdfrwt>
<totfact> 0.14478106E+04</totfact>
</mgrwt>
</event>
<event>
 6    1  0.9240440E-006  0.1671462E+03  0.7546771E-02  0.1187979E+00
         -1   -1    0    0    0  501 -0.00000000000E+00  0.00000000000E+00  0.58954285438E+02  0.58954285438E+02  0.00000000000E+00 0.  1.
          1   -1    0    0  501    0  0.00000000000E+00 -0.00000000000E+00 -0.45094312573E+03  0.45094312573E+03  0.00000000000E+00 0. -1.
          5    1    1    2  502    0  0.66594359418E+02  0.48339577124E+02 -0.62708796294E+02  0.10356643547E+03  0.47000000000E+01 0.  1.
         -5    1    1    2    0  502  0.39290358963E+02 -0.15190295951E+02 -0.22681647655E+03  0.23074289032E+03  0.47000000000E+01 0.  1.
        -11    1    1    2    0    0 -0.72110224989E+02 -0.34353660056E+02 -0.11459077251E+03  0.13968215223E+03  0.00000000000E+00 0. -1.
         11    1    1    2    0    0 -0.33774493392E+02  0.12043788830E+01  0.12127205067E+02  0.35905933146E+02  0.00000000000E+00 0.  1.
<mgrwt>
<rscale>  0 0.16063711E+03</rscale>
<asrwt>0</asrwt>
<pdfrwt beam="2">  1        1 0.69375866E-01 0.16714617E+03</pdfrwt>
<pdfrwt beam="1">  1       -1 0.90698899E-02 0.16714617E+03</pdfrwt>
<totfact> 0.35941943E+03</totfact>
</mgrwt>
</event>
<event>
 6    1  0.9240440E-006  0.3021063E+03  0.7546771E-02  0.1084192E+00
         -2   -1    0    0    0  501 -0.00000000000E+00  0.00000000000E+00  0.37632780502E+03  0.37632780502E+03  0.00000000000E+00 0.  1.
          2   -1    0    0  501    0  0.00000000000E+00 -0.00000000000E+00 -0.60630804413E+02  0.60630804413E+02  0.00000000000E+00 0. -1.
          5    1    1    2  502    0  0.84387107357E+02 -0.82746519386E+02  0.66214485124E+02  0.13555300955E+03  0.47000000000E+01 0. -1.
         -5    1    1    2    0  502 -0.83345177994E+01  0.10961746021E+02  0.86760807357E+02  0.87972448846E+02  0.47000000000E+01 0. -1.
        -11    1    1    2    0    0 -0.39164524890E+02  0.27807717949E+02  0.83728818271E+01  0.48756890154E+02  0.00000000000E+00 0. -1.
         11    1    1    2    0    0 -0.36888064668E+02  0.43977055416E+02  0.15434882630E+03  0.16467626088E+03  0.00000000000E+00 0.  1.
<mgrwt>
<rscale>  0 0.30210632E+03</rscale>
<asrwt>0</asrwt>
<pdfrwt beam="2">  1        2 0.93278163E-02 0.30210632E+03</pdfrwt>
<pdfrwt beam="1">  1       -2 0.57896584E-01 0.30210632E+03</pdfrwt>
<totfact> 0.19939989E+03</totfact>
</mgrwt>
</event>
<event>
 6    1  0.9240440E-006  0.2455116E+03  0.7546771E-02  0.1118781E+00
         -2   -1    0    0    0  501 -0.00000000000E+00  0.00000000000E+00  0.28215943532E+02  0.28215943532E+02  0.00000000000E+00 0.  1.
          2   -1    0    0  501    0  0.00000000000E+00 -0.00000000000E+00 -0.25269226512E+04  0.25269226512E+04  0.00000000000E+00 0. -1.
          5    1    1    2  502    0 -0.71952889844E+02  0.10108441492E+03 -0.73603301921E+03  0.74643283198E+03  0.47000000000E+01 0. -1.
         -5    1    1    2    0  502 -0.11346001932E+03  0.27169410713E+00 -0.11272119347E+04  0.11329175105E+04  0.47000000000E+01 0. -1.
        -11    1    1    2    0    0  0.11062339607E+03 -0.77392145462E+02 -0.26867727550E+03  0.30069013670E+03  0.00000000000E+00 0.  1.
         11    1    1    2    0    0  0.74789513093E+02 -0.23963963566E+02 -0.36678447830E+03  0.37509811561E+03  0.00000000000E+00 0. -1.
<mgrwt>
<rscale>  0 0.24152580E+03</rscale>
<asrwt>0</asrwt>
<pdfrwt beam="2">  1        2 0.38875742E+00 0.24551161E+03</pdfrwt>
<pdfrwt beam="1">  1       -2 0.43409134E-02 0.24551161E+03</pdfrwt>
<totfact> 0.94518840E+02</totfact>
</mgrwt>
</event>
<event>
 6    1  0.9240440E-006  0.1483208E+03  0.7546771E-02  0.1214594E+00
          3   -1    0    0  501    0  0.00000000000E+00  0.00000000000E+00  0.32018315512E+03  0.32018315512E+03  0.00000000000E+00 0. -1.
         -3   -1    0    0    0  501 -0.00000000000E+00 -0.00000000000E+00 -0.55489419123E+02  0.55489419123E+02  0.00000000000E+00 0.  1.
          5    1    1    2  502    0 -0.45095762645E+02 -0.34369385261E+02  0.28278328873E+02  0.63534528688E+02  0.47000000000E+01 0.  1.
         -5    1    1    2    0  502  0.62237239678E+02 -0.43611570934E+02  0.15127806696E+03  0.16935934183E+03  0.47000000000E+01 0.  1.
        -11    1    1    2    0    0 -0.47186793722E+02  0.44230143122E+02  0.29450578209E+02  0.71065009809E+02  0.00000000000E+00 0. -1.
         11    1    1    2    0    0  0.30045316689E+02  0.33750813073E+02  0.55686761957E+02  0.71713693917E+02  0.00000000000E+00 0.  1.
<mgrwt>
<rscale>  0 0.13906414E+03</rscale>
<asrwt>0</asrwt>
<pdfrwt beam="1">  1        3 0.49258946E-01 0.14832079E+03</pdfrwt>
<pdfrwt beam="2">  1       -3 0.85368339E-02 0.14832079E+03</pdfrwt>
<totfact> 0.92397067E+02</totfact>
</mgrwt>
</event>
<event>
 6    1  0.9240440E-006  0.1271888E+03  0.7546771E-02  0.1247405E+00
          2   -1    0    0  501    0  0.00000000000E+00  0.00000000000E+00  0.15645922456E+03  0.15645922456E+03  0.00000000000E+00 0.  1.
         -2   -1    0    0    0  501 -0.00000000000E+00 -0.00000000000E+00 -0.12237904597E+03  0.12237904597E+03  0.00000000000E+00 0. -1.
          5    1    1    2  502    0 -0.11395453590E+02 -0.20005257335E+02 -0.21919361483E+02  0.32134328862E+02  0.47000000000E+01 0. -1.
         -5    1    1    2    0  502  0.73802132569E+00  0.40985223733E+02  0.12483460640E+03  0.13147662223E+03  0.47000000000E+01 0. -1.
        -11    1    1    2    0    0 -0.61822146638E+01 -0.23441544788E+02  0.15774355447E+02  0.28923279378E+02  0.00000000000E+00 0.  1.
         11    1    1    2    0    0  0.16839646928E+02  0.24615783895E+01 -0.84609421770E+02  0.86304040051E+02  0.00000000000E+00 0. -1.
<mgrwt>
<rscale>  0 0.11742566E+03</rscale>
<asrwt>0</asrwt>
<pdfrwt beam="1">  1        2 0.24070650E-01 0.12718882E+03</pdfrwt>
<pdfrwt beam="2">  1       -2 0.18827546E-01 0.12718882E+03</pdfrwt>
<totfact> 0.49792574E+03</totfact>
</mgrwt>
</event>
<event>
 6    1  0.9240440E-006  0.3599162E+03  0.7546771E-02  0.1058617E+00
         -2   -1    0    0    0  501 -0.00000000000E+00  0.00000000000E+00  0.10672689180E+03  0.10672689180E+03  0.00000000000E+00 0.  1.
          2   -1    0    0  501    0  0.00000000000E+00 -0.00000000000E+00 -0.30343728734E+03  0.30343728734E+03  0.00000000000E+00 0. -1.
          5    1    1    2  502    0 -0.13141302979E+03  0.89444085740E+02 -0.10849218772E+03  0.19251564526E+03  0.47000000000E+01 0. -1.
         -5    1    1    2    0  502  0.19014525611E+02 -0.96781166111E+01 -0.39843577740E+02  0.45440277425E+02  0.47000000000E+01 0. -1.
        -11    1    1    2    0    0  0.53231537979E+02 -0.75431856605E+02 -0.62164274246E+02  0.11130120673E+03  0.00000000000E+00 0. -1.
         11    1    1    2    0    0  0.59166966199E+02 -0.43341125242E+01  0.13789644177E+02  0.60907049732E+02  0.00000000000E+00 0.  1.
<mgrwt>
<rscale>  0 0.35991620E+03</rscale>
<asrwt>0</asrwt>
<pdfrwt beam="2">  1        2 0.46682660E-01 0.35991620E+03</pdfrwt>
<pdfrwt beam="1">  1       -2 0.16419522E-01 0.35991620E+03</pdfrwt>
<totfact> 0.31906555E+03</totfact>
</mgrwt>
</event>
<event>
 6    1  0.9240440E-006  0.2173685E+03  0.7546771E-02  0.1139439E+00
          2   -1    0    0  501    0  0.00000000000E+00  0.00000000000E+00  0.58039315949E+03  0.58039315949E+03  0.00000000000E+00 0. -1.
         -2   -1    0    0    0  501 -0.00000000000E+00 -0.00000000000E+00 -0.76482542351E+02  0.76482542351E+02  0.00000000000E+00 0.  1.
          5    1    1    2  502    0  0.81776555841E+02 -0.45120537476E+02  0.23184943484E+02  0.96347805328E+02  0.47000000000E+01 0. -1.
         -5    1    1    2    0  502  0.72213343477E+02 -0.43823682592E+02  0.19060913376E+03  0.20854067710E+03  0.47000000000E+01 0. -1.
        -11    1    1    2    0    0 -0.67666930469E+02  0.47824151441E+02  0.21493283020E+03  0.23035208798E+03  0.00000000000E+00 0. -1.
         11    1    1    2    0    0 -0.86322968849E+02  0.41120068627E+02  0.75183709694E+02  0.12163513143E+03  0.00000000000E+00 0.  1.
<mgrwt>
<rscale>  0 0.21270797E+03</rscale>
<asrwt>0</asrwt>
<pdfrwt beam="1">  1        2 0.89291252E-01 0.21736853E+03</pdfrwt>
<pdfrwt beam="2">  1       -2 0.11766545E-01 0.21736853E+03</pdfrwt>
<totfact> 0.26561867E+03</totfact>
</mgrwt>
</event>
<event>
 6    1  0.9240440E-006  0.1362509E+03  0.7546771E-02  0.1230523E+00
          3   -1    0    0  501    0  0.00000000000E+00  0.00000000000E+00  0.26100506074E+02  0.26100506074E+02  0.00000000000E+00 0. -1.
         -3   -1    0    0    0  501 -0.00000000000E+00 -0.00000000000E+00 -0.56710803899E+03  0.56710803899E+03  0.00000000000E+00 0.  1.
          5    1    1    2  502    0  0.36240109280E+02 -0.18983865071E+02 -0.10645157019E+03  0.11413921083E+03  0.47000000000E+01 0. -1.
         -5    1    1    2    0  502 -0.90179631211E+02  0.24568923808E+02 -0.16962092894E+03  0.19372492725E+03  0.47000000000E+01 0. -1.
        -11    1    1    2    0    0  0.68085000857E+01 -0.43209489720E+02 -0.13888383732E+03  0.14560953247E+03  0.00000000000E+00 0.  1.
         11    1    1    2    0    0  0.47131021845E+02  0.37624430982E+02 -0.12605119646E+03  0.13973487451E+03  0.00000000000E+00 0. -1.
<mgrwt>
<rscale>  0 0.12795466E+03</rscale>
<asrwt>0</asrwt>
<pdfrwt beam="1">  1        3 0.40154624E-02 0.13625088E+03</pdfrwt>
<pdfrwt beam="2">  1       -3 0.87247391E-01 0.13625088E+03</pdfrwt>
<totfact> 0.91816665E+02</totfact>
</mgrwt>
</event>
<event>
 6    1  0.9240440E-006  0.1280905E+03  0.7546771E-02  0.1243437E+00
          2   -1    0    0  501    0  0.00000000000E+00  0.00000000000E+00  0.28632273365E+03  0.28632273365E+03  0.00000000000E+00 0. -1.
         -2   -1    0    0    0  501 -0.00000000000E+00 -0.00000000000E+00 -0.51163485190E+02  0.51163485190E+02  0.00000000000E+00 0.  1.
          5    1    1    2  502    0 -0.46288270699E+02 -0.90545311331E+01  0.26644464818E+02  0.54374682011E+02  0.47000000000E+01 0. -1.
         -5    1    1    2    0  502  0.59599866048E+02 -0.15674922991E+02  0.16442413008E+03  0.17565657345E+03  0.47000000000E+01 0. -1.
        -11    1    1    2    0    0  0.83928697554E+01 -0.80795261933E+01 -0.25207673487E+02  0.27769512218E+02  0.00000000000E+00 0.  1.
         11    1    1    2    0    0 -0.21704465105E+02  0.32808980318E+02  0.69298327049E+02  0.79685451161E+02  0.00000000000E+00 0. -1.
<mgrwt>
<rscale>  0 0.11979430E+03</rscale>
<asrwt>0</asrwt>
<pdfrwt beam="1">  1        2 0.44049650E-01 0.12809048E+03</pdfrwt>
<pdfrwt beam="2">  1       -2 0.78713056E-02 0.12809048E+03</pdfrwt>
<totfact> 0.10495375E+04</totfact>
</mgrwt>
</event>
<event>
 6    1  0.9240440E-006  0.1650600E+03  0.7546771E-02  0.1189868E+00
          2   -1    0    0  501    0  0.00000000000E+00  0.00000000000E+00  0.10281771619E+04  0.10281771619E+04  0.00000000000E+00 0. -1.
         -2   -1    0    0    0  501 -0.00000000000E+00 -0.00000000000E+00 -0.35871361448E+02  0.35871361448E+02  0.00000000000E+00 0.  1.
          5    1    1    2  502    0 -0.46999412174E+01  0.10995285263E+03  0.72374261130E+03  0.73207730238E+03  0.47000000000E+01 0. -1.
         -5    1    1    2    0  502 -0.40902515083E+02 -0.12277043517E+02  0.11524446467E+03  0.12299235006E+03  0.47000000000E+01 0. -1.
        -11    1    1    2    0    0 -0.21762013654E+02 -0.11665362296E+02  0.61486921245E+02  0.66259394805E+02  0.00000000000E+00 0. -1.
         11    1    1    2    0    0  0.67364469954E+02 -0.86010446813E+02  0.91831803254E+02  0.14271947611E+03  0.00000000000E+00 0.  1.
<mgrwt>
<rscale>  0 0.15896721E+03</rscale>
<asrwt>0</asrwt>
<pdfrwt beam="1">  1        2 0.15818108E+00 0.16505998E+03</pdfrwt>
<pdfrwt beam="2">  1       -2 0.55186718E-02 0.16505998E+03</pdfrwt>
<totfact> 0.41869107E+03</totfact>
</mgrwt>
</event>
<event>
 6    1  0.9240440E-006  0.1614420E+03  0.7546771E-02  0.1194948E+00
         -4   -1    0    0    0  501 -0.00000000000E+00  0.00000000000E+00  0.15939476719E+03  0.15939476719E+03  0.00000000000E+00 0.  1.
          4   -1    0    0  501    0  0.00000000000E+00 -0.00000000000E+00 -0.16321614245E+03  0.16321614245E+03  0.00000000000E+00 0. -1.
          5    1    1    2  502    0  0.95442971424E+02 -0.27684407309E+02 -0.17733384031E+02  0.10105617305E+03  0.47000000000E+01 0.  1.
         -5    1    1    2    0  502 -0.27251554635E+02 -0.48396223814E+02 -0.46889822585E+02  0.72839461637E+02  0.47000000000E+01 0.  1.
        -11    1    1    2    0    0 -0.37324921790E+02  0.16428866315E+02 -0.18510430502E+02  0.44784969269E+02  0.00000000000E+00 0. -1.
         11    1    1    2    0    0 -0.30866494999E+02  0.59651764808E+02  0.79312261862E+02  0.10393030569E+03  0.00000000000E+00 0.  1.
<mgrwt>
<rscale>  0 0.15458659E+03</rscale>
<asrwt>0</asrwt>
<pdfrwt beam="2">  1        4 0.25110176E-01 0.16144204E+03</pdfrwt>
<pdfrwt beam="1">  1       -4 0.24522272E-01 0.16144204E+03</pdfrwt>
<totfact> 0.39584923E+02</totfact>
</mgrwt>
</event>
<event>
 6    1  0.9240440E-006  0.1980693E+03  0.7546771E-02  0.1155855E+00
         -2   -1    0    0    0  501 -0.00000000000E+00  0.00000000000E+00  0.38411702940E+02  0.38411702940E+02  0.00000000000E+00 0.  1.
          2   -1    0    0  501    0  0.00000000000E+00 -0.00000000000E+00 -0.92686491810E+03  0.92686491810E+03  0.00000000000E+00 0. -1.
          5    1    1    2  502    0  0.10529486173E+03 -0.94475739023E+02 -0.42109532795E+03  0.44424772188E+03  0.47000000000E+01 0. -1.
         -5    1    1    2    0  502  0.25108019845E+02  0.13230728172E+02 -0.10494022492E+02  0.30621550198E+02  0.47000000000E+01 0. -1.
        -11    1    1    2    0    0 -0.86883493027E+02  0.96583260889E+02 -0.36835436387E+03  0.39059186502E+03  0.00000000000E+00 0.  1.
         11    1    1    2    0    0 -0.43519388545E+02 -0.15338250038E+02 -0.88509500855E+02  0.99815483945E+02  0.00000000000E+00 0. -1.
<mgrwt>
<rscale>  0 0.19291821E+03</rscale>
<asrwt>0</asrwt>
<pdfrwt beam="2">  1        2 0.14259459E+00 0.19806933E+03</pdfrwt>
<pdfrwt beam="1">  1       -2 0.59094933E-02 0.19806933E+03</pdfrwt>
<totfact> 0.43745953E+03</totfact>
</mgrwt>
</event>
<event>
 6    1  0.9240440E-006  0.1294644E+03  0.7546771E-02  0.1240685E+00
          2   -1    0    0  501    0  0.00000000000E+00  0.00000000000E+00  0.25738466997E+04  0.25738466997E+04  0.00000000000E+00 0. -1.
         -2   -1    0    0    0  501 -0.00000000000E+00 -0.00000000000E+00 -0.15382936505E+02  0.15382936505E+02  0.00000000000E+00 0.  1.
          5    1    1    2  502    0  0.76108828193E+02  0.12109985293E+02  0.15223229052E+04  0.15242796080E+04  0.47000000000E+01 0.  1.
         -5    1    1    2    0  502 -0.50679433489E+02  0.97688562841E+01  0.86507879923E+03  0.86662982548E+03  0.47000000000E+01 0.  1.
        -11    1    1    2    0    0 -0.60050671227E+02 -0.25808226598E+02  0.11645342288E+03  0.13354230556E+03  0.00000000000E+00 0.  1.
         11    1    1    2    0    0  0.34621276523E+02  0.39293850214E+01  0.54608635829E+02  0.64777897170E+02  0.00000000000E+00 0. -1.
<mgrwt>
<rscale>  0 0.12147425E+03</rscale>
<asrwt>0</asrwt>
<pdfrwt beam="1">  1        2 0.39597607E+00 0.12946436E+03</pdfrwt>
<pdfrwt beam="2">  1       -2 0.23666077E-02 0.12946436E+03</pdfrwt>
<totfact> 0.22358413E+03</totfact>
</mgrwt>
</event>
<event>
 6    1  0.9240440E-006  0.1269972E+03  0.7546771E-02  0.1247932E+00
         -1   -1    0    0    0  501 -0.00000000000E+00  0.00000000000E+00  0.14536599166E+02  0.14536599166E+02  0.00000000000E+00 0.  1.
          1   -1    0    0  501    0  0.00000000000E+00 -0.00000000000E+00 -0.91571808276E+03  0.91571808276E+03  0.00000000000E+00 0. -1.
          5    1    1    2  502    0 -0.42881841739E+02  0.47358213500E+02 -0.21461452921E+03  0.22397129031E+03  0.47000000000E+01 0.  1.
         -5    1    1    2    0  502  0.42423522075E+02 -0.24914607531E+02 -0.44680429514E+03  0.44952937729E+03  0.47000000000E+01 0.  1.
        -11    1    1    2    0    0 -0.27483873611E+02  0.23476706321E+02 -0.71556895924E+02  0.80168001114E+02  0.00000000000E+00 0. -1.
         11    1    1    2    0    0  0.27942193275E+02 -0.45920312290E+02 -0.16820576332E+03  0.17658601321E+03  0.00000000000E+00 0.  1.
<mgrwt>
<rscale>  0 0.11711589E+03</rscale>
<asrwt>0</asrwt>
<pdfrwt beam="2">  1        1 0.14087969E+00 0.12699720E+03</pdfrwt>
<pdfrwt beam="1">  1       -1 0.22364001E-02 0.12699720E+03</pdfrwt>
<totfact> 0.10350474E+04</totfact>
</mgrwt>
</event>
<event>
 6    1  0.9240440E-006  0.3810416E+03  0.7546771E-02  0.1050549E+00
          3   -1    0    0  501    0  0.00000000000E+00  0.00000000000E+00  0.38682408611E+03  0.38682408611E+03  0.00000000000E+00 0. -1.
         -3   -1    0    0    0  501 -0.00000000000E+00 -0.00000000000E+00 -0.93836385889E+02  0.93836385889E+02  0.00000000000E+00 0.  1.
          5    1    1    2  502    0 -0.26732620197E+02 -0.42206632169E+01  0.50495142425E+01  0.27929099067E+02  0.47000000000E+01 0.  1.
         -5    1    1    2    0  502  0.56858333775E+02  0.15859934751E+03  0.15411964022E+03  0.22838909048E+03  0.47000000000E+01 0.  1.
        -11    1    1    2    0    0 -0.14393655936E+01 -0.12248448053E+03  0.54295358267E+02  0.13398696084E+03  0.00000000000E+00 0.  1.
         11    1    1    2    0    0 -0.28686347984E+02 -0.31894203763E+02  0.79523187492E+02  0.90355321609E+02  0.00000000000E+00 0. -1.
<mgrwt>
<rscale>  0 0.38104159E+03</rscale>
<asrwt>0</asrwt>
<pdfrwt beam="1">  1        3 0.59511397E-01 0.38104159E+03</pdfrwt>
<pdfrwt beam="2">  1       -3 0.14436367E-01 0.38104159E+03</pdfrwt>
<totfact> 0.28866713E+02</totfact>
</mgrwt>
</event>
<event>
 6    1  0.9240440E-006  0.1356014E+03  0.7546771E-02  0.1231953E+00
          4   -1    0    0  501    0  0.00000000000E+00  0.00000000000E+00  0.42126321971E+03  0.42126321971E+03  0.00000000000E+00 0. -1.
         -4   -1    0    0    0  501 -0.00000000000E+00 -0.00000000000E+00 -0.39388650401E+02  0.39388650401E+02  0.00000000000E+00 0.  1.
          5    1    1    2  502    0 -0.23761459688E+00  0.37005186419E+02  0.23552940818E+03  0.23846515972E+03  0.47000000000E+01 0.  1.
         -5    1    1    2    0  502 -0.52254714055E+02 -0.34155903377E+02  0.60113132171E+02  0.86792047653E+02  0.47000000000E+01 0.  1.
        -11    1    1    2    0    0  0.28090985374E+02 -0.57629024482E+01  0.10216083431E+03  0.10610914461E+03  0.00000000000E+00 0. -1.
         11    1    1    2    0    0  0.24401343278E+02  0.29136194067E+01 -0.15928805352E+02  0.29285518123E+02  0.00000000000E+00 0.  1.
<mgrwt>
<rscale>  0 0.12701508E+03</rscale>
<asrwt>0</asrwt>
<pdfrwt beam="1">  1        4 0.64809723E-01 0.13560140E+03</pdfrwt>
<pdfrwt beam="2">  1       -4 0.60597926E-02 0.13560140E+03</pdfrwt>
<totfact> 0.65180347E+02</totfact>
</mgrwt>
</event>
<event>
 6    1  0.9240440E-006  0.3447848E+03  0.7546771E-02  0.1064776E+00
         -2   -1    0    0    0  501 -0.00000000000E+00  0.00000000000E+00  0.10454916381E+03  0.10454916381E+03  0.00000000000E+00 0.  1.
          2   -1    0    0  501    0  0.00000000000E+00 -0.00000000000E+00 -0.28425986693E+03  0.28425986693E+03  0.00000000000E+00 0. -1.
          5    1    1    2  502    0  0.38052939035E+02  0.71762787080E+01 -0.30614830805E+02  0.49587125451E+02  0.47000000000E+01 0. -1.
         -5    1    1    2    0  502 -0.87265577128E+02  0.53636442467E+02 -0.18735550036E+03  0.21357978000E+03  0.47000000000E+01 0. -1.
        -11    1    1    2    0    0  0.59094024566E+02 -0.63556202051E+01  0.19856706957E+01  0.59467979079E+02  0.00000000000E+00 0.  1.
         11    1    1    2    0    0 -0.98813864731E+01 -0.54457100970E+02  0.36273957340E+02  0.66174146204E+02  0.00000000000E+00 0. -1.
<mgrwt>
<rscale>  0 0.34478475E+03</rscale>
<asrwt>0</asrwt>
<pdfrwt beam="2">  1        2 0.43732287E-01 0.34478475E+03</pdfrwt>
<pdfrwt beam="1">  1       -2 0.16084487E-01 0.34478475E+03</pdfrwt>
<totfact> 0.35423682E+03</totfact>
</mgrwt>
</event>
<event>
 6    1  0.9240440E-006  0.1371490E+03  0.7546771E-02  0.1225958E+00
         -1   -1    0    0    0  501 -0.00000000000E+00  0.00000000000E+00  0.32385073059E+03  0.32385073059E+03  0.00000000000E+00 0.  1.
          1   -1    0    0  501    0  0.00000000000E+00 -0.00000000000E+00 -0.61217692887E+02  0.61217692887E+02  0.00000000000E+00 0. -1.
          5    1    1    2  502    0 -0.18973245708E+02 -0.53019341517E+02  0.57828407298E+02  0.80853257932E+02  0.47000000000E+01 0.  1.
         -5    1    1    2    0  502  0.63738568816E+02  0.18657212224E+02 -0.34838028398E+01  0.66670260274E+02  0.47000000000E+01 0.  1.
        -11    1    1    2    0    0  0.28158325858E+02  0.24808885951E+02  0.98420313463E+02  0.10533247476E+03  0.00000000000E+00 0. -1.
         11    1    1    2    0    0 -0.72923648967E+02  0.95532433420E+01  0.10986811978E+03  0.13221243051E+03  0.00000000000E+00 0.  1.
<mgrwt>
<rscale>  0 0.13101434E+03</rscale>
<asrwt>0</asrwt>
<pdfrwt beam="2">  1        1 0.94181067E-02 0.13714902E+03</pdfrwt>
<pdfrwt beam="1">  1       -1 0.49823189E-01 0.13714902E+03</pdfrwt>
<totfact> 0.27809998E+03</totfact>
</mgrwt>
</event>
<event>
 6    1  0.9240440E-006  0.1344620E+03  0.7546771E-02  0.1234495E+00
          3   -1    0    0  501    0  0.00000000000E+00  0.00000000000E+00  0.97328588603E+02  0.97328588603E+02  0.00000000000E+00 0. -1.
         -3   -1    0    0    0  501 -0.00000000000E+00 -0.00000000000E+00 -0.15068592697E+03  0.15068592697E+03  0.00000000000E+00 0.  1.
          5    1    1    2  502    0  0.32170069246E+02  0.22614494460E+02  0.21747286400E+02  0.45181447307E+02  0.47000000000E+01 0.  1.
         -5    1    1    2    0  502 -0.81536039781E+02 -0.26576265582E+02 -0.24484072010E+02  0.89308361633E+02  0.47000000000E+01 0.  1.
        -11    1    1    2    0    0  0.62731359853E+00  0.37433184661E+02 -0.37442241129E+02  0.52948637914E+02  0.00000000000E+00 0.  1.
         11    1    1    2    0    0  0.48738656937E+02 -0.33471413539E+02 -0.13178311630E+02  0.60576068721E+02  0.00000000000E+00 0. -1.
<mgrwt>
<rscale>  0 0.12536839E+03</rscale>
<asrwt>0</asrwt>
<pdfrwt beam="1">  1        3 0.14973629E-01 0.13446196E+03</pdfrwt>
<pdfrwt beam="2">  1       -3 0.23182450E-01 0.13446196E+03</pdfrwt>
<totfact> 0.14719509E+03</totfact>
</mgrwt>
</event>
<event>
 6    1  0.9240440E-006  0.1360758E+03  0.7546771E-02  0.1230852E+00
         -1   -1    0    0    0  501 -0.00000000000E+00  0.00000000000E+00  0.97045144236E+02  0.97045144236E+02  0.00000000000E+00 0. -1.
          1   -1    0    0  501    0  0.00000000000E+00 -0.00000000000E+00 -0.18187099786E+03  0.18187099786E+03  0.00000000000E+00 0.  1.
          5    1    1    2  502    0  0.18417590579E+02 -0.21690788994E+02  0.22426085768E+02  0.36533782897E+02  0.47000000000E+01 0. -1.
         -5    1    1    2    0  502  0.34666730423E+02  0.30274596151E+02 -0.12675372831E+03  0.13493306123E+03  0.47000000000E+01 0. -1.
        -11    1    1    2    0    0 -0.27034213907E+02 -0.42001303688E+02 -0.15704401648E+02  0.52360161040E+02  0.00000000000E+00 0.  1.
         11    1    1    2    0    0 -0.26050107094E+02  0.33417496531E+02  0.35206190567E+02  0.55089136935E+02  0.00000000000E+00 0. -1.
<mgrwt>
<rscale>  0 0.12773742E+03</rscale>
<asrwt>0</asrwt>
<pdfrwt beam="2">  1        1 0.27980154E-01 0.13607579E+03</pdfrwt>
<pdfrwt beam="1">  1       -1 0.14930022E-01 0.13607579E+03</pdfrwt>
<totfact> 0.51240090E+03</totfact>
</mgrwt>
</event>
<event>
 6    1  0.9240440E-006  0.2162089E+03  0.7546771E-02  0.1140136E+00
          1   -1    0    0  501    0  0.00000000000E+00  0.00000000000E+00  0.11933184091E+04  0.11933184091E+04  0.00000000000E+00 0. -1.
         -1   -1    0    0    0  501 -0.00000000000E+00 -0.00000000000E+00 -0.53147557867E+02  0.53147557867E+02  0.00000000000E+00 0.  1.
          5    1    1    2  502    0 -0.24255524677E+01 -0.77867512895E+02  0.45251062687E+03  0.45919188832E+03  0.47000000000E+01 0. -1.
         -5    1    1    2    0  502 -0.12577585206E+03 -0.43319572712E+02  0.48577400539E+03  0.50368107435E+03  0.47000000000E+01 0. -1.
        -11    1    1    2    0    0  0.10138584562E+03  0.34861978875E+02  0.12704591674E+03  0.16623811904E+03  0.00000000000E+00 0.  1.
         11    1    1    2    0    0  0.26815558913E+02  0.86325106732E+02  0.74840302198E+02  0.11735488522E+03  0.00000000000E+00 0. -1.
<mgrwt>
<rscale>  0 0.21181601E+03</rscale>
<asrwt>0</asrwt>
<pdfrwt beam="1">  1        1 0.18358743E+00 0.21620891E+03</pdfrwt>
<pdfrwt beam="2">  1       -1 0.81765482E-02 0.21620891E+03</pdfrwt>
<totfact> 0.96767483E+02</totfact>
</mgrwt>
</event>
<event>
 6    1  0.9240440E-006  0.1261872E+03  0.7546771E-02  0.1250142E+00
         -1   -1    0    0    0  501 -0.00000000000E+00  0.00000000000E+00  0.11025325803E+03  0.11025325803E+03  0.00000000000E+00 0.  1.
          1   -1    0    0  501    0  0.00000000000E+00 -0.00000000000E+00 -0.10828906763E+03  0.10828906763E+03  0.00000000000E+00 0. -1.
          5    1    1    2  502    0 -0.67373324882E+02 -0.20111091881E+02 -0.67038103033E+01  0.70785959024E+02  0.47000000000E+01 0.  1.
         -5    1    1    2    0  502  0.50409227125E+02  0.23085285189E+02 -0.92361480684E+01  0.56404051297E+02  0.47000000000E+01 0.  1.
        -11    1    1    2    0    0 -0.30573970739E+02 -0.83915850843E+01 -0.13137702294E+02  0.34318881225E+02  0.00000000000E+00 0. -1.
         11    1    1    2    0    0  0.47538068496E+02  0.54173917768E+01  0.31041851061E+02  0.57033434118E+02  0.00000000000E+00 0.  1.
<mgrwt>
<rscale>  0 0.11582840E+03</rscale>
<asrwt>0</asrwt>
<pdfrwt beam="2">  1        1 0.16659857E-01 0.12618723E+03</pdfrwt>
<pdfrwt beam="1">  1       -1 0.16962040E-01 0.12618723E+03</pdfrwt>
<totfact> 0.80336923E+03</totfact>
</mgrwt>
</event>
<event>
 6    1  0.9240440E-006  0.1261040E+03  0.7546771E-02  0.1248187E+00
         -2   -1    0    0    0  501 -0.00000000000E+00  0.00000000000E+00  0.67879848990E+02  0.67879848990E+02  0.00000000000E+00 0.  1.
          2   -1    0    0  501    0  0.00000000000E+00 -0.00000000000E+00 -0.18099130514E+03  0.18099130514E+03  0.00000000000E+00 0. -1.
          5    1    1    2  502    0 -0.18971332666E+02  0.21754928382E+01  0.29622831791E+02  0.35556242708E+02  0.47000000000E+01 0.  1.
         -5    1    1    2    0  502  0.21968632332E+02  0.14218718140E+02 -0.11190000960E+03  0.11501519422E+03  0.47000000000E+01 0.  1.
        -11    1    1    2    0    0 -0.60877656802E+01 -0.43497163139E+02  0.13758012405E+02  0.46025503772E+02  0.00000000000E+00 0.  1.
         11    1    1    2    0    0  0.30904660139E+01  0.27102952161E+02 -0.44592290741E+02  0.52274213429E+02  0.00000000000E+00 0. -1.
<mgrwt>
<rscale>  0 0.11696662E+03</rscale>
<asrwt>0</asrwt>
<pdfrwt beam="2">  1        2 0.27844816E-01 0.12610402E+03</pdfrwt>
<pdfrwt beam="1">  1       -2 0.10443054E-01 0.12610402E+03</pdfrwt>
<totfact> 0.11027055E+04</totfact>
</mgrwt>
</event>
<event>
 6    1  0.9240440E-006  0.3002956E+03  0.7546771E-02  0.1085093E+00
         -2   -1    0    0    0  501 -0.00000000000E+00  0.00000000000E+00  0.18184772249E+03  0.18184772249E+03  0.00000000000E+00 0.  1.
          2   -1    0    0  501    0  0.00000000000E+00 -0.00000000000E+00 -0.12397387927E+03  0.12397387927E+03  0.00000000000E+00 0. -1.
          5    1    1    2  502    0 -0.18463337415E+02  0.20992184421E+02 -0.48183962560E+02  0.55904837744E+02  0.47000000000E+01 0. -1.
         -5    1    1    2    0  502  0.95357064225E+02  0.15155273230E+02  0.17712398333E+02  0.98277520619E+02  0.47000000000E+01 0. -1.
        -11    1    1    2    0    0 -0.60972477187E+02  0.18000054723E+02  0.63884031543E+02  0.90126657713E+02  0.00000000000E+00 0. -1.
         11    1    1    2    0    0 -0.15921249623E+02 -0.54147512374E+02  0.24461375909E+02  0.61512585681E+02  0.00000000000E+00 0.  1.
<mgrwt>
<rscale>  0 0.30029564E+03</rscale>
<asrwt>0</asrwt>
<pdfrwt beam="2">  1        2 0.19072904E-01 0.30029564E+03</pdfrwt>
<pdfrwt beam="1">  1       -2 0.27976573E-01 0.30029564E+03</pdfrwt>
<totfact> 0.34033136E+03</totfact>
</mgrwt>
</event>
<event>
 6    1  0.9240440E-006  0.2187120E+03  0.7546771E-02  0.1138194E+00
          1   -1    0    0  501    0  0.00000000000E+00  0.00000000000E+00  0.29377784531E+03  0.29377784531E+03  0.00000000000E+00 0. -1.
         -1   -1    0    0    0  501 -0.00000000000E+00 -0.00000000000E+00 -0.15128180209E+03  0.15128180209E+03  0.00000000000E+00 0.  1.
          5    1    1    2  502    0  0.95284182503E+02 -0.48604441259E+01 -0.19812183677E+02  0.97556711581E+02  0.47000000000E+01 0. -1.
         -5    1    1    2    0  502  0.83943571016E+02 -0.45998105951E+01  0.11119664826E+03  0.13947926712E+03  0.47000000000E+01 0. -1.
        -11    1    1    2    0    0 -0.72202430348E+02 -0.20072830476E+02  0.60902871566E+02  0.96567433623E+02  0.00000000000E+00 0.  1.
         11    1    1    2    0    0 -0.10702532317E+03  0.29533085197E+02 -0.97912929322E+01  0.11145623508E+03  0.00000000000E+00 0. -1.
<mgrwt>
<rscale>  0 0.21431487E+03</rscale>
<asrwt>0</asrwt>
<pdfrwt beam="1">  1        1 0.45196591E-01 0.21871199E+03</pdfrwt>
<pdfrwt beam="2">  1       -1 0.23274123E-01 0.21871199E+03</pdfrwt>
<totfact> 0.14063882E+03</totfact>
</mgrwt>
</event>
<event>
 6    1  0.9240440E-006  0.1391823E+03  0.7546771E-02  0.1225295E+00
          2   -1    0    0  501    0  0.00000000000E+00  0.00000000000E+00  0.58868020012E+03  0.58868020012E+03  0.00000000000E+00 0.  1.
         -2   -1    0    0    0  501 -0.00000000000E+00 -0.00000000000E+00 -0.30729560182E+02  0.30729560182E+02  0.00000000000E+00 0. -1.
          5    1    1    2  502    0  0.58697319689E+02 -0.62934665787E+02  0.32809954525E+03  0.33923081978E+03  0.47000000000E+01 0.  1.
         -5    1    1    2    0  502 -0.46703966094E+02  0.29065777140E+01  0.91984974673E+02  0.10331037803E+03  0.47000000000E+01 0.  1.
        -11    1    1    2    0    0 -0.46525798363E+02  0.31426743408E+02  0.39152680582E+02  0.68448685241E+02  0.00000000000E+00 0. -1.
         11    1    1    2    0    0  0.34532444767E+02  0.28601344665E+02  0.98713439430E+02  0.10841987725E+03  0.00000000000E+00 0.  1.
<mgrwt>
<rscale>  0 0.13146723E+03</rscale>
<asrwt>0</asrwt>
<pdfrwt beam="1">  1        2 0.90566176E-01 0.13918228E+03</pdfrwt>
<pdfrwt beam="2">  1       -2 0.47276251E-02 0.13918228E+03</pdfrwt>
<totfact> 0.10514596E+04</totfact>
</mgrwt>
</event>
<event>
 6    1  0.9240440E-006  0.1380285E+03  0.7546771E-02  0.1246603E+00
         -2   -1    0    0    0  501 -0.00000000000E+00  0.00000000000E+00  0.46006513199E+03  0.46006513199E+03  0.00000000000E+00 0.  1.
          2   -1    0    0  501    0  0.00000000000E+00 -0.00000000000E+00 -0.29611493680E+02  0.29611493680E+02  0.00000000000E+00 0. -1.
          5    1    1    2  502    0  0.59892537346E+01 -0.44417329709E+02  0.10431916910E+03  0.11363691909E+03  0.47000000000E+01 0. -1.
         -5    1    1    2    0  502  0.48236566683E+02  0.66487521544E+02  0.65260828026E+02  0.10501629665E+03  0.47000000000E+01 0. -1.
        -11    1    1    2    0    0 -0.54413660774E+02 -0.32276981206E+02  0.22433113966E+03  0.23308176723E+03  0.00000000000E+00 0. -1.
         11    1    1    2    0    0  0.18784035601E+00  0.10206789371E+02  0.36542501531E+02  0.37941642709E+02  0.00000000000E+00 0.  1.
<mgrwt>
<rscale>  0 0.11789949E+03</rscale>
<asrwt>0</asrwt>
<pdfrwt beam="2">  1        2 0.45556148E-02 0.13802845E+03</pdfrwt>
<pdfrwt beam="1">  1       -2 0.70779246E-01 0.13802845E+03</pdfrwt>
<totfact> 0.31676685E+03</totfact>
</mgrwt>
</event>
<event>
 6    1  0.9240440E-006  0.1424135E+03  0.7546771E-02  0.1220541E+00
         -3   -1    0    0    0  501 -0.00000000000E+00  0.00000000000E+00  0.32500782236E+03  0.32500782236E+03  0.00000000000E+00 0.  1.
          3   -1    0    0  501    0  0.00000000000E+00 -0.00000000000E+00 -0.54402990055E+02  0.54402990055E+02  0.00000000000E+00 0. -1.
          5    1    1    2  502    0 -0.79062556254E+02 -0.68059369397E+02  0.67942267567E+02  0.12458413738E+03  0.47000000000E+01 0.  1.
         -5    1    1    2    0  502  0.32801495547E+02  0.17891268206E+02  0.31734836193E+02  0.49246577712E+02  0.47000000000E+01 0.  1.
        -11    1    1    2    0    0  0.73722730553E+02  0.33121241659E+02  0.13417262672E+03  0.15663445154E+03  0.00000000000E+00 0.  1.
         11    1    1    2    0    0 -0.27461669846E+02  0.17046859532E+02  0.36755101823E+02  0.48945645778E+02  0.00000000000E+00 0. -1.
<mgrwt>
<rscale>  0 0.13477261E+03</rscale>
<asrwt>0</asrwt>
<pdfrwt beam="2">  1        3 0.83696910E-02 0.14241346E+03</pdfrwt>
<pdfrwt beam="1">  1       -3 0.50001202E-01 0.14241346E+03</pdfrwt>
<totfact> 0.92006551E+02</totfact>
</mgrwt>
</event>
<event>
 6    1  0.9240440E-006  0.1283140E+03  0.7546771E-02  0.1243810E+00
         -1   -1    0    0    0  501 -0.00000000000E+00  0.00000000000E+00  0.26498347231E+02  0.26498347231E+02  0.00000000000E+00 0.  1.
          1   -1    0    0  501    0  0.00000000000E+00 -0.00000000000E+00 -0.49479729124E+03  0.49479729124E+03  0.00000000000E+00 0. -1.
          5    1    1    2  502    0 -0.19836622057E+02  0.39672995244E+02 -0.53539515495E+02  0.69685061854E+02  0.47000000000E+01 0. -1.
         -5    1    1    2    0  502  0.13304132265E+02 -0.67909990607E+02 -0.26004202361E+03  0.26913325845E+03  0.47000000000E+01 0. -1.
        -11    1    1    2    0    0  0.16827623309E+02  0.49598448349E+02 -0.14920704741E+03  0.15813259621E+03  0.00000000000E+00 0. -1.
         11    1    1    2    0    0 -0.10295133517E+02 -0.21361452985E+02 -0.55103574899E+01  0.24344721963E+02  0.00000000000E+00 0.  1.
<mgrwt>
<rscale>  0 0.11956878E+03</rscale>
<asrwt>0</asrwt>
<pdfrwt beam="2">  1        1 0.76122657E-01 0.12831396E+03</pdfrwt>
<pdfrwt beam="1">  1       -1 0.40766690E-02 0.12831396E+03</pdfrwt>
<totfact> 0.10374067E+04</totfact>
</mgrwt>
</event>
<event>
 6    1  0.9240440E-006  0.3394432E+03  0.7546771E-02  0.1067033E+00
          2   -1    0    0  501    0  0.00000000000E+00  0.00000000000E+00  0.12909439714E+04  0.12909439714E+04  0.00000000000E+00 0. -1.
         -2   -1    0    0    0  501 -0.00000000000E+00 -0.00000000000E+00 -0.22313458971E+02  0.22313458971E+02  0.00000000000E+00 0.  1.
          5    1    1    2  502    0 -0.48246333513E+02  0.12423490818E+03  0.65427187954E+03  0.66772434691E+03  0.47000000000E+01 0. -1.
         -5    1    1    2    0  502 -0.28218409033E+02 -0.29522347266E+02  0.19627478483E+03  0.20053361004E+03  0.47000000000E+01 0. -1.
        -11    1    1    2    0    0  0.55106995223E+02 -0.10549970827E+01  0.18058276610E+03  0.18880685727E+03  0.00000000000E+00 0.  1.
         11    1    1    2    0    0  0.21357747323E+02 -0.93657563834E+02  0.23750108201E+03  0.25619261619E+03  0.00000000000E+00 0. -1.
<mgrwt>
<rscale>  0 0.33944322E+03</rscale>
<asrwt>0</asrwt>
<pdfrwt beam="1">  1        2 0.19860671E+00 0.33944322E+03</pdfrwt>
<pdfrwt beam="2">  1       -2 0.34328409E-02 0.33944322E+03</pdfrwt>
<totfact> 0.61646131E+03</totfact>
</mgrwt>
</event>
<event>
 6    1  0.9240440E-006  0.1270907E+03  0.7546771E-02  0.1246968E+00
          2   -1    0    0  501    0  0.00000000000E+00  0.00000000000E+00  0.84611333795E+03  0.84611333795E+03  0.00000000000E+00 0. -1.
         -2   -1    0    0    0  501 -0.00000000000E+00 -0.00000000000E+00 -0.16365064180E+02  0.16365064180E+02  0.00000000000E+00 0.  1.
          5    1    1    2  502    0  0.10653678872E+02 -0.10410633999E+02  0.58178595017E+03  0.58199558761E+03  0.47000000000E+01 0. -1.
         -5    1    1    2    0  502 -0.32810449351E+02  0.44657779435E+01  0.37718368900E+02  0.50410654745E+02  0.47000000000E+01 0. -1.
        -11    1    1    2    0    0  0.56279270133E+02  0.11982597967E+02  0.14867374498E+03  0.15942026642E+03  0.00000000000E+00 0.  1.
         11    1    1    2    0    0 -0.34122499654E+02 -0.60377419123E+01  0.61570209715E+02  0.70651893353E+02  0.00000000000E+00 0. -1.
<mgrwt>
<rscale>  0 0.11768373E+03</rscale>
<asrwt>0</asrwt>
<pdfrwt beam="1">  1        2 0.13017125E+00 0.12709073E+03</pdfrwt>
<pdfrwt beam="2">  1       -2 0.25177028E-02 0.12709073E+03</pdfrwt>
<totfact> 0.17187037E+04</totfact>
</mgrwt>
</event>
<event>
 6    1  0.9240440E-006  0.1294823E+03  0.7546771E-02  0.1243600E+00
          2   -1    0    0  501    0  0.00000000000E+00  0.00000000000E+00  0.35590013830E+02  0.35590013830E+02  0.00000000000E+00 0. -1.
         -2   -1    0    0    0  501 -0.00000000000E+00 -0.00000000000E+00 -0.38501636767E+03  0.38501636767E+03  0.00000000000E+00 0.  1.
          5    1    1    2  502    0  0.33755614475E+02  0.11823824641E+02 -0.49982018632E+00  0.36077474385E+02  0.47000000000E+01 0.  1.
         -5    1    1    2    0  502 -0.54755602342E+02 -0.38256598016E+02 -0.13879357744E+03  0.15410220770E+03  0.47000000000E+01 0.  1.
        -11    1    1    2    0    0  0.49831984386E+02  0.32424300238E+02 -0.17362936644E+03  0.18352579874E+03  0.00000000000E+00 0.  1.
         11    1    1    2    0    0 -0.28831996519E+02 -0.59915268627E+01 -0.36503589772E+02  0.46900900671E+02  0.00000000000E+00 0. -1.
<mgrwt>
<rscale>  0 0.11969572E+03</rscale>
<asrwt>0</asrwt>
<pdfrwt beam="1">  1        2 0.54753869E-02 0.12948228E+03</pdfrwt>
<pdfrwt beam="2">  1       -2 0.59233285E-01 0.12948228E+03</pdfrwt>
<totfact> 0.35974101E+03</totfact>
</mgrwt>
</event>
<event>
 6    1  0.9240440E-006  0.1531981E+03  0.7546771E-02  0.1204535E+00
         -2   -1    0    0    0  501 -0.00000000000E+00  0.00000000000E+00  0.22421408956E+02  0.22421408956E+02  0.00000000000E+00 0.  1.
          2   -1    0    0  501    0  0.00000000000E+00 -0.00000000000E+00 -0.15382090554E+04  0.15382090554E+04  0.00000000000E+00 0. -1.
          5    1    1    2  502    0 -0.80694460782E+02  0.92957697581E+01 -0.12425213859E+04  0.12451825134E+04  0.47000000000E+01 0. -1.
         -5    1    1    2    0  502 -0.59152050258E+01 -0.27071361437E+02 -0.59314941109E+02  0.65636883681E+02  0.47000000000E+01 0. -1.
        -11    1    1    2    0    0  0.29133149994E+02 -0.34284799416E+02 -0.11896785011E+03  0.12719094802E+03  0.00000000000E+00 0. -1.
         11    1    1    2    0    0  0.57476515813E+02  0.52060391095E+02 -0.94983469305E+02  0.12262011920E+03  0.00000000000E+00 0.  1.
<mgrwt>
<rscale>  0 0.14674150E+03</rscale>
<asrwt>0</asrwt>
<pdfrwt beam="2">  1        2 0.23664756E+00 0.15319814E+03</pdfrwt>
<pdfrwt beam="1">  1       -2 0.34494473E-02 0.15319814E+03</pdfrwt>
<totfact> 0.44330070E+03</totfact>
</mgrwt>
</event>
<event>
 6    1  0.9240440E-006  0.1261911E+03  0.7546771E-02  0.1247977E+00
         -2   -1    0    0    0  501 -0.00000000000E+00  0.00000000000E+00  0.21903877625E+02  0.21903877625E+02  0.00000000000E+00 0.  1.
          2   -1    0    0  501    0  0.00000000000E+00 -0.00000000000E+00 -0.55267619387E+03  0.55267619387E+03  0.00000000000E+00 0. -1.
          5    1    1    2  502    0 -0.23808464166E+01  0.32399973250E+02 -0.24977542172E+03  0.25192315891E+03  0.47000000000E+01 0.  1.
         -5    1    1    2    0  502  0.22677156883E+01 -0.49695121680E+02 -0.39556376935E+02  0.63730248779E+02  0.47000000000E+01 0.  1.
        -11    1    1    2    0    0 -0.18834082961E+02 -0.28400144106E+02 -0.16041017237E+03  0.16398998221E+03  0.00000000000E+00 0. -1.
         11    1    1    2    0    0  0.18947213690E+02  0.45695292536E+02 -0.81030345218E+02  0.94936681597E+02  0.00000000000E+00 0.  1.
<mgrwt>
<rscale>  0 0.11708987E+03</rscale>
<asrwt>0</asrwt>
<pdfrwt beam="2">  1        2 0.85027101E-01 0.12619106E+03</pdfrwt>
<pdfrwt beam="1">  1       -2 0.33698276E-02 0.12619106E+03</pdfrwt>
<totfact> 0.18524219E+04</totfact>
</mgrwt>
</event>
<event>
 6    1  0.9240440E-006  0.2060053E+03  0.7546771E-02  0.1148115E+00
         -2   -1    0    0    0  501 -0.00000000000E+00  0.00000000000E+00  0.18070961259E+03  0.18070961259E+03  0.00000000000E+00 0.  1.
          2   -1    0    0  501    0  0.00000000000E+00 -0.00000000000E+00 -0.24207432899E+03  0.24207432899E+03  0.00000000000E+00 0. -1.
          5    1    1    2  502    0 -0.29309385911E+02  0.77294044351E+02 -0.10658464745E+03  0.13496587149E+03  0.47000000000E+01 0. -1.
         -5    1    1    2    0  502 -0.84001803603E+02  0.40912212011E+02  0.70631624581E+01  0.93819456213E+02  0.47000000000E+01 0. -1.
        -11    1    1    2    0    0  0.56484481254E+02 -0.10956715586E+03 -0.29954098665E+01  0.12330624780E+03  0.00000000000E+00 0. -1.
         11    1    1    2    0    0  0.56826708261E+02 -0.86391005014E+01  0.41152178464E+02  0.70692366077E+02  0.00000000000E+00 0.  1.
<mgrwt>
<rscale>  0 0.20193738E+03</rscale>
<asrwt>0</asrwt>
<pdfrwt beam="2">  1        2 0.37242205E-01 0.20600534E+03</pdfrwt>
<pdfrwt beam="1">  1       -2 0.27801479E-01 0.20600534E+03</pdfrwt>
<totfact> 0.16097683E+03</totfact>
</mgrwt>
</event>
<event>
 6    1  0.9240440E-006  0.2444931E+03  0.7546771E-02  0.1116835E+00
          1   -1    0    0  501    0  0.00000000000E+00  0.00000000000E+00  0.87377176036E+03  0.87377176036E+03  0.00000000000E+00 0. -1.
         -1   -1    0    0    0  501 -0.00000000000E+00 -0.00000000000E+00 -0.17103120127E+02  0.17103120127E+02  0.00000000000E+00 0.  1.
          5    1    1    2  502    0  0.28675745494E+00  0.21648504306E+02  0.13472742588E+02  0.25929611671E+02  0.47000000000E+01 0.  1.
         -5    1    1    2    0  502  0.47135657612E+02 -0.43071171888E+02  0.54381254295E+03  0.54756832262E+03  0.47000000000E+01 0.  1.
        -11    1    1    2    0    0 -0.55402705415E+02 -0.22169553663E+02  0.14612965317E+03  0.15784430434E+03  0.00000000000E+00 0.  1.
         11    1    1    2    0    0  0.79802903483E+01  0.43592221245E+02  0.15325370153E+03  0.15953264186E+03  0.00000000000E+00 0. -1.
<mgrwt>
<rscale>  0 0.24449314E+03</rscale>
<asrwt>0</asrwt>
<pdfrwt beam="1">  1        1 0.13442639E+00 0.24449314E+03</pdfrwt>
<pdfrwt beam="2">  1       -1 0.26312499E-02 0.24449314E+03</pdfrwt>
<totfact> 0.91167821E+03</totfact>
</mgrwt>
</event>
<event>
 6    1  0.9240440E-006  0.1276878E+03  0.7546771E-02  0.1245924E+00
          1   -1    0    0  501    0  0.00000000000E+00  0.00000000000E+00  0.39643238687E+02  0.39643238687E+02  0.00000000000E+00 0. -1.
         -1   -1    0    0    0  501 -0.00000000000E+00 -0.00000000000E+00 -0.31297839762E+03  0.31297839762E+03  0.00000000000E+00 0.  1.
          5    1    1    2  502    0  0.41810512805E+02 -0.22949050336E+02 -0.20254616938E+02  0.52029966362E+02  0.47000000000E+01 0.  1.
         -5    1    1    2    0  502 -0.65878128271E+02  0.12977802954E+02 -0.12040907174E+03  0.13794486475E+03  0.47000000000E+01 0.  1.
        -11    1    1    2    0    0  0.12135340318E+02  0.48049597056E+02 -0.97855988121E+02  0.10968967441E+03  0.00000000000E+00 0.  1.
         11    1    1    2    0    0  0.11932275148E+02 -0.38078349674E+02 -0.34815482129E+02  0.52957130775E+02  0.00000000000E+00 0. -1.
<mgrwt>
<rscale>  0 0.11830245E+03</rscale>
<asrwt>0</asrwt>
<pdfrwt beam="1">  1        1 0.60989596E-02 0.12768776E+03</pdfrwt>
<pdfrwt beam="2">  1       -1 0.48150524E-01 0.12768776E+03</pdfrwt>
<totfact> 0.52809013E+03</totfact>
</mgrwt>
</event>
<event>
 6    1  0.9240440E-006  0.3172398E+03  0.7546771E-02  0.1122572E+00
          2   -1    0    0  501    0  0.00000000000E+00  0.00000000000E+00  0.14166432992E+04  0.14166432992E+04  0.00000000000E+00 0. -1.
         -2   -1    0    0    0  501 -0.00000000000E+00 -0.00000000000E+00 -0.35507749509E+02  0.35507749509E+02  0.00000000000E+00 0.  1.
          5    1    1    2  502    0 -0.14589019773E+03 -0.37669390691E+02  0.86754994384E+03  0.88054978726E+03  0.47000000000E+01 0. -1.
         -5    1    1    2    0  502  0.13010674262E+03  0.63473844895E+02  0.37896913088E+03  0.40570480108E+03  0.47000000000E+01 0.  1.
        -11    1    1    2    0    0  0.32310017464E+02 -0.40417943213E+02  0.13420138114E+03  0.14383170048E+03  0.00000000000E+00 0.  1.
         11    1    1    2    0    0 -0.16526562354E+02  0.14613489008E+02  0.41509378706E+00  0.22064759847E+02  0.00000000000E+00 0. -1.
<mgrwt>
<rscale>  0 0.23587500E+03</rscale>
<asrwt>0</asrwt>
<pdfrwt beam="1">  1        2 0.21794508E+00 0.31723976E+03</pdfrwt>
<pdfrwt beam="2">  1       -2 0.54627318E-02 0.31723976E+03</pdfrwt>
<totfact> 0.25874263E+03</totfact>
</mgrwt>
</event>
<event>
 6    1  0.9240440E-006  0.1300495E+03  0.7546771E-02  0.1240221E+00
          1   -1    0    0  501    0  0.00000000000E+00  0.00000000000E+00  0.76935286493E+03  0.76935286493E+03  0.00000000000E+00 0. -1.
         -1   -1    0    0    0  501 -0.00000000000E+00 -0.00000000000E+00 -0.30518102330E+02  0.30518102330E+02  0.00000000000E+00 0.  1.
          5    1    1    2  502    0 -0.61992942182E+02  0.32218156690E+02  0.26557231138E+03  0.27464864295E+03  0.47000000000E+01 0.  1.
         -5    1    1    2    0  502  0.28441030146E+02 -0.45117266261E+02  0.39414344589E+03  0.39776325351E+03  0.47000000000E+01 0.  1.
        -11    1    1    2    0    0  0.62734439431E+02 -0.87748727971E+01  0.46024075367E+02  0.78299577245E+02  0.00000000000E+00 0.  1.
         11    1    1    2    0    0 -0.29182527396E+02  0.21673982368E+02  0.33094929966E+02  0.49159493553E+02  0.00000000000E+00 0. -1.
<mgrwt>
<rscale>  0 0.12176024E+03</rscale>
<asrwt>0</asrwt>
<pdfrwt beam="1">  1        1 0.11836197E+00 0.13004952E+03</pdfrwt>
<pdfrwt beam="2">  1       -1 0.46950932E-02 0.13004952E+03</pdfrwt>
<totfact> 0.45953374E+03</totfact>
</mgrwt>
</event>
<event>
 6    1  0.9240440E-006  0.2184791E+03  0.7546771E-02  0.1145076E+00
          1   -1    0    0  501    0  0.00000000000E+00  0.00000000000E+00  0.13532240625E+04  0.13532240625E+04  0.00000000000E+00 0. -1.
         -1   -1    0    0    0  501 -0.00000000000E+00 -0.00000000000E+00 -0.11818250341E+03  0.11818250341E+03  0.00000000000E+00 0.  1.
          5    1    1    2  502    0 -0.53312384587E+02  0.14632752344E+03  0.85963907314E+03  0.87364488240E+03  0.47000000000E+01 0. -1.
         -5    1    1    2    0  502  0.61493192351E+02  0.39823351212E+01  0.41683670650E+03  0.42139316746E+03  0.47000000000E+01 0.  1.
        -11    1    1    2    0    0  0.21671075999E+02 -0.13290037318E+03 -0.44138873713E+02  0.14170527478E+03  0.00000000000E+00 0.  1.
         11    1    1    2    0    0 -0.29851883763E+02 -0.17409485378E+02  0.27046531454E+01  0.34663241250E+02  0.00000000000E+00 0. -1.
<mgrwt>
<rscale>  0 0.20562726E+03</rscale>
<asrwt>0</asrwt>
<pdfrwt beam="1">  1        1 0.20818831E+00 0.21847914E+03</pdfrwt>
<pdfrwt beam="2">  1       -1 0.18181925E-01 0.21847914E+03</pdfrwt>
<totfact> 0.21536039E+02</totfact>
</mgrwt>
</event>
<event>
 6    1  0.9240440E-006  0.1955411E+03  0.7546771E-02  0.1182342E+00
         -1   -1    0    0    0  501 -0.00000000000E+00  0.00000000000E+00  0.14578885910E+02  0.14578885910E+02  0.00000000000E+00 0.  1.
          1   -1    0    0  501    0  0.00000000000E+00 -0.00000000000E+00 -0.15631163217E+04  0.15631163217E+04  0.00000000000E+00 0. -1.
          5    1    1    2  502    0  0.63565111303E+02  0.20181749586E+02 -0.77674286959E+03  0.77961490612E+03  0.47000000000E+01 0. -1.
         -5    1    1    2    0  502 -0.84812935773E+02 -0.56618325516E+02 -0.37677008678E+03  0.39035452751E+03  0.47000000000E+01 0.  1.
        -11    1    1    2    0    0 -0.24210168415E+02  0.47638780613E+02 -0.18612794648E+03  0.19364709689E+03  0.00000000000E+00 0.  1.
         11    1    1    2    0    0  0.45457992885E+02 -0.11202204684E+02 -0.20889653291E+03  0.21407867705E+03  0.00000000000E+00 0. -1.
<mgrwt>
<rscale>  0 0.16576092E+03</rscale>
<asrwt>0</asrwt>
<pdfrwt beam="2">  1        1 0.24047949E+00 0.19554113E+03</pdfrwt>
<pdfrwt beam="1">  1       -1 0.22429050E-02 0.19554113E+03</pdfrwt>
<totfact> 0.37495219E+03</totfact>
</mgrwt>
</event>
<event>
 6    1  0.9240440E-006  0.2344065E+03  0.7546771E-02  0.1126500E+00
          2   -1    0    0  501    0  0.00000000000E+00  0.00000000000E+00  0.12803638717E+03  0.12803638717E+03  0.00000000000E+00 0. -1.
         -2   -1    0    0    0  501 -0.00000000000E+00 -0.00000000000E+00 -0.40200146763E+03  0.40200146763E+03  0.00000000000E+00 0.  1.
          5    1    1    2  502    0 -0.16948816992E+02 -0.20346012390E+02 -0.47885825277E+02  0.54921442808E+02  0.47000000000E+01 0. -1.
         -5    1    1    2    0  502  0.14634235727E+03 -0.12991572763E+03 -0.73867499381E+02  0.20921921346E+03  0.47000000000E+01 0. -1.
        -11    1    1    2    0    0 -0.42969476723E+02  0.67655933085E+02 -0.11597243242E+03  0.14097271471E+03  0.00000000000E+00 0. -1.
         11    1    1    2    0    0 -0.86424063555E+02  0.82605806930E+02 -0.36239323385E+02  0.12492448383E+03  0.00000000000E+00 0.  1.
<mgrwt>
<rscale>  0 0.23019800E+03</rscale>
<asrwt>0</asrwt>
<pdfrwt beam="1">  1        2 0.19697906E-01 0.23440651E+03</pdfrwt>
<pdfrwt beam="2">  1       -2 0.61846379E-01 0.23440651E+03</pdfrwt>
<totfact> 0.70082459E+02</totfact>
</mgrwt>
</event>
<event>
 6    1  0.9240440E-006  0.2159999E+03  0.7546771E-02  0.1167248E+00
         -1   -1    0    0    0  501 -0.00000000000E+00  0.00000000000E+00  0.16945430367E+03  0.16945430367E+03  0.00000000000E+00 0.  1.
          1   -1    0    0  501    0  0.00000000000E+00 -0.00000000000E+00 -0.22484989651E+03  0.22484989651E+03  0.00000000000E+00 0. -1.
          5    1    1    2  502    0  0.71335209492E+01 -0.85211185990E+02 -0.57262112212E+02  0.10301879845E+03  0.47000000000E+01 0. -1.
         -5    1    1    2    0  502 -0.43244249883E+02  0.12287993606E+03 -0.84155595257E+02  0.15515733320E+03  0.47000000000E+01 0.  1.
        -11    1    1    2    0    0  0.24422765905E+02  0.27928264249E+02  0.19246044926E+02  0.41795570145E+02  0.00000000000E+00 0.  1.
         11    1    1    2    0    0  0.11687963029E+02 -0.65597014316E+02  0.66776069707E+02  0.94332498390E+02  0.00000000000E+00 0. -1.
<mgrwt>
<rscale>  0 0.18057479E+03</rscale>
<asrwt>0</asrwt>
<pdfrwt beam="2">  1        1 0.34592292E-01 0.21599988E+03</pdfrwt>
<pdfrwt beam="1">  1       -1 0.26069893E-01 0.21599988E+03</pdfrwt>
<totfact> 0.16289414E+03</totfact>
</mgrwt>
</event>
<event>
 6    1  0.9240440E-006  0.1263051E+03  0.7546771E-02  0.1252032E+00
         -1   -1    0    0    0  501 -0.00000000000E+00  0.00000000000E+00  0.44042296153E+02  0.44042296153E+02  0.00000000000E+00 0.  1.
          1   -1    0    0  501    0  0.00000000000E+00 -0.00000000000E+00 -0.25600216575E+03  0.25600216575E+03  0.00000000000E+00 0. -1.
          5    1    1    2  502    0 -0.33978118667E+02  0.21095932784E+02  0.68320510886E+01  0.40845046826E+02  0.47000000000E+01 0. -1.
         -5    1    1    2    0  502  0.37893693688E+02 -0.31572451741E+01 -0.13017028169E+03  0.13569190269E+03  0.47000000000E+01 0. -1.
        -11    1    1    2    0    0 -0.19740475406E+02  0.19530780339E+01  0.96088442002E+01  0.22041569135E+02  0.00000000000E+00 0.  1.
         11    1    1    2    0    0  0.15824900386E+02 -0.19891765643E+02 -0.98230483191E+02  0.10146594325E+03  0.00000000000E+00 0. -1.
<mgrwt>
<rscale>  0 0.11474186E+03</rscale>
<asrwt>0</asrwt>
<pdfrwt beam="2">  1        1 0.39384948E-01 0.12630509E+03</pdfrwt>
<pdfrwt beam="1">  1       -1 0.67757380E-02 0.12630509E+03</pdfrwt>
<totfact> 0.11148253E+04</totfact>
</mgrwt>
</event>
<event>
 6    1  0.9240440E-006  0.1307791E+03  0.7546771E-02  0.1241838E+00
         -1   -1    0    0    0  501 -0.00000000000E+00  0.00000000000E+00  0.23942678048E+03  0.23942678048E+03  0.00000000000E+00 0.  1.
          1   -1    0    0  501    0  0.00000000000E+00 -0.00000000000E+00 -0.54059027506E+02  0.54059027506E+02  0.00000000000E+00 0. -1.
          5    1    1    2  502    0 -0.16037128855E+02 -0.72786393032E+01  0.10065189491E+03  0.10228911008E+03  0.47000000000E+01 0.  1.
         -5    1    1    2    0  502  0.54466086569E+02  0.74661662265E+01 -0.11009288243E+02  0.56263599707E+02  0.47000000000E+01 0.  1.
        -11    1    1    2    0    0  0.20709360004E+02 -0.19840395935E+02  0.49991977124E+02  0.57634335941E+02  0.00000000000E+00 0.  1.
         11    1    1    2    0    0 -0.59138317719E+02  0.19652869012E+02  0.45733169184E+02  0.77298762258E+02  0.00000000000E+00 0. -1.
<mgrwt>
<rscale>  0 0.12076653E+03</rscale>
<asrwt>0</asrwt>
<pdfrwt beam="2">  1        1 0.83167736E-02 0.13077907E+03</pdfrwt>
<pdfrwt beam="1">  1       -1 0.36834889E-01 0.13077907E+03</pdfrwt>
<totfact> 0.55936390E+03</totfact>
</mgrwt>
</event>
<event>
 6    1  0.9240440E-006  0.2093254E+03  0.7546771E-02  0.1149954E+00
         -3   -1    0    0    0  501 -0.00000000000E+00  0.00000000000E+00  0.19301762672E+03  0.19301762672E+03  0.00000000000E+00 0.  1.
          3   -1    0    0  501    0  0.00000000000E+00 -0.00000000000E+00 -0.20266314425E+03  0.20266314425E+03  0.00000000000E+00 0. -1.
          5    1    1    2  502    0 -0.24749959823E+02  0.14460434359E+03 -0.38218949680E+02  0.15167648075E+03  0.47000000000E+01 0. -1.
         -5    1    1    2    0  502 -0.57702273352E+02 -0.23663387907E+02 -0.16517494673E+02  0.64687138656E+02  0.47000000000E+01 0.  1.
        -11    1    1    2    0    0  0.63150723090E+02 -0.93193033411E+02  0.74101480194E+02  0.13477382784E+03  0.00000000000E+00 0.  1.
         11    1    1    2    0    0  0.19301510084E+02 -0.27747922273E+02 -0.29010553372E+02  0.44543323731E+02  0.00000000000E+00 0. -1.
<mgrwt>
<rscale>  0 0.19974503E+03</rscale>
<asrwt>0</asrwt>
<pdfrwt beam="2">  1        3 0.31178945E-01 0.20932543E+03</pdfrwt>
<pdfrwt beam="1">  1       -3 0.29695019E-01 0.20932543E+03</pdfrwt>
<totfact> 0.26823686E+02</totfact>
</mgrwt>
</event>
<event>
 6    1  0.9240440E-006  0.1318061E+03  0.7546771E-02  0.1246107E+00
         -2   -1    0    0    0  501 -0.00000000000E+00  0.00000000000E+00  0.83156106052E+01  0.83156106052E+01  0.00000000000E+00 0.  1.
          2   -1    0    0  501    0  0.00000000000E+00 -0.00000000000E+00 -0.16172050869E+04  0.16172050869E+04  0.00000000000E+00 0. -1.
          5    1    1    2  502    0 -0.11036407581E+02  0.32145901656E+02 -0.98466412189E+02  0.10427312988E+03  0.47000000000E+01 0. -1.
         -5    1    1    2    0  502  0.49568428532E+02 -0.15843264580E+02 -0.11379441277E+04  0.11391430840E+04  0.47000000000E+01 0. -1.
        -11    1    1    2    0    0 -0.99304953260E+01  0.28664426491E+02 -0.17245982887E+03  0.17510755739E+03  0.00000000000E+00 0. -1.
         11    1    1    2    0    0 -0.28601525625E+02 -0.44967063567E+02 -0.20001910754E+03  0.20699692620E+03  0.00000000000E+00 0.  1.
<mgrwt>
<rscale>  0 0.11819342E+03</rscale>
<asrwt>0</asrwt>
<pdfrwt beam="2">  1        2 0.24880122E+00 0.13180614E+03</pdfrwt>
<pdfrwt beam="1">  1       -2 0.12793225E-02 0.13180614E+03</pdfrwt>
<totfact> 0.17016522E+04</totfact>
</mgrwt>
</event>
<event>
 6    1  0.9240440E-006  0.1826440E+03  0.7546771E-02  0.1170656E+00
          2   -1    0    0  501    0  0.00000000000E+00  0.00000000000E+00  0.25692241354E+04  0.25692241354E+04  0.00000000000E+00 0. -1.
         -2   -1    0    0    0  501 -0.00000000000E+00 -0.00000000000E+00 -0.42012174292E+02  0.42012174292E+02  0.00000000000E+00 0.  1.
          5    1    1    2  502    0 -0.77371600560E+02 -0.34601469191E+02  0.69029899960E+03  0.69549868806E+03  0.47000000000E+01 0.  1.
         -5    1    1    2    0  502 -0.54249819472E+02  0.54848929533E+02  0.17064681719E+04  0.17082175387E+04  0.47000000000E+01 0.  1.
        -11    1    1    2    0    0  0.43839731387E+02  0.29285052468E+02  0.77321821466E+02  0.93585257498E+02  0.00000000000E+00 0.  1.
         11    1    1    2    0    0  0.87781688645E+02 -0.49532512810E+02  0.53122968104E+02  0.11393482535E+03  0.00000000000E+00 0. -1.
<mgrwt>
<rscale>  0 0.17708320E+03</rscale>
<asrwt>0</asrwt>
<pdfrwt beam="1">  1        2 0.39526513E+00 0.18264398E+03</pdfrwt>
<pdfrwt beam="2">  1       -2 0.64634134E-02 0.18264398E+03</pdfrwt>
<totfact> 0.49613675E+02</totfact>
</mgrwt>
</event>
<event>
 6    1  0.9240440E-006  0.3341252E+03  0.7546771E-02  0.1069326E+00
         -2   -1    0    0    0  501 -0.00000000000E+00  0.00000000000E+00  0.14950368576E+03  0.14950368576E+03  0.00000000000E+00 0.  1.
          2   -1    0    0  501    0  0.00000000000E+00 -0.00000000000E+00 -0.18668377447E+03  0.18668377447E+03  0.00000000000E+00 0. -1.
          5    1    1    2  502    0  0.15073164787E+02 -0.98892015080E+02 -0.15621973476E+02  0.10135564611E+03  0.47000000000E+01 0. -1.
         -5    1    1    2    0  502 -0.56025018608E+01  0.24670724761E+01 -0.86631163363E+02  0.86974265961E+02  0.47000000000E+01 0. -1.
        -11    1    1    2    0    0 -0.22596421759E+01  0.57078848557E+02 -0.14377650841E+02  0.58905159189E+02  0.00000000000E+00 0. -1.
         11    1    1    2    0    0 -0.72110207507E+01  0.39346094047E+02  0.79450698966E+02  0.88952388969E+02  0.00000000000E+00 0.  1.
<mgrwt>
<rscale>  0 0.33412520E+03</rscale>
<asrwt>0</asrwt>
<pdfrwt beam="2">  1        2 0.28720581E-01 0.33412520E+03</pdfrwt>
<pdfrwt beam="1">  1       -2 0.23000567E-01 0.33412520E+03</pdfrwt>
<totfact> 0.30405581E+03</totfact>
</mgrwt>
</event>
<event>
 6    1  0.9240440E-006  0.1269684E+03  0.7546771E-02  0.1248546E+00
         -2   -1    0    0    0  501 -0.00000000000E+00  0.00000000000E+00  0.83742247114E+02  0.83742247114E+02  0.00000000000E+00 0. -1.
          2   -1    0    0  501    0  0.00000000000E+00 -0.00000000000E+00 -0.15447981449E+03  0.15447981449E+03  0.00000000000E+00 0.  1.
          5    1    1    2  502    0 -0.11102521302E+02 -0.71470323272E+01 -0.10910600842E+03  0.11000253235E+03  0.47000000000E+01 0. -1.
         -5    1    1    2    0  502 -0.11170145596E+02  0.82317670004E+01  0.34346539191E+02  0.37340445833E+02  0.47000000000E+01 0. -1.
        -11    1    1    2    0    0  0.42857587742E+02  0.20421901323E+02  0.25763669950E+02  0.54014753262E+02  0.00000000000E+00 0. -1.
         11    1    1    2    0    0 -0.20584920844E+02 -0.21506635996E+02 -0.21741768099E+02  0.36864330159E+02  0.00000000000E+00 0.  1.
<mgrwt>
<rscale>  0 0.11675656E+03</rscale>
<asrwt>0</asrwt>
<pdfrwt beam="2">  1        2 0.23766125E-01 0.12696840E+03</pdfrwt>
<pdfrwt beam="1">  1       -2 0.12883423E-01 0.12696840E+03</pdfrwt>
<totfact> 0.94029624E+03</totfact>
</mgrwt>
</event>
<event>
 6    1  0.9240440E-006  0.2574219E+03  0.7546771E-02  0.1108702E+00
          2   -1    0    0  501    0  0.00000000000E+00  0.00000000000E+00  0.91591060042E+02  0.91591060042E+02  0.00000000000E+00 0. -1.
         -2   -1    0    0    0  501 -0.00000000000E+00 -0.00000000000E+00 -0.18087478105E+03  0.18087478105E+03  0.00000000000E+00 0.  1.
          5    1    1    2  502    0  0.17817840495E+02 -0.61215901263E+02  0.39318888018E+02  0.75052827810E+02  0.47000000000E+01 0. -1.
         -5    1    1    2    0  502 -0.39372127974E+01  0.13580679236E+02 -0.82531355894E+02  0.83865673544E+02  0.47000000000E+01 0.  1.
        -11    1    1    2    0    0  0.38087418604E+02  0.29710538179E+02 -0.27135944200E+02  0.55405117114E+02  0.00000000000E+00 0.  1.
         11    1    1    2    0    0 -0.51968046301E+02  0.17924683848E+02 -0.18935308931E+02  0.58142222624E+02  0.00000000000E+00 0. -1.
<mgrwt>
<rscale>  0 0.25742193E+03</rscale>
<asrwt>0</asrwt>
<pdfrwt beam="1">  1        2 0.14090932E-01 0.25742193E+03</pdfrwt>
<pdfrwt beam="2">  1       -2 0.27826889E-01 0.25742193E+03</pdfrwt>
<totfact> 0.48783941E+03</totfact>
</mgrwt>
</event>
<event>
 6    1  0.9240440E-006  0.1565867E+03  0.7546771E-02  0.1208636E+00
          1   -1    0    0  501    0  0.00000000000E+00  0.00000000000E+00  0.75557191332E+03  0.75557191332E+03  0.00000000000E+00 0. -1.
         -1   -1    0    0    0  501 -0.00000000000E+00 -0.00000000000E+00 -0.30226856165E+02  0.30226856165E+02  0.00000000000E+00 0.  1.
          5    1    1    2  502    0  0.80654559632E+02  0.75084666535E+02  0.40654886342E+03  0.42124450559E+03  0.47000000000E+01 0. -1.
         -5    1    1    2    0  502 -0.31886096062E+02 -0.33049676012E+02  0.18649141326E+03  0.19212012239E+03  0.47000000000E+01 0.  1.
        -11    1    1    2    0    0  0.40654086059E+01  0.23700640612E+02  0.45155881128E+02  0.51159569125E+02  0.00000000000E+00 0. -1.
         11    1    1    2    0    0 -0.52833872176E+02 -0.65735631135E+02  0.87148899342E+02  0.12127457238E+03  0.00000000000E+00 0.  1.
<mgrwt>
<rscale>  0 0.14354562E+03</rscale>
<asrwt>0</asrwt>
<pdfrwt beam="1">  1        1 0.11624182E+00 0.15658671E+03</pdfrwt>
<pdfrwt beam="2">  1       -1 0.46502861E-02 0.15658671E+03</pdfrwt>
<totfact> 0.48252036E+03</totfact>
</mgrwt>
</event>
<event>
 6    1  0.9240440E-006  0.3285953E+03  0.7546771E-02  0.1071760E+00
         -1   -1    0    0    0  501 -0.00000000000E+00  0.00000000000E+00  0.76800445041E+02  0.76800445041E+02  0.00000000000E+00 0.  1.
          1   -1    0    0  501    0  0.00000000000E+00 -0.00000000000E+00 -0.35147875367E+03  0.35147875367E+03  0.00000000000E+00 0. -1.
          5    1    1    2  502    0 -0.46058352940E+01  0.45421508282E+01 -0.14019484795E+03  0.14042268423E+03  0.47000000000E+01 0.  1.
         -5    1    1    2    0  502  0.75505028315E+02  0.78212201196E+02 -0.79149769561E+02  0.13455457532E+03  0.47000000000E+01 0.  1.
        -11    1    1    2    0    0 -0.82876651341E+02 -0.55099069871E+02 -0.68080607061E+02  0.12057950031E+03  0.00000000000E+00 0. -1.
         11    1    1    2    0    0  0.11977458320E+02 -0.27655282154E+02  0.12746915942E+02  0.32722438858E+02  0.00000000000E+00 0.  1.
<mgrwt>
<rscale>  0 0.32859534E+03</rscale>
<asrwt>0</asrwt>
<pdfrwt beam="2">  1        1 0.54073654E-01 0.32859534E+03</pdfrwt>
<pdfrwt beam="1">  1       -1 0.11815453E-01 0.32859534E+03</pdfrwt>
<totfact> 0.33643824E+03</totfact>
</mgrwt>
</event>
<event>
 6    1  0.9240440E-006  0.1328081E+03  0.7546771E-02  0.1237363E+00
         -2   -1    0    0    0  501 -0.00000000000E+00  0.00000000000E+00  0.14908496254E+03  0.14908496254E+03  0.00000000000E+00 0. -1.
          2   -1    0    0  501    0  0.00000000000E+00 -0.00000000000E+00 -0.96556201192E+02  0.96556201192E+02  0.00000000000E+00 0.  1.
          5    1    1    2  502    0  0.66739865400E+02 -0.34867458592E+02 -0.24586497961E+02  0.79350710043E+02  0.47000000000E+01 0.  1.
         -5    1    1    2    0  502 -0.47306348271E+02 -0.55176624779E+01  0.23822206827E+02  0.53459542872E+02  0.47000000000E+01 0.  1.
        -11    1    1    2    0    0  0.13774548707E+02  0.37923626001E+02 -0.97722067626E+01  0.41514282195E+02  0.00000000000E+00 0.  1.
         11    1    1    2    0    0 -0.33208065836E+02  0.24614950688E+01  0.63065259245E+02  0.71316628623E+02  0.00000000000E+00 0. -1.
<mgrwt>
<rscale>  0 0.12354395E+03</rscale>
<asrwt>0</asrwt>
<pdfrwt beam="2">  1        2 0.14854800E-01 0.13280805E+03</pdfrwt>
<pdfrwt beam="1">  1       -2 0.22936148E-01 0.13280805E+03</pdfrwt>
<totfact> 0.61828577E+03</totfact>
</mgrwt>
</event>
<event>
 6    1  0.9240440E-006  0.1830600E+03  0.7546771E-02  0.1171185E+00
          2   -1    0    0  501    0  0.00000000000E+00  0.00000000000E+00  0.39229395071E+02  0.39229395071E+02  0.00000000000E+00 0. -1.
         -2   -1    0    0    0  501 -0.00000000000E+00 -0.00000000000E+00 -0.75558621288E+03  0.75558621288E+03  0.00000000000E+00 0.  1.
          5    1    1    2  502    0 -0.26401175584E+02  0.35840488389E+02 -0.24712093444E+03  0.25114220856E+03  0.47000000000E+01 0.  1.
         -5    1    1    2    0  502  0.23836992614E+01  0.95732980452E+02 -0.85205032297E+02  0.12826719416E+03  0.47000000000E+01 0.  1.
        -11    1    1    2    0    0  0.44119100989E+02 -0.78940147191E+02 -0.15411945635E+03  0.17869205001E+03  0.00000000000E+00 0. -1.
         11    1    1    2    0    0 -0.20101624667E+02 -0.52633321650E+02 -0.22991139472E+03  0.23671415523E+03  0.00000000000E+00 0.  1.
<mgrwt>
<rscale>  0 0.17654955E+03</rscale>
<asrwt>0</asrwt>
<pdfrwt beam="1">  1        2 0.60352916E-02 0.18305995E+03</pdfrwt>
<pdfrwt beam="2">  1       -2 0.11624403E+00 0.18305995E+03</pdfrwt>
<totfact> 0.72593245E+02</totfact>
</mgrwt>
</event>
<event>
 6    1  0.9240440E-006  0.1520222E+03  0.7546771E-02  0.1209049E+00
          2   -1    0    0  501    0  0.00000000000E+00  0.00000000000E+00  0.31787777104E+03  0.31787777104E+03  0.00000000000E+00 0.  1.
         -2   -1    0    0    0  501 -0.00000000000E+00 -0.00000000000E+00 -0.58133906744E+02  0.58133906744E+02  0.00000000000E+00 0. -1.
          5    1    1    2  502    0  0.42686935431E+02  0.86965103741E+02  0.12787310373E+03  0.16049524723E+03  0.47000000000E+01 0. -1.
         -5    1    1    2    0  502 -0.47854948306E+02 -0.59380854290E+00  0.21653074880E+02  0.52738926209E+02  0.47000000000E+01 0. -1.
        -11    1    1    2    0    0  0.40316030221E+02 -0.21508318539E+02  0.36471361799E+02  0.58464949248E+02  0.00000000000E+00 0.  1.
         11    1    1    2    0    0 -0.35148017346E+02 -0.64862976659E+02  0.73746323888E+02  0.10431255510E+03  0.00000000000E+00 0. -1.
<mgrwt>
<rscale>  0 0.14322910E+03</rscale>
<asrwt>0</asrwt>
<pdfrwt beam="1">  1        2 0.48904271E-01 0.15202215E+03</pdfrwt>
<pdfrwt beam="2">  1       -2 0.89436782E-02 0.15202215E+03</pdfrwt>
<totfact> 0.78007675E+03</totfact>
</mgrwt>
</event>
<event>
 6    1  0.9240440E-006  0.3502556E+03  0.7546771E-02  0.1062510E+00
          1   -1    0    0  501    0  0.00000000000E+00  0.00000000000E+00  0.52470812698E+03  0.52470812698E+03  0.00000000000E+00 0. -1.
         -1   -1    0    0    0  501 -0.00000000000E+00 -0.00000000000E+00 -0.58451048428E+02  0.58451048428E+02  0.00000000000E+00 0.  1.
          5    1    1    2  502    0  0.13148950941E+03  0.37105603952E+02  0.22557207897E+03  0.26376347310E+03  0.47000000000E+01 0.  1.
         -5    1    1    2    0  502 -0.19048868339E+02  0.36636338836E+01  0.13155491935E+03  0.13306039382E+03  0.47000000000E+01 0.  1.
        -11    1    1    2    0    0 -0.86238906415E+02  0.57494922214E+00  0.10688175792E+03  0.13733604670E+03  0.00000000000E+00 0. -1.
         11    1    1    2    0    0 -0.26201734659E+02 -0.41344187058E+02  0.22483223080E+01  0.48999261788E+02  0.00000000000E+00 0.  1.
<mgrwt>
<rscale>  0 0.35025556E+03</rscale>
<asrwt>0</asrwt>
<pdfrwt beam="1">  1        1 0.80724324E-01 0.35025556E+03</pdfrwt>
<pdfrwt beam="2">  1       -1 0.89924693E-02 0.35025556E+03</pdfrwt>
<totfact> 0.30504564E+03</totfact>
</mgrwt>
</event>
<event>
 6    1  0.9240440E-006  0.1288211E+03  0.7546771E-02  0.1242039E+00
         -1   -1    0    0    0  501 -0.00000000000E+00  0.00000000000E+00  0.10872360476E+03  0.10872360476E+03  0.00000000000E+00 0.  1.
          1   -1    0    0  501    0  0.00000000000E+00 -0.00000000000E+00 -0.12838753479E+03  0.12838753479E+03  0.00000000000E+00 0. -1.
          5    1    1    2  502    0  0.53663250306E+02 -0.38279726960E+01 -0.30518050056E+02  0.62030953464E+02  0.47000000000E+01 0.  1.
         -5    1    1    2    0  502 -0.68469005703E+02 -0.23589457028E+02 -0.11545766059E+02  0.73483752890E+02  0.47000000000E+01 0.  1.
        -11    1    1    2    0    0 -0.35811149372E+01 -0.33432538066E+02  0.17330646966E+02  0.37827375140E+02  0.00000000000E+00 0.  1.
         11    1    1    2    0    0  0.18386870334E+02  0.60849967790E+02  0.50692391194E+01  0.63769058061E+02  0.00000000000E+00 0. -1.
<mgrwt>
<rscale>  0 0.12064368E+03</rscale>
<asrwt>0</asrwt>
<pdfrwt beam="2">  1        1 0.19751928E-01 0.12882108E+03</pdfrwt>
<pdfrwt beam="1">  1       -1 0.16726708E-01 0.12882108E+03</pdfrwt>
<totfact> 0.66187909E+03</totfact>
</mgrwt>
</event>
<event>
 6    1  0.9240440E-006  0.1320063E+03  0.7546771E-02  0.1237617E+00
          4   -1    0    0  501    0  0.00000000000E+00  0.00000000000E+00  0.19990320959E+02  0.19990320959E+02  0.00000000000E+00 0. -1.
         -4   -1    0    0    0  501 -0.00000000000E+00 -0.00000000000E+00 -0.74879965338E+03  0.74879965338E+03  0.00000000000E+00 0.  1.
          5    1    1    2  502    0 -0.77774873527E+02  0.36429028231E+02 -0.21959506414E+03  0.23583911305E+03  0.47000000000E+01 0. -1.
         -5    1    1    2    0  502  0.39162511238E+02 -0.18765824818E+02 -0.71462424612E+02  0.83754561661E+02  0.47000000000E+01 0. -1.
        -11    1    1    2    0    0  0.66637458476E+02 -0.25528993214E+02 -0.32565848432E+03  0.33338525579E+03  0.00000000000E+00 0.  1.
         11    1    1    2    0    0 -0.28025096187E+02  0.78657898014E+01 -0.11209335934E+03  0.11581104383E+03  0.00000000000E+00 0. -1.
<mgrwt>
<rscale>  0 0.12338364E+03</rscale>
<asrwt>0</asrwt>
<pdfrwt beam="1">  1        4 0.30754340E-02 0.13200627E+03</pdfrwt>
<pdfrwt beam="2">  1       -4 0.11519994E+00 0.13200627E+03</pdfrwt>
<totfact> 0.52536474E+02</totfact>
</mgrwt>
</event>
<event>
 6    1  0.9240440E-006  0.1314446E+03  0.7546771E-02  0.1239210E+00
          2   -1    0    0  501    0  0.00000000000E+00  0.00000000000E+00  0.25409330773E+03  0.25409330773E+03  0.00000000000E+00 0. -1.
         -2   -1    0    0    0  501 -0.00000000000E+00 -0.00000000000E+00 -0.52204288639E+02  0.52204288639E+02  0.00000000000E+00 0.  1.
          5    1    1    2  502    0 -0.26743243244E+02 -0.11978015820E+02 -0.11139358499E+02  0.31699356933E+02  0.47000000000E+01 0.  1.
         -5    1    1    2    0  502  0.57171915814E+02  0.38918580770E+02  0.12170940072E+03  0.14006624187E+03  0.47000000000E+01 0.  1.
        -11    1    1    2    0    0 -0.12326255741E+02  0.26372376007E+02  0.22989842219E+01  0.29201440466E+02  0.00000000000E+00 0.  1.
         11    1    1    2    0    0 -0.18102416829E+02 -0.53312940957E+02  0.89019992648E+02  0.10533055710E+03  0.00000000000E+00 0. -1.
<mgrwt>
<rscale>  0 0.12238739E+03</rscale>
<asrwt>0</asrwt>
<pdfrwt beam="1">  1        2 0.39091278E-01 0.13144461E+03</pdfrwt>
<pdfrwt beam="2">  1       -2 0.80314291E-02 0.13144461E+03</pdfrwt>
<totfact> 0.11571160E+04</totfact>
</mgrwt>
</event>
<event>
 6    1  0.9240440E-006  0.1251301E+03  0.7546771E-02  0.1250824E+00
         -2   -1    0    0    0  501 -0.00000000000E+00  0.00000000000E+00  0.15903929647E+02  0.15903929647E+02  0.00000000000E+00 0.  1.
          2   -1    0    0  501    0  0.00000000000E+00 -0.00000000000E+00 -0.80369162654E+03  0.80369162654E+03  0.00000000000E+00 0. -1.
          5    1    1    2  502    0  0.21870525047E+02 -0.18716539013E+02 -0.28101099284E+02  0.40501734276E+02  0.47000000000E+01 0.  1.
         -5    1    1    2    0  502 -0.26586256682E+02  0.22091081654E+02 -0.54430406529E+03  0.54542080124E+03  0.47000000000E+01 0.  1.
        -11    1    1    2    0    0  0.47363578818E+02 -0.38049865405E+01 -0.12520775985E+03  0.13392075883E+03  0.00000000000E+00 0.  1.
         11    1    1    2    0    0 -0.42647847183E+02  0.43044389964E+00 -0.90174772480E+02  0.99752261844E+02  0.00000000000E+00 0. -1.
<mgrwt>
<rscale>  0 0.11543488E+03</rscale>
<asrwt>0</asrwt>
<pdfrwt beam="2">  1        2 0.12364484E+00 0.12513011E+03</pdfrwt>
<pdfrwt beam="1">  1       -2 0.24467590E-02 0.12513011E+03</pdfrwt>
<totfact> 0.19089892E+04</totfact>
</mgrwt>
</event>
<event>
 6    1  0.9240440E-006  0.1270345E+03  0.7546771E-02  0.1246492E+00
          1   -1    0    0  501    0  0.00000000000E+00  0.00000000000E+00  0.41112292052E+02  0.41112292052E+02  0.00000000000E+00 0. -1.
         -1   -1    0    0    0  501 -0.00000000000E+00 -0.00000000000E+00 -0.29905152801E+03  0.29905152801E+03  0.00000000000E+00 0.  1.
          5    1    1    2  502    0 -0.16349270804E+02  0.25423727682E+01 -0.17387349359E+03  0.17472219117E+03  0.47000000000E+01 0.  1.
         -5    1    1    2    0  502  0.10895100875E+01 -0.19240053942E+02  0.17705934751E+02  0.26588659863E+02  0.47000000000E+01 0.  1.
        -11    1    1    2    0    0 -0.33061598493E+02  0.29547494458E+02 -0.44375024692E+02  0.62731702831E+02  0.00000000000E+00 0. -1.
         11    1    1    2    0    0  0.48321359210E+02 -0.12849813285E+02 -0.57396652429E+02  0.76121266197E+02  0.00000000000E+00 0.  1.
<mgrwt>
<rscale>  0 0.11796496E+03</rscale>
<asrwt>0</asrwt>
<pdfrwt beam="1">  1        1 0.63249681E-02 0.12703445E+03</pdfrwt>
<pdfrwt beam="2">  1       -1 0.46007927E-01 0.12703445E+03</pdfrwt>
<totfact> 0.54546462E+03</totfact>
</mgrwt>
</event>
<event>
 6    1  0.9240440E-006  0.1291455E+03  0.7546771E-02  0.1243534E+00
         -1   -1    0    0    0  501 -0.00000000000E+00  0.00000000000E+00  0.13911568460E+03  0.13911568460E+03  0.00000000000E+00 0.  1.
          1   -1    0    0  501    0  0.00000000000E+00 -0.00000000000E+00 -0.95257490044E+02  0.95257490044E+02  0.00000000000E+00 0. -1.
          5    1    1    2  502    0 -0.12362352998E+02  0.71296100406E+01 -0.55395143408E+02  0.57396611609E+02  0.47000000000E+01 0. -1.
         -5    1    1    2    0  502  0.44554324862E+02 -0.11256625661E+02  0.54901270855E+02  0.71749836422E+02  0.47000000000E+01 0. -1.
        -11    1    1    2    0    0 -0.60080946732E+02  0.19592238745E+02  0.33607203725E+02  0.71575275909E+02  0.00000000000E+00 0. -1.
         11    1    1    2    0    0  0.27888974868E+02 -0.15465223125E+02  0.10744863389E+02  0.33651450707E+02  0.00000000000E+00 0.  1.
<mgrwt>
<rscale>  0 0.11973546E+03</rscale>
<asrwt>0</asrwt>
<pdfrwt beam="2">  1        1 0.14654998E-01 0.12914550E+03</pdfrwt>
<pdfrwt beam="1">  1       -1 0.21402413E-01 0.12914550E+03</pdfrwt>
<totfact> 0.65503738E+03</totfact>
</mgrwt>
</event>
<event>
 6    1  0.9240440E-006  0.4188399E+03  0.7546771E-02  0.1037445E+00
         -3   -1    0    0    0  501 -0.00000000000E+00  0.00000000000E+00  0.81458068712E+03  0.81458068712E+03  0.00000000000E+00 0. -1.
          3   -1    0    0  501    0  0.00000000000E+00 -0.00000000000E+00 -0.53839609774E+02  0.53839609774E+02  0.00000000000E+00 0.  1.
          5    1    1    2  502    0 -0.13823512350E+03  0.58226740368E+02  0.17982517344E+03  0.23421888410E+03  0.47000000000E+01 0.  1.
         -5    1    1    2    0  502 -0.15064313350E+02  0.34628571689E+02  0.20337659948E+03  0.20690626557E+03  0.47000000000E+01 0.  1.
        -11    1    1    2    0    0  0.91152032477E+02 -0.81288307736E+02  0.31722131016E+03  0.33992034599E+03  0.00000000000E+00 0. -1.
         11    1    1    2    0    0  0.62147404377E+02 -0.11567004321E+02  0.60317994260E+02  0.87374801237E+02  0.00000000000E+00 0.  1.
<mgrwt>
<rscale>  0 0.41883986E+03</rscale>
<asrwt>0</asrwt>
<pdfrwt beam="2">  1        3 0.82830175E-02 0.41883986E+03</pdfrwt>
<pdfrwt beam="1">  1       -3 0.12532010E+00 0.41883986E+03</pdfrwt>
<totfact> 0.13906283E+02</totfact>
</mgrwt>
</event>
<event>
 6    1  0.9240440E-006  0.1400861E+03  0.7546771E-02  0.1224389E+00
          1   -1    0    0  501    0  0.00000000000E+00  0.00000000000E+00  0.35255791988E+03  0.35255791988E+03  0.00000000000E+00 0. -1.
         -1   -1    0    0    0  501 -0.00000000000E+00 -0.00000000000E+00 -0.46894353233E+02  0.46894353233E+02  0.00000000000E+00 0.  1.
          5    1    1    2  502    0 -0.91658708357E+02 -0.26240861567E+01  0.12179138264E+03  0.15252355730E+03  0.47000000000E+01 0.  1.
         -5    1    1    2    0  502  0.36541173296E+02 -0.28372091778E+02  0.91846849459E+02  0.10294739770E+03  0.47000000000E+01 0.  1.
        -11    1    1    2    0    0 -0.20120681258E+02  0.27154609140E+02  0.40307633893E+02  0.52601520528E+02  0.00000000000E+00 0.  1.
         11    1    1    2    0    0  0.75238216319E+02  0.38415687950E+01  0.51717700655E+02  0.91379797585E+02  0.00000000000E+00 0. -1.
<mgrwt>
<rscale>  0 0.13208888E+03</rscale>
<asrwt>0</asrwt>
<pdfrwt beam="1">  1        1 0.54239678E-01 0.14008610E+03</pdfrwt>
<pdfrwt beam="2">  1       -1 0.72145161E-02 0.14008610E+03</pdfrwt>
<totfact> 0.68788708E+03</totfact>
</mgrwt>
</event>
<event>
 6    1  0.9240440E-006  0.1298902E+03  0.7546771E-02  0.1241710E+00
          1   -1    0    0  501    0  0.00000000000E+00  0.00000000000E+00  0.95334239662E+03  0.95334239662E+03  0.00000000000E+00 0. -1.
         -1   -1    0    0    0  501 -0.00000000000E+00 -0.00000000000E+00 -0.14955504432E+02  0.14955504432E+02  0.00000000000E+00 0.  1.
          5    1    1    2  502    0 -0.17010412354E+02  0.74104416308E+02  0.48277831083E+03  0.48875127218E+03  0.47000000000E+01 0. -1.
         -5    1    1    2    0  502  0.28802516129E+02 -0.40861063489E+02  0.19501148051E+03  0.20137223983E+03  0.47000000000E+01 0. -1.
        -11    1    1    2    0    0 -0.24116272395E+02 -0.60035387196E+02  0.20852539029E+03  0.21833158431E+03  0.00000000000E+00 0. -1.
         11    1    1    2    0    0  0.12324168621E+02  0.26792034377E+02  0.52071710556E+02  0.59842804734E+02  0.00000000000E+00 0.  1.
<mgrwt>
<rscale>  0 0.12084448E+03</rscale>
<asrwt>0</asrwt>
<pdfrwt beam="1">  1        1 0.14666801E+00 0.12989019E+03</pdfrwt>
<pdfrwt beam="2">  1       -1 0.23008476E-02 0.12989019E+03</pdfrwt>
<totfact> 0.93196749E+03</totfact>
</mgrwt>
</event>
<event>
 6    1  0.9240440E-006  0.1295643E+03  0.7546771E-02  0.1242720E+00
          2   -1    0    0  501    0  0.00000000000E+00  0.00000000000E+00  0.13266390064E+03  0.13266390064E+03  0.00000000000E+00 0. -1.
         -2   -1    0    0    0  501 -0.00000000000E+00 -0.00000000000E+00 -0.17697614489E+03  0.17697614489E+03  0.00000000000E+00 0.  1.
          5    1    1    2  502    0  0.41600960408E+02 -0.67658598891E+01 -0.18829768358E+01  0.42450587377E+02  0.47000000000E+01 0. -1.
         -5    1    1    2    0  502 -0.72588001559E+02 -0.74401645905E+01  0.82080514880E+02  0.10992577015E+03  0.47000000000E+01 0. -1.
        -11    1    1    2    0    0  0.29750978662E+02 -0.28926074469E+02 -0.98493778952E+02  0.10687779474E+03  0.00000000000E+00 0.  1.
         11    1    1    2    0    0  0.12360624892E+01  0.43132098949E+02 -0.26016003345E+02  0.50385893266E+02  0.00000000000E+00 0. -1.
<mgrwt>
<rscale>  0 0.12022905E+03</rscale>
<asrwt>0</asrwt>
<pdfrwt beam="1">  1        2 0.20409831E-01 0.12956431E+03</pdfrwt>
<pdfrwt beam="2">  1       -2 0.27227099E-01 0.12956431E+03</pdfrwt>
<totfact> 0.31770911E+03</totfact>
</mgrwt>
</event>
<event>
 6    1  0.9240440E-006  0.1333504E+03  0.7546771E-02  0.1224582E+00
         -4   -1    0    0    0  501 -0.00000000000E+00  0.00000000000E+00  0.54638539913E+02  0.54638539913E+02  0.00000000000E+00 0.  1.
          4   -1    0    0  501    0  0.00000000000E+00 -0.00000000000E+00 -0.34675982632E+03  0.34675982632E+03  0.00000000000E+00 0. -1.
          5    1    1    2  502    0 -0.36577994229E+02 -0.53187950393E+01 -0.10484793656E+03  0.11127182502E+03  0.47000000000E+01 0. -1.
         -5    1    1    2    0  502  0.74353720225E+02 -0.48403096416E+02 -0.10733041561E+03  0.13933141630E+03  0.47000000000E+01 0.  1.
        -11    1    1    2    0    0 -0.29459203845E+02  0.72945225706E+02 -0.11853825570E+02  0.79557299006E+02  0.00000000000E+00 0.  1.
         11    1    1    2    0    0 -0.83165221515E+01 -0.19223334251E+02 -0.68089108672E+02  0.71237825909E+02  0.00000000000E+00 0. -1.
<mgrwt>
<rscale>  0 0.13195621E+03</rscale>
<asrwt>0</asrwt>
<pdfrwt beam="2">  1        4 0.53347665E-01 0.13335041E+03</pdfrwt>
<pdfrwt beam="1">  1       -4 0.84059293E-02 0.13335041E+03</pdfrwt>
<totfact> 0.57011008E+02</totfact>
</mgrwt>
</event>
<event>
 6    1  0.9240440E-006  0.1603221E+03  0.7546771E-02  0.1197757E+00
         -1   -1    0    0    0  501 -0.00000000000E+00  0.00000000000E+00  0.39651550580E+03  0.39651550580E+03  0.00000000000E+00 0.  1.
          1   -1    0    0  501    0  0.00000000000E+00 -0.00000000000E+00 -0.61191009453E+02  0.61191009453E+02  0.00000000000E+00 0. -1.
          5    1    1    2  502    0  0.88280673151E+02 -0.16601196416E+00  0.43663922899E+00  0.88406931095E+02  0.47000000000E+01 0. -1.
         -5    1    1    2    0  502  0.31972950092E+01  0.98270382419E+01  0.10029212129E+03  0.10093261598E+03  0.47000000000E+01 0.  1.
        -11    1    1    2    0    0 -0.10437077920E+03 -0.27151125519E+02  0.18352092398E+03  0.21286233275E+03  0.00000000000E+00 0.  1.
         11    1    1    2    0    0  0.12892811037E+02  0.17490099242E+02  0.51074811842E+02  0.55504635416E+02  0.00000000000E+00 0. -1.
<mgrwt>
<rscale>  0 0.15223181E+03</rscale>
<asrwt>0</asrwt>
<pdfrwt beam="2">  1        1 0.94140017E-02 0.16032212E+03</pdfrwt>
<pdfrwt beam="1">  1       -1 0.61002384E-01 0.16032212E+03</pdfrwt>
<totfact> 0.19199625E+03</totfact>
</mgrwt>
</event>
<event>
 6    1  0.9240440E-006  0.1272604E+03  0.7546771E-02  0.1246060E+00
         -4   -1    0    0    0  501 -0.00000000000E+00  0.00000000000E+00  0.85083529455E+02  0.85083529455E+02  0.00000000000E+00 0.  1.
          4   -1    0    0  501    0  0.00000000000E+00 -0.00000000000E+00 -0.15848313819E+03  0.15848313819E+03  0.00000000000E+00 0. -1.
          5    1    1    2  502    0  0.12571106188E+02 -0.62053915028E+02 -0.38820423054E+02  0.74416640123E+02  0.47000000000E+01 0.  1.
         -5    1    1    2    0  502 -0.34909676419E+02  0.53158209227E+02 -0.38140140634E+02  0.74305053956E+02  0.47000000000E+01 0.  1.
        -11    1    1    2    0    0  0.38865948211E+02 -0.25621807733E+01  0.38350149564E+02  0.54661327025E+02  0.00000000000E+00 0.  1.
         11    1    1    2    0    0 -0.16527377979E+02  0.11457886574E+02 -0.34789194614E+02  0.40183646544E+02  0.00000000000E+00 0. -1.
<mgrwt>
<rscale>  0 0.11822165E+03</rscale>
<asrwt>0</asrwt>
<pdfrwt beam="2">  1        4 0.24382021E-01 0.12726042E+03</pdfrwt>
<pdfrwt beam="1">  1       -4 0.13089774E-01 0.12726042E+03</pdfrwt>
<totfact> 0.12198836E+03</totfact>
</mgrwt>
</event>
<event>
 6    1  0.9240440E-006  0.1259106E+03  0.7546771E-02  0.1242942E+00
         -2   -1    0    0    0  501 -0.00000000000E+00  0.00000000000E+00  0.26639215166E+02  0.26639215166E+02  0.00000000000E+00 0.  1.
          2   -1    0    0  501    0  0.00000000000E+00 -0.00000000000E+00 -0.49707453198E+03  0.49707453198E+03  0.00000000000E+00 0. -1.
          5    1    1    2  502    0 -0.24511655046E+02  0.18540595535E+01  0.24279212654E+01  0.25144454092E+02  0.47000000000E+01 0. -1.
         -5    1    1    2    0  502  0.18627397309E+02 -0.15816438992E+02 -0.26383322179E+03  0.26500414825E+03  0.47000000000E+01 0. -1.
        -11    1    1    2    0    0 -0.34737235597E+02 -0.27781601710E+02 -0.71461814182E+02  0.84174127954E+02  0.00000000000E+00 0.  1.
         11    1    1    2    0    0  0.40621493335E+02  0.41743981149E+02 -0.13756820211E+03  0.14939101685E+03  0.00000000000E+00 0. -1.
<mgrwt>
<rscale>  0 0.12009394E+03</rscale>
<asrwt>0</asrwt>
<pdfrwt beam="2">  1        2 0.76473007E-01 0.12591060E+03</pdfrwt>
<pdfrwt beam="1">  1       -2 0.40983407E-02 0.12591060E+03</pdfrwt>
<totfact> 0.15588085E+04</totfact>
</mgrwt>
</event>
<event>
 6    1  0.9240440E-006  0.1960406E+03  0.7546771E-02  0.1157612E+00
         -2   -1    0    0    0  501 -0.00000000000E+00  0.00000000000E+00  0.67856453630E+02  0.67856453630E+02  0.00000000000E+00 0.  1.
          2   -1    0    0  501    0  0.00000000000E+00 -0.00000000000E+00 -0.54780136561E+03  0.54780136561E+03  0.00000000000E+00 0. -1.
          5    1    1    2  502    0 -0.17799016958E+02  0.22174999243E+02 -0.50694628614E+02  0.58314414740E+02  0.47000000000E+01 0. -1.
         -5    1    1    2    0  502 -0.36461716630E+02 -0.16310789473E+03 -0.28058349205E+03  0.32662337350E+03  0.47000000000E+01 0. -1.
        -11    1    1    2    0    0  0.42249435259E+02  0.12017467778E+03 -0.63682192656E+02  0.14241625476E+03  0.00000000000E+00 0.  1.
         11    1    1    2    0    0  0.12011298329E+02  0.20758217706E+02 -0.84984598654E+02  0.88303776240E+02  0.00000000000E+00 0. -1.
<mgrwt>
<rscale>  0 0.19094431E+03</rscale>
<asrwt>0</asrwt>
<pdfrwt beam="2">  1        2 0.84277135E-01 0.19604058E+03</pdfrwt>
<pdfrwt beam="1">  1       -2 0.10439454E-01 0.19604058E+03</pdfrwt>
<totfact> 0.34256882E+03</totfact>
</mgrwt>
</event>
<event>
 6    1  0.9240440E-006  0.1693344E+03  0.7546771E-02  0.1185207E+00
         -2   -1    0    0    0  501 -0.00000000000E+00  0.00000000000E+00  0.35963146609E+02  0.35963146609E+02  0.00000000000E+00 0.  1.
          2   -1    0    0  501    0  0.00000000000E+00 -0.00000000000E+00 -0.69423277654E+03  0.69423277654E+03  0.00000000000E+00 0. -1.
          5    1    1    2  502    0 -0.20504890465E+02 -0.91163228371E+02 -0.34286984686E+03  0.35540541165E+03  0.47000000000E+01 0. -1.
         -5    1    1    2    0  502  0.42849390634E+02 -0.20862094539E+02 -0.37066795611E+02  0.60558522135E+02  0.47000000000E+01 0. -1.
        -11    1    1    2    0    0 -0.35859983958E+02  0.75783471554E+02 -0.94311314836E+02  0.12618913232E+03  0.00000000000E+00 0.  1.
         11    1    1    2    0    0  0.13515483789E+02  0.36241851356E+02 -0.18402167262E+03  0.18804285704E+03  0.00000000000E+00 0. -1.
<mgrwt>
<rscale>  0 0.16313089E+03</rscale>
<asrwt>0</asrwt>
<pdfrwt beam="2">  1        2 0.10680503E+00 0.16933441E+03</pdfrwt>
<pdfrwt beam="1">  1       -2 0.55327927E-02 0.16933441E+03</pdfrwt>
<totfact> 0.69255439E+03</totfact>
</mgrwt>
</event>
<event>
 6    1  0.9240440E-006  0.3414015E+03  0.7546771E-02  0.1066201E+00
         -1   -1    0    0    0  501 -0.00000000000E+00  0.00000000000E+00  0.92003618315E+02  0.92003618315E+02  0.00000000000E+00 0.  1.
          1   -1    0    0  501    0  0.00000000000E+00 -0.00000000000E+00 -0.31671313230E+03  0.31671313230E+03  0.00000000000E+00 0. -1.
          5    1    1    2  502    0  0.86333957296E+01  0.29503255066E+02  0.93812364249E+01  0.32481920790E+02  0.47000000000E+01 0. -1.
         -5    1    1    2    0  502 -0.85566054873E+02  0.62951341507E+02 -0.19143887215E+03  0.21898710673E+03  0.47000000000E+01 0. -1.
        -11    1    1    2    0    0  0.21985220988E+02 -0.76597817125E+02  0.89852609084E+01  0.80195451516E+02  0.00000000000E+00 0.  1.
         11    1    1    2    0    0  0.54947438156E+02 -0.15856779448E+02 -0.51637139174E+02  0.77052271585E+02  0.00000000000E+00 0. -1.
<mgrwt>
<rscale>  0 0.34140155E+03</rscale>
<asrwt>0</asrwt>
<pdfrwt beam="2">  1        1 0.48725097E-01 0.34140155E+03</pdfrwt>
<pdfrwt beam="1">  1       -1 0.14154403E-01 0.34140155E+03</pdfrwt>
<totfact> 0.28904192E+03</totfact>
</mgrwt>
</event>
<event>
 6    1  0.9240440E-006  0.1829973E+03  0.7546771E-02  0.1169560E+00
          3   -1    0    0  501    0  0.00000000000E+00  0.00000000000E+00  0.63346772976E+03  0.63346772976E+03  0.00000000000E+00 0. -1.
         -3   -1    0    0    0  501 -0.00000000000E+00 -0.00000000000E+00 -0.68875741776E+02  0.68875741776E+02  0.00000000000E+00 0.  1.
          5    1    1    2  502    0 -0.61531072332E+02 -0.20305699436E+01  0.77069686098E+02  0.98752329552E+02  0.47000000000E+01 0.  1.
         -5    1    1    2    0  502 -0.39461913491E+02  0.89580884331E+02  0.41028427033E+03  0.42182608968E+03  0.47000000000E+01 0.  1.
        -11    1    1    2    0    0  0.12433510305E+02 -0.60215303391E+02  0.62937024560E+02  0.87986044356E+02  0.00000000000E+00 0.  1.
         11    1    1    2    0    0  0.88559475519E+02 -0.27335010996E+02  0.14301006995E+02  0.93779007947E+02  0.00000000000E+00 0. -1.
<mgrwt>
<rscale>  0 0.17819692E+03</rscale>
<asrwt>0</asrwt>
<pdfrwt beam="1">  1        3 0.97456570E-01 0.18299730E+03</pdfrwt>
<pdfrwt beam="2">  1       -3 0.10596268E-01 0.18299730E+03</pdfrwt>
<totfact> 0.15591048E+02</totfact>
</mgrwt>
</event>
<event>
 6    1  0.9240440E-006  0.3653243E+03  0.7546771E-02  0.1057525E+00
          1   -1    0    0  501    0  0.00000000000E+00  0.00000000000E+00  0.10942517161E+04  0.10942517161E+04  0.00000000000E+00 0. -1.
         -1   -1    0    0    0  501 -0.00000000000E+00 -0.00000000000E+00 -0.31269409641E+03  0.31269409641E+03  0.00000000000E+00 0.  1.
          5    1    1    2  502    0 -0.11042624707E+02  0.12101377047E+02  0.24288221812E+02  0.29671376875E+02  0.47000000000E+01 0. -1.
         -5    1    1    2    0  502 -0.21154128227E+03 -0.27339773306E+03  0.92298074346E+03  0.98560213948E+03  0.47000000000E+01 0. -1.
        -11    1    1    2    0    0  0.61000054241E+02  0.11854294832E+03 -0.29192570655E+02  0.13647579783E+03  0.00000000000E+00 0. -1.
         11    1    1    2    0    0  0.16158385273E+03  0.14275340770E+03 -0.13651877489E+03  0.25519649835E+03  0.00000000000E+00 0.  1.
<mgrwt>
<rscale>  0 0.36268730E+03</rscale>
<asrwt>0</asrwt>
<pdfrwt beam="1">  1        1 0.16834641E+00 0.36532427E+03</pdfrwt>
<pdfrwt beam="2">  1       -1 0.48106785E-01 0.36532427E+03</pdfrwt>
<totfact> 0.59699167E+01</totfact>
</mgrwt>
</event>
<event>
 6    1  0.9240440E-006  0.1526292E+03  0.7546771E-02  0.1205984E+00
          2   -1    0    0  501    0  0.00000000000E+00  0.00000000000E+00  0.86639535272E+03  0.86639535272E+03  0.00000000000E+00 0. -1.
         -2   -1    0    0    0  501 -0.00000000000E+00 -0.00000000000E+00 -0.34559818771E+02  0.34559818771E+02  0.00000000000E+00 0.  1.
          5    1    1    2  502    0 -0.47032468176E+02  0.32994062704E+02  0.99709021109E+02  0.11517221942E+03  0.47000000000E+01 0. -1.
         -5    1    1    2    0  502 -0.30131399766E+02  0.84050526884E+01  0.60733413302E+03  0.60815736885E+03  0.47000000000E+01 0. -1.
        -11    1    1    2    0    0  0.46074490756E+02 -0.48448946409E+02  0.12916999841E+03  0.14544774868E+03  0.00000000000E+00 0. -1.
         11    1    1    2    0    0  0.31089377186E+02  0.70498310169E+01 -0.43776185827E+01  0.32177834539E+02  0.00000000000E+00 0.  1.
<mgrwt>
<rscale>  0 0.14560206E+03</rscale>
<asrwt>0</asrwt>
<pdfrwt beam="1">  1        2 0.13329158E+00 0.15262920E+03</pdfrwt>
<pdfrwt beam="2">  1       -2 0.53168958E-02 0.15262920E+03</pdfrwt>
<totfact> 0.55629861E+03</totfact>
</mgrwt>
</event>
<event>
 6    1  0.9240440E-006  0.1278194E+03  0.7546771E-02  0.1244600E+00
          1   -1    0    0  501    0  0.00000000000E+00  0.00000000000E+00  0.10327872919E+03  0.10327872919E+03  0.00000000000E+00 0. -1.
         -1   -1    0    0    0  501 -0.00000000000E+00 -0.00000000000E+00 -0.12300471876E+03  0.12300471876E+03  0.00000000000E+00 0.  1.
          5    1    1    2  502    0  0.13063028678E+02 -0.44288158833E+02 -0.44767632506E+02  0.64484995552E+02  0.47000000000E+01 0. -1.
         -5    1    1    2    0  502  0.69404236310E+01  0.61152389502E+02  0.21644420999E+02  0.65409136842E+02  0.47000000000E+01 0. -1.
        -11    1    1    2    0    0  0.94913181549E+01 -0.33743170087E+02 -0.31897788402E+02  0.47393623546E+02  0.00000000000E+00 0.  1.
         11    1    1    2    0    0 -0.29494770464E+02  0.16878939418E+02  0.35295010338E+02  0.48995692008E+02  0.00000000000E+00 0. -1.
<mgrwt>
<rscale>  0 0.11909331E+03</rscale>
<asrwt>0</asrwt>
<pdfrwt beam="1">  1        1 0.15889035E-01 0.12781941E+03</pdfrwt>
<pdfrwt beam="2">  1       -1 0.18923803E-01 0.12781941E+03</pdfrwt>
<totfact> 0.71840088E+03</totfact>
</mgrwt>
</event>
<event>
 6    1  0.9240440E-006  0.1395816E+03  0.7546771E-02  0.1231507E+00
          1   -1    0    0  501    0  0.00000000000E+00  0.00000000000E+00  0.36276599081E+03  0.36276599081E+03  0.00000000000E+00 0. -1.
         -1   -1    0    0    0  501 -0.00000000000E+00 -0.00000000000E+00 -0.54379719321E+02  0.54379719321E+02  0.00000000000E+00 0.  1.
          5    1    1    2  502    0 -0.43197002375E+02 -0.68519954789E+02  0.16788608383E+03  0.18646391705E+03  0.47000000000E+01 0. -1.
         -5    1    1    2    0  502  0.75381076956E+01  0.57756710525E+02  0.11774486679E+03  0.13144810510E+03  0.47000000000E+01 0.  1.
        -11    1    1    2    0    0  0.42619289287E+02 -0.21120818599E+02 -0.14480108171E+02  0.49720884247E+02  0.00000000000E+00 0.  1.
         11    1    1    2    0    0 -0.69603946084E+01  0.31884062864E+02  0.37235429039E+02  0.49512803733E+02  0.00000000000E+00 0. -1.
<mgrwt>
<rscale>  0 0.12730735E+03</rscale>
<asrwt>0</asrwt>
<pdfrwt beam="1">  1        1 0.55810151E-01 0.13958157E+03</pdfrwt>
<pdfrwt beam="2">  1       -1 0.83661109E-02 0.13958157E+03</pdfrwt>
<totfact> 0.53083338E+03</totfact>
</mgrwt>
</event>
<event>
 6    1  0.9240440E-006  0.2261293E+03  0.7546771E-02  0.1165400E+00
          1   -1    0    0  501    0  0.00000000000E+00  0.00000000000E+00  0.44412282219E+03  0.44412282219E+03  0.00000000000E+00 0. -1.
         -1   -1    0    0    0  501 -0.00000000000E+00 -0.00000000000E+00 -0.59815507205E+02  0.59815507205E+02  0.00000000000E+00 0.  1.
          5    1    1    2  502    0  0.68526616665E+02  0.96981007640E+02  0.21708789891E+03  0.24748830051E+03  0.47000000000E+01 0. -1.
         -5    1    1    2    0  502 -0.40800023004E+02 -0.89492607556E+02  0.86520023094E+02  0.13107773678E+03  0.47000000000E+01 0.  1.
        -11    1    1    2    0    0  0.15959963745E+02  0.19298518288E+02  0.68160550893E+02  0.72615521405E+02  0.00000000000E+00 0. -1.
         11    1    1    2    0    0 -0.43686557406E+02 -0.26786918371E+02  0.12538842090E+02  0.52756770701E+02  0.00000000000E+00 0.  1.
<mgrwt>
<rscale>  0 0.18250530E+03</rscale>
<asrwt>0</asrwt>
<pdfrwt beam="1">  1        1 0.68326586E-01 0.22612933E+03</pdfrwt>
<pdfrwt beam="2">  1       -1 0.92023860E-02 0.22612933E+03</pdfrwt>
<totfact> 0.36268158E+03</totfact>
</mgrwt>
</event>
<event>
 6    1  0.9240440E-006  0.1337891E+03  0.7546771E-02  0.1235759E+00
         -2   -1    0    0    0  501 -0.00000000000E+00  0.00000000000E+00  0.16015676435E+03  0.16015676435E+03  0.00000000000E+00 0. -1.
          2   -1    0    0  501    0  0.00000000000E+00 -0.00000000000E+00 -0.85924499901E+02  0.85924499901E+02  0.00000000000E+00 0.  1.
          5    1    1    2  502    0  0.37090607685E+02 -0.48747331159E+02  0.49346398102E+02  0.78798302515E+02  0.47000000000E+01 0.  1.
         -5    1    1    2    0  502  0.98246848808E+01  0.57268850992E+02 -0.13234612962E+02  0.59778681042E+02  0.47000000000E+01 0.  1.
        -11    1    1    2    0    0 -0.46448705620E+02  0.85717079508E+01 -0.16684837923E+02  0.50093315397E+02  0.00000000000E+00 0.  1.
         11    1    1    2    0    0 -0.46658694593E+00 -0.17093227783E+02  0.54805317234E+02  0.57410965298E+02  0.00000000000E+00 0. -1.
<mgrwt>
<rscale>  0 0.12455959E+03</rscale>
<asrwt>0</asrwt>
<pdfrwt beam="2">  1        2 0.13219154E-01 0.13378909E+03</pdfrwt>
<pdfrwt beam="1">  1       -2 0.24639502E-01 0.13378909E+03</pdfrwt>
<totfact> 0.62700166E+03</totfact>
</mgrwt>
</event>
<event>
 6    1  0.9240440E-006  0.1427865E+03  0.7546771E-02  0.1220718E+00
         -4   -1    0    0    0  501 -0.00000000000E+00  0.00000000000E+00  0.95626380825E+02  0.95626380825E+02  0.00000000000E+00 0.  1.
          4   -1    0    0  501    0  0.00000000000E+00 -0.00000000000E+00 -0.17578678827E+03  0.17578678827E+03  0.00000000000E+00 0. -1.
          5    1    1    2  502    0  0.26293339587E+02 -0.25384450375E+02 -0.11838173462E+02  0.38703260565E+02  0.47000000000E+01 0.  1.
         -5    1    1    2    0  502 -0.69361108762E+02  0.79307847158E+02 -0.55205796547E+02  0.11903977487E+03  0.47000000000E+01 0.  1.
        -11    1    1    2    0    0  0.35528856265E+02 -0.44112446127E+02 -0.49510942645E+02  0.75229920726E+02  0.00000000000E+00 0. -1.
         11    1    1    2    0    0  0.75389129103E+01 -0.98109506561E+01  0.36394505209E+02  0.38440212929E+02  0.00000000000E+00 0.  1.
<mgrwt>
<rscale>  0 0.13464777E+03</rscale>
<asrwt>0</asrwt>
<pdfrwt beam="2">  1        4 0.27044121E-01 0.14278645E+03</pdfrwt>
<pdfrwt beam="1">  1       -4 0.14711751E-01 0.14278645E+03</pdfrwt>
<totfact> 0.84243587E+02</totfact>
</mgrwt>
</event>
<event>
 6    1  0.9240440E-006  0.3825740E+03  0.7546771E-02  0.1049986E+00
          2   -1    0    0  501    0  0.00000000000E+00  0.00000000000E+00  0.54001794509E+03  0.54001794509E+03  0.00000000000E+00 0. -1.
         -2   -1    0    0    0  501 -0.00000000000E+00 -0.00000000000E+00 -0.67758345282E+02  0.67758345282E+02  0.00000000000E+00 0.  1.
          5    1    1    2  502    0  0.41922241918E+02  0.15442986361E+03  0.29215509853E+03  0.33314073413E+03  0.47000000000E+01 0. -1.
         -5    1    1    2    0  502 -0.24021989356E+02 -0.14193217087E+02  0.62107549428E+02  0.68249110469E+02  0.47000000000E+01 0. -1.
        -11    1    1    2    0    0  0.16603470223E+02 -0.10488094149E+03  0.38817800639E+02  0.11305975746E+03  0.00000000000E+00 0.  1.
         11    1    1    2    0    0 -0.34503722785E+02 -0.35355705033E+02  0.79179151212E+02  0.93326688310E+02  0.00000000000E+00 0. -1.
<mgrwt>
<rscale>  0 0.38257403E+03</rscale>
<asrwt>0</asrwt>
<pdfrwt beam="1">  1        2 0.83079681E-01 0.38257403E+03</pdfrwt>
<pdfrwt beam="2">  1       -2 0.10424361E-01 0.38257403E+03</pdfrwt>
<totfact> 0.35587159E+03</totfact>
</mgrwt>
</event>
<event>
 6    1  0.9240440E-006  0.1532820E+03  0.7546771E-02  0.1205670E+00
          2   -1    0    0  501    0  0.00000000000E+00  0.00000000000E+00  0.70357039551E+03  0.70357039551E+03  0.00000000000E+00 0. -1.
         -2   -1    0    0    0  501 -0.00000000000E+00 -0.00000000000E+00 -0.28024525373E+02  0.28024525373E+02  0.00000000000E+00 0.  1.
          5    1    1    2  502    0 -0.30544667915E+02 -0.41950510823E+02  0.81787887701E+02  0.96975103356E+02  0.47000000000E+01 0. -1.
         -5    1    1    2    0  502 -0.51815411507E+02  0.74937527649E+02  0.33143913939E+03  0.34376512773E+03  0.47000000000E+01 0. -1.
        -11    1    1    2    0    0  0.48754795560E+02 -0.35471690339E+01  0.23143761098E+03  0.23654382316E+03  0.00000000000E+00 0. -1.
         11    1    1    2    0    0  0.33605283863E+02 -0.29439847793E+02  0.30881232064E+02  0.54310866641E+02  0.00000000000E+00 0.  1.
<mgrwt>
<rscale>  0 0.14584781E+03</rscale>
<asrwt>0</asrwt>
<pdfrwt beam="1">  1        2 0.10824159E+00 0.15328201E+03</pdfrwt>
<pdfrwt beam="2">  1       -2 0.43114660E-02 0.15328201E+03</pdfrwt>
<totfact> 0.98702298E+03</totfact>
</mgrwt>
</event>
<event>
 6    1  0.9240440E-006  0.1429054E+03  0.7546771E-02  0.1229040E+00
         -1   -1    0    0    0  501 -0.00000000000E+00  0.00000000000E+00  0.30199630440E+02  0.30199630440E+02  0.00000000000E+00 0.  1.
          1   -1    0    0  501    0  0.00000000000E+00 -0.00000000000E+00 -0.99875621824E+03  0.99875621824E+03  0.00000000000E+00 0. -1.
          5    1    1    2  502    0 -0.77703564469E+02 -0.28385900252E+02 -0.62469263336E+03  0.63016393061E+03  0.47000000000E+01 0. -1.
         -5    1    1    2    0  502  0.56612781236E+02  0.32916358745E+01 -0.27719013622E+03  0.28297049932E+03  0.47000000000E+01 0.  1.
        -11    1    1    2    0    0 -0.32657784506E+02  0.86117918747E+01 -0.43355877553E+02  0.54958402147E+02  0.00000000000E+00 0. -1.
         11    1    1    2    0    0  0.53748567739E+02  0.16482472503E+02 -0.23317940668E+02  0.60863016609E+02  0.00000000000E+00 0.  1.
<mgrwt>
<rscale>  0 0.12893794E+03</rscale>
<asrwt>0</asrwt>
<pdfrwt beam="2">  1        1 0.15365479E+00 0.14290541E+03</pdfrwt>
<pdfrwt beam="1">  1       -1 0.46460975E-02 0.14290541E+03</pdfrwt>
<totfact> 0.31037528E+03</totfact>
</mgrwt>
</event>
<event>
 6    1  0.9240440E-006  0.1300686E+03  0.7546771E-02  0.1257773E+00
         -1   -1    0    0    0  501 -0.00000000000E+00  0.00000000000E+00  0.65097015618E+02  0.65097015618E+02  0.00000000000E+00 0.  1.
          1   -1    0    0  501    0  0.00000000000E+00 -0.00000000000E+00 -0.19656829226E+03  0.19656829226E+03  0.00000000000E+00 0. -1.
          5    1    1    2  502    0 -0.55740918425E+02 -0.24704126264E+02 -0.26213563494E+02  0.66532584140E+02  0.47000000000E+01 0.  1.
         -5    1    1    2    0  502  0.49448076523E+02 -0.10707017863E+02 -0.11349649345E+03  0.12435150393E+03  0.47000000000E+01 0.  1.
        -11    1    1    2    0    0  0.12438293038E+02  0.25557919218E+02 -0.23566120161E+02  0.36922627045E+02  0.00000000000E+00 0. -1.
         11    1    1    2    0    0 -0.61454511365E+01  0.98532249081E+01  0.31804900462E+02  0.33858592767E+02  0.00000000000E+00 0.  1.
<mgrwt>
<rscale>  0 0.11152398E+03</rscale>
<asrwt>0</asrwt>
<pdfrwt beam="2">  1        1 0.30241275E-01 0.13006858E+03</pdfrwt>
<pdfrwt beam="1">  1       -1 0.10014926E-01 0.13006858E+03</pdfrwt>
<totfact> 0.85922928E+03</totfact>
</mgrwt>
</event>
<event>
 6    1  0.9240440E-006  0.2854876E+03  0.7546771E-02  0.1094513E+00
          2   -1    0    0  501    0  0.00000000000E+00  0.00000000000E+00  0.76451280454E+02  0.76451280454E+02  0.00000000000E+00 0. -1.
         -2   -1    0    0    0  501 -0.00000000000E+00 -0.00000000000E+00 -0.12017373073E+04  0.12017373073E+04  0.00000000000E+00 0.  1.
          5    1    1    2  502    0  0.13840802474E+03 -0.68927725972E+02 -0.20277798306E+03  0.25504668814E+03  0.47000000000E+01 0. -1.
         -5    1    1    2    0  502  0.29576713305E+02 -0.12513329897E+03 -0.12108321828E+03  0.17668152204E+03  0.47000000000E+01 0. -1.
        -11    1    1    2    0    0 -0.73774106996E+02  0.61896067264E+02 -0.17944381743E+03  0.20365123525E+03  0.00000000000E+00 0. -1.
         11    1    1    2    0    0 -0.94210631046E+02  0.13216495768E+03 -0.62198100805E+03  0.64280914230E+03  0.00000000000E+00 0.  1.
<mgrwt>
<rscale>  0 0.28216344E+03</rscale>
<asrwt>0</asrwt>
<pdfrwt beam="1">  1        2 0.11761736E-01 0.28548760E+03</pdfrwt>
<pdfrwt beam="2">  1       -2 0.18488265E+00 0.28548760E+03</pdfrwt>
<totfact> 0.94569314E+01</totfact>
</mgrwt>
</event>
<event>
 6    1  0.9240440E-006  0.1343473E+03  0.7546771E-02  0.1233415E+00
          2   -1    0    0  501    0  0.00000000000E+00  0.00000000000E+00  0.66537056377E+03  0.66537056377E+03  0.00000000000E+00 0.  1.
         -2   -1    0    0    0  501 -0.00000000000E+00 -0.00000000000E+00 -0.21394889681E+02  0.21394889681E+02  0.00000000000E+00 0. -1.
          5    1    1    2  502    0 -0.86105642769E+02 -0.21616286915E+02  0.19964489927E+03  0.21854432361E+03  0.47000000000E+01 0. -1.
         -5    1    1    2    0  502  0.38918077292E+02  0.75734819502E+01  0.17392971888E+03  0.17845338741E+03  0.47000000000E+01 0. -1.
        -11    1    1    2    0    0  0.71776677002E+02 -0.11364638682E+01  0.22283054672E+03  0.23410817043E+03  0.00000000000E+00 0. -1.
         11    1    1    2    0    0 -0.24589111525E+02  0.15179268833E+02  0.47570509223E+02  0.55659572003E+02  0.00000000000E+00 0.  1.
<mgrwt>
<rscale>  0 0.12606467E+03</rscale>
<asrwt>0</asrwt>
<pdfrwt beam="1">  1        2 0.10236469E+00 0.13434726E+03</pdfrwt>
<pdfrwt beam="2">  1       -2 0.32915220E-02 0.13434726E+03</pdfrwt>
<totfact> 0.15600444E+04</totfact>
</mgrwt>
</event>
<event>
 6    1  0.9240440E-006  0.1532669E+03  0.7546771E-02  0.1204860E+00
          1   -1    0    0  501    0  0.00000000000E+00  0.00000000000E+00  0.28695615868E+03  0.28695615868E+03  0.00000000000E+00 0. -1.
         -1   -1    0    0    0  501 -0.00000000000E+00 -0.00000000000E+00 -0.12051474575E+03  0.12051474575E+03  0.00000000000E+00 0.  1.
          5    1    1    2  502    0  0.30350358132E+02 -0.27747831996E+02  0.31641316854E+02  0.52099417957E+02  0.47000000000E+01 0. -1.
         -5    1    1    2    0  502 -0.10306248206E+03 -0.23043799303E+02  0.18893627291E+03  0.21649918502E+03  0.47000000000E+01 0. -1.
        -11    1    1    2    0    0  0.58085072042E+02  0.12742839318E+02 -0.72832553218E+02  0.94025721780E+02  0.00000000000E+00 0.  1.
         11    1    1    2    0    0  0.14627051884E+02  0.38048791981E+02  0.18696376386E+02  0.44846579669E+02  0.00000000000E+00 0. -1.
<mgrwt>
<rscale>  0 0.14648456E+03</rscale>
<asrwt>0</asrwt>
<pdfrwt beam="1">  1        1 0.44147101E-01 0.15326688E+03</pdfrwt>
<pdfrwt beam="2">  1       -1 0.18540730E-01 0.15326688E+03</pdfrwt>
<totfact> 0.20762086E+03</totfact>
</mgrwt>
</event>
<event>
 6    1  0.9240440E-006  0.1253728E+03  0.7546771E-02  0.1249495E+00
         -2   -1    0    0    0  501 -0.00000000000E+00  0.00000000000E+00  0.94263427541E+02  0.94263427541E+02  0.00000000000E+00 0. -1.
          2   -1    0    0  501    0  0.00000000000E+00 -0.00000000000E+00 -0.21316977242E+03  0.21316977242E+03  0.00000000000E+00 0.  1.
          5    1    1    2  502    0  0.31713002829E+02  0.26220739995E+02 -0.14599948300E+03  0.15176027409E+03  0.47000000000E+01 0.  1.
         -5    1    1    2    0  502 -0.37598728764E+02 -0.33889697281E+02 -0.16426226269E+02  0.53423654835E+02  0.47000000000E+01 0.  1.
        -11    1    1    2    0    0  0.64213040842E+01 -0.41515211025E+02  0.11485932345E+02  0.43550804062E+02  0.00000000000E+00 0. -1.
         11    1    1    2    0    0 -0.53557814885E+00  0.49184168311E+02  0.32033432048E+02  0.58698466974E+02  0.00000000000E+00 0.  1.
<mgrwt>
<rscale>  0 0.11620314E+03</rscale>
<asrwt>0</asrwt>
<pdfrwt beam="2">  1        2 0.32795349E-01 0.12537278E+03</pdfrwt>
<pdfrwt beam="1">  1       -2 0.14502066E-01 0.12537278E+03</pdfrwt>
<totfact> 0.54651642E+03</totfact>
</mgrwt>
</event>
<event>
 6    1  0.9541324E-006  0.1719762E+03  0.7546771E-02  0.1182956E+00
          1   -1    0    0  501    0  0.00000000000E+00  0.00000000000E+00  0.88320069062E+03  0.88320069062E+03  0.00000000000E+00 0.  1.
         -1   -1    0    0    0  501 -0.00000000000E+00 -0.00000000000E+00 -0.30828340352E+02  0.30828340352E+02  0.00000000000E+00 0. -1.
          5    1    1    2  502    0 -0.40641242830E+02  0.38690817824E+02  0.48948890494E+03  0.49271712783E+03  0.47000000000E+01 0. -1.
         -5    1    1    2    0  502 -0.63362171823E+02  0.17292890276E+02  0.88467703724E+02  0.11028342339E+03  0.47000000000E+01 0. -1.
        -11    1    1    2    0    0  0.61541458592E+00 -0.40863501125E+02  0.61267601949E+02  0.73647291246E+02  0.00000000000E+00 0.  1.
         11    1    1    2    0    0  0.10338800007E+03 -0.15120206975E+02  0.21314813966E+03  0.23738118851E+03  0.00000000000E+00 0. -1.
<mgrwt>
<rscale>  0 0.16519277E+03</rscale>
<asrwt>0</asrwt>
<pdfrwt beam="1">  1        1 0.13587701E+00 0.17197623E+03</pdfrwt>
<pdfrwt beam="2">  1       -1 0.47428223E-02 0.17197623E+03</pdfrwt>
<totfact> 0.37014441E+03</totfact>
</mgrwt>
</event>
<event>
 6    1  0.9240440E-006  0.1272177E+03  0.7546771E-02  0.1246738E+00
          1   -1    0    0  501    0  0.00000000000E+00  0.00000000000E+00  0.10831296003E+04  0.10831296003E+04  0.00000000000E+00 0. -1.
         -1   -1    0    0    0  501 -0.00000000000E+00 -0.00000000000E+00 -0.13094218349E+02  0.13094218349E+02  0.00000000000E+00 0.  1.
          5    1    1    2  502    0  0.29952784806E+02  0.38406046195E+02  0.45997097279E+03  0.46256629742E+03  0.47000000000E+01 0. -1.
         -5    1    1    2    0  502 -0.48771415488E+02 -0.52709561266E+02  0.34852289036E+03  0.35587532075E+03  0.47000000000E+01 0. -1.
        -11    1    1    2    0    0  0.38875592716E+02 -0.23432044189E+02  0.87524792154E+02  0.98594937220E+02  0.00000000000E+00 0.  1.
         11    1    1    2    0    0 -0.20056962034E+02  0.37735559260E+02  0.17401672664E+03  0.17918726324E+03  0.00000000000E+00 0. -1.
<mgrwt>
<rscale>  0 0.11781959E+03</rscale>
<asrwt>0</asrwt>
<pdfrwt beam="1">  1        1 0.16663525E+00 0.12721775E+03</pdfrwt>
<pdfrwt beam="2">  1       -1 0.20144960E-02 0.12721775E+03</pdfrwt>
<totfact> 0.90787160E+03</totfact>
</mgrwt>
</event>
<event>
 6    1  0.9240440E-006  0.1364227E+03  0.7546771E-02  0.1230406E+00
          2   -1    0    0  501    0  0.00000000000E+00  0.00000000000E+00  0.93897011212E+02  0.93897011212E+02  0.00000000000E+00 0. -1.
         -2   -1    0    0    0  501 -0.00000000000E+00 -0.00000000000E+00 -0.15694176329E+03  0.15694176329E+03  0.00000000000E+00 0.  1.
          5    1    1    2  502    0 -0.25689342384E+02  0.15474630893E+02 -0.54666592643E+02  0.62529455976E+02  0.47000000000E+01 0. -1.
         -5    1    1    2    0  502  0.42522843494E+02 -0.67588477984E+02  0.10927361396E+02  0.80733461477E+02  0.47000000000E+01 0. -1.
        -11    1    1    2    0    0 -0.48498171616E+02  0.55712787955E+02 -0.15584468759E+02  0.75490814396E+02  0.00000000000E+00 0. -1.
         11    1    1    2    0    0  0.31664670506E+02 -0.35989408631E+01 -0.37210520732E+01  0.32085042654E+02  0.00000000000E+00 0.  1.
<mgrwt>
<rscale>  0 0.12803139E+03</rscale>
<asrwt>0</asrwt>
<pdfrwt beam="1">  1        2 0.14445694E-01 0.13642266E+03</pdfrwt>
<pdfrwt beam="2">  1       -2 0.24144887E-01 0.13642266E+03</pdfrwt>
<totfact> 0.58564774E+03</totfact>
</mgrwt>
</event>
<event>
 6    1  0.9240440E-006  0.1376020E+03  0.7546771E-02  0.1226503E+00
          2   -1    0    0  501    0  0.00000000000E+00  0.00000000000E+00  0.34388246029E+03  0.34388246029E+03  0.00000000000E+00 0. -1.
         -2   -1    0    0    0  501 -0.00000000000E+00 -0.00000000000E+00 -0.62525292485E+02  0.62525292485E+02  0.00000000000E+00 0.  1.
          5    1    1    2  502    0  0.86116163835E+02  0.45255147493E+02  0.18714142752E+03  0.21096925354E+03  0.47000000000E+01 0.  1.
         -5    1    1    2    0  502 -0.36157505649E+02 -0.16735299400E+02  0.70537419733E+02  0.81148339745E+02  0.47000000000E+01 0.  1.
        -11    1    1    2    0    0  0.23004119491E+01 -0.27959575976E+02 -0.28815447772E+02  0.40216412249E+02  0.00000000000E+00 0.  1.
         11    1    1    2    0    0 -0.52259070135E+02 -0.56027211778E+00  0.52493768324E+02  0.74073747233E+02  0.00000000000E+00 0. -1.
<mgrwt>
<rscale>  0 0.13064388E+03</rscale>
<asrwt>0</asrwt>
<pdfrwt beam="1">  1        2 0.52904993E-01 0.13760196E+03</pdfrwt>
<pdfrwt beam="2">  1       -2 0.96192760E-02 0.13760196E+03</pdfrwt>
<totfact> 0.63625445E+03</totfact>
</mgrwt>
</event>
<event>
 6    1  0.9240440E-006  0.4601230E+03  0.7546771E-02  0.1024746E+00
          2   -1    0    0  501    0  0.00000000000E+00  0.00000000000E+00  0.20703225746E+03  0.20703225746E+03  0.00000000000E+00 0. -1.
         -2   -1    0    0    0  501 -0.00000000000E+00 -0.00000000000E+00 -0.25565237547E+03  0.25565237547E+03  0.00000000000E+00 0.  1.
          5    1    1    2  502    0 -0.10706734734E+03  0.16943850532E+03 -0.20346235255E+02  0.20151645898E+03  0.47000000000E+01 0. -1.
         -5    1    1    2    0  502  0.18181770609E+02  0.99717384754E+01 -0.34969331818E+02  0.40926232645E+02  0.47000000000E+01 0. -1.
        -11    1    1    2    0    0  0.32580051203E+02 -0.26904103890E+02 -0.32154350435E+02  0.53096071366E+02  0.00000000000E+00 0.  1.
         11    1    1    2    0    0  0.56305525529E+02 -0.15250613991E+03  0.38849799504E+02  0.16714586993E+03  0.00000000000E+00 0. -1.
<mgrwt>
<rscale>  0 0.46012298E+03</rscale>
<asrwt>0</asrwt>
<pdfrwt beam="1">  1        2 0.31851117E-01 0.46012298E+03</pdfrwt>
<pdfrwt beam="2">  1       -2 0.39331135E-01 0.46012298E+03</pdfrwt>
<totfact> 0.10172090E+03</totfact>
</mgrwt>
</event>
<event>
 6    1  0.9240440E-006  0.1783625E+03  0.7546771E-02  0.1175045E+00
         -1   -1    0    0    0  501 -0.00000000000E+00  0.00000000000E+00  0.35124288195E+03  0.35124288195E+03  0.00000000000E+00 0.  1.
          1   -1    0    0  501    0  0.00000000000E+00 -0.00000000000E+00 -0.93772600695E+02  0.93772600695E+02  0.00000000000E+00 0. -1.
          5    1    1    2  502    0  0.11889979755E+03 -0.16575953035E+02  0.59367068448E+02  0.13400918958E+03  0.47000000000E+01 0.  1.
         -5    1    1    2    0  502  0.37905584128E+01  0.50260151716E+02 -0.88047253874E+01  0.51381556738E+02  0.47000000000E+01 0.  1.
        -11    1    1    2    0    0 -0.11530316450E+03  0.64557119527E+01  0.16189979745E+03  0.19886689110E+03  0.00000000000E+00 0.  1.
         11    1    1    2    0    0 -0.73871914697E+01 -0.40139910634E+02  0.45008140745E+02  0.60757845229E+02  0.00000000000E+00 0. -1.
<mgrwt>
<rscale>  0 0.17271559E+03</rscale>
<asrwt>0</asrwt>
<pdfrwt beam="2">  1        1 0.14426554E-01 0.17836249E+03</pdfrwt>
<pdfrwt beam="1">  1       -1 0.54037366E-01 0.17836249E+03</pdfrwt>
<totfact> 0.13777256E+03</totfact>
</mgrwt>
</event>
<event>
 6    1  0.9240440E-006  0.1646252E+03  0.7546771E-02  0.1190927E+00
         -2   -1    0    0    0  501 -0.00000000000E+00  0.00000000000E+00  0.63879978395E+03  0.63879978395E+03  0.00000000000E+00 0.  1.
          2   -1    0    0  501    0  0.00000000000E+00 -0.00000000000E+00 -0.37568572633E+02  0.37568572633E+02  0.00000000000E+00 0. -1.
          5    1    1    2  502    0 -0.10008854381E+02  0.10430798771E+03  0.15179313803E+03  0.18450902476E+03  0.47000000000E+01 0.  1.
         -5    1    1    2    0  502  0.58021749760E+02 -0.85485457689E+01  0.10991321994E+03  0.12466999237E+03  0.47000000000E+01 0.  1.
        -11    1    1    2    0    0 -0.71543317381E+02 -0.56219660758E+02  0.25802445831E+03  0.27359772953E+03  0.00000000000E+00 0.  1.
         11    1    1    2    0    0  0.23530422002E+02 -0.39539781186E+02  0.81500395046E+02  0.93591609926E+02  0.00000000000E+00 0. -1.
<mgrwt>
<rscale>  0 0.15804035E+03</rscale>
<asrwt>0</asrwt>
<pdfrwt beam="2">  1        2 0.57797809E-02 0.16462517E+03</pdfrwt>
<pdfrwt beam="1">  1       -2 0.98276882E-01 0.16462517E+03</pdfrwt>
<totfact> 0.11343229E+03</totfact>
</mgrwt>
</event>
<event>
 6    1  0.9240440E-006  0.4796206E+03  0.7546771E-02  0.1019239E+00
          1   -1    0    0  501    0  0.00000000000E+00  0.00000000000E+00  0.28708524698E+03  0.28708524698E+03  0.00000000000E+00 0. -1.
         -1   -1    0    0    0  501 -0.00000000000E+00 -0.00000000000E+00 -0.20032020869E+03  0.20032020869E+03  0.00000000000E+00 0.  1.
          5    1    1    2  502    0 -0.16381054465E+02  0.16612013122E+02  0.14018438922E+02  0.27620726913E+02  0.47000000000E+01 0.  1.
         -5    1    1    2    0  502  0.91700742270E+02 -0.12555728587E+03  0.20090573731E+03  0.25408436286E+03  0.47000000000E+01 0.  1.
        -11    1    1    2    0    0 -0.15736074972E+02  0.70974323291E+02 -0.11150456936E+03  0.13310990801E+03  0.00000000000E+00 0.  1.
         11    1    1    2    0    0 -0.59583612833E+02  0.37970949456E+02 -0.16654568578E+02  0.72590457880E+02  0.00000000000E+00 0. -1.
<mgrwt>
<rscale>  0 0.47962059E+03</rscale>
<asrwt>0</asrwt>
<pdfrwt beam="1">  1        1 0.44166961E-01 0.47962059E+03</pdfrwt>
<pdfrwt beam="2">  1       -1 0.30818494E-01 0.47962059E+03</pdfrwt>
<totfact> 0.90676134E+02</totfact>
</mgrwt>
</event>
<event>
 6    1  0.9240440E-006  0.2558533E+03  0.7546771E-02  0.1147957E+00
         -1   -1    0    0    0  501 -0.00000000000E+00  0.00000000000E+00  0.14109492540E+03  0.14109492540E+03  0.00000000000E+00 0.  1.
          1   -1    0    0  501    0  0.00000000000E+00 -0.00000000000E+00 -0.35884956470E+03  0.35884956470E+03  0.00000000000E+00 0. -1.
          5    1    1    2  502    0  0.32901134912E+02 -0.80607734416E+02 -0.30027537845E+03  0.31267792444E+03  0.47000000000E+01 0. -1.
         -5    1    1    2    0  502  0.16173855017E+01  0.65894384286E+02  0.17806189228E+02  0.68438557781E+02  0.47000000000E+01 0.  1.
        -11    1    1    2    0    0 -0.45180006844E+02 -0.17483087818E+02  0.69352042537E+02  0.84596673588E+02  0.00000000000E+00 0.  1.
         11    1    1    2    0    0  0.10661486431E+02  0.32196437948E+02 -0.46374926139E+01  0.34231334288E+02  0.00000000000E+00 0. -1.
<mgrwt>
<rscale>  0 0.20212665E+03</rscale>
<asrwt>0</asrwt>
<pdfrwt beam="2">  1        1 0.55207625E-01 0.25585334E+03</pdfrwt>
<pdfrwt beam="1">  1       -1 0.21706912E-01 0.25585334E+03</pdfrwt>
<totfact> 0.12276951E+03</totfact>
</mgrwt>
</event>
<event>
 6    1  0.9240440E-006  0.3107492E+03  0.7546771E-02  0.1118743E+00
          2   -1    0    0  501    0  0.00000000000E+00  0.00000000000E+00  0.19509356088E+03  0.19509356088E+03  0.00000000000E+00 0. -1.
         -2   -1    0    0    0  501 -0.00000000000E+00 -0.00000000000E+00 -0.24193852047E+03  0.24193852047E+03  0.00000000000E+00 0.  1.
          5    1    1    2  502    0  0.39907552528E+01 -0.10591967328E+03  0.72613257418E+02  0.12856779717E+03  0.47000000000E+01 0. -1.
         -5    1    1    2    0  502  0.66741627448E+01  0.17035503531E+03 -0.64362257234E+02  0.18229090120E+03  0.47000000000E+01 0.  1.
        -11    1    1    2    0    0  0.14606172980E+02 -0.78933778551E+02 -0.24510529751E+02  0.83932399907E+02  0.00000000000E+00 0.  1.
         11    1    1    2    0    0 -0.25271090977E+02  0.14498416517E+02 -0.30585430022E+02  0.42240983065E+02  0.00000000000E+00 0. -1.
<mgrwt>
<rscale>  0 0.24158196E+03</rscale>
<asrwt>0</asrwt>
<pdfrwt beam="1">  1        2 0.30014394E-01 0.31074918E+03</pdfrwt>
<pdfrwt beam="2">  1       -2 0.37221311E-01 0.31074918E+03</pdfrwt>
<totfact> 0.12013026E+03</totfact>
</mgrwt>
</event>
<event>
 6    1  0.9240440E-006  0.1449296E+03  0.7546771E-02  0.1216385E+00
          1   -1    0    0  501    0  0.00000000000E+00  0.00000000000E+00  0.90864277103E+03  0.90864277103E+03  0.00000000000E+00 0. -1.
         -1   -1    0    0    0  501 -0.00000000000E+00 -0.00000000000E+00 -0.23731608714E+02  0.23731608714E+02  0.00000000000E+00 0.  1.
          5    1    1    2  502    0  0.26726562972E+02 -0.44439956564E+02  0.89465905889E+02  0.10351549268E+03  0.47000000000E+01 0.  1.
         -5    1    1    2    0  502 -0.22235238178E+02 -0.28754944982E+02  0.59490714271E+03  0.59603510897E+03  0.47000000000E+01 0.  1.
        -11    1    1    2    0    0  0.36793757231E+02  0.36234983252E+02  0.14686381691E+03  0.15567830710E+03  0.00000000000E+00 0. -1.
         11    1    1    2    0    0 -0.41285082025E+02  0.36959918294E+02  0.53674296799E+02  0.77145470994E+02  0.00000000000E+00 0.  1.
<mgrwt>
<rscale>  0 0.13775275E+03</rscale>
<asrwt>0</asrwt>
<pdfrwt beam="1">  1        1 0.13979117E+00 0.14492955E+03</pdfrwt>
<pdfrwt beam="2">  1       -1 0.36510174E-02 0.14492955E+03</pdfrwt>
<totfact> 0.51725234E+03</totfact>
</mgrwt>
</event>
<event>
 6    1  0.9240440E-006  0.3252211E+03  0.7546771E-02  0.1074574E+00
         -2   -1    0    0    0  501 -0.00000000000E+00  0.00000000000E+00  0.55246698083E+02  0.55246698083E+02  0.00000000000E+00 0.  1.
          2   -1    0    0  501    0  0.00000000000E+00 -0.00000000000E+00 -0.20457660244E+04  0.20457660244E+04  0.00000000000E+00 0. -1.
          5    1    1    2  502    0 -0.14864007806E+03 -0.16327657723E+03 -0.77064856471E+03  0.80166976603E+03  0.47000000000E+01 0.  1.
         -5    1    1    2    0  502 -0.94224586304E+02 -0.13243324115E+02 -0.56692552343E+03  0.57487415789E+03  0.47000000000E+01 0.  1.
        -11    1    1    2    0    0  0.84793168884E+02  0.10109702747E+03 -0.20832936223E+03  0.24660010872E+03  0.00000000000E+00 0.  1.
         11    1    1    2    0    0  0.15807149548E+03  0.75422873876E+02 -0.44461587598E+03  0.47786868988E+03  0.00000000000E+00 0. -1.
<mgrwt>
<rscale>  0 0.32234667E+03</rscale>
<asrwt>0</asrwt>
<pdfrwt beam="2">  1        2 0.31473319E+00 0.32522105E+03</pdfrwt>
<pdfrwt beam="1">  1       -2 0.84994933E-02 0.32522105E+03</pdfrwt>
<totfact> 0.59978782E+02</totfact>
</mgrwt>
</event>
<event>
 6    1  0.9240440E-006  0.1394452E+03  0.7546771E-02  0.1225352E+00
         -2   -1    0    0    0  501 -0.00000000000E+00  0.00000000000E+00  0.84792737654E+02  0.84792737654E+02  0.00000000000E+00 0.  1.
          2   -1    0    0  501    0  0.00000000000E+00 -0.00000000000E+00 -0.18388753342E+03  0.18388753342E+03  0.00000000000E+00 0. -1.
          5    1    1    2  502    0  0.63133398174E+02  0.96278626367E+01  0.21819148985E+02  0.67651215557E+02  0.47000000000E+01 0. -1.
         -5    1    1    2    0  502 -0.17712794120E+02  0.32285093546E+02 -0.71167984191E+02  0.80268563676E+02  0.47000000000E+01 0. -1.
        -11    1    1    2    0    0  0.48076530246E+01 -0.25795475479E+02  0.20227373297E+02  0.33131053610E+02  0.00000000000E+00 0.  1.
         11    1    1    2    0    0 -0.50228257079E+02 -0.16117480703E+02 -0.69973333854E+02  0.87629438228E+02  0.00000000000E+00 0. -1.
<mgrwt>
<rscale>  0 0.13142821E+03</rscale>
<asrwt>0</asrwt>
<pdfrwt beam="2">  1        2 0.28290390E-01 0.13944516E+03</pdfrwt>
<pdfrwt beam="1">  1       -2 0.13045037E-01 0.13944516E+03</pdfrwt>
<totfact> 0.76649463E+03</totfact>
</mgrwt>
</event>
<event>
 6    1  0.9240440E-006  0.1489531E+03  0.7546771E-02  0.1209929E+00
         -2   -1    0    0    0  501 -0.00000000000E+00  0.00000000000E+00  0.27549079745E+02  0.27549079745E+02  0.00000000000E+00 0.  1.
          2   -1    0    0  501    0  0.00000000000E+00 -0.00000000000E+00 -0.74257393874E+03  0.74257393874E+03  0.00000000000E+00 0. -1.
          5    1    1    2  502    0 -0.57257355435E+01 -0.84282938328E+02 -0.18721053841E+03  0.20544165457E+03  0.47000000000E+01 0. -1.
         -5    1    1    2    0  502  0.45248900142E+02  0.13575394793E+02 -0.30957176735E+03  0.31319087383E+03  0.47000000000E+01 0. -1.
        -11    1    1    2    0    0  0.13933445502E+02  0.64722826414E+02 -0.84579708769E+02  0.10741001954E+03  0.00000000000E+00 0.  1.
         11    1    1    2    0    0 -0.53456610100E+02  0.59847171203E+01 -0.13366284447E+03  0.14408047055E+03  0.00000000000E+00 0. -1.
<mgrwt>
<rscale>  0 0.14255723E+03</rscale>
<asrwt>0</asrwt>
<pdfrwt beam="2">  1        2 0.11424214E+00 0.14895315E+03</pdfrwt>
<pdfrwt beam="1">  1       -2 0.42383203E-02 0.14895315E+03</pdfrwt>
<totfact> 0.94723899E+03</totfact>
</mgrwt>
</event>
<event>
 6    1  0.9240440E-006  0.4215979E+03  0.7546771E-02  0.1036547E+00
         -2   -1    0    0    0  501 -0.00000000000E+00  0.00000000000E+00  0.61786129313E+02  0.61786129313E+02  0.00000000000E+00 0.  1.
          2   -1    0    0  501    0  0.00000000000E+00 -0.00000000000E+00 -0.71919387769E+03  0.71919387769E+03  0.00000000000E+00 0. -1.
          5    1    1    2  502    0 -0.31861264251E+02 -0.21299384742E+02 -0.85835960529E+02  0.94120699477E+02  0.47000000000E+01 0. -1.
         -5    1    1    2    0  502  0.11923124596E+03 -0.10766445971E+03 -0.42462208909E+03  0.45401953090E+03  0.47000000000E+01 0. -1.
        -11    1    1    2    0    0 -0.65941384191E+02  0.39244398638E+02 -0.10852488218E+03  0.13291365252E+03  0.00000000000E+00 0. -1.
         11    1    1    2    0    0 -0.21428597521E+02  0.89719445817E+02 -0.38424816578E+02  0.99926124104E+02  0.00000000000E+00 0.  1.
<mgrwt>
<rscale>  0 0.42159794E+03</rscale>
<asrwt>0</asrwt>
<pdfrwt beam="2">  1        2 0.11064522E+00 0.42159794E+03</pdfrwt>
<pdfrwt beam="1">  1       -2 0.95055578E-02 0.42159794E+03</pdfrwt>
<totfact> 0.29347419E+03</totfact>
</mgrwt>
</event>
<event>
 6    1  0.9240440E-006  0.2990444E+03  0.7546771E-02  0.1085719E+00
          2   -1    0    0  501    0  0.00000000000E+00  0.00000000000E+00  0.78318103769E+03  0.78318103769E+03  0.00000000000E+00 0. -1.
         -2   -1    0    0    0  501 -0.00000000000E+00 -0.00000000000E+00 -0.28546261195E+02  0.28546261195E+02  0.00000000000E+00 0.  1.
          5    1    1    2  502    0  0.13065413148E+02 -0.30227948178E+02  0.20209642264E+03  0.20481574138E+03  0.47000000000E+01 0. -1.
         -5    1    1    2    0  502  0.76617419373E+02  0.81058669989E+02  0.20675939703E+03  0.23497292438E+03  0.47000000000E+01 0. -1.
        -11    1    1    2    0    0 -0.17666247546E+02 -0.61072860340E+02  0.18018309624E+03  0.19107050725E+03  0.00000000000E+00 0. -1.
         11    1    1    2    0    0 -0.72016584975E+02  0.10242138530E+02  0.16559586058E+03  0.18086812587E+03  0.00000000000E+00 0.  1.
<mgrwt>
<rscale>  0 0.29904441E+03</rscale>
<asrwt>0</asrwt>
<pdfrwt beam="1">  1        2 0.12048937E+00 0.29904441E+03</pdfrwt>
<pdfrwt beam="2">  1       -2 0.43917331E-02 0.29904441E+03</pdfrwt>
<totfact> 0.86973417E+03</totfact>
</mgrwt>
</event>
<event>
 6    1  0.9240440E-006  0.1316288E+03  0.7546771E-02  0.1238787E+00
         -2   -1    0    0    0  501 -0.00000000000E+00  0.00000000000E+00  0.24341977427E+02  0.24341977427E+02  0.00000000000E+00 0.  1.
          2   -1    0    0  501    0  0.00000000000E+00 -0.00000000000E+00 -0.57850245934E+03  0.57850245934E+03  0.00000000000E+00 0. -1.
          5    1    1    2  502    0  0.31325865336E+02 -0.33035842724E+02 -0.11383113003E+03  0.12268778630E+03  0.47000000000E+01 0. -1.
         -5    1    1    2    0  502 -0.69337810705E+02  0.49100421659E+02 -0.26934313065E+03  0.28246485698E+03  0.47000000000E+01 0. -1.
        -11    1    1    2    0    0  0.53568038698E+02  0.16067433615E+02 -0.13872889157E+03  0.14957741323E+03  0.00000000000E+00 0. -1.
         11    1    1    2    0    0 -0.15556093329E+02 -0.32132012550E+02 -0.32257329660E+02  0.48114380251E+02  0.00000000000E+00 0.  1.
<mgrwt>
<rscale>  0 0.12265053E+03</rscale>
<asrwt>0</asrwt>
<pdfrwt beam="2">  1        2 0.89000383E-01 0.13162884E+03</pdfrwt>
<pdfrwt beam="1">  1       -2 0.37449194E-02 0.13162884E+03</pdfrwt>
<totfact> 0.15112519E+04</totfact>
</mgrwt>
</event>
<event>
 6    1  0.9240440E-006  0.1902975E+03  0.7546771E-02  0.1163086E+00
          1   -1    0    0  501    0  0.00000000000E+00  0.00000000000E+00  0.27775973941E+02  0.27775973941E+02  0.00000000000E+00 0. -1.
         -1   -1    0    0    0  501 -0.00000000000E+00 -0.00000000000E+00 -0.11678464319E+04  0.11678464319E+04  0.00000000000E+00 0.  1.
          5    1    1    2  502    0 -0.12429520151E+03 -0.23059806645E+02 -0.26581114410E+03  0.29437850826E+03  0.47000000000E+01 0. -1.
         -5    1    1    2    0  502 -0.19219231484E+02  0.22360552712E+02 -0.32397468984E+03  0.32534760308E+03  0.47000000000E+01 0. -1.
        -11    1    1    2    0    0  0.54165651593E+01  0.27998565137E+02 -0.11117237532E+03  0.11477175551E+03  0.00000000000E+00 0.  1.
         11    1    1    2    0    0  0.13809786784E+03 -0.27299311205E+02 -0.43911224871E+03  0.46112453899E+03  0.00000000000E+00 0. -1.
<mgrwt>
<rscale>  0 0.18496114E+03</rscale>
<asrwt>0</asrwt>
<pdfrwt beam="1">  1        1 0.42732276E-02 0.19029746E+03</pdfrwt>
<pdfrwt beam="2">  1       -1 0.17966865E+00 0.19029746E+03</pdfrwt>
<totfact> 0.47574383E+02</totfact>
</mgrwt>
</event>
<event>
 6    1  0.9240440E-006  0.1296123E+03  0.7546771E-02  0.1242882E+00
          1   -1    0    0  501    0  0.00000000000E+00  0.00000000000E+00  0.53117399110E+03  0.53117399110E+03  0.00000000000E+00 0. -1.
         -1   -1    0    0    0  501 -0.00000000000E+00 -0.00000000000E+00 -0.24834689092E+02  0.24834689092E+02  0.00000000000E+00 0.  1.
          5    1    1    2  502    0  0.39363825808E+02  0.64802315138E+02  0.27788944256E+03  0.28808589538E+03  0.47000000000E+01 0.  1.
         -5    1    1    2    0  502 -0.14307652905E+02 -0.41495455152E+02  0.65844633260E+02  0.79272867105E+02  0.47000000000E+01 0.  1.
        -11    1    1    2    0    0 -0.50704878278E+02 -0.32491837300E+02  0.14276666248E+03  0.15494845623E+03  0.00000000000E+00 0. -1.
         11    1    1    2    0    0  0.25648705375E+02  0.91849773137E+01  0.19838563703E+02  0.33701461474E+02  0.00000000000E+00 0.  1.
<mgrwt>
<rscale>  0 0.12013025E+03</rscale>
<asrwt>0</asrwt>
<pdfrwt beam="1">  1        1 0.81719067E-01 0.12961229E+03</pdfrwt>
<pdfrwt beam="2">  1       -1 0.38207218E-02 0.12961229E+03</pdfrwt>
<totfact> 0.10404739E+04</totfact>
</mgrwt>
</event>
<event>
 6    1  0.9240440E-006  0.2967516E+03  0.7546771E-02  0.1088613E+00
         -1   -1    0    0    0  501 -0.00000000000E+00  0.00000000000E+00  0.28785846032E+03  0.28785846032E+03  0.00000000000E+00 0.  1.
          1   -1    0    0  501    0  0.00000000000E+00 -0.00000000000E+00 -0.58303348770E+03  0.58303348770E+03  0.00000000000E+00 0. -1.
          5    1    1    2  502    0  0.12513393176E+03 -0.23002801387E+03 -0.44837806393E+03  0.51926521764E+03  0.47000000000E+01 0.  1.
         -5    1    1    2    0  502 -0.16896717571E+02 -0.16388677572E+02 -0.83752846462E+01  0.25422887525E+02  0.47000000000E+01 0.  1.
        -11    1    1    2    0    0 -0.11747902105E+03  0.18184211443E+03  0.13853418935E+03  0.25702061509E+03  0.00000000000E+00 0.  1.
         11    1    1    2    0    0  0.92418068594E+01  0.64574577014E+02  0.23044131843E+02  0.69183227757E+02  0.00000000000E+00 0. -1.
<mgrwt>
<rscale>  0 0.29334939E+03</rscale>
<asrwt>0</asrwt>
<pdfrwt beam="2">  1        1 0.89697459E-01 0.29675160E+03</pdfrwt>
<pdfrwt beam="1">  1       -1 0.44285917E-01 0.29675160E+03</pdfrwt>
<totfact> 0.18938786E+02</totfact>
</mgrwt>
</event>
<event>
 6    1  0.9240440E-006  0.1918312E+03  0.7546771E-02  0.1161541E+00
         -1   -1    0    0    0  501 -0.00000000000E+00  0.00000000000E+00  0.68261814414E+02  0.68261814414E+02  0.00000000000E+00 0.  1.
          1   -1    0    0  501    0  0.00000000000E+00 -0.00000000000E+00 -0.54873181609E+03  0.54873181609E+03  0.00000000000E+00 0. -1.
          5    1    1    2  502    0 -0.31489003266E+02  0.94986076665E+02 -0.91263463734E+02  0.13551760734E+03  0.47000000000E+01 0.  1.
         -5    1    1    2    0  502 -0.21793205589E+02  0.40418517242E+02 -0.26614000857E+03  0.27011329939E+03  0.47000000000E+01 0.  1.
        -11    1    1    2    0    0  0.64031113673E+02 -0.13400241016E+03 -0.13091625690E+03  0.19797902861E+03  0.00000000000E+00 0. -1.
         11    1    1    2    0    0 -0.10748904818E+02 -0.14021837440E+01  0.78497275263E+01  0.13383695165E+02  0.00000000000E+00 0.  1.
<mgrwt>
<rscale>  0 0.18662513E+03</rscale>
<asrwt>0</asrwt>
<pdfrwt beam="2">  1        1 0.84420281E-01 0.19183115E+03</pdfrwt>
<pdfrwt beam="1">  1       -1 0.10501817E-01 0.19183115E+03</pdfrwt>
<totfact> 0.22265487E+03</totfact>
</mgrwt>
</event>
<event>
 6    1  0.9240440E-006  0.1639003E+03  0.7546771E-02  0.1191643E+00
          2   -1    0    0  501    0  0.00000000000E+00  0.00000000000E+00  0.30005752027E+03  0.30005752027E+03  0.00000000000E+00 0. -1.
         -2   -1    0    0    0  501 -0.00000000000E+00 -0.00000000000E+00 -0.76679933354E+02  0.76679933354E+02  0.00000000000E+00 0.  1.
          5    1    1    2  502    0 -0.18517040045E+02  0.87387843529E+02  0.40920931942E+02  0.98367314895E+02  0.47000000000E+01 0.  1.
         -5    1    1    2    0  502  0.68278481912E+02  0.62150779768E+01  0.79074247193E+02  0.10476356645E+03  0.47000000000E+01 0.  1.
        -11    1    1    2    0    0 -0.99436924032E+01 -0.53534098753E+02 -0.15098881797E+01  0.54470694050E+02  0.00000000000E+00 0.  1.
         11    1    1    2    0    0 -0.39817749464E+02 -0.40068822752E+02  0.10489229596E+03  0.11913587823E+03  0.00000000000E+00 0. -1.
<mgrwt>
<rscale>  0 0.15741767E+03</rscale>
<asrwt>0</asrwt>
<pdfrwt beam="1">  1        2 0.46162695E-01 0.16390031E+03</pdfrwt>
<pdfrwt beam="2">  1       -2 0.11796913E-01 0.16390031E+03</pdfrwt>
<totfact> 0.53788897E+03</totfact>
</mgrwt>
</event>
<event>
 6    1  0.9240440E-006  0.1367179E+03  0.7546771E-02  0.1229856E+00
         -1   -1    0    0    0  501 -0.00000000000E+00  0.00000000000E+00  0.58063766899E+02  0.58063766899E+02  0.00000000000E+00 0.  1.
          1   -1    0    0  501    0  0.00000000000E+00 -0.00000000000E+00 -0.25609613037E+03  0.25609613037E+03  0.00000000000E+00 0. -1.
          5    1    1    2  502    0  0.39318266312E+02  0.78395517933E+02 -0.83089454950E+02  0.12090380814E+03  0.47000000000E+01 0.  1.
         -5    1    1    2    0  502  0.70149935258E+01 -0.48054670586E+02 -0.40977874301E+02  0.63716070827E+02  0.47000000000E+01 0.  1.
        -11    1    1    2    0    0 -0.22516022593E+02 -0.34910412013E+02  0.95076249256E+01  0.42615760841E+02  0.00000000000E+00 0.  1.
         11    1    1    2    0    0 -0.23817237245E+02  0.45695646668E+01 -0.83472659141E+02  0.86924257461E+02  0.00000000000E+00 0. -1.
<mgrwt>
<rscale>  0 0.12839584E+03</rscale>
<asrwt>0</asrwt>
<pdfrwt beam="2">  1        1 0.39399405E-01 0.13671795E+03</pdfrwt>
<pdfrwt beam="1">  1       -1 0.89328872E-02 0.13671795E+03</pdfrwt>
<totfact> 0.73942693E+03</totfact>
</mgrwt>
</event>
<event>
 6    1  0.9240440E-006  0.2164285E+03  0.7546771E-02  0.1139782E+00
         -1   -1    0    0    0  501 -0.00000000000E+00  0.00000000000E+00  0.44542742846E+02  0.44542742846E+02  0.00000000000E+00 0.  1.
          1   -1    0    0  501    0  0.00000000000E+00 -0.00000000000E+00 -0.10986868385E+04  0.10986868385E+04  0.00000000000E+00 0. -1.
          5    1    1    2  502    0  0.78748005531E+02  0.11890361582E+02 -0.50206323201E+03  0.50836228027E+03  0.47000000000E+01 0. -1.
         -5    1    1    2    0  502  0.89829915227E+02 -0.64768886696E+02 -0.23518372565E+03  0.25999595605E+03  0.47000000000E+01 0. -1.
        -11    1    1    2    0    0 -0.11837931134E+03  0.44488070992E+02 -0.29200875931E+03  0.31821685268E+03  0.00000000000E+00 0. -1.
         11    1    1    2    0    0 -0.50198609415E+02  0.83904541223E+01 -0.24888378673E+02  0.56654492325E+02  0.00000000000E+00 0.  1.
<mgrwt>
<rscale>  0 0.21226838E+03</rscale>
<asrwt>0</asrwt>
<pdfrwt beam="2">  1        1 0.16902874E+00 0.21642852E+03</pdfrwt>
<pdfrwt beam="1">  1       -1 0.68527299E-02 0.21642852E+03</pdfrwt>
<totfact> 0.14766954E+03</totfact>
</mgrwt>
</event>
<event>
 6    1  0.9240440E-006  0.1290073E+03  0.7546771E-02  0.1242791E+00
         -1   -1    0    0    0  501 -0.00000000000E+00  0.00000000000E+00  0.22165184603E+02  0.22165184603E+02  0.00000000000E+00 0.  1.
          1   -1    0    0  501    0  0.00000000000E+00 -0.00000000000E+00 -0.63803266203E+03  0.63803266203E+03  0.00000000000E+00 0. -1.
          5    1    1    2  502    0  0.64432539510E+02 -0.12197623055E+02 -0.14358299632E+03  0.15791928631E+03  0.47000000000E+01 0.  1.
         -5    1    1    2    0  502 -0.46324131326E+02 -0.14058806213E+02 -0.30469642474E+03  0.30855400893E+03  0.47000000000E+01 0.  1.
        -11    1    1    2    0    0 -0.44034217033E+02  0.34573970248E+02 -0.57241299079E+02  0.80068333370E+02  0.00000000000E+00 0.  1.
         11    1    1    2    0    0  0.25925808849E+02 -0.83175409798E+01 -0.11034675729E+03  0.11365621803E+03  0.00000000000E+00 0. -1.
<mgrwt>
<rscale>  0 0.12018552E+03</rscale>
<asrwt>0</asrwt>
<pdfrwt beam="2">  1        1 0.98158882E-01 0.12900735E+03</pdfrwt>
<pdfrwt beam="1">  1       -1 0.34100280E-02 0.12900735E+03</pdfrwt>
<totfact> 0.95921433E+03</totfact>
</mgrwt>
</event>
<event>
 6    1  0.9240440E-006  0.1271876E+03  0.7546771E-02  0.1247031E+00
          1   -1    0    0  501    0  0.00000000000E+00  0.00000000000E+00  0.22460706979E+02  0.22460706979E+02  0.00000000000E+00 0. -1.
         -1   -1    0    0    0  501 -0.00000000000E+00 -0.00000000000E+00 -0.55614704717E+03  0.55614704717E+03  0.00000000000E+00 0.  1.
          5    1    1    2  502    0 -0.38597378465E+02 -0.45581912686E+02 -0.17007837573E+03  0.18032252294E+03  0.47000000000E+01 0. -1.
         -5    1    1    2    0  502  0.18900881446E+02  0.58451435646E+02 -0.88379658053E+02  0.10773517349E+03  0.47000000000E+01 0. -1.
        -11    1    1    2    0    0 -0.14202548713E+02  0.29951891646E+02 -0.60511386699E+02  0.68996058753E+02  0.00000000000E+00 0. -1.
         11    1    1    2    0    0  0.33899045732E+02 -0.42821414606E+02 -0.21471691971E+03  0.22155399897E+03  0.00000000000E+00 0.  1.
<mgrwt>
<rscale>  0 0.11764619E+03</rscale>
<asrwt>0</asrwt>
<pdfrwt beam="1">  1        1 0.34554935E-02 0.12718758E+03</pdfrwt>
<pdfrwt beam="2">  1       -1 0.85561081E-01 0.12718758E+03</pdfrwt>
<totfact> 0.37781529E+03</totfact>
</mgrwt>
</event>
<event>
 6    1  0.9240440E-006  0.1440127E+03  0.7546771E-02  0.1217926E+00
          2   -1    0    0  501    0  0.00000000000E+00  0.00000000000E+00  0.91160934540E+03  0.91160934540E+03  0.00000000000E+00 0. -1.
         -2   -1    0    0    0  501 -0.00000000000E+00 -0.00000000000E+00 -0.20435213708E+02  0.20435213708E+02  0.00000000000E+00 0.  1.
          5    1    1    2  502    0 -0.47289314220E+02  0.22692757170E+02  0.86920729845E+02  0.10162944329E+03  0.47000000000E+01 0. -1.
         -5    1    1    2    0  502  0.12830415185E+02  0.39974624554E+02  0.53864066662E+03  0.54029477870E+03  0.47000000000E+01 0. -1.
        -11    1    1    2    0    0  0.56338028679E+02 -0.22480689125E+02  0.89200627744E+02  0.10787078775E+03  0.00000000000E+00 0.  1.
         11    1    1    2    0    0 -0.21879129644E+02 -0.40186692599E+02  0.17641210749E+03  0.18224954937E+03  0.00000000000E+00 0. -1.
<mgrwt>
<rscale>  0 0.13663796E+03</rscale>
<asrwt>0</asrwt>
<pdfrwt beam="1">  1        2 0.14024756E+00 0.14401266E+03</pdfrwt>
<pdfrwt beam="2">  1       -2 0.31438797E-02 0.14401266E+03</pdfrwt>
<totfact> 0.11363975E+04</totfact>
</mgrwt>
</event>
<event>
 6    1  0.9240440E-006  0.2124618E+03  0.7546771E-02  0.1142852E+00
          1   -1    0    0  501    0  0.00000000000E+00  0.00000000000E+00  0.72381088601E+03  0.72381088601E+03  0.00000000000E+00 0. -1.
         -1   -1    0    0    0  501 -0.00000000000E+00 -0.00000000000E+00 -0.57808938357E+02  0.57808938357E+02  0.00000000000E+00 0.  1.
          5    1    1    2  502    0  0.13542182878E+03 -0.31423748520E+02  0.24527391802E+03  0.28197146760E+03  0.47000000000E+01 0. -1.
         -5    1    1    2    0  502  0.13382727632E+01 -0.72552180742E+02  0.10561311509E+03  0.12822569939E+03  0.47000000000E+01 0. -1.
        -11    1    1    2    0    0 -0.11383377901E+03  0.86261540000E+02  0.16364603668E+03  0.21720775273E+03  0.00000000000E+00 0.  1.
         11    1    1    2    0    0 -0.22926322529E+02  0.17714389262E+02  0.15146887787E+03  0.15421490464E+03  0.00000000000E+00 0. -1.
<mgrwt>
<rscale>  0 0.20838414E+03</rscale>
<asrwt>0</asrwt>
<pdfrwt beam="1">  1        1 0.11135551E+00 0.21246177E+03</pdfrwt>
<pdfrwt beam="2">  1       -1 0.88936833E-02 0.21246177E+03</pdfrwt>
<totfact> 0.19531699E+03</totfact>
</mgrwt>
</event>
<event>
 6    1  0.9240440E-006  0.1633592E+03  0.7546771E-02  0.1192275E+00
         -2   -1    0    0    0  501 -0.00000000000E+00  0.00000000000E+00  0.16657121345E+03  0.16657121345E+03  0.00000000000E+00 0.  1.
          2   -1    0    0  501    0  0.00000000000E+00 -0.00000000000E+00 -0.18240496305E+03  0.18240496305E+03  0.00000000000E+00 0. -1.
          5    1    1    2  502    0 -0.28774814161E+02  0.97705323918E+02 -0.17074681908E+02  0.10338256630E+03  0.47000000000E+01 0. -1.
         -5    1    1    2    0  502  0.34204027187E+02  0.73190323140E+01 -0.78039730260E+02  0.85649128477E+02  0.47000000000E+01 0. -1.
        -11    1    1    2    0    0 -0.43231146526E+02 -0.85133199258E+02  0.62122573092E+02  0.11391140300E+03  0.00000000000E+00 0. -1.
         11    1    1    2    0    0  0.37801933500E+02 -0.19891156974E+02  0.17158089483E+02  0.46033078724E+02  0.00000000000E+00 0.  1.
<mgrwt>
<rscale>  0 0.15687127E+03</rscale>
<asrwt>0</asrwt>
<pdfrwt beam="2">  1        2 0.28062302E-01 0.16335921E+03</pdfrwt>
<pdfrwt beam="1">  1       -2 0.25626341E-01 0.16335921E+03</pdfrwt>
<totfact> 0.25104121E+03</totfact>
</mgrwt>
</event>
<event>
 6    1  0.9240440E-006  0.1266463E+03  0.7546771E-02  0.1249109E+00
          1   -1    0    0  501    0  0.00000000000E+00  0.00000000000E+00  0.23117970246E+04  0.23117970246E+04  0.00000000000E+00 0. -1.
         -1   -1    0    0    0  501 -0.00000000000E+00 -0.00000000000E+00 -0.70413249270E+01  0.70413249270E+01  0.00000000000E+00 0.  1.
          5    1    1    2  502    0 -0.39810936108E+02 -0.47714462268E+02  0.15967848314E+04  0.15980004595E+04  0.47000000000E+01 0.  1.
         -5    1    1    2    0  502  0.29508493113E+02  0.30168405006E+02  0.29771527422E+03  0.30072804713E+03  0.47000000000E+01 0.  1.
        -11    1    1    2    0    0 -0.34610033061E+02 -0.11539553349E+02  0.18765210898E+03  0.19116571263E+03  0.00000000000E+00 0. -1.
         11    1    1    2    0    0  0.44912476056E+02  0.29085610611E+02  0.22260348499E+03  0.22894413026E+03  0.00000000000E+00 0.  1.
<mgrwt>
<rscale>  0 0.11642763E+03</rscale>
<asrwt>0</asrwt>
<pdfrwt beam="1">  1        1 0.35566048E+00 0.12664632E+03</pdfrwt>
<pdfrwt beam="2">  1       -1 0.10832826E-02 0.12664632E+03</pdfrwt>
<totfact> 0.35229354E+03</totfact>
</mgrwt>
</event>
<event>
 6    1  0.9240440E-006  0.1615052E+03  0.7546771E-02  0.1194572E+00
          4   -1    0    0  501    0  0.00000000000E+00  0.00000000000E+00  0.68827589251E+03  0.68827589251E+03  0.00000000000E+00 0.  1.
         -4   -1    0    0    0  501 -0.00000000000E+00 -0.00000000000E+00 -0.32967577464E+02  0.32967577464E+02  0.00000000000E+00 0. -1.
          5    1    1    2  502    0 -0.33181712585E+02 -0.56780740600E+02  0.71764436612E+02  0.97454106714E+02  0.47000000000E+01 0. -1.
         -5    1    1    2    0  502 -0.58354954964E+02  0.11165997784E+02  0.33391118670E+03  0.33918837079E+03  0.47000000000E+01 0. -1.
        -11    1    1    2    0    0  0.67520488944E+02 -0.57825696012E+01  0.19252662599E+03  0.20410525778E+03  0.00000000000E+00 0.  1.
         11    1    1    2    0    0  0.24016178605E+02  0.51397312418E+02  0.57106065742E+02  0.80495734689E+02  0.00000000000E+00 0. -1.
<mgrwt>
<rscale>  0 0.15490509E+03</rscale>
<asrwt>0</asrwt>
<pdfrwt beam="1">  1        4 0.10588859E+00 0.16150524E+03</pdfrwt>
<pdfrwt beam="2">  1       -4 0.50719355E-02 0.16150524E+03</pdfrwt>
<totfact> 0.30013704E+02</totfact>
</mgrwt>
</event>
<event>
 6    1  0.9240440E-006  0.1296257E+03  0.7546771E-02  0.1241422E+00
         -2   -1    0    0    0  501 -0.00000000000E+00  0.00000000000E+00  0.42224734919E+02  0.42224734919E+02  0.00000000000E+00 0. -1.
          2   -1    0    0  501    0  0.00000000000E+00 -0.00000000000E+00 -0.31149848191E+03  0.31149848191E+03  0.00000000000E+00 0.  1.
          5    1    1    2  502    0 -0.48147000860E+02 -0.96113797184E+00 -0.18142121579E+03  0.18776262945E+03  0.47000000000E+01 0. -1.
         -5    1    1    2    0  502  0.17621354921E+02  0.16972969887E+02  0.10260534343E+02  0.26943689819E+02  0.47000000000E+01 0. -1.
        -11    1    1    2    0    0  0.20584957224E+02  0.38185086835E+02 -0.42527426566E+02  0.60748854564E+02  0.00000000000E+00 0.  1.
         11    1    1    2    0    0  0.99406887150E+01 -0.54196918750E+02 -0.55585638975E+02  0.78268042995E+02  0.00000000000E+00 0. -1.
<mgrwt>
<rscale>  0 0.12102140E+03</rscale>
<asrwt>0</asrwt>
<pdfrwt beam="2">  1        2 0.47922845E-01 0.12962571E+03</pdfrwt>
<pdfrwt beam="1">  1       -2 0.64961128E-02 0.12962571E+03</pdfrwt>
<totfact> 0.12893336E+04</totfact>
</mgrwt>
</event>
<event>
 6    1  0.9240440E-006  0.1309844E+03  0.7546771E-02  0.1237895E+00
         -1   -1    0    0    0  501 -0.00000000000E+00  0.00000000000E+00  0.15599868702E+02  0.15599868702E+02  0.00000000000E+00 0.  1.
          1   -1    0    0  501    0  0.00000000000E+00 -0.00000000000E+00 -0.97844883424E+03  0.97844883424E+03  0.00000000000E+00 0. -1.
          5    1    1    2  502    0 -0.60594492164E+01  0.67647332571E+02 -0.62083144676E+03  0.62455316332E+03  0.47000000000E+01 0.  1.
         -5    1    1    2    0  502  0.19200785166E+02 -0.30763366648E+02 -0.74293196834E+02  0.82804734009E+02  0.47000000000E+01 0.  1.
        -11    1    1    2    0    0 -0.26202519128E+02  0.15399091893E+02 -0.29172115154E+02  0.42127382334E+02  0.00000000000E+00 0.  1.
         11    1    1    2    0    0  0.13061183179E+02 -0.52283057816E+02 -0.23855220680E+03  0.24456342328E+03  0.00000000000E+00 0. -1.
<mgrwt>
<rscale>  0 0.12320903E+03</rscale>
<asrwt>0</asrwt>
<pdfrwt beam="2">  1        1 0.15053060E+00 0.13098444E+03</pdfrwt>
<pdfrwt beam="1">  1       -1 0.23999796E-02 0.13098444E+03</pdfrwt>
<totfact> 0.84040370E+03</totfact>
</mgrwt>
</event>
<event>
 6    1  0.9240440E-006  0.2252023E+03  0.7546771E-02  0.1158385E+00
          4   -1    0    0  501    0  0.00000000000E+00  0.00000000000E+00  0.10643439443E+04  0.10643439443E+04  0.00000000000E+00 0. -1.
         -4   -1    0    0    0  501 -0.00000000000E+00 -0.00000000000E+00 -0.27641658803E+02  0.27641658803E+02  0.00000000000E+00 0.  1.
          5    1    1    2  502    0  0.92501565704E+02 -0.15193413663E+02  0.47104386824E+03  0.48030385724E+03  0.47000000000E+01 0. -1.
         -5    1    1    2    0  502 -0.84322450116E+02  0.83083919043E+02  0.28716656286E+03  0.31064439158E+03  0.47000000000E+01 0.  1.
        -11    1    1    2    0    0  0.34708931377E+02 -0.60625843202E+02  0.15226450705E+03  0.16752517091E+03  0.00000000000E+00 0. -1.
         11    1    1    2    0    0 -0.42888046965E+02 -0.72646621781E+01  0.12622734736E+03  0.13351218338E+03  0.00000000000E+00 0.  1.
<mgrwt>
<rscale>  0 0.19008442E+03</rscale>
<asrwt>0</asrwt>
<pdfrwt beam="1">  1        4 0.16374519E+00 0.22520230E+03</pdfrwt>
<pdfrwt beam="2">  1       -4 0.42525637E-02 0.22520230E+03</pdfrwt>
<totfact> 0.14146190E+02</totfact>
</mgrwt>
</event>
<event>
 6    1  0.9240440E-006  0.1522050E+03  0.7546771E-02  0.1205794E+00
          2   -1    0    0  501    0  0.00000000000E+00  0.00000000000E+00  0.26377446181E+03  0.26377446181E+03  0.00000000000E+00 0. -1.
         -2   -1    0    0    0  501 -0.00000000000E+00 -0.00000000000E+00 -0.74497326628E+02  0.74497326628E+02  0.00000000000E+00 0.  1.
          5    1    1    2  502    0 -0.11213312434E+02 -0.11588691024E+03  0.57861714979E+02  0.13009835664E+03  0.47000000000E+01 0. -1.
         -5    1    1    2    0  502  0.11994772866E+02  0.29041834866E+02  0.39045318525E+02  0.50338152998E+02  0.47000000000E+01 0. -1.
        -11    1    1    2    0    0 -0.32851002955E+02  0.89580931452E+02  0.63631008547E+02  0.11468581832E+03  0.00000000000E+00 0.  1.
         11    1    1    2    0    0  0.32069542523E+02 -0.27358560826E+01  0.28739093135E+02  0.43149460487E+02  0.00000000000E+00 0. -1.
<mgrwt>
<rscale>  0 0.14575050E+03</rscale>
<asrwt>0</asrwt>
<pdfrwt beam="1">  1        2 0.40580686E-01 0.15220500E+03</pdfrwt>
<pdfrwt beam="2">  1       -2 0.11461127E-01 0.15220500E+03</pdfrwt>
<totfact> 0.64337508E+03</totfact>
</mgrwt>
</event>
<event>
 6    1  0.9240440E-006  0.4387695E+03  0.7546771E-02  0.1031125E+00
         -1   -1    0    0    0  501 -0.00000000000E+00  0.00000000000E+00  0.43896779361E+02  0.43896779361E+02  0.00000000000E+00 0.  1.
          1   -1    0    0  501    0  0.00000000000E+00 -0.00000000000E+00 -0.10964280170E+04  0.10964280170E+04  0.00000000000E+00 0. -1.
          5    1    1    2  502    0 -0.14252386239E+02  0.19965069724E+03 -0.59118532207E+03  0.62416801140E+03  0.47000000000E+01 0. -1.
         -5    1    1    2    0  502  0.73654370431E+01 -0.17096585664E+02 -0.92151694147E+02  0.94130588219E+02  0.47000000000E+01 0. -1.
        -11    1    1    2    0    0  0.38591867446E+02 -0.35833175141E+02 -0.12110670286E+03  0.13206128180E+03  0.00000000000E+00 0. -1.
         11    1    1    2    0    0 -0.31704918251E+02 -0.14672093643E+03 -0.24808751854E+03  0.28996491492E+03  0.00000000000E+00 0.  1.
<mgrwt>
<rscale>  0 0.43876946E+03</rscale>
<asrwt>0</asrwt>
<pdfrwt beam="2">  1        1 0.16868123E+00 0.43876946E+03</pdfrwt>
<pdfrwt beam="1">  1       -1 0.67533510E-02 0.43876946E+03</pdfrwt>
<totfact> 0.15118671E+03</totfact>
</mgrwt>
</event>
<event>
 6    1  0.9240440E-006  0.3329971E+03  0.7546771E-02  0.1069818E+00
          1   -1    0    0  501    0  0.00000000000E+00  0.00000000000E+00  0.63778140885E+03  0.63778140885E+03  0.00000000000E+00 0. -1.
         -1   -1    0    0    0  501 -0.00000000000E+00 -0.00000000000E+00 -0.43465927089E+02  0.43465927089E+02  0.00000000000E+00 0.  1.
          5    1    1    2  502    0  0.27085803090E+02 -0.15175406508E+02  0.19825057160E+03  0.20072197894E+03  0.47000000000E+01 0. -1.
         -5    1    1    2    0  502 -0.10461045161E+03 -0.55406181227E+02  0.26046176120E+03  0.28613914544E+03  0.47000000000E+01 0. -1.
        -11    1    1    2    0    0  0.56139116428E+02  0.27438262253E+02  0.14621031750E+02  0.64173461791E+02  0.00000000000E+00 0.  1.
         11    1    1    2    0    0  0.21385532096E+02  0.43143325483E+02  0.12098211721E+03  0.13021274977E+03  0.00000000000E+00 0. -1.
<mgrwt>
<rscale>  0 0.33299706E+03</rscale>
<asrwt>0</asrwt>
<pdfrwt beam="1">  1        1 0.98120210E-01 0.33299706E+03</pdfrwt>
<pdfrwt beam="2">  1       -1 0.66870662E-02 0.33299706E+03</pdfrwt>
<totfact> 0.36634822E+03</totfact>
</mgrwt>
</event>
<event>
 6    1  0.9240440E-006  0.1265083E+03  0.7546771E-02  0.1246901E+00
          2   -1    0    0  501    0  0.00000000000E+00  0.00000000000E+00  0.49282905055E+03  0.49282905055E+03  0.00000000000E+00 0. -1.
         -2   -1    0    0    0  501 -0.00000000000E+00 -0.00000000000E+00 -0.34331330247E+02  0.34331330247E+02  0.00000000000E+00 0.  1.
          5    1    1    2  502    0  0.38416651760E+02 -0.39033182569E+02  0.35782774640E+03  0.36202515737E+03  0.47000000000E+01 0. -1.
         -5    1    1    2    0  502 -0.26468606988E+02  0.23563654784E+02  0.32576783709E+02  0.48364964793E+02  0.47000000000E+01 0. -1.
        -11    1    1    2    0    0 -0.35190441873E+02  0.17065174847E+02 -0.55756968253E+01  0.39505389340E+02  0.00000000000E+00 0.  1.
         11    1    1    2    0    0  0.23242397102E+02 -0.15956470614E+01  0.73668887027E+02  0.77264869303E+02  0.00000000000E+00 0. -1.
<mgrwt>
<rscale>  0 0.11772298E+03</rscale>
<asrwt>0</asrwt>
<pdfrwt beam="1">  1        2 0.75819849E-01 0.12650832E+03</pdfrwt>
<pdfrwt beam="2">  1       -2 0.52817435E-02 0.12650832E+03</pdfrwt>
<totfact> 0.10776519E+04</totfact>
</mgrwt>
</event>
<event>
 6    1  0.9240440E-006  0.3785750E+03  0.7546771E-02  0.1051462E+00
         -2   -1    0    0    0  501 -0.00000000000E+00  0.00000000000E+00  0.47555270244E+02  0.47555270244E+02  0.00000000000E+00 0. -1.
          2   -1    0    0  501    0  0.00000000000E+00 -0.00000000000E+00 -0.75343403235E+03  0.75343403235E+03  0.00000000000E+00 0.  1.
          5    1    1    2  502    0  0.74386914637E+02  0.12249516359E+03 -0.42860519096E+03  0.45195461929E+03  0.47000000000E+01 0. -1.
         -5    1    1    2    0  502  0.11529382635E+02  0.35874303112E+01  0.60995319267E+01  0.14320984949E+02  0.47000000000E+01 0. -1.
        -11    1    1    2    0    0 -0.29876485613E+02 -0.10466696830E+03 -0.12720188739E+03  0.16741594549E+03  0.00000000000E+00 0. -1.
         11    1    1    2    0    0 -0.56039811660E+02 -0.21415625599E+02 -0.15617121567E+03  0.16729775287E+03  0.00000000000E+00 0.  1.
<mgrwt>
<rscale>  0 0.37857501E+03</rscale>
<asrwt>0</asrwt>
<pdfrwt beam="2">  1        2 0.11591292E+00 0.37857501E+03</pdfrwt>
<pdfrwt beam="1">  1       -2 0.73161959E-02 0.37857501E+03</pdfrwt>
<totfact> 0.41852443E+03</totfact>
</mgrwt>
</event>
<event>
 6    1  0.9240440E-006  0.2862793E+03  0.7546771E-02  0.1092308E+00
         -4   -1    0    0    0  501 -0.00000000000E+00  0.00000000000E+00  0.43674276640E+02  0.43674276640E+02  0.00000000000E+00 0.  1.
          4   -1    0    0  501    0  0.00000000000E+00 -0.00000000000E+00 -0.46913091174E+03  0.46913091174E+03  0.00000000000E+00 0. -1.
          5    1    1    2  502    0 -0.50128461122E+02  0.60902679636E+02 -0.27324354784E+03  0.28444002081E+03  0.47000000000E+01 0. -1.
         -5    1    1    2    0  502 -0.24091856925E+02 -0.19365945296E+02 -0.42410934506E+01  0.31552088377E+02  0.47000000000E+01 0. -1.
        -11    1    1    2    0    0  0.66268162698E+02  0.17641797811E+02 -0.93773783648E+02  0.11617325388E+03  0.00000000000E+00 0. -1.
         11    1    1    2    0    0  0.79521553490E+01 -0.59178532150E+02 -0.54198210159E+02  0.80639825313E+02  0.00000000000E+00 0.  1.
<mgrwt>
<rscale>  0 0.28627926E+03</rscale>
<asrwt>0</asrwt>
<pdfrwt beam="2">  1        4 0.72173991E-01 0.28627926E+03</pdfrwt>
<pdfrwt beam="1">  1       -4 0.67191190E-02 0.28627926E+03</pdfrwt>
<totfact> 0.49489567E+02</totfact>
</mgrwt>
</event>
<event>
 6    1  0.9240440E-006  0.1641103E+03  0.7546771E-02  0.1190811E+00
          1   -1    0    0  501    0  0.00000000000E+00  0.00000000000E+00  0.83423015963E+03  0.83423015963E+03  0.00000000000E+00 0.  1.
         -1   -1    0    0    0  501 -0.00000000000E+00 -0.00000000000E+00 -0.30641515140E+02  0.30641515140E+02  0.00000000000E+00 0. -1.
          5    1    1    2  502    0 -0.18915674285E+02  0.14526764948E+02  0.34566695182E+02  0.42258443527E+02  0.47000000000E+01 0.  1.
         -5    1    1    2    0  502  0.10419394599E+03 -0.78034248048E+02  0.52125284251E+03  0.53728236345E+03  0.47000000000E+01 0.  1.
        -11    1    1    2    0    0 -0.45364568689E+01  0.21973909669E+02  0.10808980954E+01  0.22463314264E+02  0.00000000000E+00 0. -1.
         11    1    1    2    0    0 -0.80741814837E+02  0.41533573431E+02  0.24668820870E+03  0.26286755352E+03  0.00000000000E+00 0.  1.
<mgrwt>
<rscale>  0 0.15814162E+03</rscale>
<asrwt>0</asrwt>
<pdfrwt beam="1">  1        1 0.12834308E+00 0.16411029E+03</pdfrwt>
<pdfrwt beam="2">  1       -1 0.47140799E-02 0.16411029E+03</pdfrwt>
<totfact> 0.40784520E+03</totfact>
</mgrwt>
</event>
<event>
 6    1  0.9240440E-006  0.1265066E+03  0.7546771E-02  0.1255866E+00
          1   -1    0    0  501    0  0.00000000000E+00  0.00000000000E+00  0.23993361609E+03  0.23993361609E+03  0.00000000000E+00 0. -1.
         -1   -1    0    0    0  501 -0.00000000000E+00 -0.00000000000E+00 -0.50553960954E+02  0.50553960954E+02  0.00000000000E+00 0.  1.
          5    1    1    2  502    0  0.32789028646E+02 -0.92671533703E+00  0.18019150133E+03  0.18321311730E+03  0.47000000000E+01 0. -1.
         -5    1    1    2    0  502 -0.16117718247E+02 -0.60645988097E+01 -0.16061397267E+02  0.24012885757E+02  0.47000000000E+01 0. -1.
        -11    1    1    2    0    0 -0.12984552513E+02  0.36597104907E+02 -0.68571785484E+01  0.39433077349E+02  0.00000000000E+00 0. -1.
         11    1    1    2    0    0 -0.36867578847E+01 -0.29605790760E+02  0.32106729626E+02  0.43828496637E+02  0.00000000000E+00 0.  1.
<mgrwt>
<rscale>  0 0.11257941E+03</rscale>
<asrwt>0</asrwt>
<pdfrwt beam="1">  1        1 0.36912863E-01 0.12650662E+03</pdfrwt>
<pdfrwt beam="2">  1       -1 0.77775326E-02 0.12650662E+03</pdfrwt>
<totfact> 0.98229460E+03</totfact>
</mgrwt>
</event>
<event>
 6    1  0.9240440E-006  0.1319469E+03  0.7546771E-02  0.1237529E+00
         -1   -1    0    0    0  501 -0.00000000000E+00  0.00000000000E+00  0.51757383441E+02  0.51757383441E+02  0.00000000000E+00 0.  1.
          1   -1    0    0  501    0  0.00000000000E+00 -0.00000000000E+00 -0.29278726888E+03  0.29278726888E+03  0.00000000000E+00 0. -1.
          5    1    1    2  502    0  0.50226380905E+02  0.18997665246E+02 -0.10403915201E+03  0.11717438190E+03  0.47000000000E+01 0. -1.
         -5    1    1    2    0  502 -0.73118077151E+02  0.16500155516E+02 -0.85968761512E+02  0.11415439674E+03  0.47000000000E+01 0. -1.
        -11    1    1    2    0    0  0.46534233663E+02 -0.51580708927E+02 -0.22994175165E+02  0.73176065264E+02  0.00000000000E+00 0.  1.
         11    1    1    2    0    0 -0.23642537417E+02  0.16082888165E+02 -0.28027796748E+02  0.40039808414E+02  0.00000000000E+00 0. -1.
<mgrwt>
<rscale>  0 0.12343893E+03</rscale>
<asrwt>0</asrwt>
<pdfrwt beam="2">  1        1 0.45044195E-01 0.13194695E+03</pdfrwt>
<pdfrwt beam="1">  1       -1 0.79626744E-02 0.13194695E+03</pdfrwt>
<totfact> 0.74391397E+03</totfact>
</mgrwt>
</event>
<event>
 6    1  0.9240440E-006  0.1336054E+03  0.7546771E-02  0.1235052E+00
         -2   -1    0    0    0  501 -0.00000000000E+00  0.00000000000E+00  0.31057598536E+02  0.31057598536E+02  0.00000000000E+00 0.  1.
          2   -1    0    0  501    0  0.00000000000E+00 -0.00000000000E+00 -0.44972606669E+03  0.44972606669E+03  0.00000000000E+00 0. -1.
          5    1    1    2  502    0  0.32401463068E+02 -0.99978232779E+01 -0.26160677455E+03  0.26383708187E+03  0.47000000000E+01 0.  1.
         -5    1    1    2    0  502  0.93985628887E+01 -0.11882788467E+02  0.11585585488E+02  0.19643050609E+02  0.47000000000E+01 0.  1.
        -11    1    1    2    0    0 -0.95787612870E+01  0.52214407258E+02 -0.12176714119E+03  0.13283573942E+03  0.00000000000E+00 0.  1.
         11    1    1    2    0    0 -0.32221264670E+02 -0.30333795513E+02 -0.46880137906E+02  0.64467793333E+02  0.00000000000E+00 0. -1.
<mgrwt>
<rscale>  0 0.12501098E+03</rscale>
<asrwt>0</asrwt>
<pdfrwt beam="2">  1        2 0.69188621E-01 0.13360535E+03</pdfrwt>
<pdfrwt beam="1">  1       -2 0.47780924E-02 0.13360535E+03</pdfrwt>
<totfact> 0.13892469E+04</totfact>
</mgrwt>
</event>
<event>
 6    1  0.9240440E-006  0.1338791E+03  0.7546771E-02  0.1234287E+00
          2   -1    0    0  501    0  0.00000000000E+00  0.00000000000E+00  0.81932778622E+02  0.81932778622E+02  0.00000000000E+00 0. -1.
         -2   -1    0    0    0  501 -0.00000000000E+00 -0.00000000000E+00 -0.17239491016E+03  0.17239491016E+03  0.00000000000E+00 0.  1.
          5    1    1    2  502    0 -0.28142463529E+02 -0.22623732807E+02  0.32929257383E+02  0.49094373724E+02  0.47000000000E+01 0. -1.
         -5    1    1    2    0  502  0.20233998902E+02 -0.24661689782E+02 -0.91538618102E+02  0.97051647376E+02  0.47000000000E+01 0. -1.
        -11    1    1    2    0    0  0.10313493680E+02 -0.14889301809E+02 -0.41440753419E+02  0.45226048956E+02  0.00000000000E+00 0.  1.
         11    1    1    2    0    0 -0.24050290542E+01  0.62174724397E+02  0.95879826005E+01  0.62955618724E+02  0.00000000000E+00 0. -1.
<mgrwt>
<rscale>  0 0.12550180E+03</rscale>
<asrwt>0</asrwt>
<pdfrwt beam="1">  1        2 0.12605043E-01 0.13387906E+03</pdfrwt>
<pdfrwt beam="2">  1       -2 0.26522293E-01 0.13387906E+03</pdfrwt>
<totfact> 0.58329409E+03</totfact>
</mgrwt>
</event>
<event>
 6    1  0.1324015E-005  0.1564709E+03  0.7546771E-02  0.1201081E+00
         -1   -1    0    0    0  501 -0.00000000000E+00  0.00000000000E+00  0.68836494352E+02  0.68836494352E+02  0.00000000000E+00 0.  1.
          1   -1    0    0  501    0  0.00000000000E+00 -0.00000000000E+00 -0.36294404299E+03  0.36294404299E+03  0.00000000000E+00 0. -1.
          5    1    1    2  502    0 -0.17742576466E+02  0.29069871685E+02 -0.67132111512E+02  0.75423251425E+02  0.47000000000E+01 0. -1.
         -5    1    1    2    0  502  0.10837094233E+03 -0.54456207053E+02 -0.18128754223E+03  0.21816737289E+03  0.47000000000E+01 0. -1.
        -11    1    1    2    0    0 -0.21460507710E+02 -0.16641644022E+02  0.20184146624E+02  0.33836333753E+02  0.00000000000E+00 0.  1.
         11    1    1    2    0    0 -0.69167858149E+02  0.42027979391E+02 -0.65872041517E+02  0.10435357927E+03  0.00000000000E+00 0. -1.
<mgrwt>
<rscale>  0 0.14950653E+03</rscale>
<asrwt>0</asrwt>
<pdfrwt beam="2">  1        1 0.55837546E-01 0.15647086E+03</pdfrwt>
<pdfrwt beam="1">  1       -1 0.10590230E-01 0.15647086E+03</pdfrwt>
<totfact> 0.37251010E+03</totfact>
</mgrwt>
</event>
<event>
 6    1  0.9240440E-006  0.2475721E+03  0.7546771E-02  0.1148823E+00
          1   -1    0    0  501    0  0.00000000000E+00  0.00000000000E+00  0.54940757826E+03  0.54940757826E+03  0.00000000000E+00 0. -1.
         -1   -1    0    0    0  501 -0.00000000000E+00 -0.00000000000E+00 -0.58049749422E+02  0.58049749422E+02  0.00000000000E+00 0.  1.
          5    1    1    2  502    0  0.27868069197E+02 -0.34655288634E+02  0.34889507355E+03  0.35174917294E+03  0.47000000000E+01 0. -1.
         -5    1    1    2    0  502 -0.87473654115E+02  0.24001082408E+02  0.20790979157E+02  0.93177502302E+02  0.47000000000E+01 0.  1.
        -11    1    1    2    0    0  0.41133463234E+02  0.25780326744E+02  0.11616196335E+02  0.49915158638E+02  0.00000000000E+00 0.  1.
         11    1    1    2    0    0  0.18472121685E+02 -0.15126120517E+02  0.11005557979E+03  0.11261549381E+03  0.00000000000E+00 0. -1.
<mgrwt>
<rscale>  0 0.20109007E+03</rscale>
<asrwt>0</asrwt>
<pdfrwt beam="1">  1        1 0.84524239E-01 0.24757215E+03</pdfrwt>
<pdfrwt beam="2">  1       -1 0.89307310E-02 0.24757215E+03</pdfrwt>
<totfact> 0.28717919E+03</totfact>
</mgrwt>
</event>
<event>
 6    1  0.9240440E-006  0.2603761E+03  0.7546771E-02  0.1108998E+00
          1   -1    0    0  501    0  0.00000000000E+00  0.00000000000E+00  0.83901671709E+02  0.83901671709E+02  0.00000000000E+00 0. -1.
         -1   -1    0    0    0  501 -0.00000000000E+00 -0.00000000000E+00 -0.10418964120E+04  0.10418964120E+04  0.00000000000E+00 0.  1.
          5    1    1    2  502    0 -0.27865744749E+01 -0.31288604644E+02  0.15552489738E+02  0.35365402796E+02  0.47000000000E+01 0. -1.
         -5    1    1    2    0  502  0.48217015399E+02 -0.19255187343E+03 -0.21471408583E+03  0.29244714597E+03  0.47000000000E+01 0. -1.
        -11    1    1    2    0    0  0.20059254736E+02  0.12101621800E+03 -0.32610945439E+03  0.34841738613E+03  0.00000000000E+00 0.  1.
         11    1    1    2    0    0 -0.65489695660E+02  0.10282426007E+03 -0.43272368983E+03  0.44956814883E+03  0.00000000000E+00 0. -1.
<mgrwt>
<rscale>  0 0.25693627E+03</rscale>
<asrwt>0</asrwt>
<pdfrwt beam="1">  1        1 0.12907949E-01 0.26037612E+03</pdfrwt>
<pdfrwt beam="2">  1       -1 0.16029177E+00 0.26037612E+03</pdfrwt>
<totfact> 0.14463030E+02</totfact>
</mgrwt>
</event>
<event>
 6    1  0.9240440E-006  0.1722501E+03  0.7546771E-02  0.1187096E+00
          2   -1    0    0  501    0  0.00000000000E+00  0.00000000000E+00  0.68375237114E+03  0.68375237114E+03  0.00000000000E+00 0. -1.
         -2   -1    0    0    0  501 -0.00000000000E+00 -0.00000000000E+00 -0.44119561678E+02  0.44119561678E+02  0.00000000000E+00 0.  1.
          5    1    1    2  502    0  0.46191239770E+02  0.26540589724E+02  0.48258147986E+03  0.48553579502E+03  0.47000000000E+01 0. -1.
         -5    1    1    2    0  502  0.37146064266E+02  0.35591016660E+02  0.41926044141E+02  0.66531449215E+02  0.47000000000E+01 0.  1.
        -11    1    1    2    0    0 -0.40175602334E+02  0.14976666938E+02  0.50967376711E+02  0.66603701580E+02  0.00000000000E+00 0. -1.
         11    1    1    2    0    0 -0.43161701702E+02 -0.77108273322E+02  0.64157908744E+02  0.10920098701E+03  0.00000000000E+00 0.  1.
<mgrwt>
<rscale>  0 0.16142595E+03</rscale>
<asrwt>0</asrwt>
<pdfrwt beam="1">  1        2 0.10519266E+00 0.17225011E+03</pdfrwt>
<pdfrwt beam="2">  1       -2 0.67876254E-02 0.17225011E+03</pdfrwt>
<totfact> 0.51656940E+03</totfact>
</mgrwt>
</event>
<event>
 6    1  0.9240440E-006  0.1462495E+03  0.7546771E-02  0.1214791E+00
          2   -1    0    0  501    0  0.00000000000E+00  0.00000000000E+00  0.40535299276E+03  0.40535299276E+03  0.00000000000E+00 0. -1.
         -2   -1    0    0    0  501 -0.00000000000E+00 -0.00000000000E+00 -0.47281009785E+02  0.47281009785E+02  0.00000000000E+00 0.  1.
          5    1    1    2  502    0  0.45623640449E+02  0.72059893858E+02  0.20660352201E+03  0.22356486794E+03  0.47000000000E+01 0. -1.
         -5    1    1    2    0  502  0.25497137322E+02 -0.45505104952E+02  0.53705473359E+02  0.75014574964E+02  0.47000000000E+01 0. -1.
        -11    1    1    2    0    0 -0.53576273354E+02  0.12992199899E+02  0.96062108617E+02  0.11075713538E+03  0.00000000000E+00 0. -1.
         11    1    1    2    0    0 -0.17544504417E+02 -0.39546988805E+02  0.17008789924E+01  0.43297424266E+02  0.00000000000E+00 0.  1.
<mgrwt>
<rscale>  0 0.13891909E+03</rscale>
<asrwt>0</asrwt>
<pdfrwt beam="1">  1        2 0.62361996E-01 0.14624948E+03</pdfrwt>
<pdfrwt beam="2">  1       -2 0.72740018E-02 0.14624948E+03</pdfrwt>
<totfact> 0.82677216E+03</totfact>
</mgrwt>
</event>
<event>
 6    1  0.9240440E-006  0.1522268E+03  0.7546771E-02  0.1210441E+00
         -2   -1    0    0    0  501 -0.00000000000E+00  0.00000000000E+00  0.10338910267E+03  0.10338910267E+03  0.00000000000E+00 0.  1.
          2   -1    0    0  501    0  0.00000000000E+00 -0.00000000000E+00 -0.46866666470E+03  0.46866666470E+03  0.00000000000E+00 0. -1.
          5    1    1    2  502    0  0.58800011245E+01  0.32572088301E+02 -0.95385343501E+02  0.10107407731E+03  0.47000000000E+01 0.  1.
         -5    1    1    2    0  502 -0.48134670116E+02 -0.10847502950E+03 -0.32258250609E+03  0.34375186069E+03  0.47000000000E+01 0.  1.
        -11    1    1    2    0    0  0.22244146849E+02  0.54541860370E+02  0.71346557783E+02  0.92519986538E+02  0.00000000000E+00 0.  1.
         11    1    1    2    0    0  0.20010522142E+02  0.21361080830E+02 -0.18656270224E+02  0.34709842830E+02  0.00000000000E+00 0. -1.
<mgrwt>
<rscale>  0 0.14216792E+03</rscale>
<asrwt>0</asrwt>
<pdfrwt beam="2">  1        2 0.72102563E-01 0.15222678E+03</pdfrwt>
<pdfrwt beam="1">  1       -2 0.15906016E-01 0.15222678E+03</pdfrwt>
<totfact> 0.20447393E+03</totfact>
</mgrwt>
</event>
<event>
 6    1  0.9240440E-006  0.1463715E+03  0.7546771E-02  0.1217884E+00
          2   -1    0    0  501    0  0.00000000000E+00  0.00000000000E+00  0.91504448307E+03  0.91504448307E+03  0.00000000000E+00 0. -1.
         -2   -1    0    0    0  501 -0.00000000000E+00 -0.00000000000E+00 -0.18330195980E+02  0.18330195980E+02  0.00000000000E+00 0.  1.
          5    1    1    2  502    0 -0.19273702546E+01  0.42953094902E+02  0.21502871072E+03  0.21933563219E+03  0.47000000000E+01 0. -1.
         -5    1    1    2    0  502 -0.85808806089E+01 -0.10052342459E+03  0.34179327447E+03  0.35640331491E+03  0.47000000000E+01 0.  1.
        -11    1    1    2    0    0 -0.39065565531E+02  0.22065283283E+02  0.92044301551E+02  0.10239701453E+03  0.00000000000E+00 0.  1.
         11    1    1    2    0    0  0.49573816395E+02  0.35505046400E+02  0.24784800036E+03  0.25523871742E+03  0.00000000000E+00 0. -1.
<mgrwt>
<rscale>  0 0.13666813E+03</rscale>
<asrwt>0</asrwt>
<pdfrwt beam="1">  1        2 0.14077604E+00 0.14637149E+03</pdfrwt>
<pdfrwt beam="2">  1       -2 0.28200309E-02 0.14637149E+03</pdfrwt>
<totfact> 0.13283002E+04</totfact>
</mgrwt>
</event>
<event>
 6    1  0.9240440E-006  0.1470369E+03  0.7546771E-02  0.1219121E+00
          1   -1    0    0  501    0  0.00000000000E+00  0.00000000000E+00  0.83136095208E+03  0.83136095208E+03  0.00000000000E+00 0. -1.
         -1   -1    0    0    0  501 -0.00000000000E+00 -0.00000000000E+00 -0.67067396513E+02  0.67067396513E+02  0.00000000000E+00 0.  1.
          5    1    1    2  502    0 -0.33666404271E+02 -0.57675744175E+02  0.70956352178E+03  0.71271480950E+03  0.47000000000E+01 0. -1.
         -5    1    1    2    0  502  0.38926838343E+02  0.31640064964E+01  0.67400871626E+02  0.78040227936E+02  0.47000000000E+01 0.  1.
        -11    1    1    2    0    0  0.36932356775E+02  0.52974493203E+02 -0.10219222216E+02  0.65381407218E+02  0.00000000000E+00 0.  1.
         11    1    1    2    0    0 -0.42192790847E+02  0.15372444754E+01 -0.24516156152E+01  0.42291903943E+02  0.00000000000E+00 0. -1.
<mgrwt>
<rscale>  0 0.13578126E+03</rscale>
<asrwt>0</asrwt>
<pdfrwt beam="1">  1        1 0.12790168E+00 0.14703694E+03</pdfrwt>
<pdfrwt beam="2">  1       -1 0.10318062E-01 0.14703694E+03</pdfrwt>
<totfact> 0.12579934E+03</totfact>
</mgrwt>
</event>
<event>
 6    1  0.9240440E-006  0.2632950E+03  0.7546771E-02  0.1105180E+00
         -1   -1    0    0    0  501 -0.00000000000E+00  0.00000000000E+00  0.20575374461E+02  0.20575374461E+02  0.00000000000E+00 0.  1.
          1   -1    0    0  501    0  0.00000000000E+00 -0.00000000000E+00 -0.84232055104E+03  0.84232055104E+03  0.00000000000E+00 0. -1.
          5    1    1    2  502    0  0.12808451534E+02 -0.26732101356E+02 -0.25796708248E+02  0.39575520591E+02  0.47000000000E+01 0.  1.
         -5    1    1    2    0  502  0.29881213986E+02  0.89781699414E+02 -0.38605730442E+03  0.39751222974E+03  0.47000000000E+01 0.  1.
        -11    1    1    2    0    0 -0.56115125280E+02 -0.64316687761E+01 -0.22472860745E+03  0.23171797655E+03  0.00000000000E+00 0. -1.
         11    1    1    2    0    0  0.13425459760E+02 -0.56617929282E+02 -0.18516255646E+03  0.19409019862E+03  0.00000000000E+00 0.  1.
<mgrwt>
<rscale>  0 0.26329497E+03</rscale>
<asrwt>0</asrwt>
<pdfrwt beam="2">  1        1 0.12958778E+00 0.26329497E+03</pdfrwt>
<pdfrwt beam="1">  1       -1 0.31654421E-02 0.26329497E+03</pdfrwt>
<totfact> 0.73785685E+03</totfact>
</mgrwt>
</event>
<event>
 6    1  0.9240440E-006  0.1260146E+03  0.7546771E-02  0.1248153E+00
         -3   -1    0    0    0  501 -0.00000000000E+00  0.00000000000E+00  0.93504008169E+02  0.93504008169E+02  0.00000000000E+00 0.  1.
          3   -1    0    0  501    0  0.00000000000E+00 -0.00000000000E+00 -0.12957427893E+03  0.12957427893E+03  0.00000000000E+00 0. -1.
          5    1    1    2  502    0 -0.49532106901E+02 -0.32987206892E+02 -0.48721559265E+01  0.59895019292E+02  0.47000000000E+01 0. -1.
         -5    1    1    2    0  502  0.43910092595E+02  0.47930306048E+02 -0.23448161857E+02  0.69262665008E+02  0.47000000000E+01 0. -1.
        -11    1    1    2    0    0  0.47742945686E+01 -0.49853768033E+02  0.14955440041E+02  0.52267171940E+02  0.00000000000E+00 0.  1.
         11    1    1    2    0    0  0.84771973799E+00  0.34910668877E+02 -0.22705393016E+02  0.41653430857E+02  0.00000000000E+00 0. -1.
<mgrwt>
<rscale>  0 0.11698626E+03</rscale>
<asrwt>0</asrwt>
<pdfrwt beam="2">  1        3 0.19934504E-01 0.12601455E+03</pdfrwt>
<pdfrwt beam="1">  1       -3 0.14385232E-01 0.12601455E+03</pdfrwt>
<totfact> 0.20367513E+03</totfact>
</mgrwt>
</event>
<event>
 6    1  0.9240440E-006  0.2960399E+03  0.7546771E-02  0.1125643E+00
         -2   -1    0    0    0  501 -0.00000000000E+00  0.00000000000E+00  0.50395581807E+02  0.50395581807E+02  0.00000000000E+00 0.  1.
          2   -1    0    0  501    0  0.00000000000E+00 -0.00000000000E+00 -0.13044702649E+04  0.13044702649E+04  0.00000000000E+00 0. -1.
          5    1    1    2  502    0 -0.16630237277E+02 -0.10841467191E+03 -0.80278977612E+03  0.81026157537E+03  0.47000000000E+01 0. -1.
         -5    1    1    2    0  502 -0.37452100824E+01  0.15215878978E+03 -0.38893112912E+03  0.41767910781E+03  0.47000000000E+01 0.  1.
        -11    1    1    2    0    0 -0.58987877889E+01  0.17954649897E+02  0.15305313585E+02  0.24319082512E+02  0.00000000000E+00 0.  1.
         11    1    1    2    0    0  0.26274235148E+02 -0.61698767763E+02 -0.77659091397E+02  0.10260608097E+03  0.00000000000E+00 0. -1.
<mgrwt>
<rscale>  0 0.23142243E+03</rscale>
<asrwt>0</asrwt>
<pdfrwt beam="2">  1        2 0.20068775E+00 0.29603987E+03</pdfrwt>
<pdfrwt beam="1">  1       -2 0.77531656E-02 0.29603987E+03</pdfrwt>
<totfact> 0.17324182E+03</totfact>
</mgrwt>
</event>
<event>
 6    1  0.9240440E-006  0.1302587E+03  0.7546771E-02  0.1250552E+00
          1   -1    0    0  501    0  0.00000000000E+00  0.00000000000E+00  0.30850355152E+03  0.30850355152E+03  0.00000000000E+00 0. -1.
         -1   -1    0    0    0  501 -0.00000000000E+00 -0.00000000000E+00 -0.36250555056E+02  0.36250555056E+02  0.00000000000E+00 0.  1.
          5    1    1    2  502    0  0.78082816105E+02  0.32129054445E+01  0.12823742591E+03  0.15024705100E+03  0.47000000000E+01 0.  1.
         -5    1    1    2    0  502 -0.42969318487E+02 -0.13700818686E+02  0.28524583391E+02  0.53570669415E+02  0.47000000000E+01 0.  1.
        -11    1    1    2    0    0 -0.55189042455E+02 -0.25606707365E+01  0.66880464453E+02  0.86748970986E+02  0.00000000000E+00 0.  1.
         11    1    1    2    0    0  0.20075544838E+02  0.13048583978E+02  0.48610522714E+02  0.54187415171E+02  0.00000000000E+00 0. -1.
<mgrwt>
<rscale>  0 0.11559175E+03</rscale>
<asrwt>0</asrwt>
<pdfrwt beam="1">  1        1 0.47462083E-01 0.13025873E+03</pdfrwt>
<pdfrwt beam="2">  1       -1 0.55770087E-02 0.13025873E+03</pdfrwt>
<totfact> 0.11863762E+04</totfact>
</mgrwt>
</event>
<event>
 6    1  0.9240440E-006  0.1167938E+03  0.7546771E-02  0.1261151E+00
          1   -1    0    0  501    0  0.00000000000E+00  0.00000000000E+00  0.45729146712E+03  0.45729146712E+03  0.00000000000E+00 0. -1.
         -1   -1    0    0    0  501 -0.00000000000E+00 -0.00000000000E+00 -0.40405420146E+03  0.40405420146E+03  0.00000000000E+00 0.  1.
          5    1    1    2  502    0 -0.70001148884E+01 -0.38311059068E+02  0.42055967476E+03  0.42238521386E+03  0.47000000000E+01 0. -1.
         -5    1    1    2    0  502  0.28334088082E+01  0.27961197210E+02  0.23983730122E+02  0.37244678351E+02  0.47000000000E+01 0.  1.
        -11    1    1    2    0    0  0.10774835542E+02  0.49354096648E+02 -0.24512828904E+03  0.25027944787E+03  0.00000000000E+00 0. -1.
         11    1    1    2    0    0 -0.66081294614E+01 -0.39004234790E+02 -0.14617785018E+03  0.15143632850E+03  0.00000000000E+00 0.  1.
<mgrwt>
<rscale>  0 0.10968697E+03</rscale>
<asrwt>0</asrwt>
<pdfrwt beam="1">  1        1 0.70352533E-01 0.11679383E+03</pdfrwt>
<pdfrwt beam="2">  1       -1 0.62162185E-01 0.11679383E+03</pdfrwt>
<totfact> 0.14409851E+02</totfact>
</mgrwt>
</event>
<event>
 6    1  0.9240440E-006  0.1523530E+03  0.7546771E-02  0.1209547E+00
          2   -1    0    0  501    0  0.00000000000E+00  0.00000000000E+00  0.52483689449E+03  0.52483689449E+03  0.00000000000E+00 0. -1.
         -2   -1    0    0    0  501 -0.00000000000E+00 -0.00000000000E+00 -0.37497687778E+02  0.37497687778E+02  0.00000000000E+00 0.  1.
          5    1    1    2  502    0 -0.33900482521E+02 -0.21095226244E+02  0.20187344302E+03  0.20583786892E+03  0.47000000000E+01 0. -1.
         -5    1    1    2    0  502 -0.14852979490E+02  0.93280303241E+02  0.14624641548E+03  0.17416064427E+03  0.47000000000E+01 0. -1.
        -11    1    1    2    0    0 -0.21862694008E+01  0.10787545998E+02 -0.16141061871E+01  0.11124579153E+02  0.00000000000E+00 0.  1.
         11    1    1    2    0    0  0.50939731412E+02 -0.82972622995E+02  0.14083345440E+03  0.17121148992E+03  0.00000000000E+00 0. -1.
<mgrwt>
<rscale>  0 0.14284858E+03</rscale>
<asrwt>0</asrwt>
<pdfrwt beam="1">  1        2 0.80744132E-01 0.15235299E+03</pdfrwt>
<pdfrwt beam="2">  1       -2 0.57688754E-02 0.15235299E+03</pdfrwt>
<totfact> 0.89116237E+03</totfact>
</mgrwt>
</event>
<event>
 6    1  0.9240440E-006  0.1289669E+03  0.7546771E-02  0.1245637E+00
         -1   -1    0    0    0  501 -0.00000000000E+00  0.00000000000E+00  0.33409576713E+02  0.33409576713E+02  0.00000000000E+00 0.  1.
          1   -1    0    0  501    0  0.00000000000E+00 -0.00000000000E+00 -0.43947673709E+03  0.43947673709E+03  0.00000000000E+00 0. -1.
          5    1    1    2  502    0 -0.27833599326E+02  0.15471539545E+02 -0.33045656033E+03  0.33202064100E+03  0.47000000000E+01 0.  1.
         -5    1    1    2    0  502  0.13879640397E+02  0.13476838779E+02  0.27987023086E+01  0.20104535201E+02  0.47000000000E+01 0.  1.
        -11    1    1    2    0    0 -0.10143706316E+02 -0.55165058533E+02 -0.51233407437E+02  0.75966706513E+02  0.00000000000E+00 0. -1.
         11    1    1    2    0    0  0.24097665245E+02  0.26216680209E+02 -0.27175894913E+02  0.44794431080E+02  0.00000000000E+00 0.  1.
<mgrwt>
<rscale>  0 0.11847341E+03</rscale>
<asrwt>0</asrwt>
<pdfrwt beam="2">  1        1 0.67611807E-01 0.12896693E+03</pdfrwt>
<pdfrwt beam="1">  1       -1 0.51399347E-02 0.12896693E+03</pdfrwt>
<totfact> 0.85913838E+03</totfact>
</mgrwt>
</event>
<event>
 6    1  0.9240440E-006  0.1403009E+03  0.7546771E-02  0.1224008E+00
          1   -1    0    0  501    0  0.00000000000E+00  0.00000000000E+00  0.36129915306E+03  0.36129915306E+03  0.00000000000E+00 0. -1.
         -1   -1    0    0    0  501 -0.00000000000E+00 -0.00000000000E+00 -0.17398578421E+03  0.17398578421E+03  0.00000000000E+00 0.  1.
          5    1    1    2  502    0 -0.46563456128E+02  0.61457260752E+02  0.11692560973E+03  0.14013864048E+03  0.47000000000E+01 0.  1.
         -5    1    1    2    0  502 -0.15264944896E+02 -0.46063233465E+02  0.21064634696E+03  0.21621473934E+03  0.47000000000E+01 0.  1.
        -11    1    1    2    0    0  0.40064847408E+02 -0.47635927225E+02 -0.47347501114E+02  0.78205878437E+02  0.00000000000E+00 0. -1.
         11    1    1    2    0    0  0.21763553616E+02  0.32241899938E+02 -0.92911086721E+02  0.10072567902E+03  0.00000000000E+00 0.  1.
<mgrwt>
<rscale>  0 0.13235108E+03</rscale>
<asrwt>0</asrwt>
<pdfrwt beam="1">  1        1 0.55584485E-01 0.14030091E+03</pdfrwt>
<pdfrwt beam="2">  1       -1 0.26767044E-01 0.14030091E+03</pdfrwt>
<totfact> 0.85598288E+02</totfact>
</mgrwt>
</event>
<event>
 6    1  0.9240440E-006  0.1370536E+03  0.7546771E-02  0.1228631E+00
          4   -1    0    0  501    0  0.00000000000E+00  0.00000000000E+00  0.54386133495E+03  0.54386133495E+03  0.00000000000E+00 0. -1.
         -4   -1    0    0    0  501 -0.00000000000E+00 -0.00000000000E+00 -0.31802798889E+02  0.31802798889E+02  0.00000000000E+00 0.  1.
          5    1    1    2  502    0  0.37148474538E+02 -0.51475677746E+02  0.12750645774E+03  0.14251224974E+03  0.47000000000E+01 0.  1.
         -5    1    1    2    0  502 -0.67034693242E+02  0.38788301652E+01  0.25783586361E+03  0.26647723727E+03  0.47000000000E+01 0.  1.
        -11    1    1    2    0    0  0.29522354528E+02 -0.10827300633E+02  0.52403125126E+01  0.31878844570E+02  0.00000000000E+00 0.  1.
         11    1    1    2    0    0  0.36386417621E+00  0.58424148214E+02  0.12147590220E+03  0.13479580226E+03  0.00000000000E+00 0. -1.
<mgrwt>
<rscale>  0 0.12921108E+03</rscale>
<asrwt>0</asrwt>
<pdfrwt beam="1">  1        4 0.83670968E-01 0.13705362E+03</pdfrwt>
<pdfrwt beam="2">  1       -4 0.48927387E-02 0.13705362E+03</pdfrwt>
<totfact> 0.52906068E+02</totfact>
</mgrwt>
</event>
<event>
 6    1  0.9240440E-006  0.3421356E+03  0.7546771E-02  0.1065890E+00
         -1   -1    0    0    0  501 -0.00000000000E+00  0.00000000000E+00  0.14547745281E+03  0.14547745281E+03  0.00000000000E+00 0.  1.
          1   -1    0    0  501    0  0.00000000000E+00 -0.00000000000E+00 -0.20115960030E+03  0.20115960030E+03  0.00000000000E+00 0. -1.
          5    1    1    2  502    0 -0.26693053358E+02 -0.97834977562E+01 -0.22159035750E+02  0.36350361639E+02  0.47000000000E+01 0. -1.
         -5    1    1    2    0  502  0.12112251836E+03 -0.80966925748E+02  0.22642524577E+01  0.14578588532E+03  0.47000000000E+01 0. -1.
        -11    1    1    2    0    0 -0.55428503886E+02  0.23608143698E+01 -0.39033989124E+02  0.67834687252E+02  0.00000000000E+00 0.  1.
         11    1    1    2    0    0 -0.39000961115E+02  0.88389609135E+02  0.32466249298E+01  0.96666118906E+02  0.00000000000E+00 0. -1.
<mgrwt>
<rscale>  0 0.34213557E+03</rscale>
<asrwt>0</asrwt>
<pdfrwt beam="2">  1        1 0.30947631E-01 0.34213557E+03</pdfrwt>
<pdfrwt beam="1">  1       -1 0.22381147E-01 0.34213557E+03</pdfrwt>
<totfact> 0.24450130E+03</totfact>
</mgrwt>
</event>
<event>
 6    1  0.9240440E-006  0.1258469E+03  0.7546771E-02  0.1264390E+00
         -2   -1    0    0    0  501 -0.00000000000E+00  0.00000000000E+00  0.16856361091E+02  0.16856361091E+02  0.00000000000E+00 0.  1.
          2   -1    0    0  501    0  0.00000000000E+00 -0.00000000000E+00 -0.69630982264E+03  0.69630982264E+03  0.00000000000E+00 0. -1.
          5    1    1    2  502    0 -0.71825247354E+01 -0.31760624393E+02 -0.33998248708E+02  0.47310641917E+02  0.47000000000E+01 0. -1.
         -5    1    1    2    0  502  0.21248657262E+01  0.18074120707E+02 -0.53975275206E+03  0.54007991284E+03  0.47000000000E+01 0. -1.
        -11    1    1    2    0    0  0.12783399221E+02 -0.16938280251E+02 -0.85933068942E+02  0.88514478880E+02  0.00000000000E+00 0. -1.
         11    1    1    2    0    0 -0.77257402119E+01  0.30624783936E+02 -0.19769391841E+02  0.37261150099E+02  0.00000000000E+00 0.  1.
<mgrwt>
<rscale>  0 0.10796245E+03</rscale>
<asrwt>0</asrwt>
<pdfrwt beam="2">  1        2 0.10712462E+00 0.12584694E+03</pdfrwt>
<pdfrwt beam="1">  1       -2 0.25932856E-02 0.12584694E+03</pdfrwt>
<totfact> 0.20870906E+04</totfact>
</mgrwt>
</event>
<event>
 6    1  0.9240440E-006  0.1495597E+03  0.7546771E-02  0.1210473E+00
          2   -1    0    0  501    0  0.00000000000E+00  0.00000000000E+00  0.10072642670E+04  0.10072642670E+04  0.00000000000E+00 0. -1.
         -2   -1    0    0    0  501 -0.00000000000E+00 -0.00000000000E+00 -0.24862817267E+02  0.24862817267E+02  0.00000000000E+00 0.  1.
          5    1    1    2  502    0  0.50613615216E+02 -0.76131318954E+02  0.63460138791E+03  0.64116981160E+03  0.47000000000E+01 0.  1.
         -5    1    1    2    0  502 -0.48321195568E+02 -0.59547294872E+01  0.15724716168E+03  0.16467895009E+03  0.47000000000E+01 0.  1.
        -11    1    1    2    0    0  0.82598119295E+01  0.95454608258E+02  0.18504551851E+03  0.20837862330E+03  0.00000000000E+00 0. -1.
         11    1    1    2    0    0 -0.10552231577E+02 -0.13368559816E+02  0.55073816804E+01  0.17899699321E+02  0.00000000000E+00 0.  1.
<mgrwt>
<rscale>  0 0.14214387E+03</rscale>
<asrwt>0</asrwt>
<pdfrwt beam="1">  1        2 0.15496370E+00 0.14955969E+03</pdfrwt>
<pdfrwt beam="2">  1       -2 0.38250496E-02 0.14955969E+03</pdfrwt>
<totfact> 0.74429293E+03</totfact>
</mgrwt>
</event>
<event>
 6    1  0.9240440E-006  0.1773706E+03  0.7546771E-02  0.1176376E+00
         -2   -1    0    0    0  501 -0.00000000000E+00  0.00000000000E+00  0.58261935975E+02  0.58261935975E+02  0.00000000000E+00 0. -1.
          2   -1    0    0  501    0  0.00000000000E+00 -0.00000000000E+00 -0.47367236330E+03  0.47367236330E+03  0.00000000000E+00 0.  1.
          5    1    1    2  502    0 -0.28949096208E+02  0.79883098370E+02 -0.76475982372E+02  0.11441164913E+03  0.47000000000E+01 0.  1.
         -5    1    1    2    0  502 -0.83075435434E+02 -0.22556351837E+02 -0.15306068921E+03  0.17567009296E+03  0.47000000000E+01 0.  1.
        -11    1    1    2    0    0  0.86154087326E+02 -0.51730496114E+02 -0.19012066906E+03  0.21504520407E+03  0.00000000000E+00 0.  1.
         11    1    1    2    0    0  0.25870444317E+02 -0.55962504202E+01  0.42469133182E+01  0.26807353108E+02  0.00000000000E+00 0. -1.
<mgrwt>
<rscale>  0 0.17141939E+03</rscale>
<asrwt>0</asrwt>
<pdfrwt beam="2">  1        2 0.72872674E-01 0.17737061E+03</pdfrwt>
<pdfrwt beam="1">  1       -2 0.89633744E-02 0.17737061E+03</pdfrwt>
<totfact> 0.51038744E+03</totfact>
</mgrwt>
</event>
<event>
 6    1  0.9240440E-006  0.2710345E+03  0.7546771E-02  0.1100689E+00
          1   -1    0    0  501    0  0.00000000000E+00  0.00000000000E+00  0.37499553360E+03  0.37499553360E+03  0.00000000000E+00 0. -1.
         -1   -1    0    0    0  501 -0.00000000000E+00 -0.00000000000E+00 -0.48973717793E+02  0.48973717793E+02  0.00000000000E+00 0.  1.
          5    1    1    2  502    0  0.74992990785E+01 -0.28063105839E+02  0.65727170470E+01  0.30150754640E+02  0.47000000000E+01 0. -1.
         -5    1    1    2    0  502  0.46043920269E+02  0.77986140029E+02  0.23022082559E+03  0.24743807138E+03  0.47000000000E+01 0. -1.
        -11    1    1    2    0    0  0.19077148766E+01 -0.46470373070E+02  0.68402338055E+01  0.47009826077E+02  0.00000000000E+00 0. -1.
         11    1    1    2    0    0 -0.55450934224E+02 -0.34526611205E+01  0.82388039357E+02  0.99370599295E+02  0.00000000000E+00 0.  1.
<mgrwt>
<rscale>  0 0.27103450E+03</rscale>
<asrwt>0</asrwt>
<pdfrwt beam="1">  1        1 0.57691619E-01 0.27103450E+03</pdfrwt>
<pdfrwt beam="2">  1       -1 0.75344184E-02 0.27103450E+03</pdfrwt>
<totfact> 0.61754904E+03</totfact>
</mgrwt>
</event>
<event>
 6    1  0.9240440E-006  0.1322217E+03  0.7546771E-02  0.1236946E+00
         -1   -1    0    0    0  501 -0.00000000000E+00  0.00000000000E+00  0.50358190880E+02  0.50358190880E+02  0.00000000000E+00 0.  1.
          1   -1    0    0  501    0  0.00000000000E+00 -0.00000000000E+00 -0.27629932096E+03  0.27629932096E+03  0.00000000000E+00 0. -1.
          5    1    1    2  502    0  0.38355892193E+02  0.45391588679E+02 -0.21134685217E+02  0.63248207152E+02  0.47000000000E+01 0.  1.
         -5    1    1    2    0  502 -0.45988437631E+02 -0.29882411647E+01 -0.12766265740E+03  0.13580762156E+03  0.47000000000E+01 0.  1.
        -11    1    1    2    0    0 -0.83691044548E+01 -0.15787007281E+02 -0.91613776481E+02  0.93339999728E+02  0.00000000000E+00 0. -1.
         11    1    1    2    0    0  0.16001649893E+02 -0.26616340233E+02  0.14469989019E+02  0.34261683393E+02  0.00000000000E+00 0.  1.
<mgrwt>
<rscale>  0 0.12380693E+03</rscale>
<asrwt>0</asrwt>
<pdfrwt beam="2">  1        1 0.42507588E-01 0.13222168E+03</pdfrwt>
<pdfrwt beam="1">  1       -1 0.77474139E-02 0.13222168E+03</pdfrwt>
<totfact> 0.83292356E+03</totfact>
</mgrwt>
</event>
<event>
 6    1  0.9240440E-006  0.1958307E+03  0.7546771E-02  0.1156883E+00
         -2   -1    0    0    0  501 -0.00000000000E+00  0.00000000000E+00  0.52538111053E+03  0.52538111053E+03  0.00000000000E+00 0.  1.
          2   -1    0    0  501    0  0.00000000000E+00 -0.00000000000E+00 -0.96965493993E+02  0.96965493993E+02  0.00000000000E+00 0. -1.
          5    1    1    2  502    0 -0.21833078277E+02 -0.23287174692E+02 -0.11555193888E+02  0.34272267477E+02  0.47000000000E+01 0. -1.
         -5    1    1    2    0  502 -0.80514355327E+02  0.13396692005E+03  0.59787779401E+02  0.16741076921E+03  0.47000000000E+01 0. -1.
        -11    1    1    2    0    0  0.70022878825E+02 -0.12494697985E+03  0.28145756003E+03  0.31580580968E+03  0.00000000000E+00 0. -1.
         11    1    1    2    0    0  0.32324554779E+02  0.14267234486E+02  0.98725470998E+02  0.10485775815E+03  0.00000000000E+00 0.  1.
<mgrwt>
<rscale>  0 0.19176089E+03</rscale>
<asrwt>0</asrwt>
<pdfrwt beam="2">  1        2 0.14917769E-01 0.19583070E+03</pdfrwt>
<pdfrwt beam="1">  1       -2 0.80827861E-01 0.19583070E+03</pdfrwt>
<totfact> 0.54411182E+02</totfact>
</mgrwt>
</event>
<event>
 6    1  0.9240440E-006  0.1445696E+03  0.7546771E-02  0.1217441E+00
         -4   -1    0    0    0  501 -0.00000000000E+00  0.00000000000E+00  0.11052665377E+03  0.11052665377E+03  0.00000000000E+00 0.  1.
          4   -1    0    0  501    0  0.00000000000E+00 -0.00000000000E+00 -0.16455105061E+03  0.16455105061E+03  0.00000000000E+00 0. -1.
          5    1    1    2  502    0  0.34002201000E+02  0.31193046973E+02 -0.83859773748E+02  0.95831662332E+02  0.47000000000E+01 0. -1.
         -5    1    1    2    0  502  0.35958944181E+02 -0.46571621306E+02  0.19850747948E+02  0.62274423095E+02  0.47000000000E+01 0.  1.
        -11    1    1    2    0    0 -0.24418687048E+02  0.34731119398E+02  0.40631696797E+02  0.58766127288E+02  0.00000000000E+00 0. -1.
         11    1    1    2    0    0 -0.45542458133E+02 -0.19352545065E+02 -0.30647067842E+02  0.58205491670E+02  0.00000000000E+00 0.  1.
<mgrwt>
<rscale>  0 0.13698750E+03</rscale>
<asrwt>0</asrwt>
<pdfrwt beam="2">  1        4 0.25315546E-01 0.14456963E+03</pdfrwt>
<pdfrwt beam="1">  1       -4 0.17004101E-01 0.14456963E+03</pdfrwt>
<totfact> 0.74031596E+02</totfact>
</mgrwt>
</event>
<event>
 6    1  0.9240440E-006  0.2681237E+03  0.7546771E-02  0.1102674E+00
          2   -1    0    0  501    0  0.00000000000E+00  0.00000000000E+00  0.18375509281E+04  0.18375509281E+04  0.00000000000E+00 0.  1.
         -2   -1    0    0    0  501 -0.00000000000E+00 -0.00000000000E+00 -0.42697384515E+02  0.42697384515E+02  0.00000000000E+00 0. -1.
          5    1    1    2  502    0  0.47862923820E+02 -0.11751991954E+03  0.35676407409E+03  0.37868784708E+03  0.47000000000E+01 0. -1.
         -5    1    1    2    0  502 -0.35835120552E+01 -0.11551379580E+03  0.82781532791E+03  0.83585679737E+03  0.47000000000E+01 0. -1.
        -11    1    1    2    0    0 -0.24050982595E+02  0.24051893172E+03  0.52887064439E+03  0.58149115623E+03  0.00000000000E+00 0. -1.
         11    1    1    2    0    0 -0.20228429170E+02 -0.74852163842E+01  0.81403497201E+02  0.84212511942E+02  0.00000000000E+00 0.  1.
<mgrwt>
<rscale>  0 0.26757743E+03</rscale>
<asrwt>0</asrwt>
<pdfrwt beam="1">  1        2 0.28270008E+00 0.26812373E+03</pdfrwt>
<pdfrwt beam="2">  1       -2 0.65688298E-02 0.26812373E+03</pdfrwt>
<totfact> 0.11641795E+03</totfact>
</mgrwt>
</event>
<event>
 6    1  0.9240440E-006  0.1292873E+03  0.7546771E-02  0.1242566E+00
         -2   -1    0    0    0  501 -0.00000000000E+00  0.00000000000E+00  0.10356737938E+03  0.10356737938E+03  0.00000000000E+00 0.  1.
          2   -1    0    0  501    0  0.00000000000E+00 -0.00000000000E+00 -0.13185750849E+03  0.13185750849E+03  0.00000000000E+00 0. -1.
          5    1    1    2  502    0 -0.17107136223E+02  0.46691119297E+02 -0.25505710632E+02  0.56083384400E+02  0.47000000000E+01 0.  1.
         -5    1    1    2    0  502  0.45281314754E+02 -0.63883816316E+02 -0.19719170755E+02  0.80885568232E+02  0.47000000000E+01 0.  1.
        -11    1    1    2    0    0 -0.50537523798E+02 -0.51834993789E+01  0.35312297558E+02  0.61869769163E+02  0.00000000000E+00 0.  1.
         11    1    1    2    0    0  0.22363345267E+02  0.22376196398E+02 -0.18377545283E+02  0.36586166066E+02  0.00000000000E+00 0. -1.
<mgrwt>
<rscale>  0 0.12032255E+03</rscale>
<asrwt>0</asrwt>
<pdfrwt beam="2">  1        2 0.20285771E-01 0.12928729E+03</pdfrwt>
<pdfrwt beam="1">  1       -2 0.15933443E-01 0.12928729E+03</pdfrwt>
<totfact> 0.79586177E+03</totfact>
</mgrwt>
</event>
<event>
 6    1  0.9240440E-006  0.1490823E+03  0.7546771E-02  0.1210873E+00
         -1   -1    0    0    0  501 -0.00000000000E+00  0.00000000000E+00  0.10853567742E+03  0.10853567742E+03  0.00000000000E+00 0.  1.
          1   -1    0    0  501    0  0.00000000000E+00 -0.00000000000E+00 -0.17909119492E+03  0.17909119492E+03  0.00000000000E+00 0. -1.
          5    1    1    2  502    0 -0.48944695684E+02  0.48716827207E+02 -0.11360107227E+02  0.70143100337E+02  0.47000000000E+01 0.  1.
         -5    1    1    2    0  502  0.66959477300E+02  0.30492797469E+02 -0.60414258984E+02  0.95317128504E+02  0.47000000000E+01 0.  1.
        -11    1    1    2    0    0 -0.13468988206E+02  0.11954825815E+02  0.22122358974E+02  0.28525957830E+02  0.00000000000E+00 0.  1.
         11    1    1    2    0    0 -0.45457934103E+01 -0.91164450492E+02 -0.20903510269E+02  0.93640685670E+02  0.00000000000E+00 0. -1.
<mgrwt>
<rscale>  0 0.14184116E+03</rscale>
<asrwt>0</asrwt>
<pdfrwt beam="2">  1        1 0.27552491E-01 0.14908228E+03</pdfrwt>
<pdfrwt beam="1">  1       -1 0.16697797E-01 0.14908228E+03</pdfrwt>
<totfact> 0.44026633E+03</totfact>
</mgrwt>
</event>
<event>
 6    1  0.9240440E-006  0.1755475E+03  0.7546771E-02  0.1178168E+00
          2   -1    0    0  501    0  0.00000000000E+00  0.00000000000E+00  0.27189121557E+03  0.27189121557E+03  0.00000000000E+00 0.  1.
         -2   -1    0    0    0  501 -0.00000000000E+00 -0.00000000000E+00 -0.12406409357E+03  0.12406409357E+03  0.00000000000E+00 0. -1.
          5    1    1    2  502    0 -0.14578487954E+02  0.40148026094E+02 -0.11891644382E+02  0.44585844350E+02  0.47000000000E+01 0.  1.
         -5    1    1    2    0  502  0.15550386420E+02  0.83108035989E+02  0.17789422955E+03  0.19702082903E+03  0.47000000000E+01 0.  1.
        -11    1    1    2    0    0  0.40287619010E+02 -0.71416339591E+02  0.95022549561E+01  0.82545009876E+02  0.00000000000E+00 0. -1.
         11    1    1    2    0    0 -0.41259517476E+02 -0.51839722492E+02 -0.27677718122E+02  0.71803625889E+02  0.00000000000E+00 0.  1.
<mgrwt>
<rscale>  0 0.16969290E+03</rscale>
<asrwt>0</asrwt>
<pdfrwt beam="1">  1        2 0.41829418E-01 0.17554750E+03</pdfrwt>
<pdfrwt beam="2">  1       -2 0.19086784E-01 0.17554750E+03</pdfrwt>
<totfact> 0.27184196E+03</totfact>
</mgrwt>
</event>
<event>
 6    1  0.9240440E-006  0.3380047E+03  0.7546771E-02  0.1067649E+00
          1   -1    0    0  501    0  0.00000000000E+00  0.00000000000E+00  0.88496085779E+02  0.88496085779E+02  0.00000000000E+00 0. -1.
         -1   -1    0    0    0  501 -0.00000000000E+00 -0.00000000000E+00 -0.32274639943E+03  0.32274639943E+03  0.00000000000E+00 0.  1.
          5    1    1    2  502    0 -0.72734171852E+01 -0.20344539592E-01 -0.81874224375E+02  0.82330927533E+02  0.47000000000E+01 0.  1.
         -5    1    1    2    0  502  0.13543798789E+03  0.12234766380E+02 -0.71408070085E+02  0.15366958237E+03  0.47000000000E+01 0.  1.
        -11    1    1    2    0    0 -0.87073024182E+02 -0.34866755333E+02 -0.16074476377E+02  0.95161919687E+02  0.00000000000E+00 0. -1.
         11    1    1    2    0    0 -0.41091546528E+02  0.22652333493E+02 -0.64893542818E+02  0.80080055621E+02  0.00000000000E+00 0.  1.
<mgrwt>
<rscale>  0 0.33800469E+03</rscale>
<asrwt>0</asrwt>
<pdfrwt beam="1">  1        1 0.13614782E-01 0.33800469E+03</pdfrwt>
<pdfrwt beam="2">  1       -1 0.49653293E-01 0.33800469E+03</pdfrwt>
<totfact> 0.17690533E+03</totfact>
</mgrwt>
</event>
<event>
 6    1  0.1148920E-005  0.3604604E+03  0.7546771E-02  0.1058402E+00
         -1   -1    0    0    0  501 -0.00000000000E+00  0.00000000000E+00  0.27618274178E+02  0.27618274178E+02  0.00000000000E+00 0. -1.
          1   -1    0    0  501    0  0.00000000000E+00 -0.00000000000E+00 -0.11761388837E+04  0.11761388837E+04  0.00000000000E+00 0.  1.
          5    1    1    2  502    0  0.81084599964E+02  0.82626617116E+02 -0.66621977609E+03  0.67621945421E+03  0.47000000000E+01 0. -1.
         -5    1    1    2    0  502  0.24950397170E+02  0.11942272296E+02 -0.17184761423E+02  0.32902070022E+02  0.47000000000E+01 0. -1.
        -11    1    1    2    0    0 -0.49028407527E+02 -0.17637044557E+02 -0.65437724273E+02  0.83647748585E+02  0.00000000000E+00 0. -1.
         11    1    1    2    0    0 -0.57006589607E+02 -0.76931844855E+02 -0.39967834769E+03  0.41098788501E+03  0.00000000000E+00 0.  1.
<mgrwt>
<rscale>  0 0.36046041E+03</rscale>
<asrwt>0</asrwt>
<pdfrwt beam="2">  1        1 0.18094443E+00 0.36046041E+03</pdfrwt>
<pdfrwt beam="1">  1       -1 0.42489655E-02 0.36046041E+03</pdfrwt>
<totfact> 0.26790396E+03</totfact>
</mgrwt>
</event>
<event>
 6    1  0.9240440E-006  0.1314647E+03  0.7546771E-02  0.1238443E+00
          2   -1    0    0  501    0  0.00000000000E+00  0.00000000000E+00  0.36819923737E+03  0.36819923737E+03  0.00000000000E+00 0. -1.
         -2   -1    0    0    0  501 -0.00000000000E+00 -0.00000000000E+00 -0.43252602828E+02  0.43252602828E+02  0.00000000000E+00 0.  1.
          5    1    1    2  502    0  0.21952843798E+02  0.21013213008E+02  0.23069848261E+03  0.23273882863E+03  0.47000000000E+01 0.  1.
         -5    1    1    2    0  502 -0.50721258404E+02  0.77975165037E+01  0.31034142131E+02  0.60155259915E+02  0.47000000000E+01 0.  1.
        -11    1    1    2    0    0 -0.19006929569E+02  0.21394133521E+02  0.73617794227E+01  0.29549418218E+02  0.00000000000E+00 0.  1.
         11    1    1    2    0    0  0.47775344175E+02 -0.50204863033E+02  0.55852230375E+02  0.89008333436E+02  0.00000000000E+00 0. -1.
<mgrwt>
<rscale>  0 0.12286590E+03</rscale>
<asrwt>0</asrwt>
<pdfrwt beam="1">  1        2 0.56646034E-01 0.13146475E+03</pdfrwt>
<pdfrwt beam="2">  1       -2 0.66542468E-02 0.13146475E+03</pdfrwt>
<totfact> 0.10421917E+04</totfact>
</mgrwt>
</event>
<event>
 6    1  0.9240440E-006  0.1287503E+03  0.7546771E-02  0.1252544E+00
         -2   -1    0    0    0  501 -0.00000000000E+00  0.00000000000E+00  0.17286380452E+02  0.17286380452E+02  0.00000000000E+00 0.  1.
          2   -1    0    0  501    0  0.00000000000E+00 -0.00000000000E+00 -0.65203330743E+03  0.65203330743E+03  0.00000000000E+00 0. -1.
          5    1    1    2  502    0 -0.63312369045E+01 -0.30420711690E+02 -0.19046227150E+02  0.36747149946E+02  0.47000000000E+01 0. -1.
         -5    1    1    2    0  502  0.21016690660E+02  0.32780586981E+01 -0.42578511648E+03  0.42634200165E+03  0.47000000000E+01 0. -1.
        -11    1    1    2    0    0  0.14805451960E+02  0.36394713319E+02 -0.15358525512E+03  0.15853140748E+03  0.00000000000E+00 0. -1.
         11    1    1    2    0    0 -0.29490905716E+02 -0.92520603271E+01 -0.36330328227E+02  0.47699128811E+02  0.00000000000E+00 0.  1.
<mgrwt>
<rscale>  0 0.11445014E+03</rscale>
<asrwt>0</asrwt>
<pdfrwt beam="2">  1        2 0.10031281E+00 0.12875029E+03</pdfrwt>
<pdfrwt beam="1">  1       -2 0.26594434E-02 0.12875029E+03</pdfrwt>
<totfact> 0.21767583E+04</totfact>
</mgrwt>
</event>
<event>
 6    1  0.9240440E-006  0.1305896E+03  0.7546771E-02  0.1240705E+00
          3   -1    0    0  501    0  0.00000000000E+00  0.00000000000E+00  0.55919703817E+02  0.55919703817E+02  0.00000000000E+00 0. -1.
         -3   -1    0    0    0  501 -0.00000000000E+00 -0.00000000000E+00 -0.23307497103E+03  0.23307497103E+03  0.00000000000E+00 0.  1.
          5    1    1    2  502    0 -0.21808004863E+02 -0.15162782734E+02 -0.11602431826E+03  0.11911856062E+03  0.47000000000E+01 0.  1.
         -5    1    1    2    0  502  0.41249746684E+02 -0.17258766913E+02  0.13460342029E+02  0.46932690572E+02  0.47000000000E+01 0.  1.
        -11    1    1    2    0    0 -0.41733047705E+02  0.29167742528E+01 -0.75094391533E+02  0.85961168457E+02  0.00000000000E+00 0.  1.
         11    1    1    2    0    0  0.22291305884E+02  0.29504775394E+02  0.50310055527E+00  0.36982255194E+02  0.00000000000E+00 0. -1.
<mgrwt>
<rscale>  0 0.12146157E+03</rscale>
<asrwt>0</asrwt>
<pdfrwt beam="1">  1        3 0.86030313E-02 0.13058962E+03</pdfrwt>
<pdfrwt beam="2">  1       -3 0.35857688E-01 0.13058962E+03</pdfrwt>
<totfact> 0.16557617E+03</totfact>
</mgrwt>
</event>
<event>
 6    1  0.9240440E-006  0.1404783E+03  0.7546771E-02  0.1223136E+00
          1   -1    0    0  501    0  0.00000000000E+00  0.00000000000E+00  0.28238571809E+03  0.28238571809E+03  0.00000000000E+00 0. -1.
         -1   -1    0    0    0  501 -0.00000000000E+00 -0.00000000000E+00 -0.59534338299E+02  0.59534338299E+02  0.00000000000E+00 0.  1.
          5    1    1    2  502    0 -0.26578616480E+02  0.53626095622E+02  0.26962987394E+02  0.65812412772E+02  0.47000000000E+01 0. -1.
         -5    1    1    2    0  502  0.77719419064E+02 -0.15106419483E+02  0.59387798445E+02  0.99083361940E+02  0.47000000000E+01 0. -1.
        -11    1    1    2    0    0  0.21293021679E+02  0.93667270213E+01  0.14977284877E+02  0.27666720254E+02  0.00000000000E+00 0.  1.
         11    1    1    2    0    0 -0.72433824263E+02 -0.47886403161E+02  0.12152330907E+03  0.14935756142E+03  0.00000000000E+00 0. -1.
<mgrwt>
<rscale>  0 0.13295498E+03</rscale>
<asrwt>0</asrwt>
<pdfrwt beam="1">  1        1 0.43443956E-01 0.14047832E+03</pdfrwt>
<pdfrwt beam="2">  1       -1 0.91591291E-02 0.14047832E+03</pdfrwt>
<totfact> 0.63197178E+03</totfact>
</mgrwt>
</event>
<event>
 6    1  0.9240440E-006  0.1316122E+03  0.7546771E-02  0.1238019E+00
          2   -1    0    0  501    0  0.00000000000E+00  0.00000000000E+00  0.10784532094E+04  0.10784532094E+04  0.00000000000E+00 0. -1.
         -2   -1    0    0    0  501 -0.00000000000E+00 -0.00000000000E+00 -0.13055935548E+02  0.13055935548E+02  0.00000000000E+00 0.  1.
          5    1    1    2  502    0 -0.22168507477E+02  0.30513035641E+02  0.72992632544E+02  0.82295215374E+02  0.47000000000E+01 0.  1.
         -5    1    1    2    0  502 -0.74664120852E+01 -0.59121603347E+02  0.63654650540E+03  0.63934705351E+03  0.47000000000E+01 0.  1.
        -11    1    1    2    0    0  0.55231118060E+02  0.38447161040E+02  0.30226546104E+03  0.30966606132E+03  0.00000000000E+00 0.  1.
         11    1    1    2    0    0 -0.25596198498E+02 -0.98385933349E+01  0.53592674827E+02  0.60200814708E+02  0.00000000000E+00 0. -1.
<mgrwt>
<rscale>  0 0.12313132E+03</rscale>
<asrwt>0</asrwt>
<pdfrwt beam="1">  1        2 0.16591581E+00 0.13161222E+03</pdfrwt>
<pdfrwt beam="2">  1       -2 0.20086063E-02 0.13161222E+03</pdfrwt>
<totfact> 0.17274627E+04</totfact>
</mgrwt>
</event>
<event>
 6    1  0.9240440E-006  0.1343389E+03  0.7546771E-02  0.1238131E+00
         -2   -1    0    0    0  501 -0.00000000000E+00  0.00000000000E+00  0.21533519504E+02  0.21533519504E+02  0.00000000000E+00 0.  1.
          2   -1    0    0  501    0  0.00000000000E+00 -0.00000000000E+00 -0.61645080012E+03  0.61645080012E+03  0.00000000000E+00 0. -1.
          5    1    1    2  502    0 -0.56496421631E+02  0.54542385097E+02 -0.22807186797E+03  0.24125833538E+03  0.47000000000E+01 0.  1.
         -5    1    1    2    0  502  0.55194164691E+02 -0.53729630911E+01 -0.15606478036E+03  0.16569118932E+03  0.47000000000E+01 0.  1.
        -11    1    1    2    0    0 -0.16938467331E+02  0.18140343868E+02 -0.52395042259E+02  0.57976065790E+02  0.00000000000E+00 0. -1.
         11    1    1    2    0    0  0.18240724271E+02 -0.67309765874E+02 -0.15838559002E+03  0.17305872913E+03  0.00000000000E+00 0.  1.
<mgrwt>
<rscale>  0 0.12306111E+03</rscale>
<asrwt>0</asrwt>
<pdfrwt beam="2">  1        2 0.94838575E-01 0.13433894E+03</pdfrwt>
<pdfrwt beam="1">  1       -2 0.33128495E-02 0.13433894E+03</pdfrwt>
<totfact> 0.16879499E+04</totfact>
</mgrwt>
</event>
<event>
 6    1  0.9240440E-006  0.1661151E+03  0.7546771E-02  0.1189068E+00
          1   -1    0    0  501    0  0.00000000000E+00  0.00000000000E+00  0.10932427191E+04  0.10932427191E+04  0.00000000000E+00 0. -1.
         -1   -1    0    0    0  501 -0.00000000000E+00 -0.00000000000E+00 -0.25309197058E+02  0.25309197058E+02  0.00000000000E+00 0.  1.
          5    1    1    2  502    0  0.12627311845E+03  0.35964193239E+02  0.55849458035E+03  0.57373914798E+03  0.47000000000E+01 0. -1.
         -5    1    1    2    0  502 -0.28375453148E+02  0.12920701655E+02  0.22275455501E+03  0.22497509340E+03  0.47000000000E+01 0. -1.
        -11    1    1    2    0    0  0.15602735335E+02 -0.17006972535E+02  0.60921260745E+02  0.65146622902E+02  0.00000000000E+00 0. -1.
         11    1    1    2    0    0 -0.11350040063E+03 -0.31877922358E+02  0.22576312597E+03  0.25469105191E+03  0.00000000000E+00 0.  1.
<mgrwt>
<rscale>  0 0.15967190E+03</rscale>
<asrwt>0</asrwt>
<pdfrwt beam="1">  1        1 0.16819115E+00 0.16611510E+03</pdfrwt>
<pdfrwt beam="2">  1       -1 0.38937235E-02 0.16611510E+03</pdfrwt>
<totfact> 0.34558717E+03</totfact>
</mgrwt>
</event>
<event>
 6    1  0.9240440E-006  0.1304345E+03  0.7546771E-02  0.1240416E+00
         -2   -1    0    0    0  501 -0.00000000000E+00  0.00000000000E+00  0.23332753000E+03  0.23332753000E+03  0.00000000000E+00 0.  1.
          2   -1    0    0  501    0  0.00000000000E+00 -0.00000000000E+00 -0.57082447826E+02  0.57082447826E+02  0.00000000000E+00 0. -1.
          5    1    1    2  502    0 -0.71160797445E+02 -0.19662787824E+01  0.19698276483E+02  0.74012414105E+02  0.47000000000E+01 0.  1.
         -5    1    1    2    0  502  0.43930242053E+02 -0.23472161178E+02  0.62922836783E+02  0.80387697480E+02  0.47000000000E+01 0.  1.
        -11    1    1    2    0    0 -0.27708283034E+02  0.28579926257E+02  0.21348300270E+02  0.45169802501E+02  0.00000000000E+00 0.  1.
         11    1    1    2    0    0  0.54938838426E+02 -0.31414862960E+01  0.72275668642E+02  0.90840063746E+02  0.00000000000E+00 0. -1.
<mgrwt>
<rscale>  0 0.12164000E+03</rscale>
<asrwt>0</asrwt>
<pdfrwt beam="2">  1        2 0.87819152E-02 0.13043445E+03</pdfrwt>
<pdfrwt beam="1">  1       -2 0.35896543E-01 0.13043445E+03</pdfrwt>
<totfact> 0.52354403E+03</totfact>
</mgrwt>
</event>
<event>
 6    1  0.9240440E-006  0.1436613E+03  0.7546771E-02  0.1220086E+00
         -1   -1    0    0    0  501 -0.00000000000E+00  0.00000000000E+00  0.28427746291E+03  0.28427746291E+03  0.00000000000E+00 0.  1.
          1   -1    0    0  501    0  0.00000000000E+00 -0.00000000000E+00 -0.69252768866E+02  0.69252768866E+02  0.00000000000E+00 0. -1.
          5    1    1    2  502    0 -0.95236080095E+02  0.40485059126E+02  0.18834121623E+02  0.10528896002E+03  0.47000000000E+01 0. -1.
         -5    1    1    2    0  502  0.26148849354E+02 -0.24857684035E+02  0.27676422667E+02  0.45713686679E+02  0.47000000000E+01 0. -1.
        -11    1    1    2    0    0  0.65628235238E+02 -0.41000042467E+02  0.83961541779E+02  0.11418235083E+03  0.00000000000E+00 0.  1.
         11    1    1    2    0    0  0.34589955023E+01  0.25372667375E+02  0.84552607975E+02  0.88345234251E+02  0.00000000000E+00 0. -1.
<mgrwt>
<rscale>  0 0.13509491E+03</rscale>
<asrwt>0</asrwt>
<pdfrwt beam="2">  1        1 0.10654272E-01 0.14366130E+03</pdfrwt>
<pdfrwt beam="1">  1       -1 0.43734994E-01 0.14366130E+03</pdfrwt>
<totfact> 0.29937244E+03</totfact>
</mgrwt>
</event>
<event>
 6    1  0.9240440E-006  0.1525827E+03  0.7546771E-02  0.1207988E+00
          1   -1    0    0  501    0  0.00000000000E+00  0.00000000000E+00  0.66291003670E+03  0.66291003670E+03  0.00000000000E+00 0. -1.
         -1   -1    0    0    0  501 -0.00000000000E+00 -0.00000000000E+00 -0.29048437367E+02  0.29048437367E+02  0.00000000000E+00 0.  1.
          5    1    1    2  502    0  0.74685080334E+02  0.88096167392E+02  0.31485011420E+03  0.33539749603E+03  0.47000000000E+01 0. -1.
         -5    1    1    2    0  502 -0.40638835265E+01 -0.36407993191E+02  0.93849011794E+02  0.10085526328E+03  0.47000000000E+01 0. -1.
        -11    1    1    2    0    0  0.14983080316E+02 -0.28920292054E+02  0.63469045246E+02  0.71338598897E+02  0.00000000000E+00 0. -1.
         11    1    1    2    0    0 -0.85604277124E+02 -0.22767882147E+02  0.16169342810E+03  0.18436711586E+03  0.00000000000E+00 0.  1.
<mgrwt>
<rscale>  0 0.14404451E+03</rscale>
<asrwt>0</asrwt>
<pdfrwt beam="1">  1        1 0.10198615E+00 0.15258275E+03</pdfrwt>
<pdfrwt beam="2">  1       -1 0.44689908E-02 0.15258275E+03</pdfrwt>
<totfact> 0.61732003E+03</totfact>
</mgrwt>
</event>
<event>
 6    1  0.9240440E-006  0.1440578E+03  0.7546771E-02  0.1217888E+00
          2   -1    0    0  501    0  0.00000000000E+00  0.00000000000E+00  0.94214834605E+02  0.94214834605E+02  0.00000000000E+00 0. -1.
         -2   -1    0    0    0  501 -0.00000000000E+00 -0.00000000000E+00 -0.25228282970E+03  0.25228282970E+03  0.00000000000E+00 0.  1.
          5    1    1    2  502    0 -0.39942775550E+02 -0.24467133796E+02  0.70507805161E+01  0.47601149783E+02  0.47000000000E+01 0.  1.
         -5    1    1    2    0  502  0.93805079031E+02 -0.22727964223E+02  0.91871659716E-01  0.96633594832E+02  0.47000000000E+01 0.  1.
        -11    1    1    2    0    0 -0.29836164991E+02 -0.25197894800E+02 -0.71139820878E+02  0.81154203577E+02  0.00000000000E+00 0.  1.
         11    1    1    2    0    0 -0.24026138490E+02  0.72392992819E+02 -0.94070826394E+02  0.12110871611E+03  0.00000000000E+00 0. -1.
<mgrwt>
<rscale>  0 0.13666511E+03</rscale>
<asrwt>0</asrwt>
<pdfrwt beam="1">  1        2 0.14494590E-01 0.14405778E+03</pdfrwt>
<pdfrwt beam="2">  1       -2 0.38812742E-01 0.14405778E+03</pdfrwt>
<totfact> 0.24819702E+03</totfact>
</mgrwt>
</event>
<event>
 6    1  0.9240440E-006  0.1477584E+03  0.7546771E-02  0.1212715E+00
         -1   -1    0    0    0  501 -0.00000000000E+00  0.00000000000E+00  0.13737486266E+02  0.13737486266E+02  0.00000000000E+00 0.  1.
          1   -1    0    0  501    0  0.00000000000E+00 -0.00000000000E+00 -0.13871582793E+04  0.13871582793E+04  0.00000000000E+00 0. -1.
          5    1    1    2  502    0 -0.23516154557E+02 -0.44179574431E+02 -0.44984555587E+03  0.45264551081E+03  0.47000000000E+01 0. -1.
         -5    1    1    2    0  502  0.91974000443E+02  0.51476363505E+01 -0.46568711379E+03  0.47473391797E+03  0.47000000000E+01 0. -1.
        -11    1    1    2    0    0 -0.61464167050E+02 -0.15387534907E+02 -0.19766454590E+03  0.20757141607E+03  0.00000000000E+00 0.  1.
         11    1    1    2    0    0 -0.69936788361E+01  0.54419472988E+02 -0.26022357742E+03  0.26594492067E+03  0.00000000000E+00 0. -1.
<mgrwt>
<rscale>  0 0.14045753E+03</rscale>
<asrwt>0</asrwt>
<pdfrwt beam="2">  1        1 0.21340895E+00 0.14775837E+03</pdfrwt>
<pdfrwt beam="1">  1       -1 0.21134595E-02 0.14775837E+03</pdfrwt>
<totfact> 0.52969912E+03</totfact>
</mgrwt>
</event>
<event>
 6    1  0.9240440E-006  0.1568658E+03  0.7546771E-02  0.1200316E+00
          2   -1    0    0  501    0  0.00000000000E+00  0.00000000000E+00  0.71239831387E+03  0.71239831387E+03  0.00000000000E+00 0. -1.
         -2   -1    0    0    0  501 -0.00000000000E+00 -0.00000000000E+00 -0.29205684949E+02  0.29205684949E+02  0.00000000000E+00 0.  1.
          5    1    1    2  502    0  0.46971893869E+02  0.31527398744E+02  0.40994538238E+02  0.70021267130E+02  0.47000000000E+01 0.  1.
         -5    1    1    2    0  502  0.44198437587E+02 -0.56119064986E+01  0.32640254488E+03  0.32946275463E+03  0.47000000000E+01 0.  1.
        -11    1    1    2    0    0 -0.25250839544E+01  0.14834363504E+02  0.42222738163E+01  0.15628883060E+02  0.00000000000E+00 0.  1.
         11    1    1    2    0    0 -0.88645247502E+02 -0.40749855749E+02  0.31157327199E+03  0.32649109400E+03  0.00000000000E+00 0. -1.
<mgrwt>
<rscale>  0 0.15012819E+03</rscale>
<asrwt>0</asrwt>
<pdfrwt beam="1">  1        2 0.10959973E+00 0.15686576E+03</pdfrwt>
<pdfrwt beam="2">  1       -2 0.44931828E-02 0.15686576E+03</pdfrwt>
<totfact> 0.91535137E+03</totfact>
</mgrwt>
</event>
<event>
 6    1  0.9240440E-006  0.1346785E+03  0.7546771E-02  0.1232676E+00
          1   -1    0    0  501    0  0.00000000000E+00  0.00000000000E+00  0.14400521421E+03  0.14400521421E+03  0.00000000000E+00 0. -1.
         -1   -1    0    0    0  501 -0.00000000000E+00 -0.00000000000E+00 -0.13663197252E+03  0.13663197252E+03  0.00000000000E+00 0.  1.
          5    1    1    2  502    0  0.30449156996E+02  0.21292917544E+02  0.99076661267E+02  0.10591890439E+03  0.47000000000E+01 0.  1.
         -5    1    1    2    0  502 -0.32272476438E+02  0.28813602926E+02 -0.22518071568E+02  0.48998877499E+02  0.47000000000E+01 0.  1.
        -11    1    1    2    0    0  0.33184412542E+02 -0.51251948769E+01  0.44910592369E+01  0.33876872220E+02  0.00000000000E+00 0. -1.
         11    1    1    2    0    0 -0.31361093100E+02 -0.44981325592E+02 -0.73676407255E+02  0.91842532622E+02  0.00000000000E+00 0.  1.
<mgrwt>
<rscale>  0 0.12654363E+03</rscale>
<asrwt>0</asrwt>
<pdfrwt beam="1">  1        1 0.22154648E-01 0.13467851E+03</pdfrwt>
<pdfrwt beam="2">  1       -1 0.21020304E-01 0.13467851E+03</pdfrwt>
<totfact> 0.39865964E+03</totfact>
</mgrwt>
</event>
<event>
 6    1  0.9240440E-006  0.1471149E+03  0.7546771E-02  0.1213647E+00
         -1   -1    0    0    0  501 -0.00000000000E+00  0.00000000000E+00  0.74937256016E+02  0.74937256016E+02  0.00000000000E+00 0.  1.
          1   -1    0    0  501    0  0.00000000000E+00 -0.00000000000E+00 -0.29168207652E+03  0.29168207652E+03  0.00000000000E+00 0. -1.
          5    1    1    2  502    0 -0.82267520523E+01 -0.16406449153E+02  0.92870505978E+01  0.21099533927E+02  0.47000000000E+01 0. -1.
         -5    1    1    2    0  502  0.84888970940E+02  0.28240520971E+02 -0.20516792130E+03  0.22387413951E+03  0.47000000000E+01 0. -1.
        -11    1    1    2    0    0 -0.15435253972E+02 -0.92857933665E+00  0.34864125252E+02  0.38139435685E+02  0.00000000000E+00 0.  1.
         11    1    1    2    0    0 -0.61226964916E+02 -0.10905492481E+02 -0.55728075050E+02  0.83506223408E+02  0.00000000000E+00 0. -1.
<mgrwt>
<rscale>  0 0.13976411E+03</rscale>
<asrwt>0</asrwt>
<pdfrwt beam="2">  1        1 0.44874165E-01 0.14711487E+03</pdfrwt>
<pdfrwt beam="1">  1       -1 0.11528809E-01 0.14711487E+03</pdfrwt>
<totfact> 0.42799023E+03</totfact>
</mgrwt>
</event>
<event>
 6    1  0.9240440E-006  0.1296651E+03  0.7546771E-02  0.1235716E+00
         -2   -1    0    0    0  501 -0.00000000000E+00  0.00000000000E+00  0.12554052582E+02  0.12554052582E+02  0.00000000000E+00 0.  1.
          2   -1    0    0  501    0  0.00000000000E+00 -0.00000000000E+00 -0.14249632900E+04  0.14249632900E+04  0.00000000000E+00 0. -1.
          5    1    1    2  502    0  0.60788427157E+02 -0.50241909581E+02 -0.51966743573E+03  0.52563848424E+03  0.47000000000E+01 0. -1.
         -5    1    1    2    0  502 -0.44129517873E+02 -0.94697110807E+01 -0.54754903960E+03  0.54942618298E+03  0.47000000000E+01 0.  1.
        -11    1    1    2    0    0  0.33454229493E+02  0.27113060557E+01 -0.84033584044E+02  0.90488562254E+02  0.00000000000E+00 0. -1.
         11    1    1    2    0    0 -0.50113138777E+02  0.57000314606E+02 -0.26115917804E+03  0.27196411310E+03  0.00000000000E+00 0.  1.
<mgrwt>
<rscale>  0 0.12458738E+03</rscale>
<asrwt>0</asrwt>
<pdfrwt beam="2">  1        2 0.21922492E+00 0.12966508E+03</pdfrwt>
<pdfrwt beam="1">  1       -2 0.19313945E-02 0.12966508E+03</pdfrwt>
<totfact> 0.11811244E+04</totfact>
</mgrwt>
</event>
<event>
 6    1  0.9240440E-006  0.6654047E+03  0.7546771E-02  0.9778295E-01
         -1   -1    0    0    0  501 -0.00000000000E+00  0.00000000000E+00  0.12110063006E+03  0.12110063006E+03  0.00000000000E+00 0.  1.
          1   -1    0    0  501    0  0.00000000000E+00 -0.00000000000E+00 -0.91404021463E+03  0.91404021463E+03  0.00000000000E+00 0. -1.
          5    1    1    2  502    0  0.96603131248E+02  0.15452799171E+03 -0.73015271727E+03  0.75256637297E+03  0.47000000000E+01 0. -1.
         -5    1    1    2    0  502  0.11423042626E+02 -0.20377784810E+02 -0.83168689209E+02  0.86515090484E+02  0.47000000000E+01 0.  1.
        -11    1    1    2    0    0 -0.11698924960E+03 -0.90064979400E+02  0.28439786832E+02  0.15035626528E+03  0.00000000000E+00 0.  1.
         11    1    1    2    0    0  0.89630757206E+01 -0.44085227496E+02 -0.80579649291E+01  0.45703115961E+02  0.00000000000E+00 0. -1.
<mgrwt>
<rscale>  0 0.66540468E+03</rscale>
<asrwt>0</asrwt>
<pdfrwt beam="2">  1        1 0.14062157E+00 0.66540468E+03</pdfrwt>
<pdfrwt beam="1">  1       -1 0.18630867E-01 0.66540468E+03</pdfrwt>
<totfact> 0.41300840E+02</totfact>
</mgrwt>
</event>
<event>
 6    1  0.9240440E-006  0.1305660E+03  0.7546771E-02  0.1237969E+00
          2   -1    0    0  501    0  0.00000000000E+00  0.00000000000E+00  0.11101162909E+03  0.11101162909E+03  0.00000000000E+00 0. -1.
         -2   -1    0    0    0  501 -0.00000000000E+00 -0.00000000000E+00 -0.21667563763E+03  0.21667563763E+03  0.00000000000E+00 0.  1.
          5    1    1    2  502    0  0.51659258679E+02 -0.55727757809E+02  0.22132881658E+02  0.79285663573E+02  0.47000000000E+01 0.  1.
         -5    1    1    2    0  502 -0.14179994662E+02  0.51505823603E+02  0.28713903125E+02  0.60831737985E+02  0.47000000000E+01 0.  1.
        -11    1    1    2    0    0 -0.27991665435E+02 -0.22295469645E+02 -0.15531131134E+03  0.15938075395E+03  0.00000000000E+00 0.  1.
         11    1    1    2    0    0 -0.94875985820E+01  0.26517403852E+02 -0.11994819815E+01  0.28189111212E+02  0.00000000000E+00 0. -1.
<mgrwt>
<rscale>  0 0.12316258E+03</rscale>
<asrwt>0</asrwt>
<pdfrwt beam="1">  1        2 0.17078712E-01 0.13056604E+03</pdfrwt>
<pdfrwt beam="2">  1       -2 0.33334713E-01 0.13056604E+03</pdfrwt>
<totfact> 0.27057595E+03</totfact>
</mgrwt>
</event>
<event>
 6    1  0.9240440E-006  0.1382199E+03  0.7546771E-02  0.1229602E+00
         -2   -1    0    0    0  501 -0.00000000000E+00  0.00000000000E+00  0.36668534978E+02  0.36668534978E+02  0.00000000000E+00 0.  1.
          2   -1    0    0  501    0  0.00000000000E+00 -0.00000000000E+00 -0.57702125346E+03  0.57702125346E+03  0.00000000000E+00 0. -1.
          5    1    1    2  502    0  0.81399762890E+02  0.33205784752E+02 -0.37392347399E+03  0.38414762779E+03  0.47000000000E+01 0. -1.
         -5    1    1    2    0  502 -0.33215725222E+02 -0.28116698534E+02 -0.92657888155E+02  0.10247637472E+03  0.47000000000E+01 0.  1.
        -11    1    1    2    0    0 -0.63214922830E+02 -0.23370260560E+02 -0.23281921692E+02  0.71304582074E+02  0.00000000000E+00 0.  1.
         11    1    1    2    0    0  0.15030885162E+02  0.18281174342E+02 -0.50489434648E+02  0.55761203853E+02  0.00000000000E+00 0. -1.
<mgrwt>
<rscale>  0 0.12856382E+03</rscale>
<asrwt>0</asrwt>
<pdfrwt beam="2">  1        2 0.88772494E-01 0.13821994E+03</pdfrwt>
<pdfrwt beam="1">  1       -2 0.56413135E-02 0.13821994E+03</pdfrwt>
<totfact> 0.82405001E+03</totfact>
</mgrwt>
</event>
<event>
 6    1  0.9240440E-006  0.1467930E+03  0.7546771E-02  0.1214487E+00
         -2   -1    0    0    0  501 -0.00000000000E+00  0.00000000000E+00  0.50950811516E+03  0.50950811516E+03  0.00000000000E+00 0.  1.
          2   -1    0    0  501    0  0.00000000000E+00 -0.00000000000E+00 -0.34760322064E+02  0.34760322064E+02  0.00000000000E+00 0. -1.
          5    1    1    2  502    0  0.11762107492E+02  0.21021501320E+02  0.51540755178E+01  0.25077982073E+02  0.47000000000E+01 0. -1.
         -5    1    1    2    0  502  0.12321168859E+02 -0.94114330458E+02  0.27919869390E+03  0.29492934590E+03  0.47000000000E+01 0. -1.
        -11    1    1    2    0    0 -0.44202046200E+02  0.73582629071E+02  0.18417659793E+03  0.20319754775E+03  0.00000000000E+00 0.  1.
         11    1    1    2    0    0  0.20118769850E+02 -0.48979993312E+00  0.62184257604E+01  0.21063561503E+02  0.00000000000E+00 0. -1.
<mgrwt>
<rscale>  0 0.13914279E+03</rscale>
<asrwt>0</asrwt>
<pdfrwt beam="2">  1        2 0.53477422E-02 0.14679303E+03</pdfrwt>
<pdfrwt beam="1">  1       -2 0.78385858E-01 0.14679303E+03</pdfrwt>
<totfact> 0.20692953E+03</totfact>
</mgrwt>
</event>
<event>
 6    1  0.9240440E-006  0.2307497E+03  0.7546771E-02  0.1128492E+00
          2   -1    0    0  501    0  0.00000000000E+00  0.00000000000E+00  0.10194665607E+04  0.10194665607E+04  0.00000000000E+00 0. -1.
         -2   -1    0    0    0  501 -0.00000000000E+00 -0.00000000000E+00 -0.49717757930E+02  0.49717757930E+02  0.00000000000E+00 0.  1.
          5    1    1    2  502    0 -0.14822753788E+02 -0.10831008086E+02  0.37099970483E+02  0.41659603645E+02  0.47000000000E+01 0. -1.
         -5    1    1    2    0  502  0.12688508909E+03  0.16912036536E+03  0.51123993256E+03  0.55325390415E+03  0.47000000000E+01 0. -1.
        -11    1    1    2    0    0 -0.30340093617E+02 -0.91423000325E+02  0.11407979473E+03  0.14930802334E+03  0.00000000000E+00 0.  1.
         11    1    1    2    0    0 -0.81722241688E+02 -0.66866356946E+02  0.30732910502E+03  0.32496278751E+03  0.00000000000E+00 0. -1.
<mgrwt>
<rscale>  0 0.22738815E+03</rscale>
<asrwt>0</asrwt>
<pdfrwt beam="1">  1        2 0.15684099E+00 0.23074972E+03</pdfrwt>
<pdfrwt beam="2">  1       -2 0.76488866E-02 0.23074972E+03</pdfrwt>
<totfact> 0.25833450E+03</totfact>
</mgrwt>
</event>
<event>
 6    1  0.9240440E-006  0.1366653E+03  0.7546771E-02  0.1229634E+00
         -2   -1    0    0    0  501 -0.00000000000E+00  0.00000000000E+00  0.11677267080E+03  0.11677267080E+03  0.00000000000E+00 0.  1.
          2   -1    0    0  501    0  0.00000000000E+00 -0.00000000000E+00 -0.12794938349E+03  0.12794938349E+03  0.00000000000E+00 0. -1.
          5    1    1    2  502    0  0.24065095981E+02 -0.34342736054E+02 -0.18899496325E+02  0.46236709719E+02  0.47000000000E+01 0. -1.
         -5    1    1    2    0  502 -0.18581021605E+02  0.89332663195E+02  0.25633686000E+01  0.91401531366E+02  0.47000000000E+01 0. -1.
        -11    1    1    2    0    0  0.27252570059E+02 -0.17829074231E+02  0.36155258997E+02  0.48659852198E+02  0.00000000000E+00 0.  1.
         11    1    1    2    0    0 -0.32736644436E+02 -0.37160852910E+02 -0.30995843962E+02  0.58423961016E+02  0.00000000000E+00 0. -1.
<mgrwt>
<rscale>  0 0.12854305E+03</rscale>
<asrwt>0</asrwt>
<pdfrwt beam="2">  1        2 0.19684521E-01 0.13666534E+03</pdfrwt>
<pdfrwt beam="1">  1       -2 0.17965026E-01 0.13666534E+03</pdfrwt>
<totfact> 0.67777671E+03</totfact>
</mgrwt>
</event>
<event>
 6    1  0.9240440E-006  0.1251935E+03  0.7546771E-02  0.1255198E+00
         -2   -1    0    0    0  501 -0.00000000000E+00  0.00000000000E+00  0.16466038651E+02  0.16466038651E+02  0.00000000000E+00 0.  1.
          2   -1    0    0  501    0  0.00000000000E+00 -0.00000000000E+00 -0.66514633499E+03  0.66514633499E+03  0.00000000000E+00 0. -1.
          5    1    1    2  502    0 -0.14551444596E+02  0.44226734583E+01 -0.42520352259E+03  0.42550138684E+03  0.47000000000E+01 0. -1.
         -5    1    1    2    0  502  0.12162905571E+02 -0.11023320843E+02  0.68928347897E+00  0.17088445982E+02  0.47000000000E+01 0. -1.
        -11    1    1    2    0    0  0.26619649116E+02 -0.24030537917E+02 -0.15946000787E+03  0.16344285418E+03  0.00000000000E+00 0. -1.
         11    1    1    2    0    0 -0.24231110091E+02  0.30631185302E+02 -0.64706049358E+02  0.75579686641E+02  0.00000000000E+00 0.  1.
<mgrwt>
<rscale>  0 0.11295245E+03</rscale>
<asrwt>0</asrwt>
<pdfrwt beam="2">  1        2 0.10233020E+00 0.12519353E+03</pdfrwt>
<pdfrwt beam="1">  1       -2 0.25332368E-02 0.12519353E+03</pdfrwt>
<totfact> 0.22778349E+04</totfact>
</mgrwt>
</event>
<event>
 6    1  0.9240440E-006  0.1315828E+03  0.7546771E-02  0.1238959E+00
          1   -1    0    0  501    0  0.00000000000E+00  0.00000000000E+00  0.10351168397E+03  0.10351168397E+03  0.00000000000E+00 0. -1.
         -1   -1    0    0    0  501 -0.00000000000E+00 -0.00000000000E+00 -0.26266772675E+03  0.26266772675E+03  0.00000000000E+00 0.  1.
          5    1    1    2  502    0  0.55413777738E+01 -0.67330772589E+02  0.30854703720E+02  0.74419369433E+02  0.47000000000E+01 0. -1.
         -5    1    1    2    0  502 -0.40053620591E+02  0.48529097958E+02  0.14331572910E+02  0.64705871860E+02  0.47000000000E+01 0.  1.
        -11    1    1    2    0    0 -0.21137459070E+02 -0.53817679512E+01 -0.11028686951E+02  0.24441512598E+02  0.00000000000E+00 0. -1.
         11    1    1    2    0    0  0.55649701887E+02  0.24183442583E+02 -0.19331363245E+03  0.20261265683E+03  0.00000000000E+00 0.  1.
<mgrwt>
<rscale>  0 0.12254356E+03</rscale>
<asrwt>0</asrwt>
<pdfrwt beam="1">  1        1 0.15924875E-01 0.13158280E+03</pdfrwt>
<pdfrwt beam="2">  1       -1 0.40410419E-01 0.13158280E+03</pdfrwt>
<totfact> 0.20287584E+03</totfact>
</mgrwt>
</event>
<event>
 6    1  0.9240440E-006  0.2029224E+03  0.7546771E-02  0.1151412E+00
          2   -1    0    0  501    0  0.00000000000E+00  0.00000000000E+00  0.14752618957E+04  0.14752618957E+04  0.00000000000E+00 0. -1.
         -2   -1    0    0    0  501 -0.00000000000E+00 -0.00000000000E+00 -0.30884763841E+02  0.30884763841E+02  0.00000000000E+00 0.  1.
          5    1    1    2  502    0 -0.56872164359E+02 -0.18658783612E+02  0.20826317971E+03  0.21674463156E+03  0.47000000000E+01 0.  1.
         -5    1    1    2    0  502 -0.69874019407E+02  0.11606319862E+03  0.86059568664E+03  0.87120610106E+03  0.47000000000E+01 0.  1.
        -11    1    1    2    0    0  0.10500606541E+03 -0.39499008981E+02  0.30173567961E+03  0.32191748295E+03  0.00000000000E+00 0. -1.
         11    1    1    2    0    0  0.21740118360E+02 -0.57905406024E+02  0.73782585934E+02  0.96278444006E+02  0.00000000000E+00 0.  1.
<mgrwt>
<rscale>  0 0.19802985E+03</rscale>
<asrwt>0</asrwt>
<pdfrwt beam="1">  1        2 0.22696331E+00 0.20292245E+03</pdfrwt>
<pdfrwt beam="2">  1       -2 0.47515033E-02 0.20292245E+03</pdfrwt>
<totfact> 0.29730523E+03</totfact>
</mgrwt>
</event>
<event>
 6    1  0.9240440E-006  0.1580228E+03  0.7546771E-02  0.1198197E+00
          1   -1    0    0  501    0  0.00000000000E+00  0.00000000000E+00  0.26471397532E+03  0.26471397532E+03  0.00000000000E+00 0. -1.
         -1   -1    0    0    0  501 -0.00000000000E+00 -0.00000000000E+00 -0.81427649612E+02  0.81427649612E+02  0.00000000000E+00 0.  1.
          5    1    1    2  502    0  0.22369269158E+02 -0.13535683088E+02 -0.30401334398E+02  0.40372392207E+02  0.47000000000E+01 0.  1.
         -5    1    1    2    0  502  0.74078720921E+02  0.20044390342E+02  0.11649817587E+03  0.13958276920E+03  0.47000000000E+01 0.  1.
        -11    1    1    2    0    0 -0.74232848113E+02 -0.47320032612E+02  0.58223274019E+02  0.10554454445E+03  0.00000000000E+00 0.  1.
         11    1    1    2    0    0 -0.22215141967E+02  0.40811325358E+02  0.38966210218E+02  0.60641919073E+02  0.00000000000E+00 0. -1.
<mgrwt>
<rscale>  0 0.15186773E+03</rscale>
<asrwt>0</asrwt>
<pdfrwt beam="1">  1        1 0.40725227E-01 0.15802276E+03</pdfrwt>
<pdfrwt beam="2">  1       -1 0.12527331E-01 0.15802276E+03</pdfrwt>
<totfact> 0.42607805E+03</totfact>
</mgrwt>
</event>
<event>
 6    1  0.9240440E-006  0.1268263E+03  0.7546771E-02  0.1247317E+00
          2   -1    0    0  501    0  0.00000000000E+00  0.00000000000E+00  0.66566875669E+02  0.66566875669E+02  0.00000000000E+00 0. -1.
         -2   -1    0    0    0  501 -0.00000000000E+00 -0.00000000000E+00 -0.18210258871E+03  0.18210258871E+03  0.00000000000E+00 0.  1.
          5    1    1    2  502    0 -0.64312531176E+02 -0.18783243576E+02 -0.31343846390E+02  0.74117734800E+02  0.47000000000E+01 0. -1.
         -5    1    1    2    0  502  0.48807994515E+02  0.33558043734E+02 -0.36132675938E+02  0.69541519241E+02  0.47000000000E+01 0. -1.
        -11    1    1    2    0    0  0.15731518629E+02  0.71411867006E+01 -0.71124345326E+02  0.73192552380E+02  0.00000000000E+00 0.  1.
         11    1    1    2    0    0 -0.22698196878E+00 -0.21915986859E+02  0.23065154611E+02  0.31817657960E+02  0.00000000000E+00 0. -1.
<mgrwt>
<rscale>  0 0.11747775E+03</rscale>
<asrwt>0</asrwt>
<pdfrwt beam="1">  1        2 0.10241058E-01 0.12682626E+03</pdfrwt>
<pdfrwt beam="2">  1       -2 0.28015782E-01 0.12682626E+03</pdfrwt>
<totfact> 0.67763831E+03</totfact>
</mgrwt>
</event>
<event>
 6    1  0.9240440E-006  0.1314902E+03  0.7546771E-02  0.1238768E+00
          2   -1    0    0  501    0  0.00000000000E+00  0.00000000000E+00  0.65295252740E+03  0.65295252740E+03  0.00000000000E+00 0. -1.
         -2   -1    0    0    0  501 -0.00000000000E+00 -0.00000000000E+00 -0.33968235738E+02  0.33968235738E+02  0.00000000000E+00 0.  1.
          5    1    1    2  502    0  0.40148296109E+02  0.27809716900E+02  0.74872359157E+02  0.89516625273E+02  0.47000000000E+01 0. -1.
         -5    1    1    2    0  502 -0.25811657208E+02  0.10398034417E+02  0.47582338853E+03  0.47665957227E+03  0.47000000000E+01 0. -1.
        -11    1    1    2    0    0  0.25881392710E+02 -0.19709243311E+02  0.69201689968E+02  0.76466820614E+02  0.00000000000E+00 0. -1.
         11    1    1    2    0    0 -0.40218031610E+02 -0.18498508007E+02 -0.91314598907E+00  0.44277744982E+02  0.00000000000E+00 0.  1.
<mgrwt>
<rscale>  0 0.12266249E+03</rscale>
<asrwt>0</asrwt>
<pdfrwt beam="1">  1        2 0.10045423E+00 0.13149023E+03</pdfrwt>
<pdfrwt beam="2">  1       -2 0.52258829E-02 0.13149023E+03</pdfrwt>
<totfact> 0.80038835E+03</totfact>
</mgrwt>
</event>
<event>
 6    1  0.9240440E-006  0.1318010E+03  0.7546771E-02  0.1238346E+00
         -2   -1    0    0    0  501 -0.00000000000E+00  0.00000000000E+00  0.28639034937E+02  0.28639034937E+02  0.00000000000E+00 0.  1.
          2   -1    0    0  501    0  0.00000000000E+00 -0.00000000000E+00 -0.11765179815E+04  0.11765179815E+04  0.00000000000E+00 0. -1.
          5    1    1    2  502    0  0.66251904108E+02  0.47474120348E+02 -0.64490406342E+03  0.65005111177E+03  0.47000000000E+01 0.  1.
         -5    1    1    2    0  502 -0.48959670538E+02 -0.93922109212E+01 -0.42650305260E+03  0.42943242407E+03  0.47000000000E+01 0.  1.
        -11    1    1    2    0    0  0.15763536488E+02 -0.11981337349E+02  0.15086251654E+02  0.24892499196E+02  0.00000000000E+00 0.  1.
         11    1    1    2    0    0 -0.33055770058E+02 -0.26100572078E+02 -0.91558082234E+02  0.10078098144E+03  0.00000000000E+00 0. -1.
<mgrwt>
<rscale>  0 0.12292618E+03</rscale>
<asrwt>0</asrwt>
<pdfrwt beam="2">  1        2 0.18100275E+00 0.13180097E+03</pdfrwt>
<pdfrwt beam="1">  1       -2 0.44060058E-02 0.13180097E+03</pdfrwt>
<totfact> 0.47944865E+03</totfact>
</mgrwt>
</event>
<event>
 6    1  0.9240440E-006  0.2416525E+03  0.7546771E-02  0.1119502E+00
         -1   -1    0    0    0  501 -0.00000000000E+00  0.00000000000E+00  0.65307683645E+02  0.65307683645E+02  0.00000000000E+00 0.  1.
          1   -1    0    0  501    0  0.00000000000E+00 -0.00000000000E+00 -0.14648591476E+04  0.14648591476E+04  0.00000000000E+00 0. -1.
          5    1    1    2  502    0 -0.14155157896E+01  0.52532884883E+02 -0.28899608947E+03  0.29377293512E+03  0.47000000000E+01 0. -1.
         -5    1    1    2    0  502 -0.18462829925E+03  0.37792456825E+02 -0.89991110441E+03  0.91944437816E+03  0.47000000000E+01 0. -1.
        -11    1    1    2    0    0  0.19855818412E+03 -0.81877601857E+02 -0.17102945134E+03  0.27455485316E+03  0.00000000000E+00 0.  1.
         11    1    1    2    0    0 -0.12514369074E+02 -0.84477398508E+01 -0.39614818744E+02  0.42394664830E+02  0.00000000000E+00 0. -1.
<mgrwt>
<rscale>  0 0.24043643E+03</rscale>
<asrwt>0</asrwt>
<pdfrwt beam="2">  1        1 0.22536294E+00 0.24165251E+03</pdfrwt>
<pdfrwt beam="1">  1       -1 0.10047336E-01 0.24165251E+03</pdfrwt>
<totfact> 0.46003765E+02</totfact>
</mgrwt>
</event>
<event>
 6    1  0.9240440E-006  0.2249003E+03  0.7546771E-02  0.1130282E+00
          1   -1    0    0  501    0  0.00000000000E+00  0.00000000000E+00  0.99866036582E+02  0.99866036582E+02  0.00000000000E+00 0. -1.
         -1   -1    0    0    0  501 -0.00000000000E+00 -0.00000000000E+00 -0.12661994884E+03  0.12661994884E+03  0.00000000000E+00 0.  1.
          5    1    1    2  502    0 -0.22817020133E+02 -0.21971826021E+02  0.59517642273E+02  0.67585629303E+02  0.47000000000E+01 0. -1.
         -5    1    1    2    0  502  0.70753637620E+01 -0.32985586028E+01 -0.60228552739E+02  0.60913954282E+02  0.47000000000E+01 0. -1.
        -11    1    1    2    0    0  0.11041039138E+01 -0.31485709959E+02  0.46119143761E+01  0.31840834337E+02  0.00000000000E+00 0. -1.
         11    1    1    2    0    0  0.14637552457E+02  0.56756094583E+02 -0.30654916164E+02  0.66145567496E+02  0.00000000000E+00 0.  1.
<mgrwt>
<rscale>  0 0.22490027E+03</rscale>
<asrwt>0</asrwt>
<pdfrwt beam="1">  1        1 0.15364006E-01 0.22490027E+03</pdfrwt>
<pdfrwt beam="2">  1       -1 0.19479992E-01 0.22490027E+03</pdfrwt>
<totfact> 0.74429539E+03</totfact>
</mgrwt>
</event>
<event>
 6    1  0.9240440E-006  0.1166432E+03  0.7546771E-02  0.1260369E+00
          2   -1    0    0  501    0  0.00000000000E+00  0.00000000000E+00  0.98780332462E+02  0.98780332462E+02  0.00000000000E+00 0. -1.
         -2   -1    0    0    0  501 -0.00000000000E+00 -0.00000000000E+00 -0.11668608637E+03  0.11668608637E+03  0.00000000000E+00 0.  1.
          5    1    1    2  502    0  0.13843284152E+02  0.58802584468E+01  0.60508979480E+02  0.62527118543E+02  0.47000000000E+01 0. -1.
         -5    1    1    2    0  502 -0.17605146473E+01 -0.28938610544E+02 -0.46453767414E+02  0.54959849881E+02  0.47000000000E+01 0.  1.
        -11    1    1    2    0    0 -0.34253191892E+02  0.45367658847E+02 -0.34380651643E+02  0.66434440100E+02  0.00000000000E+00 0.  1.
         11    1    1    2    0    0  0.22170422387E+02 -0.22309306749E+02  0.24196856695E+01  0.31545010306E+02  0.00000000000E+00 0. -1.
<mgrwt>
<rscale>  0 0.11010849E+03</rscale>
<asrwt>0</asrwt>
<pdfrwt beam="1">  1        2 0.15196974E-01 0.11664321E+03</pdfrwt>
<pdfrwt beam="2">  1       -2 0.17951706E-01 0.11664321E+03</pdfrwt>
<totfact> 0.90220446E+03</totfact>
</mgrwt>
</event>
<event>
 6    1  0.9240440E-006  0.3388051E+03  0.7546771E-02  0.1067306E+00
         -1   -1    0    0    0  501 -0.00000000000E+00  0.00000000000E+00  0.19036473992E+03  0.19036473992E+03  0.00000000000E+00 0.  1.
          1   -1    0    0  501    0  0.00000000000E+00 -0.00000000000E+00 -0.15074860988E+03  0.15074860988E+03  0.00000000000E+00 0. -1.
          5    1    1    2  502    0 -0.98160159101E+01  0.23377783730E+02  0.19218575292E+02  0.32160823633E+02  0.47000000000E+01 0. -1.
         -5    1    1    2    0  502 -0.13230868081E+02 -0.96877314863E+02 -0.81315732024E+02  0.12725803817E+03  0.47000000000E+01 0. -1.
        -11    1    1    2    0    0 -0.40108866051E+02  0.68616819368E+02  0.27451773966E+02  0.84086794029E+02  0.00000000000E+00 0. -1.
         11    1    1    2    0    0  0.63155750043E+02  0.48827117644E+01  0.74261512799E+02  0.97607693964E+02  0.00000000000E+00 0.  1.
<mgrwt>
<rscale>  0 0.33880508E+03</rscale>
<asrwt>0</asrwt>
<pdfrwt beam="2">  1        1 0.23192094E-01 0.33880508E+03</pdfrwt>
<pdfrwt beam="1">  1       -1 0.29286883E-01 0.33880508E+03</pdfrwt>
<totfact> 0.22502596E+03</totfact>
</mgrwt>
</event>
<event>
 6    1  0.9240440E-006  0.1282895E+03  0.7546771E-02  0.1242559E+00
          1   -1    0    0  501    0  0.00000000000E+00  0.00000000000E+00  0.34266895727E+03  0.34266895727E+03  0.00000000000E+00 0. -1.
         -1   -1    0    0    0  501 -0.00000000000E+00 -0.00000000000E+00 -0.43225507097E+02  0.43225507097E+02  0.00000000000E+00 0.  1.
          5    1    1    2  502    0  0.31413775767E+02 -0.64983374286E+02  0.86891365118E+02  0.11305690414E+03  0.47000000000E+01 0. -1.
         -5    1    1    2    0  502 -0.25016924742E+02  0.36841423174E+02  0.14748266947E+03  0.15413099876E+03  0.47000000000E+01 0. -1.
        -11    1    1    2    0    0 -0.22989657795E+02 -0.13352435270E+02 -0.12350374651E+02  0.29314563739E+02  0.00000000000E+00 0.  1.
         11    1    1    2    0    0  0.16592806770E+02  0.41494386382E+02  0.77419790239E+02  0.89391997731E+02  0.00000000000E+00 0. -1.
<mgrwt>
<rscale>  0 0.12032685E+03</rscale>
<asrwt>0</asrwt>
<pdfrwt beam="1">  1        1 0.52718299E-01 0.12828947E+03</pdfrwt>
<pdfrwt beam="2">  1       -1 0.66500782E-02 0.12828947E+03</pdfrwt>
<totfact> 0.80054110E+03</totfact>
</mgrwt>
</event>
<event>
 6    1  0.9240440E-006  0.1399645E+03  0.7546771E-02  0.1224253E+00
         -4   -1    0    0    0  501 -0.00000000000E+00  0.00000000000E+00  0.40656984636E+02  0.40656984636E+02  0.00000000000E+00 0.  1.
          4   -1    0    0  501    0  0.00000000000E+00 -0.00000000000E+00 -0.44908295447E+03  0.44908295447E+03  0.00000000000E+00 0. -1.
          5    1    1    2  502    0 -0.37485586627E+02 -0.13086577033E+02 -0.22408859639E+03  0.22762736377E+03  0.47000000000E+01 0.  1.
         -5    1    1    2    0  502  0.56337349573E+02 -0.46993422641E+02 -0.89804190782E+02  0.11605671635E+03  0.47000000000E+01 0.  1.
        -11    1    1    2    0    0 -0.49065955771E+02  0.60606639825E+01 -0.41484542901E+02  0.64538104739E+02  0.00000000000E+00 0.  1.
         11    1    1    2    0    0  0.30214192825E+02  0.54019335692E+02 -0.53048639754E+02  0.81517754240E+02  0.00000000000E+00 0. -1.
<mgrwt>
<rscale>  0 0.13218213E+03</rscale>
<asrwt>0</asrwt>
<pdfrwt beam="2">  1        4 0.69089684E-01 0.13996451E+03</pdfrwt>
<pdfrwt beam="1">  1       -4 0.62549208E-02 0.13996451E+03</pdfrwt>
<totfact> 0.54313938E+02</totfact>
</mgrwt>
</event>
<event>
 6    1  0.9240440E-006  0.1358410E+03  0.7546771E-02  0.1231183E+00
          1   -1    0    0  501    0  0.00000000000E+00  0.00000000000E+00  0.72458620825E+02  0.72458620825E+02  0.00000000000E+00 0. -1.
         -1   -1    0    0    0  501 -0.00000000000E+00 -0.00000000000E+00 -0.20095001367E+03  0.20095001367E+03  0.00000000000E+00 0.  1.
          5    1    1    2  502    0 -0.84516360321E+02 -0.25659331333E+02 -0.46139606791E+02  0.99761564548E+02  0.47000000000E+01 0.  1.
         -5    1    1    2    0  502  0.45876940336E+02 -0.10885612310E+02 -0.25775159738E+02  0.53941070341E+02  0.47000000000E+01 0.  1.
        -11    1    1    2    0    0 -0.11486787143E+02  0.29267809653E+02 -0.61240517772E+02  0.68840046323E+02  0.00000000000E+00 0.  1.
         11    1    1    2    0    0  0.50126207127E+02  0.72771339895E+01  0.46638914540E+01  0.50865953285E+02  0.00000000000E+00 0. -1.
<mgrwt>
<rscale>  0 0.12751996E+03</rscale>
<asrwt>0</asrwt>
<pdfrwt beam="1">  1        1 0.11147480E-01 0.13584096E+03</pdfrwt>
<pdfrwt beam="2">  1       -1 0.30915386E-01 0.13584096E+03</pdfrwt>
<totfact> 0.51255217E+03</totfact>
</mgrwt>
</event>
<event>
 6    1  0.9240440E-006  0.3087345E+03  0.7546771E-02  0.1082263E+00
          1   -1    0    0  501    0  0.00000000000E+00  0.00000000000E+00  0.90892699306E+03  0.90892699306E+03  0.00000000000E+00 0. -1.
         -1   -1    0    0    0  501 -0.00000000000E+00 -0.00000000000E+00 -0.10517821029E+03  0.10517821029E+03  0.00000000000E+00 0.  1.
          5    1    1    2  502    0 -0.18057205792E+03  0.22195412905E+03  0.44489431087E+03  0.52898293105E+03  0.47000000000E+01 0. -1.
         -5    1    1    2    0  502  0.15880661651E+02  0.73261474129E+01  0.61435066482E+02  0.64048616254E+02  0.47000000000E+01 0. -1.
        -11    1    1    2    0    0  0.37787748938E+02 -0.10006309886E+03  0.60589455034E+02  0.12292932842E+03  0.00000000000E+00 0. -1.
         11    1    1    2    0    0  0.12690364733E+03 -0.12921717760E+03  0.23682995039E+03  0.29814432763E+03  0.00000000000E+00 0.  1.
<mgrwt>
<rscale>  0 0.30603268E+03</rscale>
<asrwt>0</asrwt>
<pdfrwt beam="1">  1        1 0.13983492E+00 0.30873448E+03</pdfrwt>
<pdfrwt beam="2">  1       -1 0.16181264E-01 0.30873448E+03</pdfrwt>
<totfact> 0.53562720E+02</totfact>
</mgrwt>
</event>
<event>
 6    1  0.9240440E-006  0.1640538E+03  0.7546771E-02  0.1191387E+00
          1   -1    0    0  501    0  0.00000000000E+00  0.00000000000E+00  0.84498977811E+03  0.84498977811E+03  0.00000000000E+00 0. -1.
         -1   -1    0    0    0  501 -0.00000000000E+00 -0.00000000000E+00 -0.33361693598E+02  0.33361693598E+02  0.00000000000E+00 0.  1.
          5    1    1    2  502    0 -0.90241720813E+02  0.42612613242E+02  0.24244080116E+03  0.26221944064E+03  0.47000000000E+01 0.  1.
         -5    1    1    2    0  502  0.14085114815E+02  0.31477679245E+02  0.37611629113E+03  0.37772316477E+03  0.47000000000E+01 0.  1.
        -11    1    1    2    0    0  0.83358746799E+01 -0.29926705493E+02  0.22653201011E+01  0.31148453951E+02  0.00000000000E+00 0.  1.
         11    1    1    2    0    0  0.67820731318E+02 -0.44163586994E+02  0.19080567211E+03  0.20726041234E+03  0.00000000000E+00 0. -1.
<mgrwt>
<rscale>  0 0.15764039E+03</rscale>
<asrwt>0</asrwt>
<pdfrwt beam="1">  1        1 0.12999841E+00 0.16405384E+03</pdfrwt>
<pdfrwt beam="2">  1       -1 0.51325689E-02 0.16405384E+03</pdfrwt>
<totfact> 0.35235710E+03</totfact>
</mgrwt>
</event>
<event>
 6    1  0.9240440E-006  0.1332128E+03  0.7546771E-02  0.1236292E+00
          1   -1    0    0  501    0  0.00000000000E+00  0.00000000000E+00  0.12128384516E+03  0.12128384516E+03  0.00000000000E+00 0. -1.
         -1   -1    0    0    0  501 -0.00000000000E+00 -0.00000000000E+00 -0.14078346791E+03  0.14078346791E+03  0.00000000000E+00 0.  1.
          5    1    1    2  502    0  0.24841117020E+02 -0.47692693044E+02 -0.19339919033E+02  0.57339310536E+02  0.47000000000E+01 0.  1.
         -5    1    1    2    0  502  0.21192499951E+02  0.46488684112E+02  0.66462705955E+02  0.83962498102E+02  0.47000000000E+01 0.  1.
        -11    1    1    2    0    0 -0.33503966481E+02  0.28785264084E+02 -0.76977735001E+02  0.88750655684E+02  0.00000000000E+00 0.  1.
         11    1    1    2    0    0 -0.12529650490E+02 -0.27581255153E+02  0.10355325328E+02  0.32014848740E+02  0.00000000000E+00 0. -1.
<mgrwt>
<rscale>  0 0.12422099E+03</rscale>
<asrwt>0</asrwt>
<pdfrwt beam="1">  1        1 0.18659053E-01 0.13321278E+03</pdfrwt>
<pdfrwt beam="2">  1       -1 0.21658995E-01 0.13321278E+03</pdfrwt>
<totfact> 0.47205630E+03</totfact>
</mgrwt>
</event>
<event>
 6    1  0.9240440E-006  0.1945472E+03  0.7546771E-02  0.1158523E+00
          1   -1    0    0  501    0  0.00000000000E+00  0.00000000000E+00  0.24327941856E+03  0.24327941856E+03  0.00000000000E+00 0. -1.
         -1   -1    0    0    0  501 -0.00000000000E+00 -0.00000000000E+00 -0.14631252774E+03  0.14631252774E+03  0.00000000000E+00 0.  1.
          5    1    1    2  502    0 -0.13632016946E+03 -0.34898112112E+02  0.10128605304E+03  0.17344169444E+03  0.47000000000E+01 0.  1.
         -5    1    1    2    0  502  0.46869053158E+01 -0.35069133835E+02 -0.15832546524E+02  0.39045752123E+02  0.47000000000E+01 0.  1.
        -11    1    1    2    0    0 -0.92607698739E+01 -0.89693259947E+01 -0.67900284294E+01  0.14571038176E+02  0.00000000000E+00 0.  1.
         11    1    1    2    0    0  0.14089403402E+03  0.78936571942E+02  0.18303412735E+02  0.16253346157E+03  0.00000000000E+00 0. -1.
<mgrwt>
<rscale>  0 0.18993116E+03</rscale>
<asrwt>0</asrwt>
<pdfrwt beam="1">  1        1 0.37427603E-01 0.19454720E+03</pdfrwt>
<pdfrwt beam="2">  1       -1 0.22509620E-01 0.19454720E+03</pdfrwt>
<totfact> 0.18765495E+03</totfact>
</mgrwt>
</event>
<event>
 6    1  0.9240440E-006  0.1358309E+03  0.7546771E-02  0.1232080E+00
         -2   -1    0    0    0  501 -0.00000000000E+00  0.00000000000E+00  0.18475787746E+03  0.18475787746E+03  0.00000000000E+00 0.  1.
          2   -1    0    0  501    0  0.00000000000E+00 -0.00000000000E+00 -0.79870840272E+02  0.79870840272E+02  0.00000000000E+00 0. -1.
          5    1    1    2  502    0  0.73842324915E+01  0.40168120546E+02  0.64144432963E+02  0.76187945751E+02  0.47000000000E+01 0. -1.
         -5    1    1    2    0  502  0.45638110495E+02 -0.36467726114E+02 -0.27150112041E+02  0.64590639890E+02  0.47000000000E+01 0. -1.
        -11    1    1    2    0    0 -0.25373400431E+01  0.17032692505E+02  0.67093003274E+02  0.69267754380E+02  0.00000000000E+00 0.  1.
         11    1    1    2    0    0 -0.50485002943E+02 -0.20733086936E+02  0.79971299527E+00  0.54582377715E+02  0.00000000000E+00 0. -1.
<mgrwt>
<rscale>  0 0.12693197E+03</rscale>
<asrwt>0</asrwt>
<pdfrwt beam="2">  1        2 0.12287822E-01 0.13583089E+03</pdfrwt>
<pdfrwt beam="1">  1       -2 0.28424289E-01 0.13583089E+03</pdfrwt>
<totfact> 0.53244126E+03</totfact>
</mgrwt>
</event>
<event>
 6    1  0.9240440E-006  0.2068235E+03  0.7546771E-02  0.1146201E+00
         -3   -1    0    0    0  501 -0.00000000000E+00  0.00000000000E+00  0.82901117631E+03  0.82901117631E+03  0.00000000000E+00 0.  1.
          3   -1    0    0  501    0  0.00000000000E+00 -0.00000000000E+00 -0.49180905131E+02  0.49180905131E+02  0.00000000000E+00 0. -1.
          5    1    1    2  502    0 -0.20604445390E+02  0.28323936389E+02  0.14399023136E+03  0.14826349945E+03  0.47000000000E+01 0. -1.
         -5    1    1    2    0  502 -0.11315789389E+03 -0.10032335189E+03  0.25279061781E+03  0.29460935209E+03  0.47000000000E+01 0. -1.
        -11    1    1    2    0    0 -0.13790676791E+02  0.22735728195E+02  0.57450724501E+01  0.27204815021E+02  0.00000000000E+00 0. -1.
         11    1    1    2    0    0  0.14755301607E+03  0.49263687305E+02  0.37730434955E+03  0.40811441488E+03  0.00000000000E+00 0.  1.
<mgrwt>
<rscale>  0 0.20425170E+03</rscale>
<asrwt>0</asrwt>
<pdfrwt beam="2">  1        3 0.75662937E-02 0.20682353E+03</pdfrwt>
<pdfrwt beam="1">  1       -3 0.12754017E+00 0.20682353E+03</pdfrwt>
<totfact> 0.14627801E+02</totfact>
</mgrwt>
</event>
<event>
 6    1  0.9240440E-006  0.1513813E+03  0.7546771E-02  0.1207942E+00
         -1   -1    0    0    0  501 -0.00000000000E+00  0.00000000000E+00  0.64372409490E+03  0.64372409490E+03  0.00000000000E+00 0.  1.
          1   -1    0    0  501    0  0.00000000000E+00 -0.00000000000E+00 -0.29743841271E+02  0.29743841271E+02  0.00000000000E+00 0. -1.
          5    1    1    2  502    0 -0.13130801988E+02 -0.34237274001E+02  0.94695891957E+02  0.10165633697E+03  0.47000000000E+01 0. -1.
         -5    1    1    2    0  502  0.92842505841E+02  0.64721059551E+02  0.21189473213E+03  0.24027070971E+03  0.47000000000E+01 0. -1.
        -11    1    1    2    0    0 -0.63735877342E+02 -0.84577818466E+01  0.29449248248E+03  0.30142929249E+03  0.00000000000E+00 0.  1.
         11    1    1    2    0    0 -0.15975826510E+02 -0.22026003703E+02  0.12897147061E+02  0.30111597004E+02  0.00000000000E+00 0. -1.
<mgrwt>
<rscale>  0 0.14407988E+03</rscale>
<asrwt>0</asrwt>
<pdfrwt beam="2">  1        1 0.45759760E-02 0.15138129E+03</pdfrwt>
<pdfrwt beam="1">  1       -1 0.99034466E-01 0.15138129E+03</pdfrwt>
<totfact> 0.18950090E+03</totfact>
</mgrwt>
</event>
<event>
 6    1  0.9240440E-006  0.1780326E+03  0.7546771E-02  0.1175581E+00
         -1   -1    0    0    0  501 -0.00000000000E+00  0.00000000000E+00  0.27010032374E+02  0.27010032374E+02  0.00000000000E+00 0.  1.
          1   -1    0    0  501    0  0.00000000000E+00 -0.00000000000E+00 -0.12625577607E+04  0.12625577607E+04  0.00000000000E+00 0. -1.
          5    1    1    2  502    0  0.67014791151E+02  0.71646421224E+02 -0.85614262401E+03  0.86175778184E+03  0.47000000000E+01 0. -1.
         -5    1    1    2    0  502  0.40972114593E+02 -0.52282791365E+01 -0.70594838174E+02  0.81925394438E+02  0.47000000000E+01 0. -1.
        -11    1    1    2    0    0 -0.88027153802E+02 -0.20743976339E+02 -0.11799858203E+03  0.14866996241E+03  0.00000000000E+00 0.  1.
         11    1    1    2    0    0 -0.19959751943E+02 -0.45674165749E+02 -0.19081168413E+03  0.19721465442E+03  0.00000000000E+00 0. -1.
<mgrwt>
<rscale>  0 0.17219231E+03</rscale>
<asrwt>0</asrwt>
<pdfrwt beam="2">  1        1 0.19423965E+00 0.17803262E+03</pdfrwt>
<pdfrwt beam="1">  1       -1 0.41553896E-02 0.17803262E+03</pdfrwt>
<totfact> 0.23972758E+03</totfact>
</mgrwt>
</event>
<event>
 6    1  0.9240440E-006  0.1516944E+03  0.7546771E-02  0.1207671E+00
          1   -1    0    0  501    0  0.00000000000E+00  0.00000000000E+00  0.43541899472E+02  0.43541899472E+02  0.00000000000E+00 0. -1.
         -1   -1    0    0    0  501 -0.00000000000E+00 -0.00000000000E+00 -0.45657832524E+03  0.45657832524E+03  0.00000000000E+00 0.  1.
          5    1    1    2  502    0 -0.19938965784E+02 -0.28395650335E+02 -0.18222182937E+02  0.39471676750E+02  0.47000000000E+01 0.  1.
         -5    1    1    2    0  502 -0.44087662008E+01  0.11090062110E+03 -0.15641376304E+03  0.19184822191E+03  0.47000000000E+01 0.  1.
        -11    1    1    2    0    0 -0.22836911642E+01 -0.64662999455E+02 -0.62351443385E+02  0.89856670515E+02  0.00000000000E+00 0. -1.
         11    1    1    2    0    0  0.26631423149E+02 -0.17841971310E+02 -0.17604903641E+03  0.17894365554E+03  0.00000000000E+00 0.  1.
<mgrwt>
<rscale>  0 0.14428910E+03</rscale>
<asrwt>0</asrwt>
<pdfrwt beam="1">  1        1 0.66987536E-02 0.15169437E+03</pdfrwt>
<pdfrwt beam="2">  1       -1 0.70242821E-01 0.15169437E+03</pdfrwt>
<totfact> 0.23015008E+03</totfact>
</mgrwt>
</event>
<event>
 6    1  0.9240440E-006  0.3795576E+03  0.7546771E-02  0.1051097E+00
          3   -1    0    0  501    0  0.00000000000E+00  0.00000000000E+00  0.10812591898E+03  0.10812591898E+03  0.00000000000E+00 0.  1.
         -3   -1    0    0    0  501 -0.00000000000E+00 -0.00000000000E+00 -0.33309309536E+03  0.33309309536E+03  0.00000000000E+00 0. -1.
          5    1    1    2  502    0  0.23165364966E+02 -0.12922426805E+02 -0.31279282999E+02  0.41280828401E+02  0.47000000000E+01 0.  1.
         -5    1    1    2    0  502  0.28168872771E-01  0.15783112392E+03 -0.27740112726E+02  0.16031926998E+03  0.47000000000E+01 0.  1.
        -11    1    1    2    0    0  0.24734981185E+02 -0.56685713810E+02 -0.25323013870E+02  0.66830715063E+02  0.00000000000E+00 0. -1.
         11    1    1    2    0    0 -0.47928515024E+02 -0.88222983309E+02 -0.14062476679E+03  0.17278820090E+03  0.00000000000E+00 0.  1.
<mgrwt>
<rscale>  0 0.37955762E+03</rscale>
<asrwt>0</asrwt>
<pdfrwt beam="1">  1        3 0.16634757E-01 0.37955762E+03</pdfrwt>
<pdfrwt beam="2">  1       -3 0.51245092E-01 0.37955762E+03</pdfrwt>
<totfact> 0.30663031E+02</totfact>
</mgrwt>
</event>
<event>
 6    1  0.9240440E-006  0.1522159E+03  0.7546771E-02  0.1211348E+00
         -1   -1    0    0    0  501 -0.00000000000E+00  0.00000000000E+00  0.38030832138E+02  0.38030832138E+02  0.00000000000E+00 0.  1.
          1   -1    0    0  501    0  0.00000000000E+00 -0.00000000000E+00 -0.55359528444E+03  0.55359528444E+03  0.00000000000E+00 0. -1.
          5    1    1    2  502    0 -0.81455330767E+02 -0.27467275408E+01 -0.32908313322E+03  0.33905798028E+03  0.47000000000E+01 0. -1.
         -5    1    1    2    0  502  0.33916741676E+02 -0.43210984641E+02 -0.77710244944E+02  0.95281198192E+02  0.47000000000E+01 0.  1.
        -11    1    1    2    0    0  0.21200634681E+02  0.31950960987E+02  0.59027733701E+01  0.38796566244E+02  0.00000000000E+00 0.  1.
         11    1    1    2    0    0  0.26337954409E+02  0.14006751195E+02 -0.11467384751E+03  0.11849037186E+03  0.00000000000E+00 0. -1.
<mgrwt>
<rscale>  0 0.14148241E+03</rscale>
<asrwt>0</asrwt>
<pdfrwt beam="2">  1        1 0.85168499E-01 0.15221586E+03</pdfrwt>
<pdfrwt beam="1">  1       -1 0.58508977E-02 0.15221586E+03</pdfrwt>
<totfact> 0.52973186E+03</totfact>
</mgrwt>
</event>
<event>
 6    1  0.9240440E-006  0.1683953E+03  0.7546771E-02  0.1186152E+00
         -2   -1    0    0    0  501 -0.00000000000E+00  0.00000000000E+00  0.33197937540E+02  0.33197937540E+02  0.00000000000E+00 0.  1.
          2   -1    0    0  501    0  0.00000000000E+00 -0.00000000000E+00 -0.85484849366E+03  0.85484849366E+03  0.00000000000E+00 0. -1.
          5    1    1    2  502    0 -0.99090559694E+01  0.38909652579E+02 -0.42150411212E+02  0.58402890505E+02  0.47000000000E+01 0.  1.
         -5    1    1    2    0  502  0.65223783329E+02  0.59422470489E+02 -0.55689344712E+03  0.56385953336E+03  0.47000000000E+01 0.  1.
        -11    1    1    2    0    0 -0.98441688231E+01  0.17708705349E+02 -0.37637415912E+02  0.42744367834E+02  0.00000000000E+00 0.  1.
         11    1    1    2    0    0 -0.45470558536E+02 -0.11604082842E+03 -0.18496928188E+03  0.22303963951E+03  0.00000000000E+00 0. -1.
<mgrwt>
<rscale>  0 0.16227453E+03</rscale>
<asrwt>0</asrwt>
<pdfrwt beam="2">  1        2 0.13151513E+00 0.16839531E+03</pdfrwt>
<pdfrwt beam="1">  1       -2 0.51073759E-02 0.16839531E+03</pdfrwt>
<totfact> 0.60392103E+03</totfact>
</mgrwt>
</event>
<event>
 6    1  0.9240440E-006  0.2631717E+03  0.7546771E-02  0.1133090E+00
          2   -1    0    0  501    0  0.00000000000E+00  0.00000000000E+00  0.10457599532E+04  0.10457599532E+04  0.00000000000E+00 0. -1.
         -2   -1    0    0    0  501 -0.00000000000E+00 -0.00000000000E+00 -0.37149540250E+02  0.37149540250E+02  0.00000000000E+00 0.  1.
          5    1    1    2  502    0 -0.14113051361E+03 -0.35666061798E+02  0.26810337684E+03  0.30510883387E+03  0.47000000000E+01 0. -1.
         -5    1    1    2    0  502  0.65126380742E+02  0.78430408694E+02  0.40378708149E+03  0.41648393926E+03  0.47000000000E+01 0.  1.
        -11    1    1    2    0    0 -0.22078005598E+02 -0.10282979259E+02  0.10191964443E+03  0.10478927385E+03  0.00000000000E+00 0.  1.
         11    1    1    2    0    0  0.98082138463E+02 -0.32481367638E+02  0.23480031023E+03  0.25652744651E+03  0.00000000000E+00 0. -1.
<mgrwt>
<rscale>  0 0.22106700E+03</rscale>
<asrwt>0</asrwt>
<pdfrwt beam="1">  1        2 0.16088612E+00 0.26317170E+03</pdfrwt>
<pdfrwt beam="2">  1       -2 0.57153147E-02 0.26317170E+03</pdfrwt>
<totfact> 0.39172358E+03</totfact>
</mgrwt>
</event>
<event>
 6    1  0.9240440E-006  0.1281994E+03  0.7546771E-02  0.1243439E+00
         -4   -1    0    0    0  501 -0.00000000000E+00  0.00000000000E+00  0.34576743107E+02  0.34576743107E+02  0.00000000000E+00 0.  1.
          4   -1    0    0  501    0  0.00000000000E+00 -0.00000000000E+00 -0.37999400071E+03  0.37999400071E+03  0.00000000000E+00 0. -1.
          5    1    1    2  502    0  0.60909297357E+02  0.40776456795E+02 -0.12347115796E+03  0.14366585809E+03  0.47000000000E+01 0.  1.
         -5    1    1    2    0  502 -0.52543550523E+02 -0.13573771897E+02 -0.10665109786E+03  0.11975649736E+03  0.47000000000E+01 0.  1.
        -11    1    1    2    0    0  0.31323523836E+02 -0.37049829130E+00 -0.61112278884E+01  0.31916257938E+02  0.00000000000E+00 0.  1.
         11    1    1    2    0    0 -0.39689270670E+02 -0.26832186606E+02 -0.10918377390E+03  0.11923213043E+03  0.00000000000E+00 0. -1.
<mgrwt>
<rscale>  0 0.11979298E+03</rscale>
<asrwt>0</asrwt>
<pdfrwt beam="2">  1        4 0.58460614E-01 0.12819939E+03</pdfrwt>
<pdfrwt beam="1">  1       -4 0.53194990E-02 0.12819939E+03</pdfrwt>
<totfact> 0.98861954E+02</totfact>
</mgrwt>
</event>
<event>
 6    1  0.9240440E-006  0.1797422E+03  0.7546771E-02  0.1173648E+00
          2   -1    0    0  501    0  0.00000000000E+00  0.00000000000E+00  0.50437843556E+03  0.50437843556E+03  0.00000000000E+00 0. -1.
         -2   -1    0    0    0  501 -0.00000000000E+00 -0.00000000000E+00 -0.78825910179E+02  0.78825910179E+02  0.00000000000E+00 0.  1.
          5    1    1    2  502    0 -0.26136564394E+02 -0.13527171512E+03  0.28679699058E+03  0.31820773202E+03  0.47000000000E+01 0.  1.
         -5    1    1    2    0  502 -0.35467666929E+02  0.21751767329E+02  0.90340877692E+02  0.99572380515E+02  0.47000000000E+01 0.  1.
        -11    1    1    2    0    0  0.51211789690E+02  0.92565815276E+02  0.75253533333E+02  0.12982361819E+03  0.00000000000E+00 0. -1.
         11    1    1    2    0    0  0.10392441633E+02  0.20954132519E+02 -0.26838876222E+02  0.35600615017E+02  0.00000000000E+00 0.  1.
<mgrwt>
<rscale>  0 0.17409088E+03</rscale>
<asrwt>0</asrwt>
<pdfrwt beam="1">  1        2 0.77596680E-01 0.17974218E+03</pdfrwt>
<pdfrwt beam="2">  1       -2 0.12127063E-01 0.17974218E+03</pdfrwt>
<totfact> 0.29483203E+03</totfact>
</mgrwt>
</event>
<event>
 6    1  0.9240440E-006  0.1443781E+03  0.7546771E-02  0.1217913E+00
         -2   -1    0    0    0  501 -0.00000000000E+00  0.00000000000E+00  0.34624905691E+02  0.34624905691E+02  0.00000000000E+00 0.  1.
          2   -1    0    0  501    0  0.00000000000E+00 -0.00000000000E+00 -0.53063228638E+03  0.53063228638E+03  0.00000000000E+00 0. -1.
          5    1    1    2  502    0 -0.82893770786E+02 -0.67938118858E+02 -0.27755225344E+03  0.29756395719E+03  0.47000000000E+01 0.  1.
         -5    1    1    2    0  502  0.32160712162E+02  0.16490862051E+02 -0.74277253489E+02  0.82737297054E+02  0.47000000000E+01 0.  1.
        -11    1    1    2    0    0  0.50746890364E+01  0.21874924399E+02 -0.12541941708E+03  0.12741387274E+03  0.00000000000E+00 0. -1.
         11    1    1    2    0    0  0.45658369588E+02  0.29572332407E+02 -0.18758456682E+02  0.57542065088E+02  0.00000000000E+00 0.  1.
<mgrwt>
<rscale>  0 0.13664726E+03</rscale>
<asrwt>0</asrwt>
<pdfrwt beam="2">  1        2 0.81635732E-01 0.14437812E+03</pdfrwt>
<pdfrwt beam="1">  1       -2 0.53269088E-02 0.14437812E+03</pdfrwt>
<totfact> 0.98972256E+03</totfact>
</mgrwt>
</event>
<event>
 6    1  0.9240440E-006  0.1204823E+03  0.7546771E-02  0.1253336E+00
          3   -1    0    0  501    0  0.00000000000E+00  0.00000000000E+00  0.70840915558E+02  0.70840915558E+02  0.00000000000E+00 0. -1.
         -3   -1    0    0    0  501 -0.00000000000E+00 -0.00000000000E+00 -0.17851226465E+03  0.17851226465E+03  0.00000000000E+00 0.  1.
          5    1    1    2  502    0  0.52192827349E+02 -0.16848123668E+02 -0.32742417910E+02  0.64047688705E+02  0.47000000000E+01 0. -1.
         -5    1    1    2    0  502 -0.56536457460E+02  0.16595456037E+02  0.58553771625E+01  0.59398279646E+02  0.47000000000E+01 0.  1.
        -11    1    1    2    0    0 -0.34955745781E+02  0.23261947101E+02 -0.65629902638E+02  0.77912171491E+02  0.00000000000E+00 0.  1.
         11    1    1    2    0    0  0.39299375892E+02 -0.23009279470E+02 -0.15154405701E+02  0.47995040362E+02  0.00000000000E+00 0. -1.
<mgrwt>
<rscale>  0 0.11400070E+03</rscale>
<asrwt>0</asrwt>
<pdfrwt beam="1">  1        3 0.10898603E-01 0.12048234E+03</pdfrwt>
<pdfrwt beam="2">  1       -3 0.27463425E-01 0.12048234E+03</pdfrwt>
<totfact> 0.18151336E+03</totfact>
</mgrwt>
</event>
<event>
 6    1  0.9240440E-006  0.1410983E+03  0.7546771E-02  0.1222534E+00
          1   -1    0    0  501    0  0.00000000000E+00  0.00000000000E+00  0.74074591500E+03  0.74074591500E+03  0.00000000000E+00 0. -1.
         -1   -1    0    0    0  501 -0.00000000000E+00 -0.00000000000E+00 -0.22136670459E+02  0.22136670459E+02  0.00000000000E+00 0.  1.
          5    1    1    2  502    0 -0.33275517986E+02 -0.35315140424E+02  0.18362730885E+03  0.18998815172E+03  0.47000000000E+01 0. -1.
         -5    1    1    2    0  502 -0.70207245877E+00  0.91271893532E+02  0.26659098999E+03  0.28182245723E+03  0.47000000000E+01 0. -1.
        -11    1    1    2    0    0 -0.19601901253E+01  0.18208550134E+02  0.12336027367E+02  0.22081014798E+02  0.00000000000E+00 0.  1.
         11    1    1    2    0    0  0.35937780570E+02 -0.74165303242E+02  0.25605491833E+03  0.26899096170E+03  0.00000000000E+00 0. -1.
<mgrwt>
<rscale>  0 0.13337383E+03</rscale>
<asrwt>0</asrwt>
<pdfrwt beam="1">  1        1 0.11396089E+00 0.14109831E+03</pdfrwt>
<pdfrwt beam="2">  1       -1 0.34056422E-02 0.14109831E+03</pdfrwt>
<totfact> 0.78165635E+03</totfact>
</mgrwt>
</event>
<event>
 6    1  0.9240440E-006  0.1552393E+03  0.7546771E-02  0.1202457E+00
         -1   -1    0    0    0  501 -0.00000000000E+00  0.00000000000E+00  0.37698238214E+02  0.37698238214E+02  0.00000000000E+00 0.  1.
          1   -1    0    0  501    0  0.00000000000E+00 -0.00000000000E+00 -0.61977855473E+03  0.61977855473E+03  0.00000000000E+00 0. -1.
          5    1    1    2  502    0  0.76193921366E+02 -0.71212182585E+02 -0.31323783573E+03  0.33017680163E+03  0.47000000000E+01 0.  1.
         -5    1    1    2    0  502  0.12930627555E+02  0.48132898393E+02 -0.11941470632E+03  0.12948335461E+03  0.47000000000E+01 0.  1.
        -11    1    1    2    0    0 -0.15089163658E+02  0.34278221677E+02 -0.10327895634E+03  0.10986001167E+03  0.00000000000E+00 0. -1.
         11    1    1    2    0    0 -0.74035385263E+02 -0.11198937485E+02 -0.46148818119E+02  0.87956625024E+02  0.00000000000E+00 0.  1.
<mgrwt>
<rscale>  0 0.14839656E+03</rscale>
<asrwt>0</asrwt>
<pdfrwt beam="2">  1        1 0.95350548E-01 0.15523929E+03</pdfrwt>
<pdfrwt beam="1">  1       -1 0.57997289E-02 0.15523929E+03</pdfrwt>
<totfact> 0.46079081E+03</totfact>
</mgrwt>
</event>
<event>
 6    1  0.9240440E-006  0.1516806E+03  0.7546771E-02  0.1207053E+00
          1   -1    0    0  501    0  0.00000000000E+00  0.00000000000E+00  0.25111570039E+03  0.25111570039E+03  0.00000000000E+00 0. -1.
         -1   -1    0    0    0  501 -0.00000000000E+00 -0.00000000000E+00 -0.99774274820E+02  0.99774274820E+02  0.00000000000E+00 0.  1.
          5    1    1    2  502    0 -0.15751198449E+02  0.57318471482E+02  0.12456650367E+03  0.13810290099E+03  0.47000000000E+01 0.  1.
         -5    1    1    2    0  502  0.75722977208E+02  0.41965883545E+01  0.40624721861E+02  0.86162861242E+02  0.47000000000E+01 0.  1.
        -11    1    1    2    0    0 -0.37206955605E+02 -0.39700756967E+02  0.37701099305E+02  0.66195774321E+02  0.00000000000E+00 0. -1.
         11    1    1    2    0    0 -0.22764823154E+02 -0.21814302870E+02 -0.51550899267E+02  0.60428438654E+02  0.00000000000E+00 0.  1.
<mgrwt>
<rscale>  0 0.14476823E+03</rscale>
<asrwt>0</asrwt>
<pdfrwt beam="1">  1        1 0.38633185E-01 0.15168056E+03</pdfrwt>
<pdfrwt beam="2">  1       -1 0.15349888E-01 0.15168056E+03</pdfrwt>
<totfact> 0.33041604E+03</totfact>
</mgrwt>
</event>
<event>
 6    1  0.9240440E-006  0.1270281E+03  0.7546771E-02  0.1249497E+00
         -2   -1    0    0    0  501 -0.00000000000E+00  0.00000000000E+00  0.17296187824E+02  0.17296187824E+02  0.00000000000E+00 0.  1.
          2   -1    0    0  501    0  0.00000000000E+00 -0.00000000000E+00 -0.68475606824E+03  0.68475606824E+03  0.00000000000E+00 0. -1.
          5    1    1    2  502    0 -0.24735041528E+02 -0.13369865159E+02 -0.19108450171E+02  0.34319068194E+02  0.47000000000E+01 0.  1.
         -5    1    1    2    0  502  0.38543621302E+02  0.31231485930E+02 -0.41536548900E+03  0.41834387279E+03  0.47000000000E+01 0.  1.
        -11    1    1    2    0    0 -0.40011975300E+02 -0.35839031731E+02 -0.11073356779E+03  0.12307443844E+03  0.00000000000E+00 0. -1.
         11    1    1    2    0    0  0.26203395526E+02  0.17977410960E+02 -0.12225237346E+03  0.12631487664E+03  0.00000000000E+00 0.  1.
<mgrwt>
<rscale>  0 0.11620226E+03</rscale>
<asrwt>0</asrwt>
<pdfrwt beam="2">  1        2 0.10534706E+00 0.12702808E+03</pdfrwt>
<pdfrwt beam="1">  1       -2 0.26609526E-02 0.12702808E+03</pdfrwt>
<totfact> 0.20516903E+04</totfact>
</mgrwt>
</event>
<event>
 6    1  0.9240440E-006  0.2941548E+03  0.7546771E-02  0.1088200E+00
          2   -1    0    0  501    0  0.00000000000E+00  0.00000000000E+00  0.81890543012E+03  0.81890543012E+03  0.00000000000E+00 0. -1.
         -2   -1    0    0    0  501 -0.00000000000E+00 -0.00000000000E+00 -0.26415459011E+02  0.26415459011E+02  0.00000000000E+00 0.  1.
          5    1    1    2  502    0  0.96622346292E+02  0.12249162344E+02  0.32647675699E+03  0.34072728484E+03  0.47000000000E+01 0. -1.
         -5    1    1    2    0  502 -0.29177121188E+02 -0.16139505151E+02  0.28811002455E+03  0.29007113658E+03  0.47000000000E+01 0. -1.
        -11    1    1    2    0    0 -0.50062859734E+02 -0.37603186758E+02  0.53919612789E+02  0.82629378688E+02  0.00000000000E+00 0.  1.
         11    1    1    2    0    0 -0.17382365370E+02  0.41493529566E+02  0.12398357678E+03  0.13189308902E+03  0.00000000000E+00 0. -1.
<mgrwt>
<rscale>  0 0.29415481E+03</rscale>
<asrwt>0</asrwt>
<pdfrwt beam="1">  1        2 0.12598543E+00 0.29415481E+03</pdfrwt>
<pdfrwt beam="2">  1       -2 0.40639174E-02 0.29415481E+03</pdfrwt>
<totfact> 0.92329208E+03</totfact>
</mgrwt>
</event>
<event>
 6    1  0.9240440E-006  0.1309312E+03  0.7546771E-02  0.1239476E+00
          2   -1    0    0  501    0  0.00000000000E+00  0.00000000000E+00  0.27499229011E+03  0.27499229011E+03  0.00000000000E+00 0. -1.
         -2   -1    0    0    0  501 -0.00000000000E+00 -0.00000000000E+00 -0.53463973899E+02  0.53463973899E+02  0.00000000000E+00 0.  1.
          5    1    1    2  502    0  0.76276839982E+02  0.10518556308E+02  0.12995767027E+03  0.15112869485E+03  0.47000000000E+01 0. -1.
         -5    1    1    2    0  502 -0.41450942119E+02 -0.27996921950E+02  0.45383901637E+02  0.67703742652E+02  0.47000000000E+01 0. -1.
        -11    1    1    2    0    0  0.80937168661E+01  0.12939719954E+02  0.61853979823E+02  0.63709178500E+02  0.00000000000E+00 0. -1.
         11    1    1    2    0    0 -0.42919614729E+02  0.45386456872E+01 -0.15667235518E+02  0.45914648011E+02  0.00000000000E+00 0.  1.
<mgrwt>
<rscale>  0 0.12222211E+03</rscale>
<asrwt>0</asrwt>
<pdfrwt beam="1">  1        2 0.42306506E-01 0.13093116E+03</pdfrwt>
<pdfrwt beam="2">  1       -2 0.82252269E-02 0.13093116E+03</pdfrwt>
<totfact> 0.10252571E+04</totfact>
</mgrwt>
</event>
<event>
 6    1  0.9240440E-006  0.1362630E+03  0.7546771E-02  0.1230143E+00
         -2   -1    0    0    0  501 -0.00000000000E+00  0.00000000000E+00  0.17197993209E+02  0.17197993209E+02  0.00000000000E+00 0.  1.
          2   -1    0    0  501    0  0.00000000000E+00 -0.00000000000E+00 -0.85890122423E+03  0.85890122423E+03  0.00000000000E+00 0. -1.
          5    1    1    2  502    0  0.25602096219E+02 -0.34384597502E+02 -0.13899665705E+03  0.14553325581E+03  0.47000000000E+01 0. -1.
         -5    1    1    2    0  502 -0.27660335439E+02  0.88583498955E+02 -0.33978512925E+03  0.35226148597E+03  0.47000000000E+01 0. -1.
        -11    1    1    2    0    0 -0.35653518504E+02 -0.58811658075E+02 -0.23668180911E+03  0.24647162772E+03  0.00000000000E+00 0. -1.
         11    1    1    2    0    0  0.37711757724E+02  0.46127566226E+01 -0.12623963561E+03  0.13183284793E+03  0.00000000000E+00 0.  1.
<mgrwt>
<rscale>  0 0.12820576E+03</rscale>
<asrwt>0</asrwt>
<pdfrwt beam="2">  1        2 0.13213867E+00 0.13626300E+03</pdfrwt>
<pdfrwt beam="1">  1       -2 0.26458447E-02 0.13626300E+03</pdfrwt>
<totfact> 0.15761517E+04</totfact>
</mgrwt>
</event>
<event>
 6    1  0.9240440E-006  0.2777674E+03  0.7546771E-02  0.1096915E+00
          1   -1    0    0  501    0  0.00000000000E+00  0.00000000000E+00  0.76672483345E+03  0.76672483345E+03  0.00000000000E+00 0. -1.
         -1   -1    0    0    0  501 -0.00000000000E+00 -0.00000000000E+00 -0.25157242016E+02  0.25157242016E+02  0.00000000000E+00 0.  1.
          5    1    1    2  502    0 -0.74262388697E+01  0.49570866026E+01  0.29893998579E+03  0.29911022523E+03  0.47000000000E+01 0. -1.
         -5    1    1    2    0  502 -0.42898254058E+02 -0.63690751382E+02  0.82328016573E+02  0.11267991980E+03  0.47000000000E+01 0.  1.
        -11    1    1    2    0    0 -0.11915627071E+02  0.52450735439E+02  0.11524679163E+03  0.12718052051E+03  0.00000000000E+00 0.  1.
         11    1    1    2    0    0  0.62240119999E+02  0.62829293403E+01  0.24505279744E+03  0.25291140993E+03  0.00000000000E+00 0. -1.
<mgrwt>
<rscale>  0 0.27776740E+03</rscale>
<asrwt>0</asrwt>
<pdfrwt beam="1">  1        1 0.11795765E+00 0.27776740E+03</pdfrwt>
<pdfrwt beam="2">  1       -1 0.38703455E-02 0.27776740E+03</pdfrwt>
<totfact> 0.63427089E+03</totfact>
</mgrwt>
</event>
<event>
 6    1  0.9240440E-006  0.1373458E+03  0.7546771E-02  0.1228648E+00
         -2   -1    0    0    0  501 -0.00000000000E+00  0.00000000000E+00  0.37128851589E+02  0.37128851589E+02  0.00000000000E+00 0.  1.
          2   -1    0    0  501    0  0.00000000000E+00 -0.00000000000E+00 -0.46189911018E+03  0.46189911018E+03  0.00000000000E+00 0. -1.
          5    1    1    2  502    0  0.70964890042E+02 -0.47094740417E+02 -0.18341849080E+03  0.20228287856E+03  0.47000000000E+01 0.  1.
         -5    1    1    2    0  502 -0.50712127937E+02 -0.60968752673E+01 -0.13946486033E+03  0.14859821357E+03  0.47000000000E+01 0.  1.
        -11    1    1    2    0    0 -0.58931256596E+01  0.69944791818E+02 -0.10454397276E+03  0.12592237717E+03  0.00000000000E+00 0. -1.
         11    1    1    2    0    0 -0.14359636445E+02 -0.16753176133E+02  0.26570652975E+01  0.22224492466E+02  0.00000000000E+00 0.  1.
<mgrwt>
<rscale>  0 0.12919989E+03</rscale>
<asrwt>0</asrwt>
<pdfrwt beam="2">  1        2 0.71061407E-01 0.13734585E+03</pdfrwt>
<pdfrwt beam="1">  1       -2 0.57121305E-02 0.13734585E+03</pdfrwt>
<totfact> 0.10337275E+04</totfact>
</mgrwt>
</event>
<event>
 6    1  0.9240440E-006  0.1331854E+03  0.7546771E-02  0.1245985E+00
          1   -1    0    0  501    0  0.00000000000E+00  0.00000000000E+00  0.69806546591E+02  0.69806546591E+02  0.00000000000E+00 0. -1.
         -1   -1    0    0    0  501 -0.00000000000E+00 -0.00000000000E+00 -0.21376801820E+03  0.21376801820E+03  0.00000000000E+00 0.  1.
          5    1    1    2  502    0  0.10817221781E+02 -0.55848024446E+02 -0.64013115655E+02  0.85765862075E+02  0.47000000000E+01 0. -1.
         -5    1    1    2    0  502  0.13379690510E+02  0.16771473271E+02  0.43748684184E+02  0.48952383003E+02  0.47000000000E+01 0. -1.
        -11    1    1    2    0    0 -0.11802345387E+02  0.20249159073E+02 -0.32286533894E+00  0.23439881438E+02  0.00000000000E+00 0. -1.
         11    1    1    2    0    0 -0.12394566904E+02  0.18827392102E+02 -0.12337417480E+03  0.12541643828E+03  0.00000000000E+00 0.  1.
<mgrwt>
<rscale>  0 0.11826637E+03</rscale>
<asrwt>0</asrwt>
<pdfrwt beam="1">  1        1 0.10739469E-01 0.13318543E+03</pdfrwt>
<pdfrwt beam="2">  1       -1 0.32887387E-01 0.13318543E+03</pdfrwt>
<totfact> 0.48426034E+03</totfact>
</mgrwt>
</event>
<event>
 6    1  0.9240440E-006  0.1862670E+03  0.7546771E-02  0.1171437E+00
          2   -1    0    0  501    0  0.00000000000E+00  0.00000000000E+00  0.53121211887E+03  0.53121211887E+03  0.00000000000E+00 0. -1.
         -2   -1    0    0    0  501 -0.00000000000E+00 -0.00000000000E+00 -0.55888164660E+02  0.55888164660E+02  0.00000000000E+00 0.  1.
          5    1    1    2  502    0  0.11785921695E+03 -0.66326059240E+02  0.18115528389E+03  0.22611781892E+03  0.47000000000E+01 0.  1.
         -5    1    1    2    0  502  0.15742277064E+02  0.31413464210E+02  0.14702417811E+03  0.15123764072E+03  0.47000000000E+01 0.  1.
        -11    1    1    2    0    0 -0.55472556729E+02 -0.14095778233E+02  0.55347846567E+02  0.79619593277E+02  0.00000000000E+00 0. -1.
         11    1    1    2    0    0 -0.78128937282E+02  0.49008373263E+02  0.91796645647E+02  0.13012523062E+03  0.00000000000E+00 0.  1.
<mgrwt>
<rscale>  0 0.17629527E+03</rscale>
<asrwt>0</asrwt>
<pdfrwt beam="1">  1        2 0.81724938E-01 0.18626697E+03</pdfrwt>
<pdfrwt beam="2">  1       -2 0.85981795E-02 0.18626697E+03</pdfrwt>
<totfact> 0.48067090E+03</totfact>
</mgrwt>
</event>
<event>
 6    1  0.9240440E-006  0.2922952E+03  0.7546771E-02  0.1089157E+00
          1   -1    0    0  501    0  0.00000000000E+00  0.00000000000E+00  0.35280717009E+03  0.35280717009E+03  0.00000000000E+00 0. -1.
         -1   -1    0    0    0  501 -0.00000000000E+00 -0.00000000000E+00 -0.60540483421E+02  0.60540483421E+02  0.00000000000E+00 0.  1.
          5    1    1    2  502    0  0.29571267578E+02 -0.65055752782E+02  0.18314444126E+03  0.19664863895E+03  0.47000000000E+01 0.  1.
         -5    1    1    2    0  502 -0.62935802719E+01  0.35041009527E+02  0.11386368848E+02  0.37672548319E+02  0.47000000000E+01 0.  1.
        -11    1    1    2    0    0 -0.73042258104E+02  0.53048278535E+01  0.82545057038E+01  0.73698368584E+02  0.00000000000E+00 0.  1.
         11    1    1    2    0    0  0.49764570799E+02  0.24709915402E+02  0.89481370855E+02  0.10532809766E+03  0.00000000000E+00 0. -1.
<mgrwt>
<rscale>  0 0.29229517E+03</rscale>
<asrwt>0</asrwt>
<pdfrwt beam="1">  1        1 0.54278025E-01 0.29229517E+03</pdfrwt>
<pdfrwt beam="2">  1       -1 0.93139207E-02 0.29229517E+03</pdfrwt>
<totfact> 0.48338142E+03</totfact>
</mgrwt>
</event>
<event>
 6    1  0.9240440E-006  0.1584761E+03  0.7546771E-02  0.1197161E+00
          3   -1    0    0  501    0  0.00000000000E+00  0.00000000000E+00  0.11139172372E+03  0.11139172372E+03  0.00000000000E+00 0. -1.
         -3   -1    0    0    0  501 -0.00000000000E+00 -0.00000000000E+00 -0.21065405842E+03  0.21065405842E+03  0.00000000000E+00 0.  1.
          5    1    1    2  502    0  0.10451117889E+02 -0.46461351320E+02 -0.35235486288E+02  0.59426530485E+02  0.47000000000E+01 0. -1.
         -5    1    1    2    0  502  0.86809808486E+02  0.40985830082E+02  0.25214263049E+02  0.99366142010E+02  0.47000000000E+01 0. -1.
        -11    1    1    2    0    0 -0.38773164314E+02  0.89450885646E+01  0.15930792586E+02  0.42862139853E+02  0.00000000000E+00 0. -1.
         11    1    1    2    0    0 -0.58487762061E+02 -0.34695673267E+01 -0.10517190404E+03  0.12039096979E+03  0.00000000000E+00 0.  1.
<mgrwt>
<rscale>  0 0.15272746E+03</rscale>
<asrwt>0</asrwt>
<pdfrwt beam="1">  1        3 0.17137189E-01 0.15847614E+03</pdfrwt>
<pdfrwt beam="2">  1       -3 0.32408316E-01 0.15847614E+03</pdfrwt>
<totfact> 0.64767605E+02</totfact>
</mgrwt>
</event>
<event>
 6    1  0.9240440E-006  0.1861639E+03  0.7546771E-02  0.1166570E+00
          1   -1    0    0  501    0  0.00000000000E+00  0.00000000000E+00  0.21254300402E+03  0.21254300402E+03  0.00000000000E+00 0. -1.
         -1   -1    0    0    0  501 -0.00000000000E+00 -0.00000000000E+00 -0.15096416511E+03  0.15096416511E+03  0.00000000000E+00 0.  1.
          5    1    1    2  502    0 -0.10318658650E+03  0.94569509794E+01 -0.76171675873E+01  0.10400488833E+03  0.47000000000E+01 0.  1.
         -5    1    1    2    0  502 -0.64725935986E+00  0.81348834684E+02  0.10681718500E+02  0.82184189229E+02  0.47000000000E+01 0.  1.
        -11    1    1    2    0    0  0.16018678762E+01 -0.33416456152E+02 -0.17338469703E+02  0.37680871196E+02  0.00000000000E+00 0.  1.
         11    1    1    2    0    0  0.10223197798E+03 -0.57389329511E+02  0.75852757694E+02  0.13963722037E+03  0.00000000000E+00 0. -1.
<mgrwt>
<rscale>  0 0.18128036E+03</rscale>
<asrwt>0</asrwt>
<pdfrwt beam="1">  1        1 0.32698924E-01 0.18616386E+03</pdfrwt>
<pdfrwt beam="2">  1       -1 0.23225256E-01 0.18616386E+03</pdfrwt>
<totfact> 0.21079355E+03</totfact>
</mgrwt>
</event>
<event>
 6    1  0.9240440E-006  0.1310838E+03  0.7546771E-02  0.1239181E+00
          2   -1    0    0  501    0  0.00000000000E+00  0.00000000000E+00  0.26004771872E+03  0.26004771872E+03  0.00000000000E+00 0. -1.
         -2   -1    0    0    0  501 -0.00000000000E+00 -0.00000000000E+00 -0.56048891093E+02  0.56048891093E+02  0.00000000000E+00 0.  1.
          5    1    1    2  502    0  0.45877549050E+02  0.34477844749E+02  0.23495585349E+02  0.62190062038E+02  0.47000000000E+01 0.  1.
         -5    1    1    2    0  502 -0.86811401400E+01 -0.46389668045E+02  0.13733212845E+03  0.14529131771E+03  0.47000000000E+01 0.  1.
        -11    1    1    2    0    0 -0.15969210823E+01 -0.37908057062E+02  0.21814610191E+02  0.43765833306E+02  0.00000000000E+00 0.  1.
         11    1    1    2    0    0 -0.35599487828E+02  0.49819880358E+02  0.21356503628E+02  0.64849396756E+02  0.00000000000E+00 0. -1.
<mgrwt>
<rscale>  0 0.12240517E+03</rscale>
<asrwt>0</asrwt>
<pdfrwt beam="1">  1        2 0.40007341E-01 0.13108383E+03</pdfrwt>
<pdfrwt beam="2">  1       -2 0.86229065E-02 0.13108383E+03</pdfrwt>
<totfact> 0.10112131E+04</totfact>
</mgrwt>
</event>
<event>
 6    1  0.9240440E-006  0.1381866E+03  0.7546771E-02  0.1225345E+00
         -1   -1    0    0    0  501 -0.00000000000E+00  0.00000000000E+00  0.51383506546E+02  0.51383506546E+02  0.00000000000E+00 0.  1.
          1   -1    0    0  501    0  0.00000000000E+00 -0.00000000000E+00 -0.55191808891E+03  0.55191808891E+03  0.00000000000E+00 0. -1.
          5    1    1    2  502    0  0.12686500945E+02  0.89390637507E+02 -0.27181614039E+03  0.28645721767E+03  0.47000000000E+01 0. -1.
         -5    1    1    2    0  502 -0.31503758665E+02 -0.33564839260E+02 -0.19267188728E+03  0.19815052710E+03  0.47000000000E+01 0. -1.
        -11    1    1    2    0    0 -0.28115987636E+02  0.23051728555E+00  0.12669991223E+02  0.30839756429E+02  0.00000000000E+00 0.  1.
         11    1    1    2    0    0  0.46933245356E+02 -0.56056315532E+02 -0.48716545927E+02  0.87854094257E+02  0.00000000000E+00 0. -1.
<mgrwt>
<rscale>  0 0.13143273E+03</rscale>
<asrwt>0</asrwt>
<pdfrwt beam="2">  1        1 0.84910473E-01 0.13818661E+03</pdfrwt>
<pdfrwt beam="1">  1       -1 0.79051551E-02 0.13818661E+03</pdfrwt>
<totfact> 0.33720091E+03</totfact>
</mgrwt>
</event>
<event>
 6    1  0.9240440E-006  0.1321899E+03  0.7546771E-02  0.1235267E+00
          2   -1    0    0  501    0  0.00000000000E+00  0.00000000000E+00  0.15095778254E+03  0.15095778254E+03  0.00000000000E+00 0. -1.
         -2   -1    0    0    0  501 -0.00000000000E+00 -0.00000000000E+00 -0.11754976677E+03  0.11754976677E+03  0.00000000000E+00 0.  1.
          5    1    1    2  502    0 -0.47868193500E+02 -0.26236395859E+01  0.57775872655E+02  0.75222263292E+02  0.47000000000E+01 0. -1.
         -5    1    1    2    0  502  0.66477926820E+02 -0.36125075422E+02  0.20999894011E+02  0.78660163851E+02  0.47000000000E+01 0. -1.
        -11    1    1    2    0    0 -0.33873896755E+02  0.63477733966E+01  0.20175089290E+02  0.39934563180E+02  0.00000000000E+00 0. -1.
         11    1    1    2    0    0  0.15264163435E+02  0.32400941612E+02 -0.65542840185E+02  0.74690558990E+02  0.00000000000E+00 0.  1.
<mgrwt>
<rscale>  0 0.12487331E+03</rscale>
<asrwt>0</asrwt>
<pdfrwt beam="1">  1        2 0.23224274E-01 0.13218994E+03</pdfrwt>
<pdfrwt beam="2">  1       -2 0.18084579E-01 0.13218994E+03</pdfrwt>
<totfact> 0.55558462E+03</totfact>
</mgrwt>
</event>
<event>
 6    1  0.9240440E-006  0.1263452E+03  0.7546771E-02  0.1246840E+00
          1   -1    0    0  501    0  0.00000000000E+00  0.00000000000E+00  0.86724206923E+03  0.86724206923E+03  0.00000000000E+00 0. -1.
         -1   -1    0    0    0  501 -0.00000000000E+00 -0.00000000000E+00 -0.19114417553E+02  0.19114417553E+02  0.00000000000E+00 0.  1.
          5    1    1    2  502    0  0.66839334730E+02  0.99747900714E+01  0.43497389313E+03  0.44021741312E+03  0.47000000000E+01 0.  1.
         -5    1    1    2    0  502 -0.56336928865E+02  0.51802433963E+01  0.25685296235E+03  0.26305174157E+03  0.47000000000E+01 0.  1.
        -11    1    1    2    0    0 -0.43639984704E+02 -0.13073794703E+02  0.35352322394E+02  0.57664192282E+02  0.00000000000E+00 0.  1.
         11    1    1    2    0    0  0.33137578839E+02 -0.20812387649E+01  0.12094847380E+03  0.12542313982E+03  0.00000000000E+00 0. -1.
<mgrwt>
<rscale>  0 0.11775942E+03</rscale>
<asrwt>0</asrwt>
<pdfrwt beam="1">  1        1 0.13342183E+00 0.12634519E+03</pdfrwt>
<pdfrwt beam="2">  1       -1 0.29406803E-02 0.12634519E+03</pdfrwt>
<totfact> 0.75859754E+03</totfact>
</mgrwt>
</event>
<event>
 6    1  0.9240440E-006  0.1564378E+03  0.7546771E-02  0.1200816E+00
         -2   -1    0    0    0  501 -0.00000000000E+00  0.00000000000E+00  0.19319382262E+03  0.19319382262E+03  0.00000000000E+00 0.  1.
          2   -1    0    0  501    0  0.00000000000E+00 -0.00000000000E+00 -0.10936075436E+03  0.10936075436E+03  0.00000000000E+00 0. -1.
          5    1    1    2  502    0 -0.61942093090E+02 -0.12482316020E+02  0.50958259949E+02  0.81310917881E+02  0.47000000000E+01 0. -1.
         -5    1    1    2    0  502  0.16569481761E+02 -0.69910414952E+02 -0.27107698827E+02  0.76934590272E+02  0.47000000000E+01 0. -1.
        -11    1    1    2    0    0  0.90028893172E+01  0.88390740998E+02  0.60419834647E+02  0.10744548166E+03  0.00000000000E+00 0.  1.
         11    1    1    2    0    0  0.36369722012E+02 -0.59980100264E+01 -0.43732750393E+00  0.36863587167E+02  0.00000000000E+00 0. -1.
<mgrwt>
<rscale>  0 0.14972116E+03</rscale>
<asrwt>0</asrwt>
<pdfrwt beam="2">  1        2 0.16824731E-01 0.15643782E+03</pdfrwt>
<pdfrwt beam="1">  1       -2 0.29722127E-01 0.15643782E+03</pdfrwt>
<totfact> 0.34230809E+03</totfact>
</mgrwt>
</event>
<event>
 6    1  0.9240440E-006  0.2864789E+03  0.7546771E-02  0.1093836E+00
          2   -1    0    0  501    0  0.00000000000E+00  0.00000000000E+00  0.12060723360E+04  0.12060723360E+04  0.00000000000E+00 0. -1.
         -2   -1    0    0    0  501 -0.00000000000E+00 -0.00000000000E+00 -0.73802802042E+02  0.73802802042E+02  0.00000000000E+00 0.  1.
          5    1    1    2  502    0  0.51095523475E+02  0.14147163307E+03  0.29229524103E+03  0.32876066281E+03  0.47000000000E+01 0.  1.
         -5    1    1    2    0  502  0.92291818703E+02  0.72737041938E+02  0.50280128210E+03  0.51637164557E+03  0.47000000000E+01 0.  1.
        -11    1    1    2    0    0 -0.96551876039E+02 -0.80836119424E+02  0.11011409364E+03  0.16727778271E+03  0.00000000000E+00 0.  1.
         11    1    1    2    0    0 -0.46835466139E+02 -0.13337255558E+03  0.22705891723E+03  0.26746504699E+03  0.00000000000E+00 0. -1.
<mgrwt>
<rscale>  0 0.28341975E+03</rscale>
<asrwt>0</asrwt>
<pdfrwt beam="1">  1        2 0.18554957E+00 0.28647886E+03</pdfrwt>
<pdfrwt beam="2">  1       -2 0.11354278E-01 0.28647886E+03</pdfrwt>
<totfact> 0.10729887E+03</totfact>
</mgrwt>
</event>
<event>
 6    1  0.9240440E-006  0.3593819E+03  0.7546771E-02  0.1058829E+00
          2   -1    0    0  501    0  0.00000000000E+00  0.00000000000E+00  0.12100952358E+03  0.12100952358E+03  0.00000000000E+00 0. -1.
         -2   -1    0    0    0  501 -0.00000000000E+00 -0.00000000000E+00 -0.26682896038E+03  0.26682896038E+03  0.00000000000E+00 0.  1.
          5    1    1    2  502    0 -0.40902830252E+02  0.13183213997E+03 -0.47774861079E+02  0.14614130834E+03  0.47000000000E+01 0. -1.
         -5    1    1    2    0  502  0.67468734255E+01 -0.57898350435E+01  0.33705461525E+02  0.35173720694E+02  0.47000000000E+01 0. -1.
        -11    1    1    2    0    0  0.44741756926E+02 -0.11214174570E+03 -0.14190162763E+03  0.18631604297E+03  0.00000000000E+00 0.  1.
         11    1    1    2    0    0 -0.10585800099E+02 -0.13900559233E+02  0.10151590382E+02  0.20207411957E+02  0.00000000000E+00 0. -1.
<mgrwt>
<rscale>  0 0.35938194E+03</rscale>
<asrwt>0</asrwt>
<pdfrwt beam="1">  1        2 0.18616850E-01 0.35938194E+03</pdfrwt>
<pdfrwt beam="2">  1       -2 0.41050609E-01 0.35938194E+03</pdfrwt>
<totfact> 0.17198766E+03</totfact>
</mgrwt>
</event>
<event>
 6    1  0.9240440E-006  0.1290002E+03  0.7546771E-02  0.1246656E+00
          2   -1    0    0  501    0  0.00000000000E+00  0.00000000000E+00  0.53664035311E+02  0.53664035311E+02  0.00000000000E+00 0. -1.
         -2   -1    0    0    0  501 -0.00000000000E+00 -0.00000000000E+00 -0.22419568491E+03  0.22419568491E+03  0.00000000000E+00 0.  1.
          5    1    1    2  502    0 -0.23070912445E+02 -0.39319079425E+02 -0.14824695832E+02  0.48167609598E+02  0.47000000000E+01 0.  1.
         -5    1    1    2    0  502  0.24738356777E+02  0.71131483026E+02 -0.94478460561E+02  0.12091295912E+03  0.47000000000E+01 0.  1.
        -11    1    1    2    0    0 -0.33544440352E+02 -0.42860685916E+02 -0.47905008859E+02  0.72506260071E+02  0.00000000000E+00 0.  1.
         11    1    1    2    0    0  0.31876996020E+02  0.11048282315E+02 -0.13323484342E+02  0.36272891426E+02  0.00000000000E+00 0. -1.
<mgrwt>
<rscale>  0 0.11786802E+03</rscale>
<asrwt>0</asrwt>
<pdfrwt beam="1">  1        2 0.82560056E-02 0.12900023E+03</pdfrwt>
<pdfrwt beam="2">  1       -2 0.34491643E-01 0.12900023E+03</pdfrwt>
<totfact> 0.60815045E+03</totfact>
</mgrwt>
</event>
<event>
 6    1  0.9240440E-006  0.4006960E+03  0.7546771E-02  0.1084318E+00
          2   -1    0    0  501    0  0.00000000000E+00  0.00000000000E+00  0.11148676367E+04  0.11148676367E+04  0.00000000000E+00 0. -1.
         -2   -1    0    0    0  501 -0.00000000000E+00 -0.00000000000E+00 -0.65926844081E+02  0.65926844081E+02  0.00000000000E+00 0.  1.
          5    1    1    2  502    0  0.11349071978E+03  0.76244836142E+02  0.13968040641E+03  0.19551502359E+03  0.47000000000E+01 0. -1.
         -5    1    1    2    0  502 -0.20113971159E+03 -0.75829357705E+02  0.75048700917E+03  0.78067926577E+03  0.47000000000E+01 0.  1.
        -11    1    1    2    0    0 -0.90441587891E+01 -0.24847852270E+02  0.52957406724E+02  0.59192056034E+02  0.00000000000E+00 0.  1.
         11    1    1    2    0    0  0.96693150604E+02  0.24432373833E+02  0.10581597034E+03  0.14540813541E+03  0.00000000000E+00 0. -1.
<mgrwt>
<rscale>  0 0.30185290E+03</rscale>
<asrwt>0</asrwt>
<pdfrwt beam="1">  1        2 0.17151808E+00 0.40069597E+03</pdfrwt>
<pdfrwt beam="2">  1       -2 0.10142592E-01 0.40069597E+03</pdfrwt>
<totfact> 0.14492566E+03</totfact>
</mgrwt>
</event>
<event>
 6    1  0.9240440E-006  0.2409987E+03  0.7546771E-02  0.1119129E+00
          2   -1    0    0  501    0  0.00000000000E+00  0.00000000000E+00  0.38423873919E+03  0.38423873919E+03  0.00000000000E+00 0. -1.
         -2   -1    0    0    0  501 -0.00000000000E+00 -0.00000000000E+00 -0.37789233332E+02  0.37789233332E+02  0.00000000000E+00 0.  1.
          5    1    1    2  502    0 -0.50889700054E+02 -0.49143549087E+02  0.17825444338E+03  0.19183739618E+03  0.47000000000E+01 0.  1.
         -5    1    1    2    0  502  0.22941404599E+02  0.56804340918E+01 -0.81953804604E+01  0.25452497664E+02  0.47000000000E+01 0.  1.
        -11    1    1    2    0    0  0.41350798140E+02  0.62885531487E+01  0.26014011354E+02  0.49256098041E+02  0.00000000000E+00 0.  1.
         11    1    1    2    0    0 -0.13402502685E+02  0.37174561847E+02  0.15037643158E+03  0.15548198063E+03  0.00000000000E+00 0. -1.
<mgrwt>
<rscale>  0 0.24099865E+03</rscale>
<asrwt>0</asrwt>
<pdfrwt beam="1">  1        2 0.59113650E-01 0.24099865E+03</pdfrwt>
<pdfrwt beam="2">  1       -2 0.58137285E-02 0.24099865E+03</pdfrwt>
<totfact> 0.12762334E+04</totfact>
</mgrwt>
</event>
<event>
 6    1  0.9240440E-006  0.1528347E+03  0.7546771E-02  0.1205492E+00
          1   -1    0    0  501    0  0.00000000000E+00  0.00000000000E+00  0.12994293588E+03  0.12994293588E+03  0.00000000000E+00 0. -1.
         -1   -1    0    0    0  501 -0.00000000000E+00 -0.00000000000E+00 -0.17353187437E+03  0.17353187437E+03  0.00000000000E+00 0.  1.
          5    1    1    2  502    0 -0.10887729436E+02 -0.84747920474E+02  0.44562959810E+02  0.96481604796E+02  0.47000000000E+01 0.  1.
         -5    1    1    2    0  502 -0.52568352762E+02  0.23871747010E+02 -0.13499554487E+02  0.59477894959E+02  0.47000000000E+01 0.  1.
        -11    1    1    2    0    0  0.71841959377E+02  0.67813873194E+01 -0.47674754416E+02  0.86487782662E+02  0.00000000000E+00 0. -1.
         11    1    1    2    0    0 -0.83858771788E+01  0.54094786144E+02 -0.26977589400E+02  0.61027527836E+02  0.00000000000E+00 0.  1.
<mgrwt>
<rscale>  0 0.14598722E+03</rscale>
<asrwt>0</asrwt>
<pdfrwt beam="1">  1        1 0.19991221E-01 0.15283465E+03</pdfrwt>
<pdfrwt beam="2">  1       -1 0.26697211E-01 0.15283465E+03</pdfrwt>
<totfact> 0.30920959E+03</totfact>
</mgrwt>
</event>
<event>
 6    1  0.9240440E-006  0.1983430E+03  0.7546771E-02  0.1155253E+00
         -1   -1    0    0    0  501 -0.00000000000E+00  0.00000000000E+00  0.63867142753E+02  0.63867142753E+02  0.00000000000E+00 0.  1.
          1   -1    0    0  501    0  0.00000000000E+00 -0.00000000000E+00 -0.57791926773E+03  0.57791926773E+03  0.00000000000E+00 0. -1.
          5    1    1    2  502    0  0.32682818012E+02  0.10113905987E+02 -0.63348777329E+02  0.72149949942E+02  0.47000000000E+01 0. -1.
         -5    1    1    2    0  502 -0.10344884580E+03  0.12666360988E+03 -0.26146960507E+03  0.30843764060E+03  0.47000000000E+01 0. -1.
        -11    1    1    2    0    0  0.73276884109E+02 -0.10922791388E+03 -0.19270923722E+03  0.23331757119E+03  0.00000000000E+00 0. -1.
         11    1    1    2    0    0 -0.25108563239E+01 -0.27549601979E+02  0.34754946461E+01  0.27881248748E+02  0.00000000000E+00 0.  1.
<mgrwt>
<rscale>  0 0.19360053E+03</rscale>
<asrwt>0</asrwt>
<pdfrwt beam="2">  1        1 0.88910659E-01 0.19834297E+03</pdfrwt>
<pdfrwt beam="1">  1       -1 0.98257140E-02 0.19834297E+03</pdfrwt>
<totfact> 0.23013736E+03</totfact>
</mgrwt>
</event>
<event>
 6    1  0.9240440E-006  0.1384366E+03  0.7546771E-02  0.1226788E+00
          1   -1    0    0  501    0  0.00000000000E+00  0.00000000000E+00  0.62156796910E+03  0.62156796910E+03  0.00000000000E+00 0. -1.
         -1   -1    0    0    0  501 -0.00000000000E+00 -0.00000000000E+00 -0.25324428973E+02  0.25324428973E+02  0.00000000000E+00 0.  1.
          5    1    1    2  502    0 -0.54884058802E+02  0.93846057933E+01  0.65155859037E+02  0.85835346468E+02  0.47000000000E+01 0.  1.
         -5    1    1    2    0  502  0.31738117877E+02 -0.64166222628E+02  0.21508775954E+03  0.22673651351E+03  0.47000000000E+01 0.  1.
        -11    1    1    2    0    0  0.34850378265E+02  0.44680770777E+02  0.31359607486E+03  0.31867447075E+03  0.00000000000E+00 0.  1.
         11    1    1    2    0    0 -0.11704437340E+02  0.10100846057E+02  0.24038466914E+01  0.15646067347E+02  0.00000000000E+00 0. -1.
<mgrwt>
<rscale>  0 0.13045074E+03</rscale>
<asrwt>0</asrwt>
<pdfrwt beam="1">  1        1 0.95625830E-01 0.13843656E+03</pdfrwt>
<pdfrwt beam="2">  1       -1 0.38960665E-02 0.13843656E+03</pdfrwt>
<totfact> 0.82194436E+03</totfact>
</mgrwt>
</event>
<event>
 6    1  0.9240440E-006  0.1404072E+03  0.7546771E-02  0.1223599E+00
          1   -1    0    0  501    0  0.00000000000E+00  0.00000000000E+00  0.94494827801E+03  0.94494827801E+03  0.00000000000E+00 0. -1.
         -1   -1    0    0    0  501 -0.00000000000E+00 -0.00000000000E+00 -0.22319239547E+02  0.22319239547E+02  0.00000000000E+00 0.  1.
          5    1    1    2  502    0 -0.37448781424E+02 -0.19590301681E+02  0.11263691138E+03  0.12039665674E+03  0.47000000000E+01 0.  1.
         -5    1    1    2    0  502  0.18436917498E+02  0.80640894098E+02  0.62682973109E+03  0.63228195886E+03  0.47000000000E+01 0.  1.
        -11    1    1    2    0    0 -0.11012866577E+02 -0.76957882749E+02  0.12360104660E+03  0.14601718278E+03  0.00000000000E+00 0.  1.
         11    1    1    2    0    0  0.30024730503E+02  0.15907290332E+02  0.59561349398E+02  0.68571719168E+02  0.00000000000E+00 0. -1.
<mgrwt>
<rscale>  0 0.13263420E+03</rscale>
<asrwt>0</asrwt>
<pdfrwt beam="1">  1        1 0.14537663E+00 0.14040720E+03</pdfrwt>
<pdfrwt beam="2">  1       -1 0.34337299E-02 0.14040720E+03</pdfrwt>
<totfact> 0.53040296E+03</totfact>
</mgrwt>
</event>
<event>
 6    1  0.9240440E-006  0.1706355E+03  0.7546771E-02  0.1276755E+00
         -2   -1    0    0    0  501 -0.00000000000E+00  0.00000000000E+00  0.62609580122E+02  0.62609580122E+02  0.00000000000E+00 0.  1.
          2   -1    0    0  501    0  0.00000000000E+00 -0.00000000000E+00 -0.27840785063E+03  0.27840785063E+03  0.00000000000E+00 0. -1.
          5    1    1    2  502    0  0.62699272517E+01 -0.61568220126E+02 -0.19144185678E+03  0.20125116707E+03  0.47000000000E+01 0. -1.
         -5    1    1    2    0  502 -0.14311790127E+02  0.81049191477E+02 -0.57309841411E+02  0.10040073057E+03  0.47000000000E+01 0.  1.
        -11    1    1    2    0    0  0.21385328670E+01 -0.10895393580E+02  0.16356453191E+02  0.19769079015E+02  0.00000000000E+00 0.  1.
         11    1    1    2    0    0  0.59033300082E+01 -0.85855777703E+01  0.16596974498E+02  0.19596454101E+02  0.00000000000E+00 0. -1.
<mgrwt>
<rscale>  0 0.10170295E+03</rscale>
<asrwt>0</asrwt>
<pdfrwt beam="2">  1        2 0.42831977E-01 0.17063546E+03</pdfrwt>
<pdfrwt beam="1">  1       -2 0.96322431E-02 0.17063546E+03</pdfrwt>
<totfact> 0.80576889E+03</totfact>
</mgrwt>
</event>
<event>
 6    1  0.9240440E-006  0.1770859E+03  0.7546771E-02  0.1176368E+00
         -1   -1    0    0    0  501 -0.00000000000E+00  0.00000000000E+00  0.15337150414E+02  0.15337150414E+02  0.00000000000E+00 0.  1.
          1   -1    0    0  501    0  0.00000000000E+00 -0.00000000000E+00 -0.19150833123E+04  0.19150833123E+04  0.00000000000E+00 0. -1.
          5    1    1    2  502    0  0.90594173696E+02 -0.11487796751E+02 -0.11779591887E+04  0.11815029471E+04  0.47000000000E+01 0.  1.
         -5    1    1    2    0  502  0.34487169511E+02  0.20048053940E+01 -0.62788322516E+02  0.71818156130E+02  0.47000000000E+01 0.  1.
        -11    1    1    2    0    0 -0.85543374120E+02  0.39215279949E+02 -0.54142666386E+03  0.54954375565E+03  0.00000000000E+00 0. -1.
         11    1    1    2    0    0 -0.39537969088E+02 -0.29732288592E+02 -0.11757198682E+03  0.12755560384E+03  0.00000000000E+00 0.  1.
<mgrwt>
<rscale>  0 0.17142717E+03</rscale>
<asrwt>0</asrwt>
<pdfrwt beam="2">  1        1 0.29462824E+00 0.17708586E+03</pdfrwt>
<pdfrwt beam="1">  1       -1 0.23595613E-02 0.17708586E+03</pdfrwt>
<totfact> 0.20633073E+03</totfact>
</mgrwt>
</event>
<event>
 6    1  0.9240440E-006  0.3366873E+03  0.7546771E-02  0.1068216E+00
         -1   -1    0    0    0  501 -0.00000000000E+00  0.00000000000E+00  0.13143703697E+04  0.13143703697E+04  0.00000000000E+00 0.  1.
          1   -1    0    0  501    0  0.00000000000E+00 -0.00000000000E+00 -0.21561337954E+02  0.21561337954E+02  0.00000000000E+00 0. -1.
          5    1    1    2  502    0  0.58463470281E+02 -0.95235764598E+02  0.22814302919E+03  0.25408494639E+03  0.47000000000E+01 0.  1.
         -5    1    1    2    0  502  0.10168627462E+02 -0.10771888512E+02  0.35950342533E+03  0.35983918268E+03  0.47000000000E+01 0.  1.
        -11    1    1    2    0    0 -0.88133643622E+02  0.65330545586E+02  0.48125384093E+03  0.49359991768E+03  0.00000000000E+00 0.  1.
         11    1    1    2    0    0  0.19501545879E+02  0.40677107525E+02  0.22390873630E+03  0.22840766090E+03  0.00000000000E+00 0. -1.
<mgrwt>
<rscale>  0 0.33668730E+03</rscale>
<asrwt>0</asrwt>
<pdfrwt beam="2">  1        1 0.33171299E-02 0.33668730E+03</pdfrwt>
<pdfrwt beam="1">  1       -1 0.20221076E+00 0.33668730E+03</pdfrwt>
<totfact> 0.47743954E+02</totfact>
</mgrwt>
</event>
<event>
 6    1  0.9240440E-006  0.1423152E+03  0.7546771E-02  0.1221015E+00
          2   -1    0    0  501    0  0.00000000000E+00  0.00000000000E+00  0.44416265803E+03  0.44416265803E+03  0.00000000000E+00 0. -1.
         -2   -1    0    0    0  501 -0.00000000000E+00 -0.00000000000E+00 -0.46217313369E+02  0.46217313369E+02  0.00000000000E+00 0.  1.
          5    1    1    2  502    0  0.41838295926E+02  0.62726207328E+02  0.88514498544E+02  0.11636978364E+03  0.47000000000E+01 0. -1.
         -5    1    1    2    0  502 -0.28380712902E+02  0.39649884123E+01  0.23861686890E+03  0.24037738272E+03  0.47000000000E+01 0. -1.
        -11    1    1    2    0    0 -0.28975714926E+02 -0.46649727394E+02 -0.35864714410E+01  0.55033189066E+02  0.00000000000E+00 0.  1.
         11    1    1    2    0    0  0.15518131902E+02 -0.20041468347E+02  0.74400448658E+02  0.78599615977E+02  0.00000000000E+00 0. -1.
<mgrwt>
<rscale>  0 0.13443804E+03</rscale>
<asrwt>0</asrwt>
<pdfrwt beam="1">  1        2 0.68332714E-01 0.14231518E+03</pdfrwt>
<pdfrwt beam="2">  1       -2 0.71103562E-02 0.14231518E+03</pdfrwt>
<totfact> 0.77452664E+03</totfact>
</mgrwt>
</event>
<event>
 6    1  0.9240440E-006  0.1707397E+03  0.7546771E-02  0.1183530E+00
         -1   -1    0    0    0  501 -0.00000000000E+00  0.00000000000E+00  0.37725724042E+03  0.37725724042E+03  0.00000000000E+00 0.  1.
          1   -1    0    0  501    0  0.00000000000E+00 -0.00000000000E+00 -0.75949697185E+02  0.75949697185E+02  0.00000000000E+00 0. -1.
          5    1    1    2  502    0  0.67501591370E+01  0.39980017393E+02 -0.19979568836E+02  0.45444907415E+02  0.47000000000E+01 0.  1.
         -5    1    1    2    0  502  0.10080601683E+03  0.42547230226E+01  0.10353699354E+03  0.14464423504E+03  0.47000000000E+01 0.  1.
        -11    1    1    2    0    0 -0.86169140331E+02 -0.12301919562E+02  0.73776704948E+02  0.11410284906E+03  0.00000000000E+00 0. -1.
         11    1    1    2    0    0 -0.21387035640E+02 -0.31932820853E+02  0.14397341359E+03  0.14901494610E+03  0.00000000000E+00 0.  1.
<mgrwt>
<rscale>  0 0.16466352E+03</rscale>
<asrwt>0</asrwt>
<pdfrwt beam="2">  1        1 0.11684569E-01 0.17073968E+03</pdfrwt>
<pdfrwt beam="1">  1       -1 0.58039574E-01 0.17073968E+03</pdfrwt>
<totfact> 0.15872905E+03</totfact>
</mgrwt>
</event>
<event>
 6    1  0.9240440E-006  0.1597689E+03  0.7546771E-02  0.1196940E+00
          1   -1    0    0  501    0  0.00000000000E+00  0.00000000000E+00  0.24883866809E+03  0.24883866809E+03  0.00000000000E+00 0. -1.
         -1   -1    0    0    0  501 -0.00000000000E+00 -0.00000000000E+00 -0.98792782967E+02  0.98792782967E+02  0.00000000000E+00 0.  1.
          5    1    1    2  502    0  0.17564559110E+02 -0.60645291528E+02  0.15510934410E+03  0.16753317209E+03  0.47000000000E+01 0. -1.
         -5    1    1    2    0  502 -0.19303878358E+02 -0.38837674850E+02 -0.13806101450E+02  0.45757001045E+02  0.47000000000E+01 0. -1.
        -11    1    1    2    0    0  0.44557315243E+02  0.64062295386E+02  0.10537781463E+02  0.78742471830E+02  0.00000000000E+00 0.  1.
         11    1    1    2    0    0 -0.42817995996E+02  0.35420670992E+02 -0.17951389977E+01  0.55598806090E+02  0.00000000000E+00 0. -1.
<mgrwt>
<rscale>  0 0.15291183E+03</rscale>
<asrwt>0</asrwt>
<pdfrwt beam="1">  1        1 0.38282872E-01 0.15976887E+03</pdfrwt>
<pdfrwt beam="2">  1       -1 0.15198890E-01 0.15976887E+03</pdfrwt>
<totfact> 0.34024563E+03</totfact>
</mgrwt>
</event>
<event>
 6    1  0.9240440E-006  0.1344228E+03  0.7546771E-02  0.1233508E+00
          2   -1    0    0  501    0  0.00000000000E+00  0.00000000000E+00  0.25042858074E+03  0.25042858074E+03  0.00000000000E+00 0. -1.
         -2   -1    0    0    0  501 -0.00000000000E+00 -0.00000000000E+00 -0.57073096156E+02  0.57073096156E+02  0.00000000000E+00 0.  1.
          5    1    1    2  502    0 -0.58524667534E+01 -0.19090868096E+02  0.14326142904E+03  0.14472263010E+03  0.47000000000E+01 0.  1.
         -5    1    1    2    0  502 -0.17108476388E+02 -0.24698810908E+02 -0.21021846586E+02  0.36969436816E+02  0.47000000000E+01 0.  1.
        -11    1    1    2    0    0 -0.34926420610E+01  0.12915874678E+02 -0.21125181713E+02  0.25005832713E+02  0.00000000000E+00 0.  1.
         11    1    1    2    0    0  0.26453585202E+02  0.30873804326E+02  0.92241083843E+02  0.10080377727E+03  0.00000000000E+00 0. -1.
<mgrwt>
<rscale>  0 0.12600409E+03</rscale>
<asrwt>0</asrwt>
<pdfrwt beam="1">  1        2 0.38527473E-01 0.13442281E+03</pdfrwt>
<pdfrwt beam="2">  1       -2 0.87804764E-02 0.13442281E+03</pdfrwt>
<totfact> 0.10253630E+04</totfact>
</mgrwt>
</event>
<event>
 6    1  0.9240440E-006  0.2792473E+03  0.7546771E-02  0.1096101E+00
         -2   -1    0    0    0  501 -0.00000000000E+00  0.00000000000E+00  0.10368582683E+04  0.10368582683E+04  0.00000000000E+00 0. -1.
          2   -1    0    0  501    0  0.00000000000E+00 -0.00000000000E+00 -0.18801768073E+02  0.18801768073E+02  0.00000000000E+00 0.  1.
          5    1    1    2  502    0  0.32373133193E+01  0.22716114484E+02  0.23441582378E+02  0.33137589520E+02  0.47000000000E+01 0.  1.
         -5    1    1    2    0  502 -0.53078229402E+02 -0.94825772114E+02  0.52591201379E+03  0.53704260701E+03  0.47000000000E+01 0.  1.
        -11    1    1    2    0    0 -0.15028983252E+02  0.57569699220E+02  0.24395501585E+03  0.25110593455E+03  0.00000000000E+00 0.  1.
         11    1    1    2    0    0  0.64869899335E+02  0.14539958410E+02  0.22474788816E+03  0.23437390525E+03  0.00000000000E+00 0. -1.
<mgrwt>
<rscale>  0 0.27924734E+03</rscale>
<asrwt>0</asrwt>
<pdfrwt beam="2">  1        2 0.28925805E-02 0.27924734E+03</pdfrwt>
<pdfrwt beam="1">  1       -2 0.15951661E+00 0.27924734E+03</pdfrwt>
<totfact> 0.88953934E+02</totfact>
</mgrwt>
</event>
<event>
 6    1  0.9240440E-006  0.1862181E+03  0.7546771E-02  0.1165841E+00
          4   -1    0    0  501    0  0.00000000000E+00  0.00000000000E+00  0.39936121528E+03  0.39936121528E+03  0.00000000000E+00 0. -1.
         -4   -1    0    0    0  501 -0.00000000000E+00 -0.00000000000E+00 -0.95860069534E+02  0.95860069534E+02  0.00000000000E+00 0.  1.
          5    1    1    2  502    0  0.26271906794E+02 -0.46175516879E+02  0.21225859970E+03  0.21885656169E+03  0.47000000000E+01 0. -1.
         -5    1    1    2    0  502  0.74607587529E+02 -0.48037045931E+02  0.47508225625E+02  0.10076195413E+03  0.47000000000E+01 0. -1.
        -11    1    1    2    0    0 -0.26738267782E+02  0.16204021022E+02 -0.31430043940E+02  0.44332301129E+02  0.00000000000E+00 0.  1.
         11    1    1    2    0    0 -0.74141226540E+02  0.78008541788E+02  0.75164364363E+02  0.13127046787E+03  0.00000000000E+00 0. -1.
<mgrwt>
<rscale>  0 0.18204263E+03</rscale>
<asrwt>0</asrwt>
<pdfrwt beam="1">  1        4 0.61440186E-01 0.18621813E+03</pdfrwt>
<pdfrwt beam="2">  1       -4 0.14747703E-01 0.18621813E+03</pdfrwt>
<totfact> 0.17236631E+02</totfact>
</mgrwt>
</event>
<event>
 6    1  0.9240440E-006  0.1660946E+03  0.7546771E-02  0.1189861E+00
         -1   -1    0    0    0  501 -0.00000000000E+00  0.00000000000E+00  0.78015570106E+02  0.78015570106E+02  0.00000000000E+00 0.  1.
          1   -1    0    0  501    0  0.00000000000E+00 -0.00000000000E+00 -0.37476829413E+03  0.37476829413E+03  0.00000000000E+00 0. -1.
          5    1    1    2  502    0  0.66193853305E+01  0.38964739288E+02 -0.73036371442E+02  0.83177332991E+02  0.47000000000E+01 0. -1.
         -5    1    1    2    0  502 -0.11546275145E+03 -0.49732304180E+02 -0.18714539595E+03  0.22550041747E+03  0.47000000000E+01 0. -1.
        -11    1    1    2    0    0  0.10027502022E+03  0.39958661962E+02 -0.21140728351E+02  0.10999411231E+03  0.00000000000E+00 0.  1.
         11    1    1    2    0    0  0.85683458992E+01 -0.29191097070E+02 -0.15430228277E+02  0.34112001470E+02  0.00000000000E+00 0. -1.
<mgrwt>
<rscale>  0 0.15897295E+03</rscale>
<asrwt>0</asrwt>
<pdfrwt beam="2">  1        1 0.57656662E-01 0.16609456E+03</pdfrwt>
<pdfrwt beam="1">  1       -1 0.12002395E-01 0.16609456E+03</pdfrwt>
<totfact> 0.29564001E+03</totfact>
</mgrwt>
</event>
<event>
 6    1  0.9240440E-006  0.1528739E+03  0.7546771E-02  0.1205198E+00
         -1   -1    0    0    0  501 -0.00000000000E+00  0.00000000000E+00  0.11735256199E+02  0.11735256199E+02  0.00000000000E+00 0.  1.
          1   -1    0    0  501    0  0.00000000000E+00 -0.00000000000E+00 -0.20005994587E+04  0.20005994587E+04  0.00000000000E+00 0. -1.
          5    1    1    2  502    0 -0.27043999438E+02  0.55103687338E+02 -0.45762006322E+03  0.46174235947E+03  0.47000000000E+01 0. -1.
         -5    1    1    2    0  502  0.87263198671E+02  0.90792540400E+01 -0.10124478015E+04  0.10162528915E+04  0.47000000000E+01 0. -1.
        -11    1    1    2    0    0 -0.27824311428E+02 -0.79020180408E+02 -0.43939180612E+03  0.44730698687E+03  0.00000000000E+00 0. -1.
         11    1    1    2    0    0 -0.32394887805E+02  0.14837239030E+02 -0.79404531705E+02  0.87032477117E+02  0.00000000000E+00 0.  1.
<mgrwt>
<rscale>  0 0.14621869E+03</rscale>
<asrwt>0</asrwt>
<pdfrwt beam="2">  1        1 0.30778474E+00 0.15287392E+03</pdfrwt>
<pdfrwt beam="1">  1       -1 0.18054228E-02 0.15287392E+03</pdfrwt>
<totfact> 0.26817924E+03</totfact>
</mgrwt>
</event>
<event>
 6    1  0.9240440E-006  0.1154712E+03  0.7546771E-02  0.1259882E+00
          2   -1    0    0  501    0  0.00000000000E+00  0.00000000000E+00  0.29836855981E+03  0.29836855981E+03  0.00000000000E+00 0. -1.
         -2   -1    0    0    0  501 -0.00000000000E+00 -0.00000000000E+00 -0.38597333501E+02  0.38597333501E+02  0.00000000000E+00 0.  1.
          5    1    1    2  502    0  0.11218001915E+01 -0.69368843404E+02  0.13971569571E+03  0.15606364246E+03  0.47000000000E+01 0. -1.
         -5    1    1    2    0  502 -0.27202792798E+01  0.38184775346E+02  0.28436918989E+02  0.47918945618E+02  0.47000000000E+01 0.  1.
        -11    1    1    2    0    0 -0.28309610249E+02 -0.21017328308E+02  0.25016016219E+02  0.43231506903E+02  0.00000000000E+00 0. -1.
         11    1    1    2    0    0  0.29908089337E+02  0.52201396365E+02  0.66602595394E+02  0.89751798330E+02  0.00000000000E+00 0.  1.
<mgrwt>
<rscale>  0 0.11037244E+03</rscale>
<asrwt>0</asrwt>
<pdfrwt beam="1">  1        2 0.45902854E-01 0.11547118E+03</pdfrwt>
<pdfrwt beam="2">  1       -2 0.59380515E-02 0.11547118E+03</pdfrwt>
<totfact> 0.15307095E+04</totfact>
</mgrwt>
</event>
<event>
 6    1  0.9240440E-006  0.3210322E+03  0.7546771E-02  0.1075175E+00
          1   -1    0    0  501    0  0.00000000000E+00  0.00000000000E+00  0.25543531157E+02  0.25543531157E+02  0.00000000000E+00 0. -1.
         -1   -1    0    0    0  501 -0.00000000000E+00 -0.00000000000E+00 -0.10086867760E+04  0.10086867760E+04  0.00000000000E+00 0.  1.
          5    1    1    2  502    0 -0.74036608517E+02  0.10181295502E+03 -0.34539347428E+03  0.36764934283E+03  0.47000000000E+01 0. -1.
         -5    1    1    2    0  502  0.35118987897E+02  0.89708154610E+01 -0.22585962951E+03  0.22879790445E+03  0.47000000000E+01 0. -1.
        -11    1    1    2    0    0 -0.68281522471E+01 -0.86334671560E+02 -0.17470615702E+03  0.19499369343E+03  0.00000000000E+00 0. -1.
         11    1    1    2    0    0  0.45745772867E+02 -0.24449098923E+02 -0.23718398402E+03  0.24278936643E+03  0.00000000000E+00 0.  1.
<mgrwt>
<rscale>  0 0.32103222E+03</rscale>
<asrwt>0</asrwt>
<pdfrwt beam="1">  1        1 0.39297745E-02 0.32103222E+03</pdfrwt>
<pdfrwt beam="2">  1       -1 0.15518256E+00 0.32103222E+03</pdfrwt>
<totfact> 0.80682516E+02</totfact>
</mgrwt>
</event>
<event>
 6    1  0.9240440E-006  0.1728118E+03  0.7546771E-02  0.1195941E+00
         -1   -1    0    0    0  501 -0.00000000000E+00  0.00000000000E+00  0.12947208457E+03  0.12947208457E+03  0.00000000000E+00 0.  1.
          1   -1    0    0  501    0  0.00000000000E+00 -0.00000000000E+00 -0.54325808052E+03  0.54325808052E+03  0.00000000000E+00 0. -1.
          5    1    1    2  502    0 -0.60161098776E+02 -0.40485238937E+02 -0.43571160690E+03  0.44172967612E+03  0.47000000000E+01 0. -1.
         -5    1    1    2    0  502  0.57248108868E+02 -0.17580404159E+02 -0.67654264601E+02  0.90474339445E+02  0.47000000000E+01 0.  1.
        -11    1    1    2    0    0  0.38779820756E+02  0.60989381649E+02  0.60820781812E+02  0.94460291509E+02  0.00000000000E+00 0.  1.
         11    1    1    2    0    0 -0.35866830848E+02 -0.29237385525E+01  0.28759093734E+02  0.46065858014E+02  0.00000000000E+00 0. -1.
<mgrwt>
<rscale>  0 0.15374821E+03</rscale>
<asrwt>0</asrwt>
<pdfrwt beam="2">  1        1 0.83578166E-01 0.17281179E+03</pdfrwt>
<pdfrwt beam="1">  1       -1 0.19918782E-01 0.17281179E+03</pdfrwt>
<totfact> 0.82184829E+02</totfact>
</mgrwt>
</event>
<event>
 6    1  0.9240440E-006  0.3472706E+03  0.7546771E-02  0.1063741E+00
         -1   -1    0    0    0  501 -0.00000000000E+00  0.00000000000E+00  0.27933506869E+02  0.27933506869E+02  0.00000000000E+00 0.  1.
          1   -1    0    0  501    0  0.00000000000E+00 -0.00000000000E+00 -0.10793207252E+04  0.10793207252E+04  0.00000000000E+00 0. -1.
          5    1    1    2  502    0  0.13331023282E+03  0.55609802743E+01 -0.23611798821E+03  0.27124958439E+03  0.47000000000E+01 0.  1.
         -5    1    1    2    0  502 -0.24129873635E+01 -0.11952619469E+02 -0.20504051929E+03  0.20545654570E+03  0.47000000000E+01 0.  1.
        -11    1    1    2    0    0 -0.25137468077E+02  0.11082048461E+02 -0.29746116408E+02  0.40491178555E+02  0.00000000000E+00 0.  1.
         11    1    1    2    0    0 -0.10575977738E+03 -0.46904092658E+01 -0.58048259442E+03  0.59005692342E+03  0.00000000000E+00 0. -1.
<mgrwt>
<rscale>  0 0.34727057E+03</rscale>
<asrwt>0</asrwt>
<pdfrwt beam="2">  1        1 0.16604931E+00 0.34727057E+03</pdfrwt>
<pdfrwt beam="1">  1       -1 0.42974635E-02 0.34727057E+03</pdfrwt>
<totfact> 0.30931612E+03</totfact>
</mgrwt>
</event>
<event>
 6    1  0.9240440E-006  0.1524415E+03  0.7546771E-02  0.1206486E+00
          2   -1    0    0  501    0  0.00000000000E+00  0.00000000000E+00  0.11292715365E+04  0.11292715365E+04  0.00000000000E+00 0. -1.
         -2   -1    0    0    0  501 -0.00000000000E+00 -0.00000000000E+00 -0.56300567239E+02  0.56300567239E+02  0.00000000000E+00 0.  1.
          5    1    1    2  502    0  0.44294185907E+02  0.84234180215E+02  0.90702852918E+03  0.91201985437E+03  0.47000000000E+01 0. -1.
         -5    1    1    2    0  502 -0.41222843707E+02 -0.96885857597E+00  0.13916063168E+03  0.14521719230E+03  0.47000000000E+01 0.  1.
        -11    1    1    2    0    0  0.12547765216E+02 -0.52293389565E+02 -0.30161589940E+02  0.61658466668E+02  0.00000000000E+00 0.  1.
         11    1    1    2    0    0 -0.15619107416E+02 -0.30971932075E+02  0.56943398366E+02  0.66676590422E+02  0.00000000000E+00 0. -1.
<mgrwt>
<rscale>  0 0.14521000E+03</rscale>
<asrwt>0</asrwt>
<pdfrwt beam="1">  1        2 0.17373407E+00 0.15244151E+03</pdfrwt>
<pdfrwt beam="2">  1       -2 0.86616266E-02 0.15244151E+03</pdfrwt>
<totfact> 0.18274288E+03</totfact>
</mgrwt>
</event>
<event>
 6    1  0.9240440E-006  0.1336010E+03  0.7546771E-02  0.1234995E+00
         -1   -1    0    0    0  501 -0.00000000000E+00  0.00000000000E+00  0.21412192919E+03  0.21412192919E+03  0.00000000000E+00 0.  1.
          1   -1    0    0  501    0  0.00000000000E+00 -0.00000000000E+00 -0.65232621056E+02  0.65232621056E+02  0.00000000000E+00 0. -1.
          5    1    1    2  502    0  0.86948674403E+01 -0.35793748467E+02  0.11232135024E+03  0.11830033334E+03  0.47000000000E+01 0. -1.
         -5    1    1    2    0  502 -0.29247405643E+01 -0.11004811644E+02 -0.34278612580E+02  0.36424898999E+02  0.47000000000E+01 0. -1.
        -11    1    1    2    0    0  0.35087795239E+02 -0.54370517436E+01  0.31838054639E+02  0.47690424926E+02  0.00000000000E+00 0.  1.
         11    1    1    2    0    0 -0.40857922115E+02  0.52235611854E+02  0.39008515838E+02  0.76938892982E+02  0.00000000000E+00 0. -1.
<mgrwt>
<rscale>  0 0.12504730E+03</rscale>
<asrwt>0</asrwt>
<pdfrwt beam="2">  1        1 0.10035788E-01 0.13360101E+03</pdfrwt>
<pdfrwt beam="1">  1       -1 0.32941835E-01 0.13360101E+03</pdfrwt>
<totfact> 0.52827976E+03</totfact>
</mgrwt>
</event>
<event>
 6    1  0.9240440E-006  0.1252764E+03  0.7546771E-02  0.1250310E+00
          1   -1    0    0  501    0  0.00000000000E+00  0.00000000000E+00  0.27594699589E+03  0.27594699589E+03  0.00000000000E+00 0. -1.
         -1   -1    0    0    0  501 -0.00000000000E+00 -0.00000000000E+00 -0.43387883628E+02  0.43387883628E+02  0.00000000000E+00 0.  1.
          5    1    1    2  502    0 -0.35641524312E+02  0.46246847527E+02  0.63723313454E+02  0.86555414845E+02  0.47000000000E+01 0.  1.
         -5    1    1    2    0  502  0.43136304199E+02 -0.49805697894E+02  0.93361235908E+02  0.11436677250E+03  0.47000000000E+01 0.  1.
        -11    1    1    2    0    0 -0.30011835133E+02 -0.14587214431E+02  0.82206259827E+02  0.88720720396E+02  0.00000000000E+00 0. -1.
         11    1    1    2    0    0  0.22517055246E+02  0.18146064798E+02 -0.67316969226E+01  0.29691971778E+02  0.00000000000E+00 0.  1.
<mgrwt>
<rscale>  0 0.11573133E+03</rscale>
<asrwt>0</asrwt>
<pdfrwt beam="1">  1        1 0.42453383E-01 0.12527637E+03</pdfrwt>
<pdfrwt beam="2">  1       -1 0.66750592E-02 0.12527637E+03</pdfrwt>
<totfact> 0.10386778E+04</totfact>
</mgrwt>
</event>
<event>
 6    1  0.9240440E-006  0.1426794E+03  0.7546771E-02  0.1220264E+00
         -1   -1    0    0    0  501 -0.00000000000E+00  0.00000000000E+00  0.24229070293E+02  0.24229070293E+02  0.00000000000E+00 0.  1.
          1   -1    0    0  501    0  0.00000000000E+00 -0.00000000000E+00 -0.71313966971E+03  0.71313966971E+03  0.00000000000E+00 0. -1.
          5    1    1    2  502    0  0.38816845336E+02  0.19914592977E+02 -0.40174776247E+03  0.40413697324E+03  0.47000000000E+01 0. -1.
         -5    1    1    2    0  502  0.25904607199E+02 -0.43248009918E+02 -0.56774965246E+02  0.76071845743E+02  0.47000000000E+01 0. -1.
        -11    1    1    2    0    0 -0.38048601244E+02 -0.13992514608E+02 -0.19513842010E+03  0.19930501629E+03  0.00000000000E+00 0. -1.
         11    1    1    2    0    0 -0.26672851291E+02  0.37325931549E+02 -0.35249451605E+02  0.57854904722E+02  0.00000000000E+00 0.  1.
<mgrwt>
<rscale>  0 0.13496879E+03</rscale>
<asrwt>0</asrwt>
<pdfrwt beam="2">  1        1 0.10971380E+00 0.14267942E+03</pdfrwt>
<pdfrwt beam="1">  1       -1 0.37275491E-02 0.14267942E+03</pdfrwt>
<totfact> 0.72404545E+03</totfact>
</mgrwt>
</event>
<event>
 6    1  0.9240440E-006  0.1258375E+03  0.7546771E-02  0.1249139E+00
          3   -1    0    0  501    0  0.00000000000E+00  0.00000000000E+00  0.52714381556E+02  0.52714381556E+02  0.00000000000E+00 0. -1.
         -3   -1    0    0    0  501 -0.00000000000E+00 -0.00000000000E+00 -0.27913343824E+03  0.27913343824E+03  0.00000000000E+00 0.  1.
          5    1    1    2  502    0  0.45767748349E+02 -0.33412508941E+01 -0.64130281293E+02  0.78997681771E+02  0.47000000000E+01 0. -1.
         -5    1    1    2    0  502 -0.55937130715E+02  0.13524025213E+02  0.89079484284E+01  0.58423483256E+02  0.47000000000E+01 0. -1.
        -11    1    1    2    0    0  0.44986789923E+01  0.39562857760E+02 -0.97642168435E+02  0.10544880693E+03  0.00000000000E+00 0.  1.
         11    1    1    2    0    0  0.56707033735E+01 -0.49745632079E+02 -0.73554555381E+02  0.88977847833E+02  0.00000000000E+00 0. -1.
<mgrwt>
<rscale>  0 0.11641066E+03</rscale>
<asrwt>0</asrwt>
<pdfrwt beam="1">  1        3 0.81099048E-02 0.12583748E+03</pdfrwt>
<pdfrwt beam="2">  1       -3 0.42943606E-01 0.12583748E+03</pdfrwt>
<totfact> 0.12814928E+03</totfact>
</mgrwt>
</event>
<event>
 6    1  0.9240440E-006  0.2520302E+03  0.7546771E-02  0.1133492E+00
         -2   -1    0    0    0  501 -0.00000000000E+00  0.00000000000E+00  0.73142312143E+02  0.73142312143E+02  0.00000000000E+00 0.  1.
          2   -1    0    0  501    0  0.00000000000E+00 -0.00000000000E+00 -0.94903872472E+03  0.94903872472E+03  0.00000000000E+00 0. -1.
          5    1    1    2  502    0  0.65388569563E+02 -0.31826454403E+02 -0.58302984817E+02  0.93326932168E+02  0.47000000000E+01 0.  1.
         -5    1    1    2    0  502  0.86865875838E+01 -0.60015238544E+02 -0.77179392453E+03  0.77418682345E+03  0.47000000000E+01 0. -1.
        -11    1    1    2    0    0 -0.74122787985E+02  0.49053611463E+02 -0.62581806466E+02  0.10870568981E+03  0.00000000000E+00 0.  1.
         11    1    1    2    0    0  0.47630838470E-01  0.42788081485E+02  0.16782303234E+02  0.45961591440E+02  0.00000000000E+00 0. -1.
<mgrwt>
<rscale>  0 0.22052468E+03</rscale>
<asrwt>0</asrwt>
<pdfrwt beam="2">  1        2 0.14600595E+00 0.25203023E+03</pdfrwt>
<pdfrwt beam="1">  1       -2 0.11252664E-01 0.25203023E+03</pdfrwt>
<totfact> 0.15504091E+03</totfact>
</mgrwt>
</event>
<event>
 6    1  0.9240440E-006  0.1635934E+03  0.7546771E-02  0.1192270E+00
          2   -1    0    0  501    0  0.00000000000E+00  0.00000000000E+00  0.64228584803E+03  0.64228584803E+03  0.00000000000E+00 0. -1.
         -2   -1    0    0    0  501 -0.00000000000E+00 -0.00000000000E+00 -0.39688103865E+02  0.39688103865E+02  0.00000000000E+00 0.  1.
          5    1    1    2  502    0 -0.53495845387E+02 -0.13888247566E+02  0.31247113606E+03  0.31735625055E+03  0.47000000000E+01 0.  1.
         -5    1    1    2    0  502  0.79189963884E+01 -0.81299015998E+02  0.12201895099E+03  0.14691138454E+03  0.47000000000E+01 0.  1.
        -11    1    1    2    0    0  0.57853703352E+02  0.39990496091E+02  0.13489541422E+03  0.15212844424E+03  0.00000000000E+00 0.  1.
         11    1    1    2    0    0 -0.12276854354E+02  0.55196767473E+02  0.33212242897E+02  0.65577872568E+02  0.00000000000E+00 0. -1.
<mgrwt>
<rscale>  0 0.15687557E+03</rscale>
<asrwt>0</asrwt>
<pdfrwt beam="1">  1        2 0.98813200E-01 0.16359340E+03</pdfrwt>
<pdfrwt beam="2">  1       -2 0.61058626E-02 0.16359340E+03</pdfrwt>
<totfact> 0.65235914E+03</totfact>
</mgrwt>
</event>
<event>
 6    1  0.9240440E-006  0.2539546E+03  0.7546771E-02  0.1110831E+00
          2   -1    0    0  501    0  0.00000000000E+00  0.00000000000E+00  0.79277744175E+02  0.79277744175E+02  0.00000000000E+00 0.  1.
         -2   -1    0    0    0  501 -0.00000000000E+00 -0.00000000000E+00 -0.20337660585E+03  0.20337660585E+03  0.00000000000E+00 0. -1.
          5    1    1    2  502    0 -0.12463740608E+02 -0.43906296256E+02 -0.83305629534E+02  0.95105339455E+02  0.47000000000E+01 0.  1.
         -5    1    1    2    0  502 -0.20682935765E+01 -0.11015286805E+02  0.45678706064E+02  0.47267838636E+02  0.47000000000E+01 0.  1.
        -11    1    1    2    0    0 -0.79475152639E+01  0.26829381105E+02  0.15612021533E+02  0.32042376717E+02  0.00000000000E+00 0.  1.
         11    1    1    2    0    0  0.22479549448E+02  0.28092201955E+02 -0.10208395973E+03  0.10823879521E+03  0.00000000000E+00 0. -1.
<mgrwt>
<rscale>  0 0.25395463E+03</rscale>
<asrwt>0</asrwt>
<pdfrwt beam="1">  1        2 0.12196576E-01 0.25395463E+03</pdfrwt>
<pdfrwt beam="2">  1       -2 0.31288708E-01 0.25395463E+03</pdfrwt>
<totfact> 0.46918762E+03</totfact>
</mgrwt>
</event>
<event>
 6    1  0.9240440E-006  0.1838273E+03  0.7546771E-02  0.1169341E+00
          2   -1    0    0  501    0  0.00000000000E+00  0.00000000000E+00  0.11719449599E+04  0.11719449599E+04  0.00000000000E+00 0. -1.
         -2   -1    0    0    0  501 -0.00000000000E+00 -0.00000000000E+00 -0.28351203044E+02  0.28351203044E+02  0.00000000000E+00 0.  1.
          5    1    1    2  502    0  0.66685585443E+02  0.30270586503E+02  0.14041324577E+03  0.15843372527E+03  0.47000000000E+01 0. -1.
         -5    1    1    2    0  502  0.44497014602E+02  0.45930219941E+02  0.64620535033E+03  0.64937894499E+03  0.47000000000E+01 0. -1.
        -11    1    1    2    0    0  0.44923127623E+00 -0.18499252682E+02  0.56302876720E+01  0.19342292982E+02  0.00000000000E+00 0.  1.
         11    1    1    2    0    0 -0.11163183132E+03 -0.57701553761E+02  0.35134487306E+03  0.37314119968E+03  0.00000000000E+00 0. -1.
<mgrwt>
<rscale>  0 0.17841951E+03</rscale>
<asrwt>0</asrwt>
<pdfrwt beam="1">  1        2 0.18029919E+00 0.18382735E+03</pdfrwt>
<pdfrwt beam="2">  1       -2 0.43617245E-02 0.18382735E+03</pdfrwt>
<totfact> 0.49449651E+03</totfact>
</mgrwt>
</event>
<event>
 6    1  0.9240440E-006  0.1362092E+03  0.7546771E-02  0.1231232E+00
         -2   -1    0    0    0  501 -0.00000000000E+00  0.00000000000E+00  0.83300314441E+01  0.83300314441E+01  0.00000000000E+00 0.  1.
          2   -1    0    0  501    0  0.00000000000E+00 -0.00000000000E+00 -0.22339176389E+04  0.22339176389E+04  0.00000000000E+00 0. -1.
          5    1    1    2  502    0  0.18359491493E+02  0.21123515489E+02 -0.14394030986E+04  0.14396828276E+04  0.47000000000E+01 0.  1.
         -5    1    1    2    0  502 -0.51521611868E+02  0.21647954743E+02 -0.31133030761E+03  0.31634120957E+03  0.47000000000E+01 0.  1.
        -11    1    1    2    0    0 -0.10279044543E+02 -0.57653421968E+02 -0.25868897664E+03  0.26523491938E+03  0.00000000000E+00 0.  1.
         11    1    1    2    0    0  0.43441164918E+02  0.14881951736E+02 -0.21616522457E+03  0.22098871376E+03  0.00000000000E+00 0. -1.
<mgrwt>
<rscale>  0 0.12748736E+03</rscale>
<asrwt>0</asrwt>
<pdfrwt beam="2">  1        2 0.34367988E+00 0.13620925E+03</pdfrwt>
<pdfrwt beam="1">  1       -2 0.12815424E-02 0.13620925E+03</pdfrwt>
<totfact> 0.82072860E+03</totfact>
</mgrwt>
</event>
<event>
 6    1  0.9240440E-006  0.1255555E+03  0.7546771E-02  0.1248732E+00
         -4   -1    0    0    0  501 -0.00000000000E+00  0.00000000000E+00  0.12150526352E+03  0.12150526352E+03  0.00000000000E+00 0.  1.
          4   -1    0    0  501    0  0.00000000000E+00 -0.00000000000E+00 -0.10456357993E+03  0.10456357993E+03  0.00000000000E+00 0. -1.
          5    1    1    2  502    0 -0.15397538067E+02 -0.38515106862E+02  0.35767921833E+02  0.54972100809E+02  0.47000000000E+01 0. -1.
         -5    1    1    2    0  502  0.27285084071E+02  0.40245555183E+02 -0.52470091295E+02  0.71689476252E+02  0.47000000000E+01 0. -1.
        -11    1    1    2    0    0 -0.25173162302E+02 -0.41047026265E+02  0.38214303527E+01  0.48302689319E+02  0.00000000000E+00 0. -1.
         11    1    1    2    0    0  0.13285616298E+02  0.39316577945E+02  0.29822422701E+02  0.51104577070E+02  0.00000000000E+00 0.  1.
<mgrwt>
<rscale>  0 0.11664799E+03</rscale>
<asrwt>0</asrwt>
<pdfrwt beam="2">  1        4 0.16086705E-01 0.12555554E+03</pdfrwt>
<pdfrwt beam="1">  1       -4 0.18693118E-01 0.12555554E+03</pdfrwt>
<totfact> 0.13747400E+03</totfact>
</mgrwt>
</event>
<event>
 6    1  0.9240440E-006  0.1493154E+03  0.7546771E-02  0.1211217E+00
         -2   -1    0    0    0  501 -0.00000000000E+00  0.00000000000E+00  0.33112414842E+02  0.33112414842E+02  0.00000000000E+00 0.  1.
          2   -1    0    0  501    0  0.00000000000E+00 -0.00000000000E+00 -0.10390402492E+04  0.10390402492E+04  0.00000000000E+00 0. -1.
          5    1    1    2  502    0 -0.61621201145E+02 -0.21929659033E+01 -0.15871873336E+03  0.17033997725E+03  0.47000000000E+01 0.  1.
         -5    1    1    2    0  502 -0.13889230191E+02 -0.28939568227E+02 -0.73899225578E+03  0.73970403096E+03  0.47000000000E+01 0.  1.
        -11    1    1    2    0    0 -0.12041146322E+02 -0.16906171807E+02 -0.16459594251E+02  0.26490113115E+02  0.00000000000E+00 0.  1.
         11    1    1    2    0    0  0.87551577658E+02  0.48038705937E+02 -0.91757250924E+02  0.13561854267E+03  0.00000000000E+00 0. -1.
<mgrwt>
<rscale>  0 0.14158087E+03</rscale>
<asrwt>0</asrwt>
<pdfrwt beam="2">  1        2 0.15985236E+00 0.14931536E+03</pdfrwt>
<pdfrwt beam="1">  1       -2 0.50942173E-02 0.14931536E+03</pdfrwt>
<totfact> 0.46414495E+03</totfact>
</mgrwt>
</event>
<event>
 6    1  0.9240440E-006  0.1409157E+03  0.7546771E-02  0.1223379E+00
         -2   -1    0    0    0  501 -0.00000000000E+00  0.00000000000E+00  0.88346348769E+02  0.88346348769E+02  0.00000000000E+00 0.  1.
          2   -1    0    0  501    0  0.00000000000E+00 -0.00000000000E+00 -0.18236624463E+03  0.18236624463E+03  0.00000000000E+00 0. -1.
          5    1    1    2  502    0  0.19822283537E+02  0.29047470442E+02 -0.64758557804E+02  0.73840634292E+02  0.47000000000E+01 0.  1.
         -5    1    1    2    0  502 -0.82061266142E+02 -0.10092062625E+02 -0.38828903944E+01  0.82903968341E+02  0.47000000000E+01 0.  1.
        -11    1    1    2    0    0  0.49534874313E+02 -0.10380612551E+02  0.28409213102E+02  0.58039161600E+02  0.00000000000E+00 0.  1.
         11    1    1    2    0    0  0.12704108292E+02 -0.85747952664E+01 -0.53787660770E+02  0.55928829171E+02  0.00000000000E+00 0. -1.
<mgrwt>
<rscale>  0 0.13278659E+03</rscale>
<asrwt>0</asrwt>
<pdfrwt beam="2">  1        2 0.28056345E-01 0.14091566E+03</pdfrwt>
<pdfrwt beam="1">  1       -2 0.13591746E-01 0.14091566E+03</pdfrwt>
<totfact> 0.72438070E+03</totfact>
</mgrwt>
</event>
<event>
 6    1  0.9240440E-006  0.1258346E+03  0.7546771E-02  0.1249566E+00
         -1   -1    0    0    0  501 -0.00000000000E+00  0.00000000000E+00  0.10320991019E+03  0.10320991019E+03  0.00000000000E+00 0.  1.
          1   -1    0    0  501    0  0.00000000000E+00 -0.00000000000E+00 -0.12580687854E+03  0.12580687854E+03  0.00000000000E+00 0. -1.
          5    1    1    2  502    0  0.44790148851E+01 -0.39164098376E+02 -0.81964353604E+02  0.91072133157E+02  0.47000000000E+01 0.  1.
         -5    1    1    2    0  502 -0.72460559332E+00  0.25363159845E+02  0.34788936379E+02  0.43314836083E+02  0.47000000000E+01 0.  1.
        -11    1    1    2    0    0  0.87661318264E+01  0.47672053601E+02  0.31573087256E+02  0.57847468402E+02  0.00000000000E+00 0.  1.
         11    1    1    2    0    0 -0.12520541118E+02 -0.33871115069E+02 -0.69946383785E+01  0.36782351093E+02  0.00000000000E+00 0. -1.
<mgrwt>
<rscale>  0 0.11616234E+03</rscale>
<asrwt>0</asrwt>
<pdfrwt beam="2">  1        1 0.19354904E-01 0.12583456E+03</pdfrwt>
<pdfrwt beam="1">  1       -1 0.15878448E-01 0.12583456E+03</pdfrwt>
<totfact> 0.73589156E+03</totfact>
</mgrwt>
</event>
<event>
 6    1  0.9240440E-006  0.1766361E+03  0.7546771E-02  0.1177283E+00
         -1   -1    0    0    0  501 -0.00000000000E+00  0.00000000000E+00  0.46818135846E+02  0.46818135846E+02  0.00000000000E+00 0.  1.
          1   -1    0    0  501    0  0.00000000000E+00 -0.00000000000E+00 -0.10005255374E+04  0.10005255374E+04  0.00000000000E+00 0. -1.
          5    1    1    2  502    0 -0.26212419177E+02  0.53580053402E+02 -0.32536214346E+03  0.33081796722E+03  0.47000000000E+01 0.  1.
         -5    1    1    2    0  502 -0.98389504405E+02 -0.61146633743E+02 -0.50915482682E+03  0.52218783313E+03  0.47000000000E+01 0.  1.
        -11    1    1    2    0    0  0.72629035536E+02  0.18956837420E+01 -0.12198478462E+03  0.14198189356E+03  0.00000000000E+00 0.  1.
         11    1    1    2    0    0  0.51972888046E+02  0.56708965995E+01  0.27943533570E+01  0.52355979322E+02  0.00000000000E+00 0. -1.
<mgrwt>
<rscale>  0 0.17054285E+03</rscale>
<asrwt>0</asrwt>
<pdfrwt beam="2">  1        1 0.15392699E+00 0.17663613E+03</pdfrwt>
<pdfrwt beam="1">  1       -1 0.72027908E-02 0.17663613E+03</pdfrwt>
<totfact> 0.16131626E+03</totfact>
</mgrwt>
</event>
<event>
 6    1  0.9240440E-006  0.1165900E+03  0.7546771E-02  0.1257640E+00
          2   -1    0    0  501    0  0.00000000000E+00  0.00000000000E+00  0.71101432445E+03  0.71101432445E+03  0.00000000000E+00 0. -1.
         -2   -1    0    0    0  501 -0.00000000000E+00 -0.00000000000E+00 -0.17899700800E+02  0.17899700800E+02  0.00000000000E+00 0.  1.
          5    1    1    2  502    0  0.68127098059E+02 -0.10686008645E+02  0.31028215913E+03  0.31788771688E+03  0.47000000000E+01 0. -1.
         -5    1    1    2    0  502 -0.44550011938E+02 -0.14365218970E+02  0.17648417869E+03  0.18264670380E+03  0.47000000000E+01 0.  1.
        -11    1    1    2    0    0  0.22071602499E+02 -0.19368686875E+02  0.10186003379E+03  0.10600834001E+03  0.00000000000E+00 0. -1.
         11    1    1    2    0    0 -0.45648688620E+02  0.44419914490E+02  0.10448825204E+03  0.12237126456E+03  0.00000000000E+00 0.  1.
<mgrwt>
<rscale>  0 0.11159721E+03</rscale>
<asrwt>0</asrwt>
<pdfrwt beam="1">  1        2 0.10938680E+00 0.11659005E+03</pdfrwt>
<pdfrwt beam="2">  1       -2 0.27538007E-02 0.11659005E+03</pdfrwt>
<totfact> 0.18533213E+04</totfact>
</mgrwt>
</event>
<event>
 6    1  0.9240440E-006  0.1267081E+03  0.7546771E-02  0.1250760E+00
         -2   -1    0    0    0  501 -0.00000000000E+00  0.00000000000E+00  0.84124429094E+02  0.84124429094E+02  0.00000000000E+00 0.  1.
          2   -1    0    0  501    0  0.00000000000E+00 -0.00000000000E+00 -0.28720150513E+03  0.28720150513E+03  0.00000000000E+00 0. -1.
          5    1    1    2  502    0 -0.47441000232E+02 -0.19312837034E+02 -0.57149319194E+02  0.76888028077E+02  0.47000000000E+01 0.  1.
         -5    1    1    2    0  502  0.52260851222E+02  0.39487828616E+02 -0.18676357651E+03  0.19797274734E+03  0.47000000000E+01 0.  1.
        -11    1    1    2    0    0 -0.43658883511E+00  0.28031778080E+02 -0.64812547796E+01  0.28774604353E+02  0.00000000000E+00 0. -1.
         11    1    1    2    0    0 -0.43832621550E+01 -0.48206769662E+02  0.47317074445E+02  0.67690554455E+02  0.00000000000E+00 0.  1.
<mgrwt>
<rscale>  0 0.11547168E+03</rscale>
<asrwt>0</asrwt>
<pdfrwt beam="2">  1        2 0.44184848E-01 0.12670811E+03</pdfrwt>
<pdfrwt beam="1">  1       -2 0.12942220E-01 0.12670811E+03</pdfrwt>
<totfact> 0.47863484E+03</totfact>
</mgrwt>
</event>
<event>
 6    1  0.9240440E-006  0.1572595E+03  0.7546771E-02  0.1198160E+00
          1   -1    0    0  501    0  0.00000000000E+00  0.00000000000E+00  0.18549355830E+04  0.18549355830E+04  0.00000000000E+00 0. -1.
         -1   -1    0    0    0  501 -0.00000000000E+00 -0.00000000000E+00 -0.11773402655E+02  0.11773402655E+02  0.00000000000E+00 0.  1.
          5    1    1    2  502    0  0.10673660537E+03 -0.29049335570E+02  0.61973139759E+03  0.62954401116E+03  0.47000000000E+01 0.  1.
         -5    1    1    2    0  502 -0.28438151779E+02 -0.25495624984E+02  0.45607501970E+03  0.45769560732E+03  0.47000000000E+01 0.  1.
        -11    1    1    2    0    0  0.22228839724E+01 -0.24161841067E+02  0.14157861380E+03  0.14364275012E+03  0.00000000000E+00 0.  1.
         11    1    1    2    0    0 -0.80521337563E+02  0.78706801621E+02  0.62577714923E+03  0.63582661703E+03  0.00000000000E+00 0. -1.
<mgrwt>
<rscale>  0 0.15189796E+03</rscale>
<asrwt>0</asrwt>
<pdfrwt beam="1">  1        1 0.28537447E+00 0.15725947E+03</pdfrwt>
<pdfrwt beam="2">  1       -1 0.18112942E-02 0.15725947E+03</pdfrwt>
<totfact> 0.33071106E+03</totfact>
</mgrwt>
</event>
<event>
 6    1  0.9240440E-006  0.1378458E+03  0.7546771E-02  0.1225955E+00
         -1   -1    0    0    0  501 -0.00000000000E+00  0.00000000000E+00  0.15209620977E+03  0.15209620977E+03  0.00000000000E+00 0.  1.
          1   -1    0    0  501    0  0.00000000000E+00 -0.00000000000E+00 -0.13379428674E+03  0.13379428674E+03  0.00000000000E+00 0. -1.
          5    1    1    2  502    0  0.19815494698E+02 -0.30082034453E+02 -0.65751340411E+02  0.75119314379E+02  0.47000000000E+01 0.  1.
         -5    1    1    2    0  502 -0.73637021289E+02  0.81861634274E+01  0.73196846092E+01  0.74599543958E+02  0.47000000000E+01 0.  1.
        -11    1    1    2    0    0  0.73819076498E+02  0.20005004286E+02  0.85094882038E+02  0.11441413899E+03  0.00000000000E+00 0.  1.
         11    1    1    2    0    0 -0.19997549907E+02  0.18908667392E+01 -0.83613032036E+01  0.21757499181E+02  0.00000000000E+00 0. -1.
<mgrwt>
<rscale>  0 0.13101669E+03</rscale>
<asrwt>0</asrwt>
<pdfrwt beam="2">  1        1 0.20583737E-01 0.13784585E+03</pdfrwt>
<pdfrwt beam="1">  1       -1 0.23399417E-01 0.13784585E+03</pdfrwt>
<totfact> 0.36817686E+03</totfact>
</mgrwt>
</event>
<event>
 6    1  0.9240440E-006  0.1704760E+03  0.7546771E-02  0.1183317E+00
         -1   -1    0    0    0  501 -0.00000000000E+00  0.00000000000E+00  0.13971373073E+02  0.13971373073E+02  0.00000000000E+00 0.  1.
          1   -1    0    0  501    0  0.00000000000E+00 -0.00000000000E+00 -0.25671807015E+04  0.25671807015E+04  0.00000000000E+00 0. -1.
          5    1    1    2  502    0 -0.10563376881E+03  0.27932986093E+02 -0.11628158036E+04  0.11679475279E+04  0.47000000000E+01 0.  1.
         -5    1    1    2    0  502 -0.61400281446E+01 -0.58642136834E+02 -0.86627171298E+03  0.86828876007E+03  0.47000000000E+01 0.  1.
        -11    1    1    2    0    0  0.34996790545E+02  0.53096613572E+02 -0.16127300858E+03  0.17335803707E+03  0.00000000000E+00 0.  1.
         11    1    1    2    0    0  0.76777006406E+02 -0.22387462832E+02 -0.36284880336E+03  0.37155774962E+03  0.00000000000E+00 0. -1.
<mgrwt>
<rscale>  0 0.16485942E+03</rscale>
<asrwt>0</asrwt>
<pdfrwt beam="2">  1        1 0.39495143E+00 0.17047601E+03</pdfrwt>
<pdfrwt beam="1">  1       -1 0.21494390E-02 0.17047601E+03</pdfrwt>
<totfact> 0.89434118E+02</totfact>
</mgrwt>
</event>
<event>
 6    1  0.9240440E-006  0.1323438E+03  0.7546771E-02  0.1237198E+00
         -1   -1    0    0    0  501 -0.00000000000E+00  0.00000000000E+00  0.48913898572E+02  0.48913898572E+02  0.00000000000E+00 0.  1.
          1   -1    0    0  501    0  0.00000000000E+00 -0.00000000000E+00 -0.29025396493E+03  0.29025396493E+03  0.00000000000E+00 0. -1.
          5    1    1    2  502    0  0.40074396608E+02 -0.26502116673E+02 -0.17117470382E+03  0.17785159172E+03  0.47000000000E+01 0. -1.
         -5    1    1    2    0  502 -0.34261053246E+02 -0.16545249417E+02  0.22873763173E+00  0.38336762627E+02  0.47000000000E+01 0. -1.
        -11    1    1    2    0    0  0.30596239183E+02  0.52497678123E+01  0.46655824702E+01  0.31391998567E+02  0.00000000000E+00 0.  1.
         11    1    1    2    0    0 -0.36409582545E+02  0.37797598277E+02 -0.75059682638E+02  0.91587510580E+02  0.00000000000E+00 0. -1.
<mgrwt>
<rscale>  0 0.12364755E+03</rscale>
<asrwt>0</asrwt>
<pdfrwt beam="2">  1        1 0.44654455E-01 0.13234380E+03</pdfrwt>
<pdfrwt beam="1">  1       -1 0.75252153E-02 0.13234380E+03</pdfrwt>
<totfact> 0.81887086E+03</totfact>
</mgrwt>
</event>
<event>
 6    1  0.9240440E-006  0.2445780E+03  0.7546771E-02  0.1116780E+00
         -2   -1    0    0    0  501 -0.00000000000E+00  0.00000000000E+00  0.56985342383E+02  0.56985342383E+02  0.00000000000E+00 0.  1.
          2   -1    0    0  501    0  0.00000000000E+00 -0.00000000000E+00 -0.26242895241E+03  0.26242895241E+03  0.00000000000E+00 0. -1.
          5    1    1    2  502    0  0.64590341434E+01 -0.53435954175E+02 -0.10220994335E+02  0.54987990015E+02  0.47000000000E+01 0. -1.
         -5    1    1    2    0  502 -0.10499434555E+02  0.13819600278E+02 -0.15473563829E+03  0.15577685077E+03  0.47000000000E+01 0. -1.
        -11    1    1    2    0    0  0.48301945578E+02  0.19888752066E+02 -0.23744947742E+02  0.57379987353E+02  0.00000000000E+00 0. -1.
         11    1    1    2    0    0 -0.44261545167E+02  0.19727601831E+02 -0.16742029663E+02  0.51269466662E+02  0.00000000000E+00 0.  1.
<mgrwt>
<rscale>  0 0.24457803E+03</rscale>
<asrwt>0</asrwt>
<pdfrwt beam="2">  1        2 0.40373685E-01 0.24457803E+03</pdfrwt>
<pdfrwt beam="1">  1       -2 0.87669757E-02 0.24457803E+03</pdfrwt>
<totfact> 0.10188055E+04</totfact>
</mgrwt>
</event>
<event>
 6    1  0.9240440E-006  0.3763616E+03  0.7546771E-02  0.1053155E+00
         -2   -1    0    0    0  501 -0.00000000000E+00  0.00000000000E+00  0.11069940925E+03  0.11069940925E+03  0.00000000000E+00 0.  1.
          2   -1    0    0  501    0  0.00000000000E+00 -0.00000000000E+00 -0.21746289091E+04  0.21746289091E+04  0.00000000000E+00 0. -1.
          5    1    1    2  502    0 -0.80152758241E+02 -0.12354348674E+03 -0.49972962564E+03  0.52099831719E+03  0.47000000000E+01 0. -1.
         -5    1    1    2    0  502 -0.18176692768E+03 -0.11608354962E+03 -0.12851521639E+04  0.13031319123E+04  0.47000000000E+01 0. -1.
        -11    1    1    2    0    0  0.30447818149E+02  0.28791982088E+02 -0.16496091804E+00  0.41905549450E+02  0.00000000000E+00 0.  1.
         11    1    1    2    0    0  0.23147186777E+03  0.21083505428E+03 -0.27888274936E+03  0.41929253937E+03  0.00000000000E+00 0. -1.
<mgrwt>
<rscale>  0 0.37405010E+03</rscale>
<asrwt>0</asrwt>
<pdfrwt beam="2">  1        2 0.33455830E+00 0.37636165E+03</pdfrwt>
<pdfrwt beam="1">  1       -2 0.17030678E-01 0.37636165E+03</pdfrwt>
<totfact> 0.16304509E+02</totfact>
</mgrwt>
</event>
<event>
 6    1  0.9240440E-006  0.1255560E+03  0.7546771E-02  0.1249125E+00
          1   -1    0    0  501    0  0.00000000000E+00  0.00000000000E+00  0.88789031137E+02  0.88789031137E+02  0.00000000000E+00 0. -1.
         -1   -1    0    0    0  501 -0.00000000000E+00 -0.00000000000E+00 -0.15907319217E+03  0.15907319217E+03  0.00000000000E+00 0.  1.
          5    1    1    2  502    0 -0.73337152140E+01 -0.51284831781E+02  0.35964894168E+02  0.63241449716E+02  0.47000000000E+01 0. -1.
         -5    1    1    2    0  502  0.18955087271E+02  0.52991068753E+02 -0.27073060266E+02  0.62628981256E+02  0.47000000000E+01 0. -1.
        -11    1    1    2    0    0  0.29923546992E+02  0.59411786182E+01  0.19043677621E+01  0.30567022828E+02  0.00000000000E+00 0. -1.
         11    1    1    2    0    0 -0.41544919050E+02 -0.76474155901E+01 -0.81080362693E+02  0.91424769502E+02  0.00000000000E+00 0.  1.
<mgrwt>
<rscale>  0 0.11641886E+03</rscale>
<asrwt>0</asrwt>
<pdfrwt beam="1">  1        1 0.13659851E-01 0.12555597E+03</pdfrwt>
<pdfrwt beam="2">  1       -1 0.24472799E-01 0.12555597E+03</pdfrwt>
<totfact> 0.57596436E+03</totfact>
</mgrwt>
</event>
<event>
 6    1  0.9240440E-006  0.3320318E+03  0.7546771E-02  0.1070241E+00
          2   -1    0    0  501    0  0.00000000000E+00  0.00000000000E+00  0.10701681549E+04  0.10701681549E+04  0.00000000000E+00 0. -1.
         -2   -1    0    0    0  501 -0.00000000000E+00 -0.00000000000E+00 -0.25754164867E+02  0.25754164867E+02  0.00000000000E+00 0.  1.
          5    1    1    2  502    0  0.81733230509E+00  0.21407198537E+01  0.91722165605E+03  0.91723656003E+03  0.47000000000E+01 0. -1.
         -5    1    1    2    0  502  0.20542535358E+01  0.25555055197E+02  0.46349535368E+02  0.53175654510E+02  0.47000000000E+01 0.  1.
        -11    1    1    2    0    0  0.34263695632E+02 -0.20843814729E+02  0.77919345208E+02  0.87634980507E+02  0.00000000000E+00 0.  1.
         11    1    1    2    0    0 -0.37135281472E+02 -0.68519603223E+01  0.29234533638E+01  0.37875124685E+02  0.00000000000E+00 0. -1.
<mgrwt>
<rscale>  0 0.33203185E+03</rscale>
<asrwt>0</asrwt>
<pdfrwt beam="1">  1        2 0.16464122E+00 0.33203185E+03</pdfrwt>
<pdfrwt beam="2">  1       -2 0.39621800E-02 0.33203185E+03</pdfrwt>
<totfact> 0.66582194E+03</totfact>
</mgrwt>
</event>
<event>
 6    1  0.9240440E-006  0.2467243E+03  0.7546771E-02  0.1117726E+00
         -2   -1    0    0    0  501 -0.00000000000E+00  0.00000000000E+00  0.62166416511E+02  0.62166416511E+02  0.00000000000E+00 0.  1.
          2   -1    0    0  501    0  0.00000000000E+00 -0.00000000000E+00 -0.92417650115E+03  0.92417650115E+03  0.00000000000E+00 0. -1.
          5    1    1    2  502    0 -0.66118059955E+02  0.16822006986E+03 -0.37529821236E+03  0.41658183825E+03  0.47000000000E+01 0.  1.
         -5    1    1    2    0  502  0.41051202744E+02  0.43017847247E+02 -0.65663778404E+02  0.88710530507E+02  0.47000000000E+01 0.  1.
        -11    1    1    2    0    0  0.16941355589E+02 -0.14113222343E+03 -0.36242549663E+03  0.38930393605E+03  0.00000000000E+00 0. -1.
         11    1    1    2    0    0  0.81255016211E+01 -0.70105693675E+02 -0.58622597246E+02  0.91746612853E+02  0.00000000000E+00 0.  1.
<mgrwt>
<rscale>  0 0.24312906E+03</rscale>
<asrwt>0</asrwt>
<pdfrwt beam="2">  1        2 0.14218100E+00 0.24672434E+03</pdfrwt>
<pdfrwt beam="1">  1       -2 0.95640638E-02 0.24672434E+03</pdfrwt>
<totfact> 0.20845434E+03</totfact>
</mgrwt>
</event>
<event>
 6    1  0.9240440E-006  0.1287863E+03  0.7546771E-02  0.1243161E+00
         -1   -1    0    0    0  501 -0.00000000000E+00  0.00000000000E+00  0.23819696672E+03  0.23819696672E+03  0.00000000000E+00 0.  1.
          1   -1    0    0  501    0  0.00000000000E+00 -0.00000000000E+00 -0.54118906706E+02  0.54118906706E+02  0.00000000000E+00 0. -1.
          5    1    1    2  502    0 -0.12050042012E+02  0.62615000014E+02  0.80848787233E+02  0.10307501218E+03  0.47000000000E+01 0.  1.
         -5    1    1    2    0  502 -0.16307663143E+02 -0.50126463787E+02  0.83290208745E+01  0.53572986082E+02  0.47000000000E+01 0.  1.
        -11    1    1    2    0    0  0.37631746858E+02 -0.33078404108E+02  0.10059231859E+03  0.11237946320E+03  0.00000000000E+00 0.  1.
         11    1    1    2    0    0 -0.92740417033E+01  0.20589867881E+02 -0.56920666785E+01  0.23288411967E+02  0.00000000000E+00 0. -1.
<mgrwt>
<rscale>  0 0.11996142E+03</rscale>
<asrwt>0</asrwt>
<pdfrwt beam="2">  1        1 0.83259857E-02 0.12878631E+03</pdfrwt>
<pdfrwt beam="1">  1       -1 0.36645687E-01 0.12878631E+03</pdfrwt>
<totfact> 0.56289991E+03</totfact>
</mgrwt>
</event>
<event>
 6    1  0.9240440E-006  0.1373764E+03  0.7546771E-02  0.1228964E+00
          2   -1    0    0  501    0  0.00000000000E+00  0.00000000000E+00  0.58642543627E+03  0.58642543627E+03  0.00000000000E+00 0. -1.
         -2   -1    0    0    0  501 -0.00000000000E+00 -0.00000000000E+00 -0.25800128235E+02  0.25800128235E+02  0.00000000000E+00 0.  1.
          5    1    1    2  502    0 -0.31288679456E+02  0.69658918781E+02  0.10565847978E+03  0.13044980175E+03  0.47000000000E+01 0.  1.
         -5    1    1    2    0  502  0.34947222806E-01 -0.22355332626E+02  0.24648519946E+03  0.24754152313E+03  0.47000000000E+01 0.  1.
        -11    1    1    2    0    0  0.50172693093E+02 -0.63425701401E+02  0.17232585096E+03  0.19035839262E+03  0.00000000000E+00 0. -1.
         11    1    1    2    0    0 -0.18918960860E+02  0.16122115246E+02  0.36155777827E+02  0.43875847003E+02  0.00000000000E+00 0.  1.
<mgrwt>
<rscale>  0 0.12898890E+03</rscale>
<asrwt>0</asrwt>
<pdfrwt beam="1">  1        2 0.90219288E-01 0.13737638E+03</pdfrwt>
<pdfrwt beam="2">  1       -2 0.39692509E-02 0.13737638E+03</pdfrwt>
<totfact> 0.13695658E+04</totfact>
</mgrwt>
</event>
<event>
 6    1  0.9240440E-006  0.2280943E+03  0.7546771E-02  0.1127988E+00
         -2   -1    0    0    0  501 -0.00000000000E+00  0.00000000000E+00  0.15740065550E+02  0.15740065550E+02  0.00000000000E+00 0.  1.
          2   -1    0    0  501    0  0.00000000000E+00 -0.00000000000E+00 -0.82634663472E+03  0.82634663472E+03  0.00000000000E+00 0. -1.
          5    1    1    2  502    0 -0.22078557991E+02 -0.88900457400E+01 -0.14034180357E+02  0.28027555272E+02  0.47000000000E+01 0. -1.
         -5    1    1    2    0  502  0.31363991396E+01 -0.29506570865E+01 -0.55349194179E+03  0.55352864695E+03  0.47000000000E+01 0. -1.
        -11    1    1    2    0    0  0.49744231579E+02  0.35666306687E+01 -0.20440203934E+03  0.21039820131E+03  0.00000000000E+00 0. -1.
         11    1    1    2    0    0 -0.30802072728E+02  0.82740721577E+01 -0.38678407691E+02  0.50132296735E+02  0.00000000000E+00 0.  1.
<mgrwt>
<rscale>  0 0.22809428E+03</rscale>
<asrwt>0</asrwt>
<pdfrwt beam="2">  1        2 0.12713026E+00 0.22809428E+03</pdfrwt>
<pdfrwt beam="1">  1       -2 0.24215484E-02 0.22809428E+03</pdfrwt>
<totfact> 0.19530210E+04</totfact>
</mgrwt>
</event>
<event>
 6    1  0.9240440E-006  0.1345179E+03  0.7546771E-02  0.1238114E+00
         -3   -1    0    0    0  501 -0.00000000000E+00  0.00000000000E+00  0.66905246712E+03  0.66905246712E+03  0.00000000000E+00 0.  1.
          3   -1    0    0  501    0  0.00000000000E+00 -0.00000000000E+00 -0.19903761140E+02  0.19903761140E+02  0.00000000000E+00 0. -1.
          5    1    1    2  502    0 -0.47758513734E+02  0.68914800009E+02  0.26695671354E+03  0.27985371571E+03  0.47000000000E+01 0. -1.
         -5    1    1    2    0  502  0.45321152377E+02 -0.21863031895E+02  0.15858302991E+03  0.16644117998E+03  0.47000000000E+01 0. -1.
        -11    1    1    2    0    0  0.26157415682E+02 -0.42535637770E+02  0.20799848679E+03  0.21390853508E+03  0.00000000000E+00 0.  1.
         11    1    1    2    0    0 -0.23720054324E+02 -0.45161303447E+01  0.15610475741E+02  0.28752797487E+02  0.00000000000E+00 0. -1.
<mgrwt>
<rscale>  0 0.12307175E+03</rscale>
<asrwt>0</asrwt>
<pdfrwt beam="2">  1        3 0.30621176E-02 0.13451788E+03</pdfrwt>
<pdfrwt beam="1">  1       -3 0.10293113E+00 0.13451788E+03</pdfrwt>
<totfact> 0.96387645E+02</totfact>
</mgrwt>
</event>
<event>
 6    1  0.9240440E-006  0.1560275E+03  0.7546771E-02  0.1201371E+00
          1   -1    0    0  501    0  0.00000000000E+00  0.00000000000E+00  0.31453977730E+03  0.31453977730E+03  0.00000000000E+00 0. -1.
         -1   -1    0    0    0  501 -0.00000000000E+00 -0.00000000000E+00 -0.12216648104E+03  0.12216648104E+03  0.00000000000E+00 0.  1.
          5    1    1    2  502    0 -0.61356157887E+02 -0.36310210316E+02  0.98483329256E+02  0.12167195908E+03  0.47000000000E+01 0.  1.
         -5    1    1    2    0  502 -0.20722980444E+02  0.80833735444E+02  0.15084817619E+03  0.17245520278E+03  0.47000000000E+01 0.  1.
        -11    1    1    2    0    0  0.28606952982E+02  0.28345588453E+02 -0.19429930914E+02  0.44714118117E+02  0.00000000000E+00 0. -1.
         11    1    1    2    0    0  0.53472185349E+02 -0.72869113581E+02 -0.37528278271E+02  0.97864978364E+02  0.00000000000E+00 0.  1.
<mgrwt>
<rscale>  0 0.14927132E+03</rscale>
<asrwt>0</asrwt>
<pdfrwt beam="1">  1        1 0.48390735E-01 0.15602752E+03</pdfrwt>
<pdfrwt beam="2">  1       -1 0.18794843E-01 0.15602752E+03</pdfrwt>
<totfact> 0.18134365E+03</totfact>
</mgrwt>
</event>
<event>
 6    1  0.9240440E-006  0.1626538E+03  0.7546771E-02  0.1193490E+00
          1   -1    0    0  501    0  0.00000000000E+00  0.00000000000E+00  0.95972276910E+03  0.95972276910E+03  0.00000000000E+00 0. -1.
         -1   -1    0    0    0  501 -0.00000000000E+00 -0.00000000000E+00 -0.53540376976E+02  0.53540376976E+02  0.00000000000E+00 0.  1.
          5    1    1    2  502    0 -0.84655060024E+02 -0.32183017028E+01  0.44061022291E+03  0.44870513167E+03  0.47000000000E+01 0. -1.
         -5    1    1    2    0  502  0.17676229852E+02  0.75623966563E+02  0.40897581600E+03  0.41631087122E+03  0.47000000000E+01 0.  1.
        -11    1    1    2    0    0  0.22343303519E+02 -0.75174015307E+02  0.30523480527E+01  0.78483581838E+02  0.00000000000E+00 0.  1.
         11    1    1    2    0    0  0.44635526653E+02  0.27683504464E+01  0.53544005158E+02  0.69763561349E+02  0.00000000000E+00 0. -1.
<mgrwt>
<rscale>  0 0.15582707E+03</rscale>
<asrwt>0</asrwt>
<pdfrwt beam="1">  1        1 0.14764964E+00 0.16265377E+03</pdfrwt>
<pdfrwt beam="2">  1       -1 0.82369818E-02 0.16265377E+03</pdfrwt>
<totfact> 0.14112885E+03</totfact>
</mgrwt>
</event>
<event>
 6    1  0.9240440E-006  0.4429188E+03  0.7546771E-02  0.1029855E+00
          2   -1    0    0  501    0  0.00000000000E+00  0.00000000000E+00  0.75468409547E+03  0.75468409547E+03  0.00000000000E+00 0. -1.
         -2   -1    0    0    0  501 -0.00000000000E+00 -0.00000000000E+00 -0.64986496280E+02  0.64986496280E+02  0.00000000000E+00 0.  1.
          5    1    1    2  502    0  0.16121477760E+02  0.22979648421E+02  0.12710435179E+03  0.13025195787E+03  0.47000000000E+01 0.  1.
         -5    1    1    2    0  502 -0.17007643730E+03  0.34296352595E+02  0.41591316125E+03  0.45067514024E+03  0.47000000000E+01 0.  1.
        -11    1    1    2    0    0  0.98228450533E+02 -0.41045893340E+02  0.33597344472E+02  0.11163500979E+03  0.00000000000E+00 0.  1.
         11    1    1    2    0    0  0.55726509009E+02 -0.16230107677E+02  0.11308274168E+03  0.12710848385E+03  0.00000000000E+00 0. -1.
<mgrwt>
<rscale>  0 0.44291884E+03</rscale>
<asrwt>0</asrwt>
<pdfrwt beam="1">  1        2 0.11610524E+00 0.44291884E+03</pdfrwt>
<pdfrwt beam="2">  1       -2 0.99979230E-02 0.44291884E+03</pdfrwt>
<totfact> 0.25478070E+03</totfact>
</mgrwt>
</event>
<event>
 6    1  0.9240440E-006  0.2776163E+03  0.7546771E-02  0.1096998E+00
          1   -1    0    0  501    0  0.00000000000E+00  0.00000000000E+00  0.53418196616E+03  0.53418196616E+03  0.00000000000E+00 0. -1.
         -1   -1    0    0    0  501 -0.00000000000E+00 -0.00000000000E+00 -0.36069559242E+02  0.36069559242E+02  0.00000000000E+00 0.  1.
          5    1    1    2  502    0  0.10948964977E+03 -0.16416337934E+02  0.25311159763E+03  0.27630608103E+03  0.47000000000E+01 0.  1.
         -5    1    1    2    0  502 -0.29083656493E+02  0.23799401166E+02  0.77630981681E+02  0.86376674442E+02  0.47000000000E+01 0.  1.
        -11    1    1    2    0    0 -0.58117958503E+02 -0.48638213901E+02  0.10728723742E+03  0.13135419394E+03  0.00000000000E+00 0. -1.
         11    1    1    2    0    0 -0.22288034770E+02  0.41255150669E+02  0.60082590184E+02  0.76214575994E+02  0.00000000000E+00 0.  1.
<mgrwt>
<rscale>  0 0.27761634E+03</rscale>
<asrwt>0</asrwt>
<pdfrwt beam="1">  1        1 0.82181835E-01 0.27761634E+03</pdfrwt>
<pdfrwt beam="2">  1       -1 0.55491634E-02 0.27761634E+03</pdfrwt>
<totfact> 0.61858096E+03</totfact>
</mgrwt>
</event>
<event>
 6    1  0.9240440E-006  0.1386032E+03  0.7546771E-02  0.1226605E+00
         -2   -1    0    0    0  501 -0.00000000000E+00  0.00000000000E+00  0.52012677313E+02  0.52012677313E+02  0.00000000000E+00 0.  1.
          2   -1    0    0  501    0  0.00000000000E+00 -0.00000000000E+00 -0.29744723309E+03  0.29744723309E+03  0.00000000000E+00 0. -1.
          5    1    1    2  502    0  0.52156801747E+02  0.71982590094E+02 -0.13664850791E+03  0.16308503904E+03  0.47000000000E+01 0.  1.
         -5    1    1    2    0  502 -0.17362355005E+01 -0.39697952380E+02 -0.15980818504E+02  0.43086175241E+02  0.47000000000E+01 0.  1.
        -11    1    1    2    0    0 -0.39616774978E+02 -0.56000518319E+02 -0.94953263767E+02  0.11713952882E+03  0.00000000000E+00 0. -1.
         11    1    1    2    0    0 -0.10803791268E+02  0.23715880604E+02  0.21480344080E+01  0.26149167299E+02  0.00000000000E+00 0.  1.
<mgrwt>
<rscale>  0 0.13057478E+03</rscale>
<asrwt>0</asrwt>
<pdfrwt beam="2">  1        2 0.45761112E-01 0.13860324E+03</pdfrwt>
<pdfrwt beam="1">  1       -2 0.80019505E-02 0.13860324E+03</pdfrwt>
<totfact> 0.98862593E+03</totfact>
</mgrwt>
</event>
<event>
 6    1  0.9240440E-006  0.1872013E+03  0.7546771E-02  0.1191554E+00
         -1   -1    0    0    0  501 -0.00000000000E+00  0.00000000000E+00  0.99895676122E+01  0.99895676122E+01  0.00000000000E+00 0.  1.
          1   -1    0    0  501    0  0.00000000000E+00 -0.00000000000E+00 -0.24134668031E+04  0.24134668031E+04  0.00000000000E+00 0. -1.
          5    1    1    2  502    0 -0.39217473430E+02 -0.83361661991E+02 -0.97867013579E+03  0.98300788482E+03  0.47000000000E+01 0. -1.
         -5    1    1    2    0  502  0.21063609254E+02  0.92442707491E+02 -0.10421917721E+04  0.10465061441E+04  0.47000000000E+01 0.  1.
        -11    1    1    2    0    0 -0.37380998028E+02 -0.21744411670E+01 -0.17106377359E+03  0.17511391105E+03  0.00000000000E+00 0.  1.
         11    1    1    2    0    0  0.55534862204E+02 -0.69066043330E+01 -0.21155155401E+03  0.21882843076E+03  0.00000000000E+00 0. -1.
<mgrwt>
<rscale>  0 0.15749540E+03</rscale>
<asrwt>0</asrwt>
<pdfrwt beam="2">  1        1 0.37130332E+00 0.18720134E+03</pdfrwt>
<pdfrwt beam="1">  1       -1 0.15368535E-02 0.18720134E+03</pdfrwt>
<totfact> 0.18319691E+03</totfact>
</mgrwt>
</event>
<event>
 6    1  0.9615539E-006  0.1744418E+03  0.7546771E-02  0.1179617E+00
         -1   -1    0    0    0  501 -0.00000000000E+00  0.00000000000E+00  0.45831172490E+02  0.45831172490E+02  0.00000000000E+00 0.  1.
          1   -1    0    0  501    0  0.00000000000E+00 -0.00000000000E+00 -0.57903745384E+03  0.57903745384E+03  0.00000000000E+00 0. -1.
          5    1    1    2  502    0  0.99475493366E+00 -0.55260585284E+02 -0.35302101311E+02  0.65749906314E+02  0.47000000000E+01 0. -1.
         -5    1    1    2    0  502  0.93590675670E+02 -0.21281141104E+02 -0.26048543542E+03  0.27764519373E+03  0.47000000000E+01 0. -1.
        -11    1    1    2    0    0 -0.55609915464E+02 -0.91569840443E+01 -0.76172819161E+02  0.94755535109E+02  0.00000000000E+00 0. -1.
         11    1    1    2    0    0 -0.38975515140E+02  0.85698710432E+02 -0.16124592546E+03  0.18671799117E+03  0.00000000000E+00 0.  1.
<mgrwt>
<rscale>  0 0.16831454E+03</rscale>
<asrwt>0</asrwt>
<pdfrwt beam="2">  1        1 0.89082684E-01 0.17444176E+03</pdfrwt>
<pdfrwt beam="1">  1       -1 0.70509497E-02 0.17444176E+03</pdfrwt>
<totfact> 0.37905413E+03</totfact>
</mgrwt>
</event>
<event>
 6    1  0.9240440E-006  0.2254207E+03  0.7546771E-02  0.1133000E+00
         -2   -1    0    0    0  501 -0.00000000000E+00  0.00000000000E+00  0.46804262183E+02  0.46804262183E+02  0.00000000000E+00 0.  1.
          2   -1    0    0  501    0  0.00000000000E+00 -0.00000000000E+00 -0.10474807383E+04  0.10474807383E+04  0.00000000000E+00 0. -1.
          5    1    1    2  502    0  0.15571144728E+02  0.11116437315E+03 -0.52027352085E+03  0.53226553984E+03  0.47000000000E+01 0. -1.
         -5    1    1    2    0  502  0.45841458819E+02  0.66084815456E+02 -0.10463551588E+03  0.13205803029E+03  0.47000000000E+01 0. -1.
        -11    1    1    2    0    0 -0.64897845813E+02 -0.55054403693E+02 -0.12849918530E+03  0.15412578752E+03  0.00000000000E+00 0.  1.
         11    1    1    2    0    0  0.34852422652E+01 -0.12219478491E+03 -0.24726825404E+03  0.27583564278E+03  0.00000000000E+00 0. -1.
<mgrwt>
<rscale>  0 0.22118867E+03</rscale>
<asrwt>0</asrwt>
<pdfrwt beam="2">  1        2 0.16115088E+00 0.22542072E+03</pdfrwt>
<pdfrwt beam="1">  1       -2 0.72006560E-02 0.22542072E+03</pdfrwt>
<totfact> 0.27289252E+03</totfact>
</mgrwt>
</event>
<event>
 6    1  0.9240440E-006  0.1284994E+03  0.7546771E-02  0.1244076E+00
         -2   -1    0    0    0  501 -0.00000000000E+00  0.00000000000E+00  0.21926462989E+02  0.21926462989E+02  0.00000000000E+00 0. -1.
          2   -1    0    0  501    0  0.00000000000E+00 -0.00000000000E+00 -0.59835081066E+03  0.59835081066E+03  0.00000000000E+00 0.  1.
          5    1    1    2  502    0  0.31306733331E+02  0.15770038982E+02 -0.31351307843E+03  0.31550173697E+03  0.47000000000E+01 0. -1.
         -5    1    1    2    0  502 -0.56546639162E+02  0.50297535506E-01 -0.77268312179E+02  0.95864524186E+02  0.47000000000E+01 0. -1.
        -11    1    1    2    0    0  0.45861390965E+02  0.14869110549E+02 -0.14998783506E+03  0.15754589266E+03  0.00000000000E+00 0.  1.
         11    1    1    2    0    0 -0.20621485134E+02 -0.30689447066E+02 -0.35655121999E+02  0.51365119830E+02  0.00000000000E+00 0. -1.
<mgrwt>
<rscale>  0 0.11940822E+03</rscale>
<asrwt>0</asrwt>
<pdfrwt beam="2">  1        2 0.92053980E-01 0.12849944E+03</pdfrwt>
<pdfrwt beam="1">  1       -2 0.33733017E-02 0.12849944E+03</pdfrwt>
<totfact> 0.16942542E+04</totfact>
</mgrwt>
</event>
<event>
 6    1  0.9240440E-006  0.1496164E+03  0.7546771E-02  0.1210492E+00
         -2   -1    0    0    0  501 -0.00000000000E+00  0.00000000000E+00  0.18747070728E+03  0.18747070728E+03  0.00000000000E+00 0.  1.
          2   -1    0    0  501    0  0.00000000000E+00 -0.00000000000E+00 -0.10455263125E+03  0.10455263125E+03  0.00000000000E+00 0. -1.
          5    1    1    2  502    0  0.40760979426E+02 -0.12092586100E+01  0.67182564848E+02  0.78730596148E+02  0.47000000000E+01 0.  1.
         -5    1    1    2    0  502  0.41304438682E+02 -0.72714305014E+01 -0.57354924467E+02  0.71208199788E+02  0.47000000000E+01 0.  1.
        -11    1    1    2    0    0 -0.62365693504E+02 -0.30814261408E+02  0.68932150422E+02  0.97931811962E+02  0.00000000000E+00 0.  1.
         11    1    1    2    0    0 -0.19699724605E+02  0.39294950520E+02  0.41582852301E+01  0.44152730628E+02  0.00000000000E+00 0. -1.
<mgrwt>
<rscale>  0 0.14212969E+03</rscale>
<asrwt>0</asrwt>
<pdfrwt beam="2">  1        2 0.16085020E-01 0.14961638E+03</pdfrwt>
<pdfrwt beam="1">  1       -2 0.28841647E-01 0.14961638E+03</pdfrwt>
<totfact> 0.37970951E+03</totfact>
</mgrwt>
</event>
<event>
 6    1  0.9240440E-006  0.4163907E+03  0.7546771E-02  0.1038247E+00
          1   -1    0    0  501    0  0.00000000000E+00  0.00000000000E+00  0.36696382201E+03  0.36696382201E+03  0.00000000000E+00 0. -1.
         -1   -1    0    0    0  501 -0.00000000000E+00 -0.00000000000E+00 -0.11811875370E+03  0.11811875370E+03  0.00000000000E+00 0.  1.
          5    1    1    2  502    0 -0.76061315677E+02  0.11007694242E+03  0.55779965216E+02  0.14503706945E+03  0.47000000000E+01 0. -1.
         -5    1    1    2    0  502  0.12409659567E+02  0.12131926887E+02  0.15024561434E+03  0.15131760614E+03  0.47000000000E+01 0.  1.
        -11    1    1    2    0    0 -0.12240535928E+02 -0.10476507710E+03  0.18040307314E+02  0.10700936776E+03  0.00000000000E+00 0.  1.
         11    1    1    2    0    0  0.75892192037E+02 -0.17443792202E+02  0.24779181438E+02  0.81718532362E+02  0.00000000000E+00 0. -1.
<mgrwt>
<rscale>  0 0.41639073E+03</rscale>
<asrwt>0</asrwt>
<pdfrwt beam="1">  1        1 0.56455972E-01 0.41639073E+03</pdfrwt>
<pdfrwt beam="2">  1       -1 0.18172116E-01 0.41639073E+03</pdfrwt>
<totfact> 0.16046740E+03</totfact>
</mgrwt>
</event>
<event>
 6    1  0.9240440E-006  0.4123173E+03  0.7546771E-02  0.1039596E+00
          1   -1    0    0  501    0  0.00000000000E+00  0.00000000000E+00  0.12313835869E+03  0.12313835869E+03  0.00000000000E+00 0. -1.
         -1   -1    0    0    0  501 -0.00000000000E+00 -0.00000000000E+00 -0.34515153340E+03  0.34515153340E+03  0.00000000000E+00 0.  1.
          5    1    1    2  502    0 -0.14694567984E+03 -0.76193879920E+02 -0.20683741230E+03  0.26495725182E+03  0.47000000000E+01 0.  1.
         -5    1    1    2    0  502  0.15108744345E+02 -0.10529362470E+02  0.54702557347E+01  0.19777647169E+02  0.47000000000E+01 0.  1.
        -11    1    1    2    0    0  0.31832162773E+02  0.73297121637E+02 -0.21108902255E+02  0.82651923036E+02  0.00000000000E+00 0.  1.
         11    1    1    2    0    0  0.10000477272E+03  0.13426120753E+02  0.46288411052E+00  0.10090307006E+03  0.00000000000E+00 0. -1.
<mgrwt>
<rscale>  0 0.41231732E+03</rscale>
<asrwt>0</asrwt>
<pdfrwt beam="1">  1        1 0.18944363E-01 0.41231732E+03</pdfrwt>
<pdfrwt beam="2">  1       -1 0.53100235E-01 0.41231732E+03</pdfrwt>
<totfact> 0.10101341E+03</totfact>
</mgrwt>
</event>
<event>
 6    1  0.9240440E-006  0.1701561E+03  0.7546771E-02  0.1183880E+00
         -2   -1    0    0    0  501 -0.00000000000E+00  0.00000000000E+00  0.17658184845E+02  0.17658184845E+02  0.00000000000E+00 0.  1.
          2   -1    0    0  501    0  0.00000000000E+00 -0.00000000000E+00 -0.14982827596E+04  0.14982827596E+04  0.00000000000E+00 0. -1.
          5    1    1    2  502    0  0.29888504473E+02 -0.53603995010E+02 -0.26460247923E+03  0.27166757811E+03  0.47000000000E+01 0.  1.
         -5    1    1    2    0  502 -0.97475668035E+02 -0.39996502086E+02 -0.68193520748E+03  0.69004271117E+03  0.47000000000E+01 0.  1.
        -11    1    1    2    0    0  0.96977588960E+01  0.18516992226E+02 -0.13058332345E+02  0.24646410942E+02  0.00000000000E+00 0.  1.
         11    1    1    2    0    0  0.57889404666E+02  0.75083504870E+02 -0.52102855571E+03  0.52958424424E+03  0.00000000000E+00 0. -1.
<mgrwt>
<rscale>  0 0.16434164E+03</rscale>
<asrwt>0</asrwt>
<pdfrwt beam="2">  1        2 0.23050510E+00 0.17015607E+03</pdfrwt>
<pdfrwt beam="1">  1       -2 0.27166431E-02 0.17015607E+03</pdfrwt>
<totfact> 0.66357315E+03</totfact>
</mgrwt>
</event>
<event>
 6    1  0.9240440E-006  0.1735555E+03  0.7546771E-02  0.1180497E+00
          2   -1    0    0  501    0  0.00000000000E+00  0.00000000000E+00  0.16506451664E+04  0.16506451664E+04  0.00000000000E+00 0. -1.
         -2   -1    0    0    0  501 -0.00000000000E+00 -0.00000000000E+00 -0.15927042672E+02  0.15927042672E+02  0.00000000000E+00 0.  1.
          5    1    1    2  502    0  0.16331648212E+02 -0.31431954700E+02  0.96055843267E+02  0.10248661149E+03  0.47000000000E+01 0. -1.
         -5    1    1    2    0  502  0.82135973852E+02  0.10071855074E+03  0.74918499414E+03  0.76038857837E+03  0.47000000000E+01 0. -1.
        -11    1    1    2    0    0 -0.35234250567E+02  0.20068431638E+02  0.18551232058E+03  0.18989211529E+03  0.00000000000E+00 0.  1.
         11    1    1    2    0    0 -0.63233371497E+02 -0.89355027679E+02  0.60396496575E+03  0.61380490394E+03  0.00000000000E+00 0. -1.
<mgrwt>
<rscale>  0 0.16748394E+03</rscale>
<asrwt>0</asrwt>
<pdfrwt beam="1">  1        2 0.25394527E+00 0.17355552E+03</pdfrwt>
<pdfrwt beam="2">  1       -2 0.24503156E-02 0.17355552E+03</pdfrwt>
<totfact> 0.64335225E+03</totfact>
</mgrwt>
</event>
<event>
 6    1  0.9240440E-006  0.1487383E+03  0.7546771E-02  0.1221176E+00
          1   -1    0    0  501    0  0.00000000000E+00  0.00000000000E+00  0.25038563582E+04  0.25038563582E+04  0.00000000000E+00 0. -1.
         -1   -1    0    0    0  501 -0.00000000000E+00 -0.00000000000E+00 -0.13805280816E+02  0.13805280816E+02  0.00000000000E+00 0.  1.
          5    1    1    2  502    0  0.82249395208E+02 -0.35570830700E+02  0.10567569290E+04  0.10605600143E+04  0.47000000000E+01 0. -1.
         -5    1    1    2    0  502 -0.44093949688E+02  0.23804860513E+02  0.12298163994E+04  0.12308458124E+04  0.47000000000E+01 0.  1.
        -11    1    1    2    0    0 -0.51889156966E+02 -0.17050000059E+02  0.68787326468E+02  0.87834408948E+02  0.00000000000E+00 0.  1.
         11    1    1    2    0    0  0.13733711446E+02  0.28815970247E+02  0.13469042249E+03  0.13842140326E+03  0.00000000000E+00 0. -1.
<mgrwt>
<rscale>  0 0.13432492E+03</rscale>
<asrwt>0</asrwt>
<pdfrwt beam="1">  1        1 0.38520831E+00 0.14873828E+03</pdfrwt>
<pdfrwt beam="2">  1       -1 0.21238913E-02 0.14873828E+03</pdfrwt>
<totfact> 0.10051641E+03</totfact>
</mgrwt>
</event>
<event>
 6    1  0.9240440E-006  0.1280666E+03  0.7546771E-02  0.1243757E+00
          1   -1    0    0  501    0  0.00000000000E+00  0.00000000000E+00  0.10921689733E+03  0.10921689733E+03  0.00000000000E+00 0. -1.
         -1   -1    0    0    0  501 -0.00000000000E+00 -0.00000000000E+00 -0.13917303589E+03  0.13917303589E+03  0.00000000000E+00 0.  1.
          5    1    1    2  502    0 -0.32649383400E+02  0.34152081961E+02 -0.90046628460E+01  0.48327227229E+02  0.47000000000E+01 0. -1.
         -5    1    1    2    0  502  0.38386947200E+02 -0.61440547784E+02  0.42195229060E+02  0.83970387535E+02  0.47000000000E+01 0. -1.
        -11    1    1    2    0    0 -0.35045828422E+02  0.37804525484E+01  0.75349344821E+01  0.36045487219E+02  0.00000000000E+00 0. -1.
         11    1    1    2    0    0  0.29308264621E+02  0.23508013275E+02 -0.70681639253E+02  0.80046831234E+02  0.00000000000E+00 0.  1.
<mgrwt>
<rscale>  0 0.11960095E+03</rscale>
<asrwt>0</asrwt>
<pdfrwt beam="1">  1        1 0.16802600E-01 0.12806657E+03</pdfrwt>
<pdfrwt beam="2">  1       -1 0.21411236E-01 0.12806657E+03</pdfrwt>
<totfact> 0.54850704E+03</totfact>
</mgrwt>
</event>
<event>
 6    1  0.9240440E-006  0.2399539E+03  0.7546771E-02  0.1157933E+00
          2   -1    0    0  501    0  0.00000000000E+00  0.00000000000E+00  0.20018084766E+03  0.20018084766E+03  0.00000000000E+00 0. -1.
         -2   -1    0    0    0  501 -0.00000000000E+00 -0.00000000000E+00 -0.33681384690E+03  0.33681384690E+03  0.00000000000E+00 0.  1.
          5    1    1    2  502    0  0.35841051704E+02  0.95194940241E+02  0.11179837879E+03  0.15122045210E+03  0.47000000000E+01 0. -1.
         -5    1    1    2    0  502 -0.66583338541E+02 -0.94061949432E+02  0.44883595787E+01  0.11542628242E+03  0.47000000000E+01 0.  1.
        -11    1    1    2    0    0 -0.20503513921E+01 -0.37174778347E+02 -0.17121522570E+03  0.17521649921E+03  0.00000000000E+00 0.  1.
         11    1    1    2    0    0  0.32792638229E+02  0.36041787538E+02 -0.81704511907E+02  0.95131460816E+02  0.00000000000E+00 0. -1.
<mgrwt>
<rscale>  0 0.19058688E+03</rscale>
<asrwt>0</asrwt>
<pdfrwt beam="1">  1        2 0.30797054E-01 0.23995390E+03</pdfrwt>
<pdfrwt beam="2">  1       -2 0.51817515E-01 0.23995390E+03</pdfrwt>
<totfact> 0.60992302E+02</totfact>
</mgrwt>
</event>
<event>
 6    1  0.9240440E-006  0.1446326E+03  0.7546771E-02  0.1216825E+00
          2   -1    0    0  501    0  0.00000000000E+00  0.00000000000E+00  0.30362747478E+03  0.30362747478E+03  0.00000000000E+00 0. -1.
         -2   -1    0    0    0  501 -0.00000000000E+00 -0.00000000000E+00 -0.84360591850E+02  0.84360591850E+02  0.00000000000E+00 0.  1.
          5    1    1    2  502    0 -0.35587651585E+00 -0.29756533411E+02  0.21897691024E+03  0.22103971396E+03  0.47000000000E+01 0.  1.
         -5    1    1    2    0  502 -0.31952068088E+02 -0.35429328777E+02  0.87464978050E+01  0.48731542317E+02  0.47000000000E+01 0.  1.
        -11    1    1    2    0    0 -0.27259172178E+01 -0.21907864771E+02  0.68195705229E+01  0.23106096720E+02  0.00000000000E+00 0.  1.
         11    1    1    2    0    0  0.35033861822E+02  0.87093726960E+02 -0.15276095639E+02  0.95110713633E+02  0.00000000000E+00 0. -1.
<mgrwt>
<rscale>  0 0.13743295E+03</rscale>
<asrwt>0</asrwt>
<pdfrwt beam="1">  1        2 0.46711918E-01 0.14463257E+03</pdfrwt>
<pdfrwt beam="2">  1       -2 0.12978553E-01 0.14463257E+03</pdfrwt>
<totfact> 0.45255261E+03</totfact>
</mgrwt>
</event>
<event>
 6    1  0.9240440E-006  0.2644983E+03  0.7546771E-02  0.1104470E+00
          1   -1    0    0  501    0  0.00000000000E+00  0.00000000000E+00  0.40934795791E+03  0.40934795791E+03  0.00000000000E+00 0. -1.
         -1   -1    0    0    0  501 -0.00000000000E+00 -0.00000000000E+00 -0.42726091723E+02  0.42726091723E+02  0.00000000000E+00 0.  1.
          5    1    1    2  502    0  0.37413102876E+02  0.88901675857E+02  0.20584008792E+03  0.22736640040E+03  0.47000000000E+01 0. -1.
         -5    1    1    2    0  502  0.48875173782E+01 -0.24892484361E+02  0.52060422914E+00  0.25804740505E+02  0.47000000000E+01 0. -1.
        -11    1    1    2    0    0  0.18155775636E+01 -0.44203250351E+02  0.16484943537E+02  0.47212043240E+02  0.00000000000E+00 0.  1.
         11    1    1    2    0    0 -0.44116197818E+02 -0.19805941145E+02  0.14377623051E+03  0.15169086549E+03  0.00000000000E+00 0. -1.
<mgrwt>
<rscale>  0 0.26449831E+03</rscale>
<asrwt>0</asrwt>
<pdfrwt beam="1">  1        1 0.62976606E-01 0.26449831E+03</pdfrwt>
<pdfrwt beam="2">  1       -1 0.65732452E-02 0.26449831E+03</pdfrwt>
<totfact> 0.67854066E+03</totfact>
</mgrwt>
</event>
<event>
 6    1  0.9481179E-006  0.2866468E+03  0.7546771E-02  0.1093859E+00
         -1   -1    0    0    0  501 -0.00000000000E+00  0.00000000000E+00  0.88271270530E+02  0.88271270530E+02  0.00000000000E+00 0.  1.
          1   -1    0    0  501    0  0.00000000000E+00 -0.00000000000E+00 -0.91162135644E+03  0.91162135644E+03  0.00000000000E+00 0. -1.
          5    1    1    2  502    0  0.20397304596E+03  0.14450571264E+03 -0.49661841165E+03  0.55600255508E+03  0.47000000000E+01 0.  1.
         -5    1    1    2    0  502 -0.37311433641E+01  0.18110533906E+02 -0.20596178371E+01  0.19189708044E+02  0.47000000000E+01 0.  1.
        -11    1    1    2    0    0 -0.37156879151E+02 -0.81035429264E+02 -0.81787903192E+02  0.12098196383E+03  0.00000000000E+00 0.  1.
         11    1    1    2    0    0 -0.16308502344E+03 -0.81580817277E+02 -0.24288415322E+03  0.30371840001E+03  0.00000000000E+00 0. -1.
<mgrwt>
<rscale>  0 0.28337586E+03</rscale>
<asrwt>0</asrwt>
<pdfrwt beam="2">  1        1 0.14024944E+00 0.28664676E+03</pdfrwt>
<pdfrwt beam="1">  1       -1 0.13580195E-01 0.28664676E+03</pdfrwt>
<totfact> 0.70594754E+02</totfact>
</mgrwt>
</event>
<event>
 6    1  0.9240440E-006  0.3206549E+03  0.7546771E-02  0.1075348E+00
          2   -1    0    0  501    0  0.00000000000E+00  0.00000000000E+00  0.10889492090E+03  0.10889492090E+03  0.00000000000E+00 0. -1.
         -2   -1    0    0    0  501 -0.00000000000E+00 -0.00000000000E+00 -0.23605226949E+03  0.23605226949E+03  0.00000000000E+00 0.  1.
          5    1    1    2  502    0  0.30094010130E+02  0.24272426578E+02  0.46040401139E+01  0.39218456409E+02  0.47000000000E+01 0. -1.
         -5    1    1    2    0  502 -0.10742979294E+03  0.64125204032E+02 -0.77018928009E+02  0.14699390285E+03  0.47000000000E+01 0. -1.
        -11    1    1    2    0    0  0.69523620517E+02 -0.16213017912E+02 -0.47545740792E+02  0.85772916629E+02  0.00000000000E+00 0.  1.
         11    1    1    2    0    0  0.78121622920E+01 -0.72184612698E+02 -0.71967199092E+01  0.72961914500E+02  0.00000000000E+00 0. -1.
<mgrwt>
<rscale>  0 0.32065491E+03</rscale>
<asrwt>0</asrwt>
<pdfrwt beam="1">  1        2 0.16753065E-01 0.32065491E+03</pdfrwt>
<pdfrwt beam="2">  1       -2 0.36315733E-01 0.32065491E+03</pdfrwt>
<totfact> 0.24530833E+03</totfact>
</mgrwt>
</event>
<event>
 6    1  0.9240440E-006  0.2691424E+03  0.7546771E-02  0.1101771E+00
          2   -1    0    0  501    0  0.00000000000E+00  0.00000000000E+00  0.17654014280E+03  0.17654014280E+03  0.00000000000E+00 0. -1.
         -2   -1    0    0    0  501 -0.00000000000E+00 -0.00000000000E+00 -0.10257955271E+03  0.10257955271E+03  0.00000000000E+00 0.  1.
          5    1    1    2  502    0 -0.99233331961E+02  0.38726148579E+02  0.19250604630E+02  0.10834964021E+03  0.47000000000E+01 0. -1.
         -5    1    1    2    0  502  0.33859405657E+02  0.58049830742E+01  0.34840085981E+02  0.49153624191E+02  0.47000000000E+01 0. -1.
        -11    1    1    2    0    0  0.19569517217E+02 -0.30585710049E+02  0.52385405619E+02  0.63739174650E+02  0.00000000000E+00 0. -1.
         11    1    1    2    0    0  0.45804409088E+02 -0.13945421604E+02 -0.32515506142E+02  0.57877256459E+02  0.00000000000E+00 0.  1.
<mgrwt>
<rscale>  0 0.26914241E+03</rscale>
<asrwt>0</asrwt>
<pdfrwt beam="1">  1        2 0.27160022E-01 0.26914241E+03</pdfrwt>
<pdfrwt beam="2">  1       -2 0.15781470E-01 0.26914241E+03</pdfrwt>
<totfact> 0.61077237E+03</totfact>
</mgrwt>
</event>
<event>
 6    1  0.9240440E-006  0.2618845E+03  0.7546771E-02  0.1108305E+00
          2   -1    0    0  501    0  0.00000000000E+00  0.00000000000E+00  0.40181949540E+03  0.40181949540E+03  0.00000000000E+00 0. -1.
         -2   -1    0    0    0  501 -0.00000000000E+00 -0.00000000000E+00 -0.16490876862E+03  0.16490876862E+03  0.00000000000E+00 0.  1.
          5    1    1    2  502    0 -0.49891705985E+02 -0.17400345853E+03  0.12309500016E+03  0.21895400195E+03  0.47000000000E+01 0.  1.
         -5    1    1    2    0  502  0.57332581882E+02 -0.56007966734E+02  0.41758732525E+02  0.90497508391E+02  0.47000000000E+01 0.  1.
        -11    1    1    2    0    0 -0.30623309659E+02  0.17104023830E+03  0.83672757157E+02  0.19285663199E+03  0.00000000000E+00 0. -1.
         11    1    1    2    0    0  0.23182433762E+02  0.58971186963E+02 -0.11615763054E+02  0.64420121688E+02  0.00000000000E+00 0.  1.
<mgrwt>
<rscale>  0 0.25807609E+03</rscale>
<asrwt>0</asrwt>
<pdfrwt beam="1">  1        2 0.61818383E-01 0.26188449E+03</pdfrwt>
<pdfrwt beam="2">  1       -2 0.25370580E-01 0.26188449E+03</pdfrwt>
<totfact> 0.11006428E+03</totfact>
</mgrwt>
</event>
<event>
 6    1  0.9240440E-006  0.1356419E+03  0.7546771E-02  0.1231974E+00
         -2   -1    0    0    0  501 -0.00000000000E+00  0.00000000000E+00  0.41155431095E+02  0.41155431095E+02  0.00000000000E+00 0.  1.
          2   -1    0    0  501    0  0.00000000000E+00 -0.00000000000E+00 -0.36958071948E+03  0.36958071948E+03  0.00000000000E+00 0. -1.
          5    1    1    2  502    0 -0.83200572369E+02  0.83099389143E+01 -0.17938640255E+03  0.19797212366E+03  0.47000000000E+01 0.  1.
         -5    1    1    2    0  502  0.40980110881E+02  0.23193578662E+02 -0.52560116594E+02  0.70724588619E+02  0.47000000000E+01 0.  1.
        -11    1    1    2    0    0 -0.10309710530E+02  0.19446453987E+02 -0.13941714999E+01  0.22054442139E+02  0.00000000000E+00 0. -1.
         11    1    1    2    0    0  0.52530172018E+02 -0.50949971564E+02 -0.95084597743E+02  0.11998499616E+03  0.00000000000E+00 0.  1.
<mgrwt>
<rscale>  0 0.12700167E+03</rscale>
<asrwt>0</asrwt>
<pdfrwt beam="2">  1        2 0.56858574E-01 0.13564194E+03</pdfrwt>
<pdfrwt beam="1">  1       -2 0.63316046E-02 0.13564194E+03</pdfrwt>
<totfact> 0.11222650E+04</totfact>
</mgrwt>
</event>
<event>
 6    1  0.9240440E-006  0.2761516E+03  0.7546771E-02  0.1097810E+00
         -3   -1    0    0    0  501 -0.00000000000E+00  0.00000000000E+00  0.70683468610E+02  0.70683468610E+02  0.00000000000E+00 0.  1.
          3   -1    0    0  501    0  0.00000000000E+00 -0.00000000000E+00 -0.26972254272E+03  0.26972254272E+03  0.00000000000E+00 0. -1.
          5    1    1    2  502    0 -0.31453105025E+02 -0.10867319432E+02  0.18769725458E+01  0.33660206079E+02  0.47000000000E+01 0.  1.
         -5    1    1    2    0  502  0.10028701514E+02 -0.48595374161E+01 -0.21150526783E+03  0.21185079249E+03  0.47000000000E+01 0.  1.
        -11    1    1    2    0    0  0.38281167616E+02 -0.26596696332E+02  0.15383537042E+02  0.49086507940E+02  0.00000000000E+00 0.  1.
         11    1    1    2    0    0 -0.16856764105E+02  0.42323553180E+02 -0.47943158721E+01  0.45808504828E+02  0.00000000000E+00 0. -1.
<mgrwt>
<rscale>  0 0.27615159E+03</rscale>
<asrwt>0</asrwt>
<pdfrwt beam="2">  1        3 0.41495777E-01 0.27615159E+03</pdfrwt>
<pdfrwt beam="1">  1       -3 0.10874380E-01 0.27615159E+03</pdfrwt>
<totfact> 0.94351396E+02</totfact>
</mgrwt>
</event>
<event>
 6    1  0.9240440E-006  0.1831619E+03  0.7546771E-02  0.1170222E+00
         -2   -1    0    0    0  501 -0.00000000000E+00  0.00000000000E+00  0.12689906140E+03  0.12689906140E+03  0.00000000000E+00 0. -1.
          2   -1    0    0  501    0  0.00000000000E+00 -0.00000000000E+00 -0.26128383176E+03  0.26128383176E+03  0.00000000000E+00 0.  1.
          5    1    1    2  502    0 -0.26376027645E+02 -0.43614561756E+02 -0.11914908032E+03  0.12967851855E+03  0.47000000000E+01 0. -1.
         -5    1    1    2    0  502  0.32049855602E+02 -0.90189732060E+02 -0.14185281135E+02  0.96874626266E+02  0.47000000000E+01 0. -1.
        -11    1    1    2    0    0 -0.59445803461E+01  0.10905866751E+03 -0.39297205457E+02  0.11607498159E+03  0.00000000000E+00 0.  1.
         11    1    1    2    0    0  0.27075238889E+00  0.24745626307E+02  0.38246796544E+02  0.45554766755E+02  0.00000000000E+00 0. -1.
<mgrwt>
<rscale>  0 0.17752289E+03</rscale>
<asrwt>0</asrwt>
<pdfrwt beam="2">  1        2 0.40197512E-01 0.18316188E+03</pdfrwt>
<pdfrwt beam="1">  1       -2 0.19522933E-01 0.18316188E+03</pdfrwt>
<totfact> 0.27347446E+03</totfact>
</mgrwt>
</event>
<event>
 6    1  0.9240440E-006  0.1481463E+03  0.7546771E-02  0.1214854E+00
          2   -1    0    0  501    0  0.00000000000E+00  0.00000000000E+00  0.32617841455E+03  0.32617841455E+03  0.00000000000E+00 0. -1.
         -2   -1    0    0    0  501 -0.00000000000E+00 -0.00000000000E+00 -0.54077533885E+02  0.54077533885E+02  0.00000000000E+00 0.  1.
          5    1    1    2  502    0 -0.28529031719E+02  0.11612981148E+02  0.10381491225E+02  0.32842538605E+02  0.47000000000E+01 0.  1.
         -5    1    1    2    0  502  0.71261873789E+02 -0.78664602866E+02  0.17142267754E+03  0.20167845392E+03  0.47000000000E+01 0.  1.
        -11    1    1    2    0    0  0.19371111956E+02  0.35900711463E+02  0.15476895761E+02  0.43630669997E+02  0.00000000000E+00 0.  1.
         11    1    1    2    0    0 -0.62103954025E+02  0.31150910255E+02  0.74819816141E+02  0.10210428592E+03  0.00000000000E+00 0. -1.
<mgrwt>
<rscale>  0 0.13887232E+03</rscale>
<asrwt>0</asrwt>
<pdfrwt beam="1">  1        2 0.50181294E-01 0.14814635E+03</pdfrwt>
<pdfrwt beam="2">  1       -2 0.83196207E-02 0.14814635E+03</pdfrwt>
<totfact> 0.84796199E+03</totfact>
</mgrwt>
</event>
<event>
 6    1  0.9240440E-006  0.1937991E+03  0.7546771E-02  0.1166764E+00
         -2   -1    0    0    0  501 -0.00000000000E+00  0.00000000000E+00  0.24803546077E+02  0.24803546077E+02  0.00000000000E+00 0.  1.
          2   -1    0    0  501    0  0.00000000000E+00 -0.00000000000E+00 -0.11938517372E+04  0.11938517372E+04  0.00000000000E+00 0. -1.
          5    1    1    2  502    0 -0.50259529991E+02  0.36190358189E+02 -0.36795468292E+03  0.37316015471E+03  0.47000000000E+01 0. -1.
         -5    1    1    2    0  502  0.10024743617E+03  0.70523796780E+02 -0.36910632107E+03  0.38895336561E+03  0.47000000000E+01 0.  1.
        -11    1    1    2    0    0  0.99364838832E+01 -0.78845327054E+02 -0.27392666739E+03  0.28522120962E+03  0.00000000000E+00 0.  1.
         11    1    1    2    0    0 -0.59924390058E+02 -0.27868827915E+02 -0.15806051980E+03  0.17132055338E+03  0.00000000000E+00 0. -1.
<mgrwt>
<rscale>  0 0.18107743E+03</rscale>
<asrwt>0</asrwt>
<pdfrwt beam="2">  1        2 0.18366944E+00 0.19379911E+03</pdfrwt>
<pdfrwt beam="1">  1       -2 0.38159314E-02 0.19379911E+03</pdfrwt>
<totfact> 0.58818138E+03</totfact>
</mgrwt>
</event>
<event>
 6    1  0.9240440E-006  0.1540311E+03  0.7546771E-02  0.1203807E+00
         -2   -1    0    0    0  501 -0.00000000000E+00  0.00000000000E+00  0.62211763138E+02  0.62211763138E+02  0.00000000000E+00 0.  1.
          2   -1    0    0  501    0  0.00000000000E+00 -0.00000000000E+00 -0.34074284729E+03  0.34074284729E+03  0.00000000000E+00 0. -1.
          5    1    1    2  502    0  0.62275133605E+02  0.34185674618E+02 -0.52530623776E+02  0.88478297050E+02  0.47000000000E+01 0. -1.
         -5    1    1    2    0  502 -0.46887495652E+02  0.54490046457E+02 -0.14593213059E+03  0.16274482833E+03  0.47000000000E+01 0. -1.
        -11    1    1    2    0    0  0.25895164299E+02 -0.75091371115E+02 -0.72646499785E+02  0.10764194109E+03  0.00000000000E+00 0. -1.
         11    1    1    2    0    0 -0.41282802252E+02 -0.13584349959E+02 -0.74218300010E+01  0.44089543955E+02  0.00000000000E+00 0.  1.
<mgrwt>
<rscale>  0 0.14731858E+03</rscale>
<asrwt>0</asrwt>
<pdfrwt beam="2">  1        2 0.52421975E-01 0.15403115E+03</pdfrwt>
<pdfrwt beam="1">  1       -2 0.95710407E-02 0.15403115E+03</pdfrwt>
<totfact> 0.65203272E+03</totfact>
</mgrwt>
</event>
<event>
 6    1  0.9240440E-006  0.1885584E+03  0.7546771E-02  0.1164652E+00
         -1   -1    0    0    0  501 -0.00000000000E+00  0.00000000000E+00  0.63029755834E+03  0.63029755834E+03  0.00000000000E+00 0.  1.
          1   -1    0    0  501    0  0.00000000000E+00 -0.00000000000E+00 -0.53464348528E+02  0.53464348528E+02  0.00000000000E+00 0. -1.
          5    1    1    2  502    0 -0.22192130053E+02 -0.12083888253E+02 -0.11940505957E+02  0.28340371806E+02  0.47000000000E+01 0.  1.
         -5    1    1    2    0  502 -0.11897437321E+03  0.10048276642E+02  0.23581529146E+03  0.26436113752E+03  0.47000000000E+01 0.  1.
        -11    1    1    2    0    0  0.66547301308E+01  0.19402799866E+02  0.11797225098E+03  0.11974224851E+03  0.00000000000E+00 0.  1.
         11    1    1    2    0    0  0.13451177314E+03 -0.17367188256E+02  0.23498617332E+03  0.27131814903E+03  0.00000000000E+00 0. -1.
<mgrwt>
<rscale>  0 0.18329506E+03</rscale>
<asrwt>0</asrwt>
<pdfrwt beam="2">  1        1 0.82252848E-02 0.18855836E+03</pdfrwt>
<pdfrwt beam="1">  1       -1 0.96968850E-01 0.18855836E+03</pdfrwt>
<totfact> 0.89778423E+02</totfact>
</mgrwt>
</event>
<event>
 6    1  0.9240440E-006  0.1107032E+03  0.7546771E-02  0.1271980E+00
         -1   -1    0    0    0  501 -0.00000000000E+00  0.00000000000E+00  0.24231099618E+02  0.24231099618E+02  0.00000000000E+00 0.  1.
          1   -1    0    0  501    0  0.00000000000E+00 -0.00000000000E+00 -0.73015958440E+03  0.73015958440E+03  0.00000000000E+00 0. -1.
          5    1    1    2  502    0  0.44375571455E+02  0.24385698459E+02 -0.19953294387E+03  0.20591099855E+03  0.47000000000E+01 0. -1.
         -5    1    1    2    0  502 -0.48854202076E+02 -0.20667317187E+02 -0.42951219538E+03  0.43280097855E+03  0.47000000000E+01 0.  1.
        -11    1    1    2    0    0  0.44001442987E+02 -0.46737779942E+00 -0.25801205528E+02  0.51010269884E+02  0.00000000000E+00 0. -1.
         11    1    1    2    0    0 -0.39522812366E+02 -0.32510034726E+01 -0.51082140001E+02  0.64668437030E+02  0.00000000000E+00 0.  1.
<mgrwt>
<rscale>  0 0.10406124E+03</rscale>
<asrwt>0</asrwt>
<pdfrwt beam="2">  1        1 0.11233222E+00 0.11070322E+03</pdfrwt>
<pdfrwt beam="1">  1       -1 0.37278622E-02 0.11070322E+03</pdfrwt>
<totfact> 0.68973578E+03</totfact>
</mgrwt>
</event>
<event>
 6    1  0.9240440E-006  0.1477068E+03  0.7546771E-02  0.1210214E+00
         -1   -1    0    0    0  501 -0.00000000000E+00  0.00000000000E+00  0.20239006761E+02  0.20239006761E+02  0.00000000000E+00 0.  1.
          1   -1    0    0  501    0  0.00000000000E+00 -0.00000000000E+00 -0.10040193265E+04  0.10040193265E+04  0.00000000000E+00 0. -1.
          5    1    1    2  502    0  0.18838501858E+02 -0.13648739570E+02 -0.44807308395E+02  0.50704655898E+02  0.47000000000E+01 0. -1.
         -5    1    1    2    0  502 -0.10448519360E+03  0.44745357175E+02 -0.61509044897E+03  0.62552190456E+03  0.47000000000E+01 0.  1.
        -11    1    1    2    0    0  0.95766679546E+02 -0.22504944815E+01 -0.26306690173E+03  0.27996520573E+03  0.00000000000E+00 0. -1.
         11    1    1    2    0    0 -0.10119987802E+02 -0.28846123123E+02 -0.60815660614E+02  0.68066567037E+02  0.00000000000E+00 0.  1.
<mgrwt>
<rscale>  0 0.14234020E+03</rscale>
<asrwt>0</asrwt>
<pdfrwt beam="2">  1        1 0.15446454E+00 0.14770684E+03</pdfrwt>
<pdfrwt beam="1">  1       -1 0.31136928E-02 0.14770684E+03</pdfrwt>
<totfact> 0.55436091E+03</totfact>
</mgrwt>
</event>
<event>
 6    1  0.9240440E-006  0.1353930E+03  0.7546771E-02  0.1225885E+00
         -2   -1    0    0    0  501 -0.00000000000E+00  0.00000000000E+00  0.31125444530E+02  0.31125444530E+02  0.00000000000E+00 0.  1.
          2   -1    0    0  501    0  0.00000000000E+00 -0.00000000000E+00 -0.52357179822E+03  0.52357179822E+03  0.00000000000E+00 0. -1.
          5    1    1    2  502    0 -0.36884422915E+02 -0.28933090371E+02 -0.53106779915E+02  0.70992988704E+02  0.47000000000E+01 0. -1.
         -5    1    1    2    0  502  0.64890848183E+02  0.52269053187E+02 -0.18412035863E+03  0.20215160786E+03  0.47000000000E+01 0.  1.
        -11    1    1    2    0    0  0.36605171262E+02  0.16334938169E+02 -0.60306840395E+02  0.72413284462E+02  0.00000000000E+00 0.  1.
         11    1    1    2    0    0 -0.64611596530E+02 -0.39670900984E+02 -0.19491237476E+03  0.20913936173E+03  0.00000000000E+00 0. -1.
<mgrwt>
<rscale>  0 0.13106424E+03</rscale>
<asrwt>0</asrwt>
<pdfrwt beam="2">  1        2 0.80549497E-01 0.13539297E+03</pdfrwt>
<pdfrwt beam="1">  1       -2 0.47885305E-02 0.13539297E+03</pdfrwt>
<totfact> 0.11738686E+04</totfact>
</mgrwt>
</event>
<event>
 6    1  0.9240440E-006  0.4684552E+03  0.7546771E-02  0.1022357E+00
         -2   -1    0    0    0  501 -0.00000000000E+00  0.00000000000E+00  0.19180345570E+03  0.19180345570E+03  0.00000000000E+00 0.  1.
          2   -1    0    0  501    0  0.00000000000E+00 -0.00000000000E+00 -0.28603535976E+03  0.28603535976E+03  0.00000000000E+00 0. -1.
          5    1    1    2  502    0  0.11994619610E+03 -0.11119403743E+03 -0.16681850864E+03  0.23367008526E+03  0.47000000000E+01 0. -1.
         -5    1    1    2    0  502  0.21980558080E+02 -0.69543605229E+01  0.21284968473E+02  0.31727715750E+02  0.47000000000E+01 0.  1.
        -11    1    1    2    0    0 -0.10007780148E+03  0.11543518918E+03  0.68096497455E+02  0.16726620166E+03  0.00000000000E+00 0.  1.
         11    1    1    2    0    0 -0.41848952697E+02  0.27132087690E+01 -0.16794861343E+02  0.45174812796E+02  0.00000000000E+00 0. -1.
<mgrwt>
<rscale>  0 0.46845521E+03</rscale>
<asrwt>0</asrwt>
<pdfrwt beam="2">  1        2 0.44005439E-01 0.46845521E+03</pdfrwt>
<pdfrwt beam="1">  1       -2 0.29508224E-01 0.46845521E+03</pdfrwt>
<totfact> 0.12221697E+03</totfact>
</mgrwt>
</event>
<event>
 6    1  0.9240440E-006  0.3252084E+03  0.7546771E-02  0.1074593E+00
          2   -1    0    0  501    0  0.00000000000E+00  0.00000000000E+00  0.20826330692E+03  0.20826330692E+03  0.00000000000E+00 0. -1.
         -2   -1    0    0    0  501 -0.00000000000E+00 -0.00000000000E+00 -0.49291639729E+03  0.49291639729E+03  0.00000000000E+00 0.  1.
          5    1    1    2  502    0 -0.38120532929E+02 -0.20651532795E+03 -0.13461423938E+03  0.24948915639E+03  0.47000000000E+01 0. -1.
         -5    1    1    2    0  502 -0.51128380753E+02 -0.80136387062E+02  0.16325805754E+02  0.96563832688E+02  0.47000000000E+01 0. -1.
        -11    1    1    2    0    0  0.47041153305E+02  0.18223426527E+03 -0.53461109392E+02  0.19565348901E+03  0.00000000000E+00 0.  1.
         11    1    1    2    0    0  0.42207760377E+02  0.10441744975E+03 -0.11290354735E+03  0.15947322613E+03  0.00000000000E+00 0. -1.
<mgrwt>
<rscale>  0 0.32230465E+03</rscale>
<asrwt>0</asrwt>
<pdfrwt beam="1">  1        2 0.32040509E-01 0.32520842E+03</pdfrwt>
<pdfrwt beam="2">  1       -2 0.75833292E-01 0.32520842E+03</pdfrwt>
<totfact> 0.26230268E+02</totfact>
</mgrwt>
</event>
<event>
 6    1  0.9240440E-006  0.1429388E+03  0.7546771E-02  0.1219833E+00
         -2   -1    0    0    0  501 -0.00000000000E+00  0.00000000000E+00  0.55218374438E+02  0.55218374438E+02  0.00000000000E+00 0.  1.
          2   -1    0    0  501    0  0.00000000000E+00 -0.00000000000E+00 -0.63564000187E+03  0.63564000187E+03  0.00000000000E+00 0. -1.
          5    1    1    2  502    0 -0.10255525029E+01 -0.48230469199E+02 -0.30630851617E+03  0.31011969785E+03  0.47000000000E+01 0. -1.
         -5    1    1    2    0  502 -0.68232138878E+02  0.51421636243E+02 -0.24909267388E+03  0.26338006688E+03  0.47000000000E+01 0. -1.
        -11    1    1    2    0    0 -0.96126992137E+01  0.78900719565E+01 -0.34950336723E+02  0.37096944062E+02  0.00000000000E+00 0. -1.
         11    1    1    2    0    0  0.78870390594E+02 -0.11081239001E+02  0.99298993465E+01  0.80261667509E+02  0.00000000000E+00 0.  1.
<mgrwt>
<rscale>  0 0.13527452E+03</rscale>
<asrwt>0</asrwt>
<pdfrwt beam="2">  1        2 0.97790771E-01 0.14293879E+03</pdfrwt>
<pdfrwt beam="1">  1       -2 0.84951344E-02 0.14293879E+03</pdfrwt>
<totfact> 0.39486374E+03</totfact>
</mgrwt>
</event>
<event>
 6    1  0.9240440E-006  0.2065625E+03  0.7546771E-02  0.1148296E+00
         -1   -1    0    0    0  501 -0.00000000000E+00  0.00000000000E+00  0.23216871537E+02  0.23216871537E+02  0.00000000000E+00 0.  1.
          1   -1    0    0  501    0  0.00000000000E+00 -0.00000000000E+00 -0.16765636878E+04  0.16765636878E+04  0.00000000000E+00 0. -1.
          5    1    1    2  502    0 -0.98581202918E+02 -0.47062270542E+00 -0.45370221194E+03  0.46431267716E+03  0.47000000000E+01 0. -1.
         -5    1    1    2    0  502 -0.29875801890E+02  0.10314661958E+03 -0.43623831326E+03  0.44928581619E+03  0.47000000000E+01 0. -1.
        -11    1    1    2    0    0  0.15134148647E+02  0.15448964299E+02 -0.54773520727E+02  0.58888466833E+02  0.00000000000E+00 0.  1.
         11    1    1    2    0    0  0.11332285616E+03 -0.11812496117E+03 -0.70863277036E+03  0.72729359918E+03  0.00000000000E+00 0. -1.
<mgrwt>
<rscale>  0 0.20172039E+03</rscale>
<asrwt>0</asrwt>
<pdfrwt beam="2">  1        1 0.25793283E+00 0.20656251E+03</pdfrwt>
<pdfrwt beam="1">  1       -1 0.35718270E-02 0.20656251E+03</pdfrwt>
<totfact> 0.15979058E+03</totfact>
</mgrwt>
</event>
<event>
 6    1  0.9240440E-006  0.1431962E+03  0.7546771E-02  0.1216933E+00
          2   -1    0    0  501    0  0.00000000000E+00  0.00000000000E+00  0.11175349186E+04  0.11175349186E+04  0.00000000000E+00 0. -1.
         -2   -1    0    0    0  501 -0.00000000000E+00 -0.00000000000E+00 -0.16482348143E+02  0.16482348143E+02  0.00000000000E+00 0.  1.
          5    1    1    2  502    0  0.69837414104E+02 -0.19801112863E+02  0.20323646546E+03  0.21586222313E+03  0.47000000000E+01 0. -1.
         -5    1    1    2    0  502 -0.23893484855E+01  0.38364390791E+02  0.51840581442E+03  0.51985018408E+03  0.47000000000E+01 0. -1.
        -11    1    1    2    0    0  0.16484944524E+02  0.21043187371E+02  0.11544361976E+03  0.11849809481E+03  0.00000000000E+00 0.  1.
         11    1    1    2    0    0 -0.83933010142E+02 -0.39606465298E+02  0.26396667085E+03  0.27980676476E+03  0.00000000000E+00 0. -1.
<mgrwt>
<rscale>  0 0.13735467E+03</rscale>
<asrwt>0</asrwt>
<pdfrwt beam="1">  1        2 0.17192839E+00 0.14319625E+03</pdfrwt>
<pdfrwt beam="2">  1       -2 0.25357467E-02 0.14319625E+03</pdfrwt>
<totfact> 0.11742682E+04</totfact>
</mgrwt>
</event>
<event>
 6    1  0.9240440E-006  0.3677303E+03  0.7546771E-02  0.1055564E+00
         -1   -1    0    0    0  501 -0.00000000000E+00  0.00000000000E+00  0.27493137049E+03  0.27493137049E+03  0.00000000000E+00 0.  1.
          1   -1    0    0  501    0  0.00000000000E+00 -0.00000000000E+00 -0.12296305295E+03  0.12296305295E+03  0.00000000000E+00 0. -1.
          5    1    1    2  502    0  0.27025135319E+02 -0.31613264282E+01 -0.20860180838E+02  0.34606199855E+02  0.47000000000E+01 0.  1.
         -5    1    1    2    0  502 -0.92874161080E+02 -0.11034831219E+03  0.26623939593E+02  0.14674223645E+03  0.47000000000E+01 0.  1.
        -11    1    1    2    0    0  0.21500786496E+02  0.82249326169E+02  0.33340582267E+02  0.91317193896E+02  0.00000000000E+00 0. -1.
         11    1    1    2    0    0  0.44348239265E+02  0.31260312445E+02  0.11286397652E+03  0.12522879324E+03  0.00000000000E+00 0.  1.
<mgrwt>
<rscale>  0 0.36773034E+03</rscale>
<asrwt>0</asrwt>
<pdfrwt beam="2">  1        1 0.18917393E-01 0.36773034E+03</pdfrwt>
<pdfrwt beam="1">  1       -1 0.42297134E-01 0.36773034E+03</pdfrwt>
<totfact> 0.15397738E+03</totfact>
</mgrwt>
</event>
<event>
 6    1  0.9240440E-006  0.1375466E+03  0.7546771E-02  0.1227536E+00
          2   -1    0    0  501    0  0.00000000000E+00  0.00000000000E+00  0.11808295605E+03  0.11808295605E+03  0.00000000000E+00 0. -1.
         -2   -1    0    0    0  501 -0.00000000000E+00 -0.00000000000E+00 -0.13518937081E+03  0.13518937081E+03  0.00000000000E+00 0.  1.
          5    1    1    2  502    0 -0.81412085821E+02 -0.17518731447E+02  0.47556621578E+02  0.96013311187E+02  0.47000000000E+01 0.  1.
         -5    1    1    2    0  502  0.28615105066E+02 -0.49973310298E+01 -0.30744215337E+02  0.42556953980E+02  0.47000000000E+01 0.  1.
        -11    1    1    2    0    0  0.64007595611E+02  0.36405219019E+02  0.29973218292E+01  0.73697328350E+02  0.00000000000E+00 0. -1.
         11    1    1    2    0    0 -0.11210614856E+02 -0.13889156542E+02 -0.36916142832E+02  0.41004733342E+02  0.00000000000E+00 0.  1.
<mgrwt>
<rscale>  0 0.12994587E+03</rscale>
<asrwt>0</asrwt>
<pdfrwt beam="1">  1        2 0.18166609E-01 0.13754658E+03</pdfrwt>
<pdfrwt beam="2">  1       -2 0.20798365E-01 0.13754658E+03</pdfrwt>
<totfact> 0.58048114E+03</totfact>
</mgrwt>
</event>
<event>
 6    1  0.9240440E-006  0.1307306E+03  0.7546771E-02  0.1237067E+00
         -2   -1    0    0    0  501 -0.00000000000E+00  0.00000000000E+00  0.36873684922E+02  0.36873684922E+02  0.00000000000E+00 0.  1.
          2   -1    0    0  501    0  0.00000000000E+00 -0.00000000000E+00 -0.40096585050E+03  0.40096585050E+03  0.00000000000E+00 0. -1.
          5    1    1    2  502    0 -0.54506617379E+02 -0.38380083365E+02 -0.21582241993E+03  0.22593231084E+03  0.47000000000E+01 0.  1.
         -5    1    1    2    0  502  0.45893646745E+02  0.10844322551E+01 -0.38802672510E+02  0.60292123854E+02  0.47000000000E+01 0.  1.
        -11    1    1    2    0    0  0.70924005794E+01  0.70018978668E+02 -0.86956384936E+02  0.11186765574E+03  0.00000000000E+00 0.  1.
         11    1    1    2    0    0  0.15205700551E+01 -0.32723327559E+02 -0.22510688205E+02  0.39747444991E+02  0.00000000000E+00 0. -1.
<mgrwt>
<rscale>  0 0.12373064E+03</rscale>
<asrwt>0</asrwt>
<pdfrwt beam="2">  1        2 0.61687053E-01 0.13073060E+03</pdfrwt>
<pdfrwt beam="1">  1       -2 0.56728746E-02 0.13073060E+03</pdfrwt>
<totfact> 0.12119000E+04</totfact>
</mgrwt>
</event>
<event>
 6    1  0.9240440E-006  0.1902363E+03  0.7546771E-02  0.1162860E+00
          2   -1    0    0  501    0  0.00000000000E+00  0.00000000000E+00  0.41412322377E+03  0.41412322377E+03  0.00000000000E+00 0. -1.
         -2   -1    0    0    0  501 -0.00000000000E+00 -0.00000000000E+00 -0.81832286732E+02  0.81832286732E+02  0.00000000000E+00 0.  1.
          5    1    1    2  502    0  0.94624792234E+02  0.22799501060E+02  0.22456876247E+03  0.24479968879E+03  0.47000000000E+01 0. -1.
         -5    1    1    2    0  502  0.40017123171E+02  0.26549646847E+02 -0.16205399295E+01  0.48280120590E+02  0.47000000000E+01 0. -1.
        -11    1    1    2    0    0 -0.67551730766E+02 -0.72879092743E+02  0.70706359214E+02  0.12195895917E+03  0.00000000000E+00 0. -1.
         11    1    1    2    0    0 -0.67090184639E+02  0.23529944836E+02  0.38636355287E+02  0.80916741956E+02  0.00000000000E+00 0.  1.
<mgrwt>
<rscale>  0 0.18520300E+03</rscale>
<asrwt>0</asrwt>
<pdfrwt beam="1">  1        2 0.63711264E-01 0.19023634E+03</pdfrwt>
<pdfrwt beam="2">  1       -2 0.12589583E-01 0.19023634E+03</pdfrwt>
<totfact> 0.34527653E+03</totfact>
</mgrwt>
</event>
<event>
 6    1  0.9240440E-006  0.1302266E+03  0.7546771E-02  0.1239728E+00
         -2   -1    0    0    0  501 -0.00000000000E+00  0.00000000000E+00  0.40521592687E+02  0.40521592687E+02  0.00000000000E+00 0.  1.
          2   -1    0    0  501    0  0.00000000000E+00 -0.00000000000E+00 -0.47084666957E+03  0.47084666957E+03  0.00000000000E+00 0. -1.
          5    1    1    2  502    0  0.56020147350E+02 -0.49142074156E+02 -0.31714587107E+03  0.32581711725E+03  0.47000000000E+01 0. -1.
         -5    1    1    2    0  502 -0.39364559092E+02  0.11390955659E+02 -0.57108664948E+02  0.70447228444E+02  0.47000000000E+01 0.  1.
        -11    1    1    2    0    0 -0.54531815828E+02  0.24766286598E+02 -0.39649140479E+02  0.71827169164E+02  0.00000000000E+00 0.  1.
         11    1    1    2    0    0  0.37876227570E+02  0.12984831899E+02 -0.16421400392E+02  0.43276747397E+02  0.00000000000E+00 0. -1.
<mgrwt>
<rscale>  0 0.12206521E+03</rscale>
<asrwt>0</asrwt>
<pdfrwt beam="2">  1        2 0.72437947E-01 0.13022663E+03</pdfrwt>
<pdfrwt beam="1">  1       -2 0.62340913E-02 0.13022663E+03</pdfrwt>
<totfact> 0.88355303E+03</totfact>
</mgrwt>
</event>
<event>
 6    1  0.9240440E-006  0.1766885E+03  0.7546771E-02  0.1181324E+00
          1   -1    0    0  501    0  0.00000000000E+00  0.00000000000E+00  0.61754499915E+03  0.61754499915E+03  0.00000000000E+00 0. -1.
         -1   -1    0    0    0  501 -0.00000000000E+00 -0.00000000000E+00 -0.42943082648E+02  0.42943082648E+02  0.00000000000E+00 0.  1.
          5    1    1    2  502    0 -0.63023886380E+02 -0.11427659567E+03  0.27478993315E+03  0.30424126600E+03  0.47000000000E+01 0. -1.
         -5    1    1    2    0  502  0.44744473176E+02  0.54497746181E+01  0.12048939124E+03  0.12873053765E+03  0.47000000000E+01 0.  1.
        -11    1    1    2    0    0 -0.64429642242E+01  0.43283468451E+02  0.10886609613E+02  0.45094220229E+02  0.00000000000E+00 0.  1.
         11    1    1    2    0    0  0.24722377428E+02  0.65543352604E+02  0.16843598250E+03  0.18242205792E+03  0.00000000000E+00 0. -1.
<mgrwt>
<rscale>  0 0.16670854E+03</rscale>
<asrwt>0</asrwt>
<pdfrwt beam="1">  1        1 0.95006917E-01 0.17668854E+03</pdfrwt>
<pdfrwt beam="2">  1       -1 0.66066285E-02 0.17668854E+03</pdfrwt>
<totfact> 0.38294030E+03</totfact>
</mgrwt>
</event>
<event>
 6    1  0.9240440E-006  0.3159214E+03  0.7546771E-02  0.1077542E+00
          1   -1    0    0  501    0  0.00000000000E+00  0.00000000000E+00  0.34462363395E+03  0.34462363395E+03  0.00000000000E+00 0. -1.
         -1   -1    0    0    0  501 -0.00000000000E+00 -0.00000000000E+00 -0.72402407276E+02  0.72402407276E+02  0.00000000000E+00 0.  1.
          5    1    1    2  502    0 -0.10193705519E+03  0.23143469607E+01  0.65928235202E+02  0.12151189909E+03  0.47000000000E+01 0. -1.
         -5    1    1    2    0  502 -0.93227642552E+00  0.10148813800E+01  0.14171496136E+03  0.14179957475E+03  0.47000000000E+01 0. -1.
        -11    1    1    2    0    0  0.59730144609E+02 -0.47095303625E+02  0.48439630059E+02  0.90177910592E+02  0.00000000000E+00 0. -1.
         11    1    1    2    0    0  0.43139187005E+02  0.43766075284E+02  0.16138400045E+02  0.63536656800E+02  0.00000000000E+00 0.  1.
<mgrwt>
<rscale>  0 0.31592139E+03</rscale>
<asrwt>0</asrwt>
<pdfrwt beam="1">  1        1 0.53019020E-01 0.31592139E+03</pdfrwt>
<pdfrwt beam="2">  1       -1 0.11138832E-01 0.31592139E+03</pdfrwt>
<totfact> 0.37802596E+03</totfact>
</mgrwt>
</event>
<event>
 6    1  0.9240440E-006  0.1270714E+03  0.7546771E-02  0.1246057E+00
         -2   -1    0    0    0  501 -0.00000000000E+00  0.00000000000E+00  0.15573532958E+02  0.15573532958E+02  0.00000000000E+00 0.  1.
          2   -1    0    0  501    0  0.00000000000E+00 -0.00000000000E+00 -0.79868472868E+03  0.79868472868E+03  0.00000000000E+00 0. -1.
          5    1    1    2  502    0  0.40291177481E+02 -0.28649460446E+02 -0.32293779004E+03  0.32673395416E+03  0.47000000000E+01 0. -1.
         -5    1    1    2    0  502 -0.38850231182E+02  0.51429162036E+02 -0.15794588361E+03  0.17065547550E+03  0.47000000000E+01 0. -1.
        -11    1    1    2    0    0 -0.44201163920E+02 -0.21060759556E+02 -0.20272363983E+03  0.20855256563E+03  0.00000000000E+00 0. -1.
         11    1    1    2    0    0  0.42760217620E+02 -0.17189420340E+01 -0.99503882240E+02  0.10831626634E+03  0.00000000000E+00 0.  1.
<mgrwt>
<rscale>  0 0.11822331E+03</rscale>
<asrwt>0</asrwt>
<pdfrwt beam="2">  1        2 0.12287459E+00 0.12707139E+03</pdfrwt>
<pdfrwt beam="1">  1       -2 0.23959279E-02 0.12707139E+03</pdfrwt>
<totfact> 0.19860407E+04</totfact>
</mgrwt>
</event>
<event>
 6    1  0.9240440E-006  0.1394264E+03  0.7546771E-02  0.1225543E+00
          2   -1    0    0  501    0  0.00000000000E+00  0.00000000000E+00  0.85765721682E+03  0.85765721682E+03  0.00000000000E+00 0. -1.
         -2   -1    0    0    0  501 -0.00000000000E+00 -0.00000000000E+00 -0.18186860924E+02  0.18186860924E+02  0.00000000000E+00 0.  1.
          5    1    1    2  502    0  0.45571621678E+02 -0.10921962741E+02  0.49461501003E+03  0.49685225180E+03  0.47000000000E+01 0.  1.
         -5    1    1    2    0  502  0.15950375761E+02  0.16332830119E+02  0.78438932181E+01  0.24592529097E+02  0.47000000000E+01 0.  1.
        -11    1    1    2    0    0 -0.34560820092E+02 -0.46043162993E+02  0.22470957074E+03  0.23196726995E+03  0.00000000000E+00 0. -1.
         11    1    1    2    0    0 -0.26961177347E+02  0.40632295616E+02  0.11230188191E+03  0.12243202690E+03  0.00000000000E+00 0.  1.
<mgrwt>
<rscale>  0 0.13129748E+03</rscale>
<asrwt>0</asrwt>
<pdfrwt beam="1">  1        2 0.13194723E+00 0.13942636E+03</pdfrwt>
<pdfrwt beam="2">  1       -2 0.27979793E-02 0.13942636E+03</pdfrwt>
<totfact> 0.14571597E+04</totfact>
</mgrwt>
</event>
<event>
 6    1  0.9240440E-006  0.1892651E+03  0.7546771E-02  0.1163927E+00
          3   -1    0    0  501    0  0.00000000000E+00  0.00000000000E+00  0.57114159798E+02  0.57114159798E+02  0.00000000000E+00 0. -1.
         -3   -1    0    0    0  501 -0.00000000000E+00 -0.00000000000E+00 -0.56339319225E+03  0.56339319225E+03  0.00000000000E+00 0.  1.
          5    1    1    2  502    0 -0.80560179662E+02 -0.12160276291E+03 -0.23956710920E+03  0.28052034562E+03  0.47000000000E+01 0. -1.
         -5    1    1    2    0  502  0.37596363417E+02 -0.13860608775E+02 -0.37926730297E+02  0.55372645672E+02  0.47000000000E+01 0. -1.
        -11    1    1    2    0    0  0.25166707648E+02  0.14626556617E+03 -0.19794530113E+03  0.24740517630E+03  0.00000000000E+00 0. -1.
         11    1    1    2    0    0  0.17797108597E+02 -0.10802194494E+02 -0.30839891828E+02  0.37209184461E+02  0.00000000000E+00 0.  1.
<mgrwt>
<rscale>  0 0.18406340E+03</rscale>
<asrwt>0</asrwt>
<pdfrwt beam="1">  1        3 0.87867940E-02 0.18926508E+03</pdfrwt>
<pdfrwt beam="2">  1       -3 0.86675874E-01 0.18926508E+03</pdfrwt>
<totfact> 0.27725743E+02</totfact>
</mgrwt>
</event>
<event>
 6    1  0.9240440E-006  0.3216841E+03  0.7546771E-02  0.1074877E+00
         -2   -1    0    0    0  501 -0.00000000000E+00  0.00000000000E+00  0.16405031003E+02  0.16405031003E+02  0.00000000000E+00 0.  1.
          2   -1    0    0  501    0  0.00000000000E+00 -0.00000000000E+00 -0.15769656168E+04  0.15769656168E+04  0.00000000000E+00 0. -1.
          5    1    1    2  502    0  0.27412694949E+02  0.83930333025E+01 -0.81587522399E+02  0.86605500192E+02  0.47000000000E+01 0. -1.
         -5    1    1    2    0  502 -0.37854016296E+02 -0.97001065220E+02 -0.10986949841E+04  0.11036280584E+04  0.47000000000E+01 0. -1.
        -11    1    1    2    0    0 -0.38755625888E+02  0.63073676597E+02 -0.16514795220E+03  0.18098103031E+03  0.00000000000E+00 0. -1.
         11    1    1    2    0    0  0.49196947235E+02  0.25534355321E+02 -0.21513012710E+03  0.22215605890E+03  0.00000000000E+00 0.  1.
<mgrwt>
<rscale>  0 0.32168413E+03</rscale>
<asrwt>0</asrwt>
<pdfrwt beam="2">  1        2 0.24261008E+00 0.32168413E+03</pdfrwt>
<pdfrwt beam="1">  1       -2 0.25238510E-02 0.32168413E+03</pdfrwt>
<totfact> 0.68156201E+03</totfact>
</mgrwt>
</event>
<event>
 6    1  0.9240440E-006  0.3257871E+03  0.7546771E-02  0.1074217E+00
         -2   -1    0    0    0  501 -0.00000000000E+00  0.00000000000E+00  0.55270126003E+02  0.55270126003E+02  0.00000000000E+00 0.  1.
          2   -1    0    0  501    0  0.00000000000E+00 -0.00000000000E+00 -0.21380754037E+04  0.21380754037E+04  0.00000000000E+00 0. -1.
          5    1    1    2  502    0  0.13551852259E+03  0.26519402588E+03 -0.14470270720E+04  0.14773633874E+04  0.47000000000E+01 0. -1.
         -5    1    1    2    0  502  0.84813259469E+01 -0.10420031826E+01 -0.53885889704E+01  0.11142062266E+02  0.47000000000E+01 0. -1.
        -11    1    1    2    0    0 -0.14919411311E+03 -0.20658353195E+03 -0.47480170522E+03  0.53886204017E+03  0.00000000000E+00 0.  1.
         11    1    1    2    0    0  0.51942645677E+01 -0.57568490742E+02 -0.15558791152E+03  0.16597803988E+03  0.00000000000E+00 0. -1.
<mgrwt>
<rscale>  0 0.32313077E+03</rscale>
<asrwt>0</asrwt>
<pdfrwt beam="2">  1        2 0.32893463E+00 0.32578708E+03</pdfrwt>
<pdfrwt beam="1">  1       -2 0.85030977E-02 0.32578708E+03</pdfrwt>
<totfact> 0.53522687E+02</totfact>
</mgrwt>
</event>
<event>
 6    1  0.9240440E-006  0.1564904E+03  0.7546771E-02  0.1216043E+00
         -1   -1    0    0    0  501 -0.00000000000E+00  0.00000000000E+00  0.32706103709E+03  0.32706103709E+03  0.00000000000E+00 0.  1.
          1   -1    0    0  501    0  0.00000000000E+00 -0.00000000000E+00 -0.21254722806E+03  0.21254722806E+03  0.00000000000E+00 0. -1.
          5    1    1    2  502    0 -0.43766064090E+02  0.20927665941E+02 -0.17961375269E+03  0.18610917689E+03  0.47000000000E+01 0. -1.
         -5    1    1    2    0  502  0.30155069084E+02 -0.37773711906E+02  0.44639212011E+01  0.48766772450E+02  0.47000000000E+01 0.  1.
        -11    1    1    2    0    0 -0.34962090527E+02  0.24333937819E+02  0.97797437944E+02  0.10667158559E+03  0.00000000000E+00 0. -1.
         11    1    1    2    0    0  0.48573085533E+02 -0.74878918541E+01  0.19186620258E+03  0.19806073022E+03  0.00000000000E+00 0.  1.
<mgrwt>
<rscale>  0 0.13800177E+03</rscale>
<asrwt>0</asrwt>
<pdfrwt beam="2">  1        1 0.32699573E-01 0.15649041E+03</pdfrwt>
<pdfrwt beam="1">  1       -1 0.50317083E-01 0.15649041E+03</pdfrwt>
<totfact> 0.55333284E+02</totfact>
</mgrwt>
</event>
<event>
 6    1  0.9240440E-006  0.1171309E+03  0.7546771E-02  0.1260356E+00
          2   -1    0    0  501    0  0.00000000000E+00  0.00000000000E+00  0.21639601661E+04  0.21639601661E+04  0.00000000000E+00 0. -1.
         -2   -1    0    0    0  501 -0.00000000000E+00 -0.00000000000E+00 -0.10471679568E+02  0.10471679568E+02  0.00000000000E+00 0.  1.
          5    1    1    2  502    0 -0.19855962393E+02  0.40713456807E+02  0.16112496665E+04  0.16118931176E+04  0.47000000000E+01 0. -1.
         -5    1    1    2    0  502  0.12458421959E+02 -0.40549448418E+02  0.31006251868E+03  0.31298614272E+03  0.47000000000E+01 0.  1.
        -11    1    1    2    0    0  0.76866075624E+01  0.45297579047E+02  0.11136501581E+03  0.12047041690E+03  0.00000000000E+00 0.  1.
         11    1    1    2    0    0 -0.28906712851E+00 -0.45461587436E+02  0.12081128556E+03  0.12908216844E+03  0.00000000000E+00 0. -1.
<mgrwt>
<rscale>  0 0.11011555E+03</rscale>
<asrwt>0</asrwt>
<pdfrwt beam="1">  1        2 0.33291659E+00 0.11713093E+03</pdfrwt>
<pdfrwt beam="2">  1       -2 0.16110293E-02 0.11713093E+03</pdfrwt>
<totfact> 0.63988770E+03</totfact>
</mgrwt>
</event>
<event>
 6    1  0.9240440E-006  0.1456525E+03  0.7546771E-02  0.1215603E+00
         -3   -1    0    0    0  501 -0.00000000000E+00  0.00000000000E+00  0.21392373575E+03  0.21392373575E+03  0.00000000000E+00 0.  1.
          3   -1    0    0  501    0  0.00000000000E+00 -0.00000000000E+00 -0.83986728034E+02  0.83986728034E+02  0.00000000000E+00 0. -1.
          5    1    1    2  502    0  0.21646197942E+02  0.45070465697E+02  0.82536523447E+02  0.96614038660E+02  0.47000000000E+01 0.  1.
         -5    1    1    2    0  502 -0.76615931244E+02  0.56235593074E+01  0.14276584987E+02  0.78278580842E+02  0.47000000000E+01 0.  1.
        -11    1    1    2    0    0  0.58756333483E+02  0.28468201450E+01  0.36513799192E+02  0.69236324576E+02  0.00000000000E+00 0. -1.
         11    1    1    2    0    0 -0.37866001803E+01 -0.53540845149E+02 -0.33898999141E+01  0.53781519704E+02  0.00000000000E+00 0.  1.
<mgrwt>
<rscale>  0 0.13832308E+03</rscale>
<asrwt>0</asrwt>
<pdfrwt beam="2">  1        3 0.12921035E-01 0.14565250E+03</pdfrwt>
<pdfrwt beam="1">  1       -3 0.32911344E-01 0.14565250E+03</pdfrwt>
<totfact> 0.10081529E+03</totfact>
</mgrwt>
</event>
<event>
 6    1  0.9240440E-006  0.1251126E+03  0.7546771E-02  0.1249286E+00
         -2   -1    0    0    0  501 -0.00000000000E+00  0.00000000000E+00  0.32616635253E+02  0.32616635253E+02  0.00000000000E+00 0.  1.
          2   -1    0    0  501    0  0.00000000000E+00 -0.00000000000E+00 -0.36636751986E+03  0.36636751986E+03  0.00000000000E+00 0. -1.
          5    1    1    2  502    0 -0.54801388267E-01  0.90012578800E+01 -0.20607528519E+03  0.20632532276E+03  0.47000000000E+01 0.  1.
         -5    1    1    2    0  502  0.31934483474E+01 -0.63394717122E+01  0.17799016748E+02  0.19730230894E+02  0.47000000000E+01 0.  1.
        -11    1    1    2    0    0 -0.28252648466E+01 -0.37667746400E+02 -0.20161191201E+02  0.42817226334E+02  0.00000000000E+00 0.  1.
         11    1    1    2    0    0 -0.31338211256E+00  0.35005960232E+02 -0.12531342496E+03  0.13011137512E+03  0.00000000000E+00 0. -1.
<mgrwt>
<rscale>  0 0.11632515E+03</rscale>
<asrwt>0</asrwt>
<pdfrwt beam="2">  1        2 0.56364232E-01 0.12511259E+03</pdfrwt>
<pdfrwt beam="1">  1       -2 0.50179441E-02 0.12511259E+03</pdfrwt>
<totfact> 0.15984599E+04</totfact>
</mgrwt>
</event>
<event>
 6    1  0.9240440E-006  0.1285311E+03  0.7546771E-02  0.1239837E+00
         -2   -1    0    0    0  501 -0.00000000000E+00  0.00000000000E+00  0.15436299000E+03  0.15436299000E+03  0.00000000000E+00 0.  1.
          2   -1    0    0  501    0  0.00000000000E+00 -0.00000000000E+00 -0.87974375589E+02  0.87974375589E+02  0.00000000000E+00 0. -1.
          5    1    1    2  502    0  0.96416780078E+01 -0.36557696959E+02 -0.37276516393E+02  0.53301555663E+02  0.47000000000E+01 0. -1.
         -5    1    1    2    0  502  0.19012899959E+02 -0.81348837560E+01  0.79053264939E+02  0.81848490494E+02  0.47000000000E+01 0.  1.
        -11    1    1    2    0    0 -0.45261343902E+01 -0.10658953822E+02 -0.25959607727E+02  0.28425348238E+02  0.00000000000E+00 0.  1.
         11    1    1    2    0    0 -0.24128443577E+02  0.55351534537E+02  0.50571473589E+02  0.78761971192E+02  0.00000000000E+00 0. -1.
<mgrwt>
<rscale>  0 0.12199768E+03</rscale>
<asrwt>0</asrwt>
<pdfrwt beam="2">  1        2 0.13534519E-01 0.12853108E+03</pdfrwt>
<pdfrwt beam="1">  1       -2 0.23748152E-01 0.12853108E+03</pdfrwt>
<totfact> 0.64805954E+03</totfact>
</mgrwt>
</event>
<event>
 6    1  0.9240440E-006  0.1316731E+03  0.7546771E-02  0.1234439E+00
          1   -1    0    0  501    0  0.00000000000E+00  0.00000000000E+00  0.56587563531E+03  0.56587563531E+03  0.00000000000E+00 0. -1.
         -1   -1    0    0    0  501 -0.00000000000E+00 -0.00000000000E+00 -0.14313859024E+03  0.14313859024E+03  0.00000000000E+00 0.  1.
          5    1    1    2  502    0  0.56775884595E+02  0.43650062749E+02  0.51227598707E+03  0.51727904073E+03  0.47000000000E+01 0. -1.
         -5    1    1    2    0  502 -0.24279534899E+02  0.55487934620E+01  0.23928986584E+02  0.34856438756E+02  0.47000000000E+01 0.  1.
        -11    1    1    2    0    0 -0.11499803126E+02 -0.44547369776E+02 -0.12448540351E+03  0.13271521884E+03  0.00000000000E+00 0.  1.
         11    1    1    2    0    0 -0.20996546571E+02 -0.46514864348E+01  0.11017474922E+02  0.24163527218E+02  0.00000000000E+00 0. -1.
<mgrwt>
<rscale>  0 0.12540439E+03</rscale>
<asrwt>0</asrwt>
<pdfrwt beam="1">  1        1 0.87057789E-01 0.13167313E+03</pdfrwt>
<pdfrwt beam="2">  1       -1 0.22021322E-01 0.13167313E+03</pdfrwt>
<totfact> 0.66161165E+02</totfact>
</mgrwt>
</event>
<event>
 6    1  0.9240440E-006  0.1989452E+03  0.7546771E-02  0.1154660E+00
         -1   -1    0    0    0  501 -0.00000000000E+00  0.00000000000E+00  0.58531831262E+03  0.58531831262E+03  0.00000000000E+00 0.  1.
          1   -1    0    0  501    0  0.00000000000E+00 -0.00000000000E+00 -0.79944023165E+02  0.79944023165E+02  0.00000000000E+00 0. -1.
          5    1    1    2  502    0 -0.14234395689E+02  0.72556144054E+02  0.80770904074E+02  0.10960401911E+03  0.47000000000E+01 0.  1.
         -5    1    1    2    0  502  0.95055477539E+02  0.59438865246E+02  0.22098973402E+02  0.11436335575E+03  0.47000000000E+01 0.  1.
        -11    1    1    2    0    0 -0.62407707658E+02 -0.28166606964E+02  0.22120922322E+03  0.23156338260E+03  0.00000000000E+00 0.  1.
         11    1    1    2    0    0 -0.18413374192E+02 -0.10382840234E+03  0.18129518875E+03  0.20973157832E+03  0.00000000000E+00 0. -1.
<mgrwt>
<rscale>  0 0.19427667E+03</rscale>
<asrwt>0</asrwt>
<pdfrwt beam="2">  1        1 0.12299081E-01 0.19894515E+03</pdfrwt>
<pdfrwt beam="1">  1       -1 0.90048968E-01 0.19894515E+03</pdfrwt>
<totfact> 0.61555514E+02</totfact>
</mgrwt>
</event>
<event>
 6    1  0.9240440E-006  0.1291014E+03  0.7546771E-02  0.1242919E+00
         -2   -1    0    0    0  501 -0.00000000000E+00  0.00000000000E+00  0.17690684164E+03  0.17690684164E+03  0.00000000000E+00 0.  1.
          2   -1    0    0  501    0  0.00000000000E+00 -0.00000000000E+00 -0.74066819162E+02  0.74066819162E+02  0.00000000000E+00 0. -1.
          5    1    1    2  502    0  0.24494301827E+02  0.27653042959E+02 -0.40366058183E+02  0.54919670976E+02  0.47000000000E+01 0.  1.
         -5    1    1    2    0  502 -0.12614671780E+02  0.23661128036E+01  0.78521232006E+02  0.79701959259E+02  0.47000000000E+01 0.  1.
        -11    1    1    2    0    0 -0.56999520214E+00  0.24398187900E+02  0.54679363251E+02  0.59878453828E+02  0.00000000000E+00 0. -1.
         11    1    1    2    0    0 -0.11309634845E+02 -0.54417343662E+02  0.10005485405E+02  0.56473576740E+02  0.00000000000E+00 0.  1.
<mgrwt>
<rscale>  0 0.12010771E+03</rscale>
<asrwt>0</asrwt>
<pdfrwt beam="2">  1        2 0.11394895E-01 0.12910138E+03</pdfrwt>
<pdfrwt beam="1">  1       -2 0.27216437E-01 0.12910138E+03</pdfrwt>
<totfact> 0.62743907E+03</totfact>
</mgrwt>
</event>
<event>
 6    1  0.9240440E-006  0.1388246E+03  0.7546771E-02  0.1226487E+00
          2   -1    0    0  501    0  0.00000000000E+00  0.00000000000E+00  0.85807076621E+02  0.85807076621E+02  0.00000000000E+00 0. -1.
         -2   -1    0    0    0  501 -0.00000000000E+00 -0.00000000000E+00 -0.17882975207E+03  0.17882975207E+03  0.00000000000E+00 0.  1.
          5    1    1    2  502    0 -0.44464511327E+02 -0.13527839870E+02 -0.70708031180E+00  0.46719216407E+02  0.47000000000E+01 0.  1.
         -5    1    1    2    0  502  0.80267824183E+02 -0.35112118095E+02 -0.50601138236E+02  0.10128351113E+03  0.47000000000E+01 0.  1.
        -11    1    1    2    0    0  0.16402107001E+01  0.44764323390E+02  0.16138048701E+02  0.47612724724E+02  0.00000000000E+00 0. -1.
         11    1    1    2    0    0 -0.37443523556E+02  0.38756345750E+01 -0.57852505606E+02  0.69021376432E+02  0.00000000000E+00 0.  1.
<mgrwt>
<rscale>  0 0.13065502E+03</rscale>
<asrwt>0</asrwt>
<pdfrwt beam="1">  1        2 0.13201089E-01 0.13882462E+03</pdfrwt>
<pdfrwt beam="2">  1       -2 0.27512269E-01 0.13882462E+03</pdfrwt>
<totfact> 0.51869895E+03</totfact>
</mgrwt>
</event>
<event>
 6    1  0.9240440E-006  0.1284767E+03  0.7546771E-02  0.1244016E+00
         -1   -1    0    0    0  501 -0.00000000000E+00  0.00000000000E+00  0.23982254543E+02  0.23982254543E+02  0.00000000000E+00 0.  1.
          1   -1    0    0  501    0  0.00000000000E+00 -0.00000000000E+00 -0.52564183797E+03  0.52564183797E+03  0.00000000000E+00 0. -1.
          5    1    1    2  502    0 -0.59390206278E+02 -0.26345978566E+02 -0.82549334788E+02  0.10515602628E+03  0.47000000000E+01 0. -1.
         -5    1    1    2    0  502  0.29882328433E+02  0.29489516807E+02 -0.21239710852E+03  0.21655762942E+03  0.47000000000E+01 0. -1.
        -11    1    1    2    0    0  0.56096083675E+02  0.18683881541E+02 -0.15405708826E+03  0.16501346756E+03  0.00000000000E+00 0.  1.
         11    1    1    2    0    0 -0.26588205830E+02 -0.21827419782E+02 -0.52656051857E+02  0.62896969249E+02  0.00000000000E+00 0. -1.
<mgrwt>
<rscale>  0 0.11944489E+03</rscale>
<asrwt>0</asrwt>
<pdfrwt beam="2">  1        1 0.80867976E-01 0.12847674E+03</pdfrwt>
<pdfrwt beam="1">  1       -1 0.36895776E-02 0.12847674E+03</pdfrwt>
<totfact> 0.11095192E+04</totfact>
</mgrwt>
</event>
<event>
 6    1  0.9240440E-006  0.3782522E+03  0.7546771E-02  0.1051582E+00
          2   -1    0    0  501    0  0.00000000000E+00  0.00000000000E+00  0.88681680869E+03  0.88681680869E+03  0.00000000000E+00 0. -1.
         -2   -1    0    0    0  501 -0.00000000000E+00 -0.00000000000E+00 -0.40333798390E+02  0.40333798390E+02  0.00000000000E+00 0.  1.
          5    1    1    2  502    0 -0.71875331693E+02 -0.61292523973E+02  0.32521511320E+03  0.33868834738E+03  0.47000000000E+01 0.  1.
         -5    1    1    2    0  502 -0.35310553056E+02  0.37225897425E+02  0.50125590720E+02  0.71883707760E+02  0.47000000000E+01 0.  1.
        -11    1    1    2    0    0 -0.39124499875E+02 -0.36325992830E+02  0.12806954244E+03  0.13875197998E+03  0.00000000000E+00 0.  1.
         11    1    1    2    0    0  0.14631038462E+03  0.60392619378E+02  0.34307276394E+03  0.37782657196E+03  0.00000000000E+00 0. -1.
<mgrwt>
<rscale>  0 0.37825225E+03</rscale>
<asrwt>0</asrwt>
<pdfrwt beam="1">  1        2 0.13643334E+00 0.37825225E+03</pdfrwt>
<pdfrwt beam="2">  1       -2 0.62052004E-02 0.37825225E+03</pdfrwt>
<totfact> 0.43751318E+03</totfact>
</mgrwt>
</event>
<event>
 6    1  0.9240440E-006  0.1383300E+03  0.7546771E-02  0.1227321E+00
         -1   -1    0    0    0  501 -0.00000000000E+00  0.00000000000E+00  0.28742144319E+03  0.28742144319E+03  0.00000000000E+00 0.  1.
          1   -1    0    0  501    0  0.00000000000E+00 -0.00000000000E+00 -0.56427265004E+02  0.56427265004E+02  0.00000000000E+00 0. -1.
          5    1    1    2  502    0  0.72115173052E+01  0.39948504236E+02  0.90929851553E+02  0.99690605755E+02  0.47000000000E+01 0. -1.
         -5    1    1    2    0  502 -0.60911865537E+02 -0.14951429209E+02 -0.51021941608E+01  0.63102480013E+02  0.47000000000E+01 0. -1.
        -11    1    1    2    0    0 -0.25981438919E+01  0.10132365407E+02 -0.86253674980E+01  0.13557733767E+02  0.00000000000E+00 0. -1.
         11    1    1    2    0    0  0.56298492123E+02 -0.35129440434E+02  0.15379188829E+03  0.16749788866E+03  0.00000000000E+00 0.  1.
<mgrwt>
<rscale>  0 0.13009089E+03</rscale>
<asrwt>0</asrwt>
<pdfrwt beam="2">  1        1 0.86811178E-02 0.13833005E+03</pdfrwt>
<pdfrwt beam="1">  1       -1 0.44218683E-01 0.13833005E+03</pdfrwt>
<totfact> 0.38467102E+03</totfact>
</mgrwt>
</event>
<event>
 6    1  0.9240440E-006  0.1304719E+03  0.7546771E-02  0.1240229E+00
          1   -1    0    0  501    0  0.00000000000E+00  0.00000000000E+00  0.45847824360E+03  0.45847824360E+03  0.00000000000E+00 0. -1.
         -1   -1    0    0    0  501 -0.00000000000E+00 -0.00000000000E+00 -0.28823965495E+02  0.28823965495E+02  0.00000000000E+00 0.  1.
          5    1    1    2  502    0 -0.61799444320E+02  0.49765219685E+02  0.17416511078E+03  0.19144535571E+03  0.47000000000E+01 0. -1.
         -5    1    1    2    0  502  0.43131414933E+02 -0.17363240989E+02  0.54214598390E+02  0.71575930105E+02  0.47000000000E+01 0. -1.
        -11    1    1    2    0    0  0.42584001588E+02 -0.41976176567E+02  0.18346412417E+03  0.19296238350E+03  0.00000000000E+00 0. -1.
         11    1    1    2    0    0 -0.23915972200E+02  0.95741978718E+01  0.17810444766E+02  0.31318539780E+02  0.00000000000E+00 0.  1.
<mgrwt>
<rscale>  0 0.12175537E+03</rscale>
<asrwt>0</asrwt>
<pdfrwt beam="1">  1        1 0.70535109E-01 0.13047186E+03</pdfrwt>
<pdfrwt beam="2">  1       -1 0.44344565E-02 0.13047186E+03</pdfrwt>
<totfact> 0.10127946E+04</totfact>
</mgrwt>
</event>
<event>
 6    1  0.9240440E-006  0.1318391E+03  0.7546771E-02  0.1237935E+00
         -3   -1    0    0    0  501 -0.00000000000E+00  0.00000000000E+00  0.21959110675E+02  0.21959110675E+02  0.00000000000E+00 0.  1.
          3   -1    0    0  501    0  0.00000000000E+00 -0.00000000000E+00 -0.70548895185E+03  0.70548895185E+03  0.00000000000E+00 0. -1.
          5    1    1    2  502    0  0.79472515259E+02  0.27003138845E+02 -0.29780170346E+03  0.30943980800E+03  0.47000000000E+01 0.  1.
         -5    1    1    2    0  502 -0.37538616831E+02 -0.27664399536E+02 -0.21374877791E+03  0.21882663644E+03  0.47000000000E+01 0.  1.
        -11    1    1    2    0    0 -0.57762029255E+02 -0.15296792889E+02 -0.16524702880E+03  0.17571859441E+03  0.00000000000E+00 0. -1.
         11    1    1    2    0    0  0.15828130827E+02  0.15958053581E+02 -0.67323310121E+01  0.23463023684E+02  0.00000000000E+00 0.  1.
<mgrwt>
<rscale>  0 0.12318392E+03</rscale>
<asrwt>0</asrwt>
<pdfrwt beam="2">  1        3 0.10853676E+00 0.13183907E+03</pdfrwt>
<pdfrwt beam="1">  1       -3 0.33783247E-02 0.13183907E+03</pdfrwt>
<totfact> 0.73221403E+02</totfact>
</mgrwt>
</event>
<event>
 6    1  0.9240440E-006  0.1512840E+03  0.7546771E-02  0.1208309E+00
         -1   -1    0    0    0  501 -0.00000000000E+00  0.00000000000E+00  0.18250195460E+03  0.18250195460E+03  0.00000000000E+00 0. -1.
          1   -1    0    0  501    0  0.00000000000E+00 -0.00000000000E+00 -0.10474335891E+03  0.10474335891E+03  0.00000000000E+00 0.  1.
          5    1    1    2  502    0 -0.82480072057E+01  0.86383087979E+02  0.51880735017E+02  0.10121150220E+03  0.47000000000E+01 0. -1.
         -5    1    1    2    0  502 -0.42184198326E+02 -0.17684133569E+02 -0.25158494260E+02  0.52414454131E+02  0.47000000000E+01 0. -1.
        -11    1    1    2    0    0 -0.65227180314E+01 -0.25650147277E+02 -0.19795017907E+02  0.33050244172E+02  0.00000000000E+00 0.  1.
         11    1    1    2    0    0  0.56954923563E+02 -0.43048807132E+02  0.70831372843E+02  0.10056911301E+03  0.00000000000E+00 0. -1.
<mgrwt>
<rscale>  0 0.14379755E+03</rscale>
<asrwt>0</asrwt>
<pdfrwt beam="2">  1        1 0.16114363E-01 0.15128403E+03</pdfrwt>
<pdfrwt beam="1">  1       -1 0.28077224E-01 0.15128403E+03</pdfrwt>
<totfact> 0.37479928E+03</totfact>
</mgrwt>
</event>
<event>
 6    1  0.1005878E-005  0.2142780E+03  0.7546771E-02  0.1141997E+00
         -1   -1    0    0    0  501 -0.00000000000E+00  0.00000000000E+00  0.30267767033E+03  0.30267767033E+03  0.00000000000E+00 0.  1.
          1   -1    0    0  501    0  0.00000000000E+00 -0.00000000000E+00 -0.15008206818E+03  0.15008206818E+03  0.00000000000E+00 0. -1.
          5    1    1    2  502    0  0.13001612436E+03  0.66013446024E+02  0.64809171594E+02  0.15963798537E+03  0.47000000000E+01 0.  1.
         -5    1    1    2    0  502  0.25912237543E+02  0.11296857325E+02 -0.47354431641E+02  0.55349753712E+02  0.47000000000E+01 0.  1.
        -11    1    1    2    0    0 -0.68312392777E+02 -0.83369090842E+02  0.72528053052E+02  0.12991268912E+03  0.00000000000E+00 0.  1.
         11    1    1    2    0    0 -0.87615969125E+02  0.60587874937E+01  0.62612809142E+02  0.10785931031E+03  0.00000000000E+00 0. -1.
<mgrwt>
<rscale>  0 0.20945657E+03</rscale>
<asrwt>0</asrwt>
<pdfrwt beam="2">  1        1 0.23089549E-01 0.21427800E+03</pdfrwt>
<pdfrwt beam="1">  1       -1 0.46565796E-01 0.21427800E+03</pdfrwt>
<totfact> 0.99090534E+02</totfact>
</mgrwt>
</event>
<event>
 6    1  0.9240440E-006  0.1386012E+03  0.7546771E-02  0.1226391E+00
         -4   -1    0    0    0  501 -0.00000000000E+00  0.00000000000E+00  0.34330057123E+02  0.34330057123E+02  0.00000000000E+00 0.  1.
          4   -1    0    0  501    0  0.00000000000E+00 -0.00000000000E+00 -0.48676669523E+03  0.48676669523E+03  0.00000000000E+00 0. -1.
          5    1    1    2  502    0 -0.38108154644E+02  0.19270572830E+02 -0.25052388499E+03  0.25418082811E+03  0.47000000000E+01 0.  1.
         -5    1    1    2    0  502 -0.89487054176E+00 -0.64689268578E+02 -0.72268086324E+02  0.97109569886E+02  0.47000000000E+01 0.  1.
        -11    1    1    2    0    0 -0.98942215620E+01  0.26515209698E+02  0.17343035704E+01  0.28354184427E+02  0.00000000000E+00 0.  1.
         11    1    1    2    0    0  0.48897246748E+02  0.18903486050E+02 -0.13137897036E+03  0.14145216993E+03  0.00000000000E+00 0. -1.
<mgrwt>
<rscale>  0 0.13072011E+03</rscale>
<asrwt>0</asrwt>
<pdfrwt beam="2">  1        4 0.74887183E-01 0.13860118E+03</pdfrwt>
<pdfrwt beam="1">  1       -4 0.52815473E-02 0.13860118E+03</pdfrwt>
<totfact> 0.59883828E+02</totfact>
</mgrwt>
</event>
<event>
 6    1  0.9240440E-006  0.4071444E+03  0.7546771E-02  0.1084341E+00
          1   -1    0    0  501    0  0.00000000000E+00  0.00000000000E+00  0.19952226915E+04  0.19952226915E+04  0.00000000000E+00 0. -1.
         -1   -1    0    0    0  501 -0.00000000000E+00 -0.00000000000E+00 -0.49320646392E+02  0.49320646392E+02  0.00000000000E+00 0.  1.
          5    1    1    2  502    0 -0.41677548410E+02  0.17485657779E+03  0.16166000149E+04  0.16265698690E+04  0.47000000000E+01 0. -1.
         -5    1    1    2    0  502 -0.23542190144E+02 -0.12505749094E+03  0.21625934247E+03  0.25096574261E+03  0.47000000000E+01 0.  1.
        -11    1    1    2    0    0  0.41918090942E+02 -0.29271639870E+02  0.12396082879E+03  0.13409042592E+03  0.00000000000E+00 0. -1.
         11    1    1    2    0    0  0.23301647612E+02 -0.20527446989E+02 -0.10918140967E+02  0.32917300368E+02  0.00000000000E+00 0.  1.
<mgrwt>
<rscale>  0 0.30180743E+03</rscale>
<asrwt>0</asrwt>
<pdfrwt beam="1">  1        1 0.30695727E+00 0.40714438E+03</pdfrwt>
<pdfrwt beam="2">  1       -1 0.75877933E-02 0.40714438E+03</pdfrwt>
<totfact> 0.31096790E+02</totfact>
</mgrwt>
</event>
<event>
 6    1  0.9240440E-006  0.1326746E+03  0.7546771E-02  0.1231880E+00
         -1   -1    0    0    0  501 -0.00000000000E+00  0.00000000000E+00  0.30507580461E+02  0.30507580461E+02  0.00000000000E+00 0.  1.
          1   -1    0    0  501    0  0.00000000000E+00 -0.00000000000E+00 -0.54088122353E+03  0.54088122353E+03  0.00000000000E+00 0. -1.
          5    1    1    2  502    0 -0.41764307928E+02  0.29319592480E+02 -0.10216723062E+03  0.11429842052E+03  0.47000000000E+01 0. -1.
         -5    1    1    2    0  502  0.77581645871E+02 -0.29818470787E+01 -0.26107684742E+03  0.27241698450E+03  0.47000000000E+01 0. -1.
        -11    1    1    2    0    0 -0.69240575276E+02 -0.16951524556E+01 -0.80857599572E+02  0.10646634311E+03  0.00000000000E+00 0.  1.
         11    1    1    2    0    0  0.33423237333E+02 -0.24642592946E+02 -0.66271965462E+02  0.78207055865E+02  0.00000000000E+00 0. -1.
<mgrwt>
<rscale>  0 0.12706272E+03</rscale>
<asrwt>0</asrwt>
<pdfrwt beam="2">  1        1 0.83212488E-01 0.13267458E+03</pdfrwt>
<pdfrwt beam="1">  1       -1 0.46934744E-02 0.13267458E+03</pdfrwt>
<totfact> 0.75199157E+03</totfact>
</mgrwt>
</event>
<event>
 6    1  0.9240440E-006  0.1253170E+03  0.7546771E-02  0.1249897E+00
          4   -1    0    0  501    0  0.00000000000E+00  0.00000000000E+00  0.34876306778E+02  0.34876306778E+02  0.00000000000E+00 0. -1.
         -4   -1    0    0    0  501 -0.00000000000E+00 -0.00000000000E+00 -0.38854246405E+03  0.38854246405E+03  0.00000000000E+00 0.  1.
          5    1    1    2  502    0  0.57004681499E+02 -0.83388191751E+01 -0.26126113262E+02  0.63432904807E+02  0.47000000000E+01 0. -1.
         -5    1    1    2    0  502 -0.55630112128E+02 -0.46213976393E+00 -0.98998308212E+02  0.11365596323E+03  0.47000000000E+01 0. -1.
        -11    1    1    2    0    0 -0.42147282720E+02  0.19367755110E+02 -0.86202792339E+02  0.97889860484E+02  0.00000000000E+00 0. -1.
         11    1    1    2    0    0  0.40772713348E+02 -0.10566796171E+02 -0.14233894346E+03  0.14844004231E+03  0.00000000000E+00 0.  1.
<mgrwt>
<rscale>  0 0.11597006E+03</rscale>
<asrwt>0</asrwt>
<pdfrwt beam="1">  1        4 0.53655857E-02 0.12531698E+03</pdfrwt>
<pdfrwt beam="2">  1       -4 0.59775764E-01 0.12531698E+03</pdfrwt>
<totfact> 0.92606659E+02</totfact>
</mgrwt>
</event>
<event>
 6    1  0.9240440E-006  0.1313075E+03  0.7546771E-02  0.1239223E+00
         -2   -1    0    0    0  501 -0.00000000000E+00  0.00000000000E+00  0.10292892635E+03  0.10292892635E+03  0.00000000000E+00 0.  1.
          2   -1    0    0  501    0  0.00000000000E+00 -0.00000000000E+00 -0.13997897111E+03  0.13997897111E+03  0.00000000000E+00 0. -1.
          5    1    1    2  502    0  0.14160502476E+02  0.37356846718E+02  0.96313984252E+01  0.41363119596E+02  0.47000000000E+01 0.  1.
         -5    1    1    2    0  502 -0.81522153033E+01 -0.77121079850E+02 -0.64380286707E+02  0.10090109458E+03  0.47000000000E+01 0.  1.
        -11    1    1    2    0    0 -0.23151324982E+02 -0.86155872066E+01  0.38102703729E+02  0.45409560918E+02  0.00000000000E+00 0.  1.
         11    1    1    2    0    0  0.17143037810E+02  0.48379820339E+02 -0.20403860205E+02  0.55234122357E+02  0.00000000000E+00 0. -1.
<mgrwt>
<rscale>  0 0.12237945E+03</rscale>
<asrwt>0</asrwt>
<pdfrwt beam="2">  1        2 0.21535226E-01 0.13130752E+03</pdfrwt>
<pdfrwt beam="1">  1       -2 0.15835219E-01 0.13130752E+03</pdfrwt>
<totfact> 0.75267023E+03</totfact>
</mgrwt>
</event>
<event>
 6    1  0.9240440E-006  0.3570600E+03  0.7546771E-02  0.1059754E+00
         -2   -1    0    0    0  501 -0.00000000000E+00  0.00000000000E+00  0.19668360461E+02  0.19668360461E+02  0.00000000000E+00 0.  1.
          2   -1    0    0  501    0  0.00000000000E+00 -0.00000000000E+00 -0.16205198251E+04  0.16205198251E+04  0.00000000000E+00 0. -1.
          5    1    1    2  502    0  0.21528466450E+02  0.78944082295E+01 -0.75973239372E+02  0.79497293348E+02  0.47000000000E+01 0.  1.
         -5    1    1    2    0  502 -0.12256968350E+03 -0.68820947606E+02 -0.11068059129E+04  0.11157065335E+04  0.47000000000E+01 0.  1.
        -11    1    1    2    0    0  0.60320395591E+02  0.52446576551E+02 -0.38091138206E+03  0.38920775236E+03  0.00000000000E+00 0. -1.
         11    1    1    2    0    0  0.40720821456E+02  0.84799628261E+01 -0.37160930276E+02  0.55776606284E+02  0.00000000000E+00 0.  1.
<mgrwt>
<rscale>  0 0.35706004E+03</rscale>
<asrwt>0</asrwt>
<pdfrwt beam="2">  1        2 0.24931075E+00 0.35706004E+03</pdfrwt>
<pdfrwt beam="1">  1       -2 0.30259015E-02 0.35706004E+03</pdfrwt>
<totfact> 0.49285865E+03</totfact>
</mgrwt>
</event>
<event>
 6    1  0.9240440E-006  0.1870559E+03  0.7546771E-02  0.1183886E+00
         -1   -1    0    0    0  501 -0.00000000000E+00  0.00000000000E+00  0.10723333911E+03  0.10723333911E+03  0.00000000000E+00 0.  1.
          1   -1    0    0  501    0  0.00000000000E+00 -0.00000000000E+00 -0.29452726954E+03  0.29452726954E+03  0.00000000000E+00 0. -1.
          5    1    1    2  502    0  0.10623952143E+03 -0.54711992958E+02 -0.13466922146E+03  0.18010587802E+03  0.47000000000E+01 0. -1.
         -5    1    1    2    0  502 -0.44113565302E+02  0.50717087372E+02 -0.82271967180E+02  0.10634376417E+03  0.47000000000E+01 0.  1.
        -11    1    1    2    0    0  0.53094328980E+01  0.32605270620E+02 -0.64309002774E+01  0.33654869311E+02  0.00000000000E+00 0. -1.
         11    1    1    2    0    0 -0.67435389028E+02 -0.28610365034E+02  0.36078158498E+02  0.81656097147E+02  0.00000000000E+00 0.  1.
<mgrwt>
<rscale>  0 0.16433632E+03</rscale>
<asrwt>0</asrwt>
<pdfrwt beam="2">  1        1 0.45311888E-01 0.18705592E+03</pdfrwt>
<pdfrwt beam="1">  1       -1 0.16497437E-01 0.18705592E+03</pdfrwt>
<totfact> 0.24375107E+03</totfact>
</mgrwt>
</event>
<event>
 6    1  0.9240440E-006  0.1267990E+03  0.7546771E-02  0.1246974E+00
         -2   -1    0    0    0  501 -0.00000000000E+00  0.00000000000E+00  0.22076412912E+02  0.22076412912E+02  0.00000000000E+00 0.  1.
          2   -1    0    0  501    0  0.00000000000E+00 -0.00000000000E+00 -0.68195452788E+03  0.68195452788E+03  0.00000000000E+00 0. -1.
          5    1    1    2  502    0 -0.43029068933E+02 -0.27497039890E+02 -0.13869896700E+03  0.14787522248E+03  0.47000000000E+01 0.  1.
         -5    1    1    2    0  502  0.47848274351E+02  0.48280244108E+02 -0.38287310103E+03  0.38888859693E+03  0.47000000000E+01 0.  1.
        -11    1    1    2    0    0 -0.26029876994E+02  0.16942447683E+02 -0.11287289417E+03  0.11706789171E+03  0.00000000000E+00 0. -1.
         11    1    1    2    0    0  0.21210671577E+02 -0.37725651902E+02 -0.25433152756E+02  0.50199229668E+02  0.00000000000E+00 0.  1.
<mgrwt>
<rscale>  0 0.11768009E+03</rscale>
<asrwt>0</asrwt>
<pdfrwt beam="2">  1        2 0.10491608E+00 0.12679896E+03</pdfrwt>
<pdfrwt beam="1">  1       -2 0.33963712E-02 0.12679896E+03</pdfrwt>
<totfact> 0.14408945E+04</totfact>
</mgrwt>
</event>
<event>
 6    1  0.9240440E-006  0.1349267E+03  0.7546771E-02  0.1232299E+00
         -2   -1    0    0    0  501 -0.00000000000E+00  0.00000000000E+00  0.17763643212E+02  0.17763643212E+02  0.00000000000E+00 0.  1.
          2   -1    0    0  501    0  0.00000000000E+00 -0.00000000000E+00 -0.91644829091E+03  0.91644829091E+03  0.00000000000E+00 0. -1.
          5    1    1    2  502    0 -0.33792376757E+02 -0.96457678881E+00 -0.71236502509E+02  0.78991040157E+02  0.47000000000E+01 0. -1.
         -5    1    1    2    0  502  0.81973165496E+02  0.17041622462E+02 -0.58432783523E+03  0.59031442959E+03  0.47000000000E+01 0. -1.
        -11    1    1    2    0    0 -0.54409683434E+02 -0.41106963712E+02 -0.21979515324E+03  0.23013062704E+03  0.00000000000E+00 0. -1.
         11    1    1    2    0    0  0.62288946944E+01  0.25029918038E+02 -0.23325156727E+02  0.34775837337E+02  0.00000000000E+00 0.  1.
<mgrwt>
<rscale>  0 0.12678906E+03</rscale>
<asrwt>0</asrwt>
<pdfrwt beam="2">  1        2 0.14099204E+00 0.13492669E+03</pdfrwt>
<pdfrwt beam="1">  1       -2 0.27328682E-02 0.13492669E+03</pdfrwt>
<totfact> 0.13809025E+04</totfact>
</mgrwt>
</event>
<event>
 6    1  0.9240440E-006  0.1381923E+03  0.7546771E-02  0.1232598E+00
          1   -1    0    0  501    0  0.00000000000E+00  0.00000000000E+00  0.10273064683E+03  0.10273064683E+03  0.00000000000E+00 0. -1.
         -1   -1    0    0    0  501 -0.00000000000E+00 -0.00000000000E+00 -0.14492699336E+03  0.14492699336E+03  0.00000000000E+00 0.  1.
          5    1    1    2  502    0 -0.41593092267E+02  0.44144872636E+02  0.40291815774E+02  0.72967633391E+02  0.47000000000E+01 0. -1.
         -5    1    1    2    0  502  0.10703333864E+02 -0.55379304479E+02 -0.32819399139E+02  0.65426536514E+02  0.47000000000E+01 0.  1.
        -11    1    1    2    0    0 -0.32252134327E+02  0.22899902622E+01 -0.87640525337E+01  0.33500042401E+02  0.00000000000E+00 0. -1.
         11    1    1    2    0    0  0.63141892729E+02  0.89444415808E+01 -0.40904710634E+02  0.75763427884E+02  0.00000000000E+00 0.  1.
<mgrwt>
<rscale>  0 0.12659464E+03</rscale>
<asrwt>0</asrwt>
<pdfrwt beam="1">  1        1 0.15804715E-01 0.13819229E+03</pdfrwt>
<pdfrwt beam="2">  1       -1 0.22296461E-01 0.13819229E+03</pdfrwt>
<totfact> 0.55862706E+03</totfact>
</mgrwt>
</event>
<event>
 6    1  0.9240440E-006  0.1362854E+03  0.7546771E-02  0.1230435E+00
          1   -1    0    0  501    0  0.00000000000E+00  0.00000000000E+00  0.64696379460E+03  0.64696379460E+03  0.00000000000E+00 0. -1.
         -1   -1    0    0    0  501 -0.00000000000E+00 -0.00000000000E+00 -0.23006533367E+02  0.23006533367E+02  0.00000000000E+00 0.  1.
          5    1    1    2  502    0 -0.84953767133E+00 -0.27119429944E+02  0.60138319168E+01  0.28185836320E+02  0.47000000000E+01 0.  1.
         -5    1    1    2    0  502 -0.81950387437E+01 -0.26426359339E+02  0.38268783757E+03  0.38371549637E+03  0.47000000000E+01 0.  1.
        -11    1    1    2    0    0 -0.39769522342E+01  0.74763136852E+02  0.13102671201E+03  0.15090838957E+03  0.00000000000E+00 0.  1.
         11    1    1    2    0    0  0.13021528649E+02 -0.21217347569E+02  0.10422887974E+03  0.10716060572E+03  0.00000000000E+00 0. -1.
<mgrwt>
<rscale>  0 0.12801252E+03</rscale>
<asrwt>0</asrwt>
<pdfrwt beam="1">  1        1 0.99532878E-01 0.13628544E+03</pdfrwt>
<pdfrwt beam="2">  1       -1 0.35394672E-02 0.13628544E+03</pdfrwt>
<totfact> 0.89421893E+03</totfact>
</mgrwt>
</event>
<event>
 6    1  0.9240440E-006  0.2431754E+03  0.7546771E-02  0.1120358E+00
         -3   -1    0    0    0  501 -0.00000000000E+00  0.00000000000E+00  0.77745895369E+02  0.77745895369E+02  0.00000000000E+00 0.  1.
          3   -1    0    0  501    0  0.00000000000E+00 -0.00000000000E+00 -0.71511046132E+03  0.71511046132E+03  0.00000000000E+00 0. -1.
          5    1    1    2  502    0 -0.13811657000E+01  0.32702667307E+02 -0.89132747494E+01  0.34247752254E+02  0.47000000000E+01 0.  1.
         -5    1    1    2    0  502  0.17087687114E+03  0.88871209827E+02 -0.34513937497E+03  0.39527240630E+03  0.47000000000E+01 0.  1.
        -11    1    1    2    0    0 -0.81757843498E+02 -0.10950151245E+03 -0.19627351960E+03  0.23916149502E+03  0.00000000000E+00 0. -1.
         11    1    1    2    0    0 -0.87737861938E+02 -0.12072364680E+02 -0.87038396627E+02  0.12417470312E+03  0.00000000000E+00 0.  1.
<mgrwt>
<rscale>  0 0.23915309E+03</rscale>
<asrwt>0</asrwt>
<pdfrwt beam="2">  1        3 0.11001699E+00 0.24317543E+03</pdfrwt>
<pdfrwt beam="1">  1       -3 0.11960907E-01 0.24317543E+03</pdfrwt>
<totfact> 0.98634006E+01</totfact>
</mgrwt>
</event>
<event>
 6    1  0.9240440E-006  0.1900504E+03  0.7546771E-02  0.1166172E+00
         -2   -1    0    0    0  501 -0.00000000000E+00  0.00000000000E+00  0.16000638236E+03  0.16000638236E+03  0.00000000000E+00 0.  1.
          2   -1    0    0  501    0  0.00000000000E+00 -0.00000000000E+00 -0.45519426511E+03  0.45519426511E+03  0.00000000000E+00 0. -1.
          5    1    1    2  502    0  0.28723593060E+02  0.93628691904E+02 -0.38417720778E+03  0.39649160612E+03  0.47000000000E+01 0. -1.
         -5    1    1    2    0  502  0.23734074619E+02  0.25174860094E+02 -0.32849946094E+01  0.35070800794E+02  0.47000000000E+01 0.  1.
        -11    1    1    2    0    0 -0.47437326292E+02 -0.10386189445E+02  0.41218436828E+02  0.63695623017E+02  0.00000000000E+00 0.  1.
         11    1    1    2    0    0 -0.50203413872E+01 -0.10841736255E+03  0.51055882811E+02  0.11994261753E+03  0.00000000000E+00 0. -1.
<mgrwt>
<rscale>  0 0.18169579E+03</rscale>
<asrwt>0</asrwt>
<pdfrwt beam="2">  1        2 0.70029886E-01 0.19005040E+03</pdfrwt>
<pdfrwt beam="1">  1       -2 0.24616367E-01 0.19005040E+03</pdfrwt>
<totfact> 0.10094355E+03</totfact>
</mgrwt>
</event>
<event>
 6    1  0.9240440E-006  0.1326457E+03  0.7546771E-02  0.1239196E+00
          2   -1    0    0  501    0  0.00000000000E+00  0.00000000000E+00  0.84465067726E+03  0.84465067726E+03  0.00000000000E+00 0. -1.
         -2   -1    0    0    0  501 -0.00000000000E+00 -0.00000000000E+00 -0.16775984688E+02  0.16775984688E+02  0.00000000000E+00 0.  1.
          5    1    1    2  502    0 -0.61137442129E+02 -0.24898371987E+02  0.46679711378E+03  0.47146511132E+03  0.47000000000E+01 0. -1.
         -5    1    1    2    0  502  0.22052596512E+02  0.45886492230E+02  0.12572753859E+03  0.13572542556E+03  0.47000000000E+01 0. -1.
        -11    1    1    2    0    0 -0.21766695726E+02  0.12270225008E+02  0.42555637310E+02  0.49349060086E+02  0.00000000000E+00 0. -1.
         11    1    1    2    0    0  0.60851541344E+02 -0.33258345251E+02  0.19279440289E+03  0.20488706498E+03  0.00000000000E+00 0.  1.
<mgrwt>
<rscale>  0 0.12239574E+03</rscale>
<asrwt>0</asrwt>
<pdfrwt beam="1">  1        2 0.12994622E+00 0.13264571E+03</pdfrwt>
<pdfrwt beam="2">  1       -2 0.25809214E-02 0.13264571E+03</pdfrwt>
<totfact> 0.16665411E+04</totfact>
</mgrwt>
</event>
<event>
 6    1  0.2179526E-005  0.2267370E+03  0.7546771E-02  0.1132393E+00
         -1   -1    0    0    0  501 -0.00000000000E+00  0.00000000000E+00  0.85282033996E+02  0.85282033996E+02  0.00000000000E+00 0.  1.
          1   -1    0    0  501    0  0.00000000000E+00 -0.00000000000E+00 -0.64320219204E+03  0.64320219204E+03  0.00000000000E+00 0. -1.
          5    1    1    2  502    0  0.65811519373E+02 -0.66714535960E+02 -0.78590221855E+02  0.12239484614E+03  0.47000000000E+01 0.  1.
         -5    1    1    2    0  502  0.72959941157E+02 -0.61845090963E+02 -0.34522200879E+03  0.35825730090E+03  0.47000000000E+01 0.  1.
        -11    1    1    2    0    0 -0.79885980633E+02  0.16257704893E+02 -0.49033358225E+02  0.95133343728E+02  0.00000000000E+00 0.  1.
         11    1    1    2    0    0 -0.58885479898E+02  0.11230192203E+03 -0.85074569170E+02  0.15269873527E+03  0.00000000000E+00 0. -1.
<mgrwt>
<rscale>  0 0.22201014E+03</rscale>
<asrwt>0</asrwt>
<pdfrwt beam="2">  1        1 0.98954178E-01 0.22673703E+03</pdfrwt>
<pdfrwt beam="1">  1       -1 0.13120314E-01 0.22673703E+03</pdfrwt>
<totfact> 0.12676496E+03</totfact>
</mgrwt>
</event>
<event>
 6    1  0.9240440E-006  0.1268618E+03  0.7546771E-02  0.1248660E+00
         -2   -1    0    0    0  501 -0.00000000000E+00  0.00000000000E+00  0.87021846559E+01  0.87021846559E+01  0.00000000000E+00 0.  1.
          2   -1    0    0  501    0  0.00000000000E+00 -0.00000000000E+00 -0.20629504265E+04  0.20629504265E+04  0.00000000000E+00 0. -1.
          5    1    1    2  502    0 -0.16405811944E+02  0.25551424965E+02 -0.11861963608E+03  0.12253462387E+03  0.47000000000E+01 0. -1.
         -5    1    1    2    0  502  0.10749844509E+02 -0.46460886103E+02 -0.16193955156E+04  0.16201043482E+04  0.47000000000E+01 0. -1.
        -11    1    1    2    0    0  0.43552592103E+02 -0.56265868093E+01 -0.13467559943E+03  0.14165452284E+03  0.00000000000E+00 0.  1.
         11    1    1    2    0    0 -0.37896624668E+02  0.26536047948E+02 -0.18155749071E+03  0.18735911623E+03  0.00000000000E+00 0. -1.
<mgrwt>
<rscale>  0 0.11668972E+03</rscale>
<asrwt>0</asrwt>
<pdfrwt beam="2">  1        2 0.31737705E+00 0.12686181E+03</pdfrwt>
<pdfrwt beam="1">  1       -2 0.13387974E-02 0.12686181E+03</pdfrwt>
<totfact> 0.94241644E+03</totfact>
</mgrwt>
</event>
<event>
 6    1  0.9240440E-006  0.1329943E+03  0.7546771E-02  0.1236086E+00
          2   -1    0    0  501    0  0.00000000000E+00  0.00000000000E+00  0.11380826683E+04  0.11380826683E+04  0.00000000000E+00 0. -1.
         -2   -1    0    0    0  501 -0.00000000000E+00 -0.00000000000E+00 -0.32318397245E+02  0.32318397245E+02  0.00000000000E+00 0.  1.
          5    1    1    2  502    0 -0.39533142184E+02  0.11366840166E+02  0.20420467280E+03  0.20835957569E+03  0.47000000000E+01 0.  1.
         -5    1    1    2    0  502  0.84624397728E+02 -0.61177815931E+01  0.83769361589E+03  0.84199251781E+03  0.47000000000E+01 0.  1.
        -11    1    1    2    0    0 -0.30531766760E+02 -0.20215889099E+02  0.83631816324E+02  0.91297051734E+02  0.00000000000E+00 0. -1.
         11    1    1    2    0    0 -0.14559488783E+02  0.14966830526E+02 -0.19765833962E+02  0.28751920316E+02  0.00000000000E+00 0.  1.
<mgrwt>
<rscale>  0 0.12435190E+03</rscale>
<asrwt>0</asrwt>
<pdfrwt beam="1">  1        2 0.17508961E+00 0.13299427E+03</pdfrwt>
<pdfrwt beam="2">  1       -2 0.49720620E-02 0.13299427E+03</pdfrwt>
<totfact> 0.42061295E+03</totfact>
</mgrwt>
</event>
<event>
 6    1  0.9240440E-006  0.3068485E+03  0.7546771E-02  0.1081866E+00
         -2   -1    0    0    0  501 -0.00000000000E+00  0.00000000000E+00  0.29013291976E+03  0.29013291976E+03  0.00000000000E+00 0.  1.
          2   -1    0    0  501    0  0.00000000000E+00 -0.00000000000E+00 -0.81131774340E+02  0.81131774340E+02  0.00000000000E+00 0. -1.
          5    1    1    2  502    0  0.37265066859E+01  0.73737327977E+01  0.56956639530E+02  0.57744329366E+02  0.47000000000E+01 0.  1.
         -5    1    1    2    0  502 -0.78369882072E+02 -0.29871130202E+02 -0.35372865657E+02  0.91145227304E+02  0.47000000000E+01 0.  1.
        -11    1    1    2    0    0  0.80337319513E+02  0.45077064544E+02  0.16978690100E+03  0.19316733266E+03  0.00000000000E+00 0.  1.
         11    1    1    2    0    0 -0.56939441261E+01 -0.22579667140E+02  0.17630470543E+02  0.29207804769E+02  0.00000000000E+00 0. -1.
<mgrwt>
<rscale>  0 0.30684849E+03</rscale>
<asrwt>0</asrwt>
<pdfrwt beam="2">  1        2 0.12481812E-01 0.30684849E+03</pdfrwt>
<pdfrwt beam="1">  1       -2 0.44635833E-01 0.30684849E+03</pdfrwt>
<totfact> 0.23455263E+03</totfact>
</mgrwt>
</event>
<event>
 6    1  0.9240440E-006  0.3785588E+03  0.7546771E-02  0.1051468E+00
         -1   -1    0    0    0  501 -0.00000000000E+00  0.00000000000E+00  0.42390176453E+02  0.42390176453E+02  0.00000000000E+00 0.  1.
          1   -1    0    0  501    0  0.00000000000E+00 -0.00000000000E+00 -0.84516478182E+03  0.84516478182E+03  0.00000000000E+00 0. -1.
          5    1    1    2  502    0  0.35775305583E+01 -0.97123278163E+01 -0.33238904883E+03  0.33258336973E+03  0.47000000000E+01 0. -1.
         -5    1    1    2    0  502 -0.10337155508E+03  0.60127001212E+02 -0.34162062341E+03  0.36197745098E+03  0.47000000000E+01 0. -1.
        -11    1    1    2    0    0  0.82176227205E+02 -0.18235585993E+02 -0.13157891862E+03  0.15620013041E+03  0.00000000000E+00 0. -1.
         11    1    1    2    0    0  0.17617797317E+02 -0.32179087402E+02  0.28139855012E+01  0.36794007158E+02  0.00000000000E+00 0.  1.
<mgrwt>
<rscale>  0 0.37855876E+03</rscale>
<asrwt>0</asrwt>
<pdfrwt beam="2">  1        1 0.13002535E+00 0.37855876E+03</pdfrwt>
<pdfrwt beam="1">  1       -1 0.65215658E-02 0.37855876E+03</pdfrwt>
<totfact> 0.24950133E+03</totfact>
</mgrwt>
</event>
<event>
 6    1  0.9240440E-006  0.1726356E+03  0.7546771E-02  0.1181538E+00
         -2   -1    0    0    0  501 -0.00000000000E+00  0.00000000000E+00  0.60176215486E+02  0.60176215486E+02  0.00000000000E+00 0.  1.
          2   -1    0    0  501    0  0.00000000000E+00 -0.00000000000E+00 -0.44454393319E+03  0.44454393319E+03  0.00000000000E+00 0. -1.
          5    1    1    2  502    0 -0.24181694339E+02 -0.46957184597E+02 -0.11369492937E+02  0.54231788612E+02  0.47000000000E+01 0.  1.
         -5    1    1    2    0  502 -0.66557302264E+02 -0.30149489764E+02 -0.23841849590E+03  0.24940796981E+03  0.47000000000E+01 0.  1.
        -11    1    1    2    0    0  0.97375827776E+01 -0.15242359935E+02 -0.46592215653E+02  0.49979842078E+02  0.00000000000E+00 0. -1.
         11    1    1    2    0    0  0.81001413826E+02  0.92349034296E+02 -0.87987513212E+02  0.15110054817E+03  0.00000000000E+00 0.  1.
<mgrwt>
<rscale>  0 0.16650932E+03</rscale>
<asrwt>0</asrwt>
<pdfrwt beam="2">  1        2 0.68391376E-01 0.17263564E+03</pdfrwt>
<pdfrwt beam="1">  1       -2 0.92578790E-02 0.17263564E+03</pdfrwt>
<totfact> 0.51936578E+03</totfact>
</mgrwt>
</event>
<event>
 6    1  0.9240440E-006  0.2600438E+03  0.7546771E-02  0.1126747E+00
         -3   -1    0    0    0  501 -0.00000000000E+00  0.00000000000E+00  0.73396572415E+03  0.73396572415E+03  0.00000000000E+00 0.  1.
          3   -1    0    0  501    0  0.00000000000E+00 -0.00000000000E+00 -0.62834019445E+02  0.62834019445E+02  0.00000000000E+00 0. -1.
          5    1    1    2  502    0  0.81813129150E+02  0.15261873844E+03  0.23074296021E+03  0.28853123074E+03  0.47000000000E+01 0. -1.
         -5    1    1    2    0  502 -0.83473880846E+02 -0.21226521756E+02  0.95965526038E+02  0.12903459302E+03  0.47000000000E+01 0.  1.
        -11    1    1    2    0    0  0.22201696392E+02  0.27156819890E+01  0.37540530688E+02  0.43698760802E+02  0.00000000000E+00 0. -1.
         11    1    1    2    0    0 -0.20540944695E+02 -0.13410789867E+03  0.30688268777E+03  0.33553515903E+03  0.00000000000E+00 0.  1.
<mgrwt>
<rscale>  0 0.22984793E+03</rscale>
<asrwt>0</asrwt>
<pdfrwt beam="2">  1        3 0.96667727E-02 0.26004381E+03</pdfrwt>
<pdfrwt beam="1">  1       -3 0.11291780E+00 0.26004381E+03</pdfrwt>
<totfact> 0.13318859E+02</totfact>
</mgrwt>
</event>
<event>
 6    1  0.9240440E-006  0.1372939E+03  0.7546771E-02  0.1228885E+00
          2   -1    0    0  501    0  0.00000000000E+00  0.00000000000E+00  0.89406117045E+02  0.89406117045E+02  0.00000000000E+00 0.  1.
         -2   -1    0    0    0  501 -0.00000000000E+00 -0.00000000000E+00 -0.16918948492E+03  0.16918948492E+03  0.00000000000E+00 0. -1.
          5    1    1    2  502    0  0.57554718098E+02  0.24726791329E+02 -0.52008504344E+02  0.81553260565E+02  0.47000000000E+01 0. -1.
         -5    1    1    2    0  502 -0.89241051809E+01 -0.54034245093E+02  0.21614806046E+02  0.59064618313E+02  0.47000000000E+01 0. -1.
        -11    1    1    2    0    0 -0.30388473808E+02  0.35297827483E+02 -0.73586606578E+02  0.87088372548E+02  0.00000000000E+00 0. -1.
         11    1    1    2    0    0 -0.18242139109E+02 -0.59903737192E+01  0.24196937000E+02  0.30889350539E+02  0.00000000000E+00 0.  1.
<mgrwt>
<rscale>  0 0.12904118E+03</rscale>
<asrwt>0</asrwt>
<pdfrwt beam="1">  1        2 0.13754787E-01 0.13729389E+03</pdfrwt>
<pdfrwt beam="2">  1       -2 0.26029151E-01 0.13729389E+03</pdfrwt>
<totfact> 0.54438975E+03</totfact>
</mgrwt>
</event>
<event>
 6    1  0.9240440E-006  0.1824728E+03  0.7546771E-02  0.1170956E+00
         -1   -1    0    0    0  501 -0.00000000000E+00  0.00000000000E+00  0.14979691742E+03  0.14979691742E+03  0.00000000000E+00 0.  1.
          1   -1    0    0  501    0  0.00000000000E+00 -0.00000000000E+00 -0.19671156572E+03  0.19671156572E+03  0.00000000000E+00 0. -1.
          5    1    1    2  502    0  0.51108749129E+02  0.33777113396E+02 -0.48446061861E+02  0.78243904151E+02  0.47000000000E+01 0. -1.
         -5    1    1    2    0  502  0.76337394280E+02 -0.71588226102E+02  0.19360124000E+02  0.10653251280E+03  0.47000000000E+01 0. -1.
        -11    1    1    2    0    0 -0.78427634877E+02 -0.28000768696E+01  0.27969624607E+02  0.83312869615E+02  0.00000000000E+00 0.  1.
         11    1    1    2    0    0 -0.49018508533E+02  0.40611189575E+02 -0.45798335050E+02  0.78419196571E+02  0.00000000000E+00 0. -1.
<mgrwt>
<rscale>  0 0.17678033E+03</rscale>
<asrwt>0</asrwt>
<pdfrwt beam="2">  1        1 0.30263318E-01 0.18247283E+03</pdfrwt>
<pdfrwt beam="1">  1       -1 0.23045680E-01 0.18247283E+03</pdfrwt>
<totfact> 0.23507851E+03</totfact>
</mgrwt>
</event>
<event>
 6    1  0.9240440E-006  0.2324144E+03  0.7546771E-02  0.1124952E+00
         -2   -1    0    0    0  501 -0.00000000000E+00  0.00000000000E+00  0.11507050079E+02  0.11507050079E+02  0.00000000000E+00 0.  1.
          2   -1    0    0  501    0  0.00000000000E+00 -0.00000000000E+00 -0.11735516777E+04  0.11735516777E+04  0.00000000000E+00 0. -1.
          5    1    1    2  502    0 -0.18144913940E+02 -0.60557021037E+01 -0.13044596860E+02  0.23625429882E+02  0.47000000000E+01 0.  1.
         -5    1    1    2    0  502  0.65329147864E+01  0.43785852686E+02 -0.69686361461E+03  0.69828423099E+03  0.47000000000E+01 0.  1.
        -11    1    1    2    0    0  0.49004349694E+02 -0.91442039769E+01 -0.17169714343E+03  0.17878744871E+03  0.00000000000E+00 0.  1.
         11    1    1    2    0    0 -0.37392350540E+02 -0.28585946605E+02 -0.28043927273E+03  0.28436161821E+03  0.00000000000E+00 0. -1.
<mgrwt>
<rscale>  0 0.23241444E+03</rscale>
<asrwt>0</asrwt>
<pdfrwt beam="2">  1        2 0.18054641E+00 0.23241444E+03</pdfrwt>
<pdfrwt beam="1">  1       -2 0.17703154E-02 0.23241444E+03</pdfrwt>
<totfact> 0.18960781E+04</totfact>
</mgrwt>
</event>
<event>
 6    1  0.9240440E-006  0.2919235E+03  0.7546771E-02  0.1089349E+00
          2   -1    0    0  501    0  0.00000000000E+00  0.00000000000E+00  0.27056355136E+03  0.27056355136E+03  0.00000000000E+00 0. -1.
         -2   -1    0    0    0  501 -0.00000000000E+00 -0.00000000000E+00 -0.78742444437E+02  0.78742444437E+02  0.00000000000E+00 0.  1.
          5    1    1    2  502    0 -0.52280235687E+01  0.14943548965E+00  0.15694536948E+03  0.15710281208E+03  0.47000000000E+01 0.  1.
         -5    1    1    2    0  502  0.33372798292E+02 -0.63732698197E+02  0.29494963257E+02  0.77895079067E+02  0.47000000000E+01 0.  1.
        -11    1    1    2    0    0 -0.26261429834E+02 -0.11983151200E+02  0.22743834626E+02  0.36749702354E+02  0.00000000000E+00 0. -1.
         11    1    1    2    0    0 -0.18833448892E+01  0.75566413907E+02 -0.17363060442E+02  0.77558402296E+02  0.00000000000E+00 0.  1.
<mgrwt>
<rscale>  0 0.29192352E+03</rscale>
<asrwt>0</asrwt>
<pdfrwt beam="1">  1        2 0.41625161E-01 0.29192352E+03</pdfrwt>
<pdfrwt beam="2">  1       -2 0.12114222E-01 0.29192352E+03</pdfrwt>
<totfact> 0.59313585E+03</totfact>
</mgrwt>
</event>
<event>
 6    1  0.9240440E-006  0.2757235E+03  0.7546771E-02  0.1100091E+00
          1   -1    0    0  501    0  0.00000000000E+00  0.00000000000E+00  0.12451383596E+04  0.12451383596E+04  0.00000000000E+00 0. -1.
         -1   -1    0    0    0  501 -0.00000000000E+00 -0.00000000000E+00 -0.76226334365E+02  0.76226334365E+02  0.00000000000E+00 0.  1.
          5    1    1    2  502    0 -0.23428366188E+02  0.35308294439E+02  0.18385477284E+02  0.46429298653E+02  0.47000000000E+01 0.  1.
         -5    1    1    2    0  502  0.13353490522E+03  0.18439987448E+03  0.25434934929E+03  0.34139502941E+03  0.47000000000E+01 0.  1.
        -11    1    1    2    0    0 -0.36494727285E+02 -0.10116529226E+03  0.24476223551E+03  0.26734777615E+03  0.00000000000E+00 0.  1.
         11    1    1    2    0    0 -0.73611811744E+02 -0.11854287666E+03  0.65141496317E+03  0.66619258978E+03  0.00000000000E+00 0. -1.
<mgrwt>
<rscale>  0 0.27208760E+03</rscale>
<asrwt>0</asrwt>
<pdfrwt beam="1">  1        1 0.19155973E+00 0.27572346E+03</pdfrwt>
<pdfrwt beam="2">  1       -1 0.11727129E-01 0.27572346E+03</pdfrwt>
<totfact> 0.50730514E+02</totfact>
</mgrwt>
</event>
<event>
 6    1  0.9240440E-006  0.1886980E+03  0.7546771E-02  0.1164508E+00
         -1   -1    0    0    0  501 -0.00000000000E+00  0.00000000000E+00  0.16686171952E+03  0.16686171952E+03  0.00000000000E+00 0.  1.
          1   -1    0    0  501    0  0.00000000000E+00 -0.00000000000E+00 -0.19122878392E+03  0.19122878392E+03  0.00000000000E+00 0. -1.
          5    1    1    2  502    0 -0.66080380828E+02  0.55817432628E+02  0.51194109057E+02  0.10062370157E+03  0.47000000000E+01 0. -1.
         -5    1    1    2    0  502 -0.61681496174E+02  0.46624112146E+01 -0.63041489421E+02  0.88445827697E+02  0.47000000000E+01 0. -1.
        -11    1    1    2    0    0  0.11352503365E+03 -0.52957137436E+02  0.25405076779E+02  0.12781944139E+03  0.00000000000E+00 0.  1.
         11    1    1    2    0    0  0.14236843356E+02 -0.75227064068E+01 -0.37924760819E+02  0.41201532782E+02  0.00000000000E+00 0. -1.
<mgrwt>
<rscale>  0 0.18344755E+03</rscale>
<asrwt>0</asrwt>
<pdfrwt beam="2">  1        1 0.29419813E-01 0.18869798E+03</pdfrwt>
<pdfrwt beam="1">  1       -1 0.25671034E-01 0.18869798E+03</pdfrwt>
<totfact> 0.20407856E+03</totfact>
</mgrwt>
</event>
<event>
 6    1  0.9240440E-006  0.1465489E+03  0.7546771E-02  0.1214135E+00
         -3   -1    0    0    0  501 -0.00000000000E+00  0.00000000000E+00  0.32202109190E+03  0.32202109190E+03  0.00000000000E+00 0.  1.
          3   -1    0    0  501    0  0.00000000000E+00 -0.00000000000E+00 -0.29844733218E+03  0.29844733218E+03  0.00000000000E+00 0. -1.
          5    1    1    2  502    0  0.41466340191E+02 -0.70486392036E+02 -0.87921539253E+02  0.12016686688E+03  0.47000000000E+01 0. -1.
         -5    1    1    2    0  502  0.26120394212E+02  0.34686917000E+02 -0.17992321305E+03  0.18514834538E+03  0.47000000000E+01 0. -1.
        -11    1    1    2    0    0 -0.89307182249E+02  0.27615381272E+02  0.19896433036E+03  0.21982990433E+03  0.00000000000E+00 0.  1.
         11    1    1    2    0    0  0.21720447846E+02  0.81840937644E+01  0.92454181659E+02  0.95323307494E+02  0.00000000000E+00 0. -1.
<mgrwt>
<rscale>  0 0.13940234E+03</rscale>
<asrwt>0</asrwt>
<pdfrwt beam="2">  1        3 0.45914974E-01 0.14654886E+03</pdfrwt>
<pdfrwt beam="1">  1       -3 0.49541707E-01 0.14654886E+03</pdfrwt>
<totfact> 0.45956900E+01</totfact>
</mgrwt>
</event>
<event>
 6    1  0.9240440E-006  0.1582043E+03  0.7546771E-02  0.1198086E+00
         -1   -1    0    0    0  501 -0.00000000000E+00  0.00000000000E+00  0.24224567995E+02  0.24224567995E+02  0.00000000000E+00 0.  1.
          1   -1    0    0  501    0  0.00000000000E+00 -0.00000000000E+00 -0.95283000076E+03  0.95283000076E+03  0.00000000000E+00 0. -1.
          5    1    1    2  502    0 -0.90955810630E+01 -0.93403115491E+02 -0.37796049517E+03  0.38946514284E+03  0.47000000000E+01 0. -1.
         -5    1    1    2    0  502 -0.59155783715E+02  0.24565789010E+02 -0.25079364368E+03  0.25888689895E+03  0.47000000000E+01 0. -1.
        -11    1    1    2    0    0  0.85003608923E+02  0.70860207454E+02 -0.28667492543E+03  0.30729350042E+03  0.00000000000E+00 0. -1.
         11    1    1    2    0    0 -0.16752244145E+02 -0.20228809729E+01 -0.13176368491E+02  0.21409026552E+02  0.00000000000E+00 0.  1.
<mgrwt>
<rscale>  0 0.15195923E+03</rscale>
<asrwt>0</asrwt>
<pdfrwt beam="2">  1        1 0.14658922E+00 0.15820431E+03</pdfrwt>
<pdfrwt beam="1">  1       -1 0.37268569E-02 0.15820431E+03</pdfrwt>
<totfact> 0.46613590E+03</totfact>
</mgrwt>
</event>
<event>
 6    1  0.9240440E-006  0.1430368E+03  0.7546771E-02  0.1215728E+00
          1   -1    0    0  501    0  0.00000000000E+00  0.00000000000E+00  0.78042644177E+02  0.78042644177E+02  0.00000000000E+00 0. -1.
         -1   -1    0    0    0  501 -0.00000000000E+00 -0.00000000000E+00 -0.23284256383E+03  0.23284256383E+03  0.00000000000E+00 0.  1.
          5    1    1    2  502    0  0.97020870620E+02  0.14150204426E+02 -0.54568813416E+02  0.11230816096E+03  0.47000000000E+01 0.  1.
         -5    1    1    2    0  502 -0.29356396556E+02 -0.30216285923E+02 -0.45948250821E+02  0.62515227803E+02  0.47000000000E+01 0.  1.
        -11    1    1    2    0    0  0.26480452690E+02  0.10495456399E+02 -0.28174874533E+01  0.28623543024E+02  0.00000000000E+00 0. -1.
         11    1    1    2    0    0 -0.94144926754E+02  0.55706250980E+01 -0.51465367965E+02  0.10743827622E+03  0.00000000000E+00 0.  1.
<mgrwt>
<rscale>  0 0.13823204E+03</rscale>
<asrwt>0</asrwt>
<pdfrwt beam="1">  1        1 0.12006561E-01 0.14303684E+03</pdfrwt>
<pdfrwt beam="2">  1       -1 0.35821933E-01 0.14303684E+03</pdfrwt>
<totfact> 0.36272777E+03</totfact>
</mgrwt>
</event>
<event>
 6    1  0.9240440E-006  0.1815606E+03  0.7546771E-02  0.1171629E+00
         -2   -1    0    0    0  501 -0.00000000000E+00  0.00000000000E+00  0.11193239195E+03  0.11193239195E+03  0.00000000000E+00 0.  1.
          2   -1    0    0  501    0  0.00000000000E+00 -0.00000000000E+00 -0.32510366701E+03  0.32510366701E+03  0.00000000000E+00 0. -1.
          5    1    1    2  502    0 -0.46283595997E+02 -0.42308905670E+02 -0.19526181921E+03  0.20513771667E+03  0.47000000000E+01 0.  1.
         -5    1    1    2    0  502 -0.60556914822E+02 -0.34668938027E+02 -0.12966033983E+02  0.71128638634E+02  0.47000000000E+01 0.  1.
        -11    1    1    2    0    0  0.89870598567E+01  0.60861140223E+02 -0.16483443931E+01  0.61543177309E+02  0.00000000000E+00 0. -1.
         11    1    1    2    0    0  0.97853450962E+02  0.16116703475E+02 -0.32950774786E+01  0.99226526351E+02  0.00000000000E+00 0.  1.
<mgrwt>
<rscale>  0 0.17610267E+03</rscale>
<asrwt>0</asrwt>
<pdfrwt beam="2">  1        2 0.50015949E-01 0.18156062E+03</pdfrwt>
<pdfrwt beam="1">  1       -2 0.17220368E-01 0.18156062E+03</pdfrwt>
<totfact> 0.26729940E+03</totfact>
</mgrwt>
</event>
<event>
 6    1  0.9240440E-006  0.1337784E+03  0.7546771E-02  0.1234851E+00
         -1   -1    0    0    0  501 -0.00000000000E+00  0.00000000000E+00  0.62308113932E+02  0.62308113932E+02  0.00000000000E+00 0.  1.
          1   -1    0    0  501    0  0.00000000000E+00 -0.00000000000E+00 -0.25321396549E+03  0.25321396549E+03  0.00000000000E+00 0. -1.
          5    1    1    2  502    0 -0.32844409597E+01  0.55303796348E+02 -0.17111681950E+03  0.17992318739E+03  0.47000000000E+01 0. -1.
         -5    1    1    2    0  502 -0.21589175100E+02 -0.14299854905E+02  0.11173165568E+02  0.28592096121E+02  0.47000000000E+01 0. -1.
        -11    1    1    2    0    0  0.46368059566E+02 -0.58521600312E+02 -0.21305010603E+02  0.77644562770E+02  0.00000000000E+00 0. -1.
         11    1    1    2    0    0 -0.21494443507E+02  0.17517658869E+02 -0.96571870198E+01  0.29362233142E+02  0.00000000000E+00 0.  1.
<mgrwt>
<rscale>  0 0.12513985E+03</rscale>
<asrwt>0</asrwt>
<pdfrwt beam="2">  1        1 0.38955994E-01 0.13377837E+03</pdfrwt>
<pdfrwt beam="1">  1       -1 0.95858639E-02 0.13377837E+03</pdfrwt>
<totfact> 0.67264700E+03</totfact>
</mgrwt>
</event>
<event>
 6    1  0.9240440E-006  0.1653036E+03  0.7546771E-02  0.1199229E+00
          2   -1    0    0  501    0  0.00000000000E+00  0.00000000000E+00  0.57278334531E+02  0.57278334531E+02  0.00000000000E+00 0. -1.
         -2   -1    0    0    0  501 -0.00000000000E+00 -0.00000000000E+00 -0.37396976471E+03  0.37396976471E+03  0.00000000000E+00 0.  1.
          5    1    1    2  502    0 -0.56820714461E+01 -0.63071589700E+02 -0.11311006464E+02  0.64500699457E+02  0.47000000000E+01 0. -1.
         -5    1    1    2    0  502  0.86176698687E+02 -0.91896389461E+01 -0.11218862938E+03  0.14184234707E+03  0.47000000000E+01 0. -1.
        -11    1    1    2    0    0 -0.62338968320E+02  0.72666985426E+02 -0.17316488990E+03  0.19787045468E+03  0.00000000000E+00 0.  1.
         11    1    1    2    0    0 -0.18155658922E+02 -0.40575678019E+00 -0.20026904436E+02  0.27034598032E+02  0.00000000000E+00 0. -1.
<mgrwt>
<rscale>  0 0.15101724E+03</rscale>
<asrwt>0</asrwt>
<pdfrwt beam="1">  1        2 0.88120515E-02 0.16530364E+03</pdfrwt>
<pdfrwt beam="2">  1       -2 0.57533810E-01 0.16530364E+03</pdfrwt>
<totfact> 0.21136722E+03</totfact>
</mgrwt>
</event>
<event>
 6    1  0.9240440E-006  0.2360632E+03  0.7546771E-02  0.1122443E+00
          3   -1    0    0  501    0  0.00000000000E+00  0.00000000000E+00  0.32616957329E+03  0.32616957329E+03  0.00000000000E+00 0. -1.
         -3   -1    0    0    0  501 -0.00000000000E+00 -0.00000000000E+00 -0.42712334720E+02  0.42712334720E+02  0.00000000000E+00 0.  1.
          5    1    1    2  502    0  0.22566336033E+02  0.13897423125E+02 -0.82195744774E+01  0.28143015049E+02  0.47000000000E+01 0.  1.
         -5    1    1    2    0  502 -0.51662280513E+02 -0.13095861964E+02  0.17085465042E+03  0.17903601425E+03  0.47000000000E+01 0.  1.
        -11    1    1    2    0    0  0.42811339944E+02 -0.43287138451E+02  0.54241142135E+02  0.81539491556E+02  0.00000000000E+00 0.  1.
         11    1    1    2    0    0 -0.13715395464E+02  0.42485577291E+02  0.66581020492E+02  0.80163387155E+02  0.00000000000E+00 0. -1.
<mgrwt>
<rscale>  0 0.23606325E+03</rscale>
<asrwt>0</asrwt>
<pdfrwt beam="1">  1        3 0.50179933E-01 0.23606325E+03</pdfrwt>
<pdfrwt beam="2">  1       -3 0.65711286E-02 0.23606325E+03</pdfrwt>
<totfact> 0.14582229E+03</totfact>
</mgrwt>
</event>
<event>
 6    1  0.9240440E-006  0.1372615E+03  0.7546771E-02  0.1230394E+00
         -1   -1    0    0    0  501 -0.00000000000E+00  0.00000000000E+00  0.39864508804E+02  0.39864508804E+02  0.00000000000E+00 0.  1.
          1   -1    0    0  501    0  0.00000000000E+00 -0.00000000000E+00 -0.11819040029E+04  0.11819040029E+04  0.00000000000E+00 0. -1.
          5    1    1    2  502    0  0.36972629600E+01 -0.51549944466E+02 -0.62572214838E+03  0.62787049898E+03  0.47000000000E+01 0.  1.
         -5    1    1    2    0  502  0.52695827018E+02  0.57494972992E+02 -0.47608736132E+03  0.48245599562E+03  0.47000000000E+01 0.  1.
        -11    1    1    2    0    0 -0.16058209482E+02 -0.22352147417E+02  0.22176786926E+02  0.35345359869E+02  0.00000000000E+00 0.  1.
         11    1    1    2    0    0 -0.40334880495E+02  0.16407118891E+02 -0.62406771372E+02  0.76096657272E+02  0.00000000000E+00 0. -1.
<mgrwt>
<rscale>  0 0.12803951E+03</rscale>
<asrwt>0</asrwt>
<pdfrwt beam="2">  1        1 0.18183141E+00 0.13726153E+03</pdfrwt>
<pdfrwt beam="1">  1       -1 0.61330004E-02 0.13726153E+03</pdfrwt>
<totfact> 0.15235458E+03</totfact>
</mgrwt>
</event>
<event>
 6    1  0.9240440E-006  0.1251966E+03  0.7546771E-02  0.1251447E+00
         -4   -1    0    0    0  501 -0.00000000000E+00  0.00000000000E+00  0.62778424817E+02  0.62778424817E+02  0.00000000000E+00 0.  1.
          4   -1    0    0  501    0  0.00000000000E+00 -0.00000000000E+00 -0.18437993752E+03  0.18437993752E+03  0.00000000000E+00 0. -1.
          5    1    1    2  502    0  0.32594457294E+02 -0.73122592621E+01 -0.10321552422E+03  0.10858822322E+03  0.47000000000E+01 0. -1.
         -5    1    1    2    0  502 -0.32322235987E+02  0.23136839556E+00  0.23137460531E+02  0.40027647325E+02  0.47000000000E+01 0. -1.
        -11    1    1    2    0    0  0.15931838903E+02  0.26012069641E+02 -0.60142535523E+02  0.67435716331E+02  0.00000000000E+00 0. -1.
         11    1    1    2    0    0 -0.16204060210E+02 -0.18931178774E+02  0.18619086510E+02  0.31106775461E+02  0.00000000000E+00 0.  1.
<mgrwt>
<rscale>  0 0.11507696E+03</rscale>
<asrwt>0</asrwt>
<pdfrwt beam="2">  1        4 0.28366144E-01 0.12519657E+03</pdfrwt>
<pdfrwt beam="1">  1       -4 0.96582193E-02 0.12519657E+03</pdfrwt>
<totfact> 0.15384261E+03</totfact>
</mgrwt>
</event>
<event>
 6    1  0.9240440E-006  0.1448882E+03  0.7546771E-02  0.1216924E+00
          1   -1    0    0  501    0  0.00000000000E+00  0.00000000000E+00  0.53017973442E+03  0.53017973442E+03  0.00000000000E+00 0. -1.
         -1   -1    0    0    0  501 -0.00000000000E+00 -0.00000000000E+00 -0.33932713375E+02  0.33932713375E+02  0.00000000000E+00 0.  1.
          5    1    1    2  502    0  0.37012826002E+02  0.25924195332E+02  0.21945977974E+02  0.50455219170E+02  0.47000000000E+01 0.  1.
         -5    1    1    2    0  502  0.31044236414E+02  0.11179768253E+01  0.31186584919E+03  0.31344440077E+03  0.47000000000E+01 0.  1.
        -11    1    1    2    0    0 -0.88838288329E+02 -0.11721441777E+02  0.11095004841E+03  0.14261678342E+03  0.00000000000E+00 0.  1.
         11    1    1    2    0    0  0.20781225913E+02 -0.15320730380E+02  0.51485145468E+02  0.57596044428E+02  0.00000000000E+00 0. -1.
<mgrwt>
<rscale>  0 0.13736144E+03</rscale>
<asrwt>0</asrwt>
<pdfrwt beam="1">  1        1 0.81566107E-01 0.14488822E+03</pdfrwt>
<pdfrwt beam="2">  1       -1 0.52204178E-02 0.14488822E+03</pdfrwt>
<totfact> 0.66310075E+03</totfact>
</mgrwt>
</event>
<event>
 6    1  0.1037480E-005  0.1421611E+03  0.7546771E-02  0.1219343E+00
          1   -1    0    0  501    0  0.00000000000E+00  0.00000000000E+00  0.23743669263E+02  0.23743669263E+02  0.00000000000E+00 0. -1.
         -1   -1    0    0    0  501 -0.00000000000E+00 -0.00000000000E+00 -0.72687033844E+03  0.72687033844E+03  0.00000000000E+00 0.  1.
          5    1    1    2  502    0  0.44553745316E+01 -0.27259684878E+02 -0.31190033801E+03  0.31315627350E+03  0.47000000000E+01 0. -1.
         -5    1    1    2    0  502  0.23887577654E+02 -0.34235913882E+02 -0.17308098521E+02  0.45435387529E+02  0.47000000000E+01 0. -1.
        -11    1    1    2    0    0 -0.37154689123E+02  0.84401068338E+02 -0.27265816869E+03  0.28783065892E+03  0.00000000000E+00 0.  1.
         11    1    1    2    0    0  0.88117369375E+01 -0.22905469577E+02 -0.10126006396E+03  0.10419168776E+03  0.00000000000E+00 0. -1.
<mgrwt>
<rscale>  0 0.13562263E+03</rscale>
<asrwt>0</asrwt>
<pdfrwt beam="1">  1        1 0.36528723E-02 0.14216112E+03</pdfrwt>
<pdfrwt beam="2">  1       -1 0.11182620E+00 0.14216112E+03</pdfrwt>
<totfact> 0.19626220E+03</totfact>
</mgrwt>
</event>
<event>
 6    1  0.9240440E-006  0.1390002E+03  0.7546771E-02  0.1233616E+00
          2   -1    0    0  501    0  0.00000000000E+00  0.00000000000E+00  0.53298861953E+03  0.53298861953E+03  0.00000000000E+00 0. -1.
         -2   -1    0    0    0  501 -0.00000000000E+00 -0.00000000000E+00 -0.25926494344E+02  0.25926494344E+02  0.00000000000E+00 0.  1.
          5    1    1    2  502    0  0.13549950179E+02 -0.44733787708E+02  0.15520512631E+02  0.49474126823E+02  0.47000000000E+01 0.  1.
         -5    1    1    2    0  502 -0.44686004678E+01 -0.15701664330E+02  0.24692347540E+03  0.24750717839E+03  0.47000000000E+01 0.  1.
        -11    1    1    2    0    0  0.14168256747E+02 -0.10728814424E+02  0.33297733640E+02  0.37743688528E+02  0.00000000000E+00 0. -1.
         11    1    1    2    0    0 -0.23249606459E+02  0.71164266462E+02  0.21132040351E+03  0.22419012013E+03  0.00000000000E+00 0.  1.
<mgrwt>
<rscale>  0 0.12593441E+03</rscale>
<asrwt>0</asrwt>
<pdfrwt beam="1">  1        2 0.81998241E-01 0.13900018E+03</pdfrwt>
<pdfrwt beam="2">  1       -2 0.39886918E-02 0.13900018E+03</pdfrwt>
<totfact> 0.15147145E+04</totfact>
</mgrwt>
</event>
<event>
 6    1  0.9240440E-006  0.1303169E+03  0.7546771E-02  0.1238653E+00
          1   -1    0    0  501    0  0.00000000000E+00  0.00000000000E+00  0.10309721269E+04  0.10309721269E+04  0.00000000000E+00 0. -1.
         -1   -1    0    0    0  501 -0.00000000000E+00 -0.00000000000E+00 -0.13319253879E+02  0.13319253879E+02  0.00000000000E+00 0.  1.
          5    1    1    2  502    0 -0.33573520995E+01  0.40830008146E+02  0.59458123464E+03  0.59600947640E+03  0.47000000000E+01 0. -1.
         -5    1    1    2    0  502  0.27330407203E+02 -0.12813872194E+02  0.33041600475E+02  0.44999820449E+02  0.47000000000E+01 0. -1.
        -11    1    1    2    0    0  0.13666822735E+02 -0.52603419272E+02  0.16235596216E+03  0.17121144883E+03  0.00000000000E+00 0. -1.
         11    1    1    2    0    0 -0.37639877839E+02  0.24587283320E+02  0.22767407577E+03  0.23207063511E+03  0.00000000000E+00 0.  1.
<mgrwt>
<rscale>  0 0.12273444E+03</rscale>
<asrwt>0</asrwt>
<pdfrwt beam="1">  1        1 0.15861103E+00 0.13031690E+03</pdfrwt>
<pdfrwt beam="2">  1       -1 0.20491168E-02 0.13031690E+03</pdfrwt>
<totfact> 0.96646889E+03</totfact>
</mgrwt>
</event>
<event>
 6    1  0.9240440E-006  0.1274722E+03  0.7546771E-02  0.1246737E+00
          2   -1    0    0  501    0  0.00000000000E+00  0.00000000000E+00  0.98759651283E+02  0.98759651283E+02  0.00000000000E+00 0. -1.
         -2   -1    0    0    0  501 -0.00000000000E+00 -0.00000000000E+00 -0.13381273702E+03  0.13381273702E+03  0.00000000000E+00 0.  1.
          5    1    1    2  502    0 -0.63488433223E+02 -0.13570278893E+02 -0.17339704521E+02  0.67362370618E+02  0.47000000000E+01 0. -1.
         -5    1    1    2    0  502  0.43929615621E+02  0.29053997466E+02  0.29852771231E+02  0.60722515162E+02  0.47000000000E+01 0. -1.
        -11    1    1    2    0    0  0.52502193472E+02  0.64607686021E+00 -0.13011250143E+02  0.54094272940E+02  0.00000000000E+00 0. -1.
         11    1    1    2    0    0 -0.32943375870E+02 -0.16129795434E+02 -0.34554902302E+02  0.50393229581E+02  0.00000000000E+00 0.  1.
<mgrwt>
<rscale>  0 0.11782043E+03</rscale>
<asrwt>0</asrwt>
<pdfrwt beam="1">  1        2 0.15193793E-01 0.12747220E+03</pdfrwt>
<pdfrwt beam="2">  1       -2 0.20586575E-01 0.12747220E+03</pdfrwt>
<totfact> 0.72216627E+03</totfact>
</mgrwt>
</event>
<event>
 6    1  0.9240440E-006  0.1375304E+03  0.7546771E-02  0.1229074E+00
          2   -1    0    0  501    0  0.00000000000E+00  0.00000000000E+00  0.80599325685E+03  0.80599325685E+03  0.00000000000E+00 0. -1.
         -2   -1    0    0    0  501 -0.00000000000E+00 -0.00000000000E+00 -0.20303662453E+02  0.20303662453E+02  0.00000000000E+00 0.  1.
          5    1    1    2  502    0  0.77200227161E+01  0.19730373534E+02  0.49838109221E+03  0.49885337471E+03  0.47000000000E+01 0. -1.
         -5    1    1    2    0  502  0.26547185330E+02  0.40306829515E+02  0.65141538688E+02  0.81209011920E+02  0.47000000000E+01 0.  1.
        -11    1    1    2    0    0  0.14036675376E+02 -0.42483091780E+02  0.15693665527E+03  0.16318993569E+03  0.00000000000E+00 0. -1.
         11    1    1    2    0    0 -0.48303883422E+02 -0.17554111269E+02  0.65230308231E+02  0.83044596983E+02  0.00000000000E+00 0.  1.
<mgrwt>
<rscale>  0 0.12891558E+03</rscale>
<asrwt>0</asrwt>
<pdfrwt beam="1">  1        2 0.12399894E+00 0.13753042E+03</pdfrwt>
<pdfrwt beam="2">  1       -2 0.31236410E-02 0.13753042E+03</pdfrwt>
<totfact> 0.13394828E+04</totfact>
</mgrwt>
</event>
<event>
 6    1  0.9240440E-006  0.1419065E+03  0.7546771E-02  0.1221712E+00
          1   -1    0    0  501    0  0.00000000000E+00  0.00000000000E+00  0.39726317231E+02  0.39726317231E+02  0.00000000000E+00 0. -1.
         -1   -1    0    0    0  501 -0.00000000000E+00 -0.00000000000E+00 -0.40861056352E+03  0.40861056352E+03  0.00000000000E+00 0.  1.
          5    1    1    2  502    0 -0.40544685065E+02 -0.71459810017E+01 -0.21650282834E+03  0.22043253210E+03  0.47000000000E+01 0.  1.
         -5    1    1    2    0  502 -0.22773909095E+02  0.29582580905E+02  0.94780448197E+00  0.37639983552E+02  0.47000000000E+01 0.  1.
        -11    1    1    2    0    0  0.56105197542E+02  0.21486803420E+02 -0.51497953664E+02  0.79129736156E+02  0.00000000000E+00 0. -1.
         11    1    1    2    0    0  0.72133966178E+01 -0.43923403323E+02 -0.10183126877E+03  0.11113462894E+03  0.00000000000E+00 0.  1.
<mgrwt>
<rscale>  0 0.13394834E+03</rscale>
<asrwt>0</asrwt>
<pdfrwt beam="1">  1        1 0.61117411E-02 0.14190650E+03</pdfrwt>
<pdfrwt beam="2">  1       -1 0.62863163E-01 0.14190650E+03</pdfrwt>
<totfact> 0.32258093E+03</totfact>
</mgrwt>
</event>
<event>
 6    1  0.9240440E-006  0.1345959E+03  0.7546771E-02  0.1233482E+00
          1   -1    0    0  501    0  0.00000000000E+00  0.00000000000E+00  0.61063527980E+02  0.61063527980E+02  0.00000000000E+00 0. -1.
         -1   -1    0    0    0  501 -0.00000000000E+00 -0.00000000000E+00 -0.23588026737E+03  0.23588026737E+03  0.00000000000E+00 0.  1.
          5    1    1    2  502    0 -0.20398030764E+02 -0.47599604851E+02 -0.26087663104E+02  0.58176096528E+02  0.47000000000E+01 0.  1.
         -5    1    1    2    0  502  0.70088564830E+02  0.42937181572E+02 -0.53620716503E+02  0.98251105437E+02  0.47000000000E+01 0.  1.
        -11    1    1    2    0    0 -0.46364157665E+02  0.25045099134E+02 -0.10510256575E+03  0.11757313228E+03  0.00000000000E+00 0.  1.
         11    1    1    2    0    0 -0.33263764006E+01 -0.20382675855E+02  0.99942059610E+01  0.22943461111E+02  0.00000000000E+00 0. -1.
<mgrwt>
<rscale>  0 0.12602109E+03</rscale>
<asrwt>0</asrwt>
<pdfrwt beam="1">  1        1 0.93943889E-02 0.13459585E+03</pdfrwt>
<pdfrwt beam="2">  1       -1 0.36289272E-01 0.13459585E+03</pdfrwt>
<totfact> 0.48884518E+03</totfact>
</mgrwt>
</event>
<event>
 6    1  0.9240440E-006  0.1501747E+03  0.7546771E-02  0.1208927E+00
          1   -1    0    0  501    0  0.00000000000E+00  0.00000000000E+00  0.33010964792E+03  0.33010964792E+03  0.00000000000E+00 0. -1.
         -1   -1    0    0    0  501 -0.00000000000E+00 -0.00000000000E+00 -0.57362954946E+02  0.57362954946E+02  0.00000000000E+00 0.  1.
          5    1    1    2  502    0  0.49484041267E+02 -0.48694314240E+02  0.33607274514E+02  0.77274481426E+02  0.47000000000E+01 0. -1.
         -5    1    1    2    0  502 -0.63360038149E+02 -0.33400571845E+02  0.10431750135E+03  0.12662671015E+03  0.47000000000E+01 0. -1.
        -11    1    1    2    0    0  0.72943435512E+01  0.98541354783E+02  0.13310683809E+03  0.16577405224E+03  0.00000000000E+00 0. -1.
         11    1    1    2    0    0  0.65816533306E+01 -0.16446468698E+02  0.17150790162E+01  0.17797359052E+02  0.00000000000E+00 0.  1.
<mgrwt>
<rscale>  0 0.14332252E+03</rscale>
<asrwt>0</asrwt>
<pdfrwt beam="1">  1        1 0.50786099E-01 0.15017474E+03</pdfrwt>
<pdfrwt beam="2">  1       -1 0.88250702E-02 0.15017474E+03</pdfrwt>
<totfact> 0.55305196E+03</totfact>
</mgrwt>
</event>
<event>
 6    1  0.9240440E-006  0.1674526E+03  0.7546771E-02  0.1187861E+00
         -1   -1    0    0    0  501 -0.00000000000E+00  0.00000000000E+00  0.28763333888E+02  0.28763333888E+02  0.00000000000E+00 0.  1.
          1   -1    0    0  501    0  0.00000000000E+00 -0.00000000000E+00 -0.10453608622E+04  0.10453608622E+04  0.00000000000E+00 0. -1.
          5    1    1    2  502    0 -0.26086742685E+02 -0.15415909089E+02 -0.44694908306E+03  0.44799971122E+03  0.47000000000E+01 0.  1.
         -5    1    1    2    0  502 -0.55206994914E+02  0.91621811088E+02 -0.33567126927E+03  0.35233458469E+03  0.47000000000E+01 0.  1.
        -11    1    1    2    0    0  0.20020228151E+02  0.15716356369E+02 -0.17919684877E+02  0.31127616337E+02  0.00000000000E+00 0.  1.
         11    1    1    2    0    0  0.61273509448E+02 -0.91922258368E+02 -0.21605749115E+03  0.24266228390E+03  0.00000000000E+00 0. -1.
<mgrwt>
<rscale>  0 0.16074212E+03</rscale>
<asrwt>0</asrwt>
<pdfrwt beam="2">  1        1 0.16082472E+00 0.16745259E+03</pdfrwt>
<pdfrwt beam="1">  1       -1 0.44251291E-02 0.16745259E+03</pdfrwt>
<totfact> 0.30967774E+03</totfact>
</mgrwt>
</event>
<event>
 6    1  0.9240440E-006  0.1517217E+03  0.7546771E-02  0.1205600E+00
         -1   -1    0    0    0  501 -0.00000000000E+00  0.00000000000E+00  0.33546508137E+02  0.33546508137E+02  0.00000000000E+00 0.  1.
          1   -1    0    0  501    0  0.00000000000E+00 -0.00000000000E+00 -0.59091960394E+03  0.59091960394E+03  0.00000000000E+00 0. -1.
          5    1    1    2  502    0  0.52532202011E+02 -0.82618820777E+02 -0.30235470231E+03  0.31784580822E+03  0.47000000000E+01 0. -1.
         -5    1    1    2    0  502 -0.21693265430E+02 -0.13205629130E+02 -0.70756096819E+01  0.26779482036E+02  0.47000000000E+01 0.  1.
        -11    1    1    2    0    0 -0.12878885315E+02  0.10441990343E+03 -0.17465455489E+03  0.20389604082E+03  0.00000000000E+00 0. -1.
         11    1    1    2    0    0 -0.17960051266E+02 -0.85954535198E+01 -0.73288228913E+02  0.75944780992E+02  0.00000000000E+00 0.  1.
<mgrwt>
<rscale>  0 0.14590267E+03</rscale>
<asrwt>0</asrwt>
<pdfrwt beam="2">  1        1 0.90910705E-01 0.15172169E+03</pdfrwt>
<pdfrwt beam="1">  1       -1 0.51610014E-02 0.15172169E+03</pdfrwt>
<totfact> 0.58459651E+03</totfact>
</mgrwt>
</event>
<event>
 6    1  0.9240440E-006  0.1286194E+03  0.7546771E-02  0.1243009E+00
          2   -1    0    0  501    0  0.00000000000E+00  0.00000000000E+00  0.25113886836E+03  0.25113886836E+03  0.00000000000E+00 0. -1.
         -2   -1    0    0    0  501 -0.00000000000E+00 -0.00000000000E+00 -0.52009745649E+02  0.52009745649E+02  0.00000000000E+00 0.  1.
          5    1    1    2  502    0 -0.19104607720E+02 -0.43156595247E+02  0.11596053533E+03  0.12528532836E+03  0.47000000000E+01 0.  1.
         -5    1    1    2    0  502 -0.77845175624E+01  0.57112059898E+02  0.18338390148E+02  0.60669371620E+02  0.47000000000E+01 0.  1.
        -11    1    1    2    0    0  0.13254552588E+02 -0.53009392482E+02  0.47288601110E+02  0.72262650454E+02  0.00000000000E+00 0. -1.
         11    1    1    2    0    0  0.13634572694E+02  0.39053927831E+02  0.17541596121E+02  0.44931263570E+02  0.00000000000E+00 0.  1.
<mgrwt>
<rscale>  0 0.12005349E+03</rscale>
<asrwt>0</asrwt>
<pdfrwt beam="1">  1        2 0.38636748E-01 0.12861940E+03</pdfrwt>
<pdfrwt beam="2">  1       -2 0.80014995E-02 0.12861940E+03</pdfrwt>
<totfact> 0.11762600E+04</totfact>
</mgrwt>
</event>
<event>
 6    1  0.9240440E-006  0.1429295E+03  0.7546771E-02  0.1219600E+00
          1   -1    0    0  501    0  0.00000000000E+00  0.00000000000E+00  0.20376955322E+04  0.20376955322E+04  0.00000000000E+00 0. -1.
         -1   -1    0    0    0  501 -0.00000000000E+00 -0.00000000000E+00 -0.15492592413E+02  0.15492592413E+02  0.00000000000E+00 0.  1.
          5    1    1    2  502    0 -0.94783586824E+02 -0.30564472498E+02  0.12203772880E+04  0.12244431103E+04  0.47000000000E+01 0. -1.
         -5    1    1    2    0  502  0.40917603655E+02 -0.13044946465E+02  0.55122690643E+03  0.55291736570E+03  0.47000000000E+01 0. -1.
        -11    1    1    2    0    0  0.39530172745E+02  0.47305978867E+02  0.25337322717E+03  0.26076518640E+03  0.00000000000E+00 0. -1.
         11    1    1    2    0    0  0.14335810423E+02 -0.36965599033E+01 -0.27744818902E+01  0.15062462129E+02  0.00000000000E+00 0.  1.
<mgrwt>
<rscale>  0 0.13543967E+03</rscale>
<asrwt>0</asrwt>
<pdfrwt beam="1">  1        1 0.31349141E+00 0.14292949E+03</pdfrwt>
<pdfrwt beam="2">  1       -1 0.23834774E-02 0.14292949E+03</pdfrwt>
<totfact> 0.16992657E+03</totfact>
</mgrwt>
</event>
<event>
 6    1  0.9240440E-006  0.3238758E+03  0.7546771E-02  0.1075145E+00
          1   -1    0    0  501    0  0.00000000000E+00  0.00000000000E+00  0.32262717769E+03  0.32262717769E+03  0.00000000000E+00 0. -1.
         -1   -1    0    0    0  501 -0.00000000000E+00 -0.00000000000E+00 -0.36360673644E+03  0.36360673644E+03  0.00000000000E+00 0.  1.
          5    1    1    2  502    0 -0.14426639391E+02 -0.60625540754E+02 -0.61308375430E+01  0.62795392226E+02  0.47000000000E+01 0. -1.
         -5    1    1    2    0  502 -0.23428297306E+03 -0.10494846279E+03 -0.14110662989E+03  0.29297757987E+03  0.47000000000E+01 0. -1.
        -11    1    1    2    0    0  0.11848983138E+03  0.51036679923E+02  0.38790011008E+01  0.12907218712E+03  0.00000000000E+00 0.  1.
         11    1    1    2    0    0  0.13021978107E+03  0.11453732362E+03  0.10237890758E+03  0.20138875490E+03  0.00000000000E+00 0. -1.
<mgrwt>
<rscale>  0 0.32109926E+03</rscale>
<asrwt>0</asrwt>
<pdfrwt beam="1">  1        1 0.49634950E-01 0.32387580E+03</pdfrwt>
<pdfrwt beam="2">  1       -1 0.55939498E-01 0.32387580E+03</pdfrwt>
<totfact> 0.26647164E+02</totfact>
</mgrwt>
</event>
<event>
 6    1  0.9240440E-006  0.1351234E+03  0.7546771E-02  0.1233199E+00
         -2   -1    0    0    0  501 -0.00000000000E+00  0.00000000000E+00  0.51339420679E+02  0.51339420679E+02  0.00000000000E+00 0.  1.
          2   -1    0    0  501    0  0.00000000000E+00 -0.00000000000E+00 -0.28899564936E+03  0.28899564936E+03  0.00000000000E+00 0. -1.
          5    1    1    2  502    0 -0.78071943979E+01 -0.33085315861E+02 -0.11960857423E+03  0.12443428563E+03  0.47000000000E+01 0.  1.
         -5    1    1    2    0  502  0.53428212118E+02  0.56556186004E+02 -0.50765089614E+02  0.93018064638E+02  0.47000000000E+01 0.  1.
        -11    1    1    2    0    0 -0.19630480281E+02 -0.53446927178E+02 -0.18211918422E+02  0.59779626575E+02  0.00000000000E+00 0. -1.
         11    1    1    2    0    0 -0.25990537439E+02  0.29976057036E+02 -0.49070646413E+02  0.63103093198E+02  0.00000000000E+00 0.  1.
<mgrwt>
<rscale>  0 0.12620422E+03</rscale>
<asrwt>0</asrwt>
<pdfrwt beam="2">  1        2 0.44460869E-01 0.13512342E+03</pdfrwt>
<pdfrwt beam="1">  1       -2 0.78983725E-02 0.13512342E+03</pdfrwt>
<totfact> 0.10380562E+04</totfact>
</mgrwt>
</event>
<event>
 6    1  0.9240440E-006  0.3117524E+03  0.7546771E-02  0.1079509E+00
         -2   -1    0    0    0  501 -0.00000000000E+00  0.00000000000E+00  0.95674739952E+02  0.95674739952E+02  0.00000000000E+00 0. -1.
          2   -1    0    0  501    0  0.00000000000E+00 -0.00000000000E+00 -0.25395823481E+03  0.25395823481E+03  0.00000000000E+00 0.  1.
          5    1    1    2  502    0  0.26317339508E+01  0.29888201970E+02 -0.11576757120E+02  0.32501414523E+02  0.47000000000E+01 0. -1.
         -5    1    1    2    0  502 -0.55282267012E+02 -0.11070174731E+03 -0.13051298651E+03  0.17990757502E+03  0.47000000000E+01 0. -1.
        -11    1    1    2    0    0  0.33563877187E+02  0.20472829947E+02  0.37422554512E+02  0.54278155864E+02  0.00000000000E+00 0. -1.
         11    1    1    2    0    0  0.19086655875E+02  0.60340715388E+02 -0.53616305748E+02  0.82945829359E+02  0.00000000000E+00 0.  1.
<mgrwt>
<rscale>  0 0.31175239E+03</rscale>
<asrwt>0</asrwt>
<pdfrwt beam="2">  1        2 0.39070498E-01 0.31175239E+03</pdfrwt>
<pdfrwt beam="1">  1       -2 0.14719191E-01 0.31175239E+03</pdfrwt>
<totfact> 0.46275339E+03</totfact>
</mgrwt>
</event>
<event>
 6    1  0.9240440E-006  0.1317684E+03  0.7546771E-02  0.1238639E+00
          1   -1    0    0  501    0  0.00000000000E+00  0.00000000000E+00  0.88981713703E+02  0.88981713703E+02  0.00000000000E+00 0. -1.
         -1   -1    0    0    0  501 -0.00000000000E+00 -0.00000000000E+00 -0.16853013699E+03  0.16853013699E+03  0.00000000000E+00 0.  1.
          5    1    1    2  502    0  0.81618445340E+01  0.29163964318E+02 -0.48103424274E+02  0.57036671956E+02  0.47000000000E+01 0. -1.
         -5    1    1    2    0  502  0.26212205221E+02 -0.52753837205E+02  0.45779489883E+02  0.74752249039E+02  0.47000000000E+01 0. -1.
        -11    1    1    2    0    0  0.30412459908E+02  0.84526175755E+01 -0.16367584335E+02  0.35556466057E+02  0.00000000000E+00 0. -1.
         11    1    1    2    0    0 -0.64786509663E+02  0.15137255312E+02 -0.60856904565E+02  0.90166463643E+02  0.00000000000E+00 0.  1.
<mgrwt>
<rscale>  0 0.12274320E+03</rscale>
<asrwt>0</asrwt>
<pdfrwt beam="1">  1        1 0.13689494E-01 0.13176843E+03</pdfrwt>
<pdfrwt beam="2">  1       -1 0.25927714E-01 0.13176843E+03</pdfrwt>
<totfact> 0.52414613E+03</totfact>
</mgrwt>
</event>
<event>
 6    1  0.9240440E-006  0.4590121E+03  0.7546771E-02  0.1025068E+00
         -1   -1    0    0    0  501 -0.00000000000E+00  0.00000000000E+00  0.20186801067E+03  0.20186801067E+03  0.00000000000E+00 0.  1.
          1   -1    0    0  501    0  0.00000000000E+00 -0.00000000000E+00 -0.26092801877E+03  0.26092801877E+03  0.00000000000E+00 0. -1.
          5    1    1    2  502    0  0.18611240236E+03  0.12875071348E+01 -0.94238205898E+02  0.20866818980E+03  0.47000000000E+01 0.  1.
         -5    1    1    2    0  502 -0.12685938561E+02 -0.16036562450E+02 -0.37218016485E+02  0.42724408989E+02  0.47000000000E+01 0.  1.
        -11    1    1    2    0    0 -0.26413619326E+02 -0.34137087784E+02  0.95033104093E+01  0.44196526526E+02  0.00000000000E+00 0. -1.
         11    1    1    2    0    0 -0.14701284447E+03  0.48886143099E+02  0.62892903880E+02  0.16720690412E+03  0.00000000000E+00 0.  1.
<mgrwt>
<rscale>  0 0.45901207E+03</rscale>
<asrwt>0</asrwt>
<pdfrwt beam="2">  1        1 0.40142772E-01 0.45901207E+03</pdfrwt>
<pdfrwt beam="1">  1       -1 0.31056617E-01 0.45901207E+03</pdfrwt>
<totfact> 0.10110284E+03</totfact>
</mgrwt>
</event>
<event>
 6    1  0.9240440E-006  0.1396102E+03  0.7546771E-02  0.1223786E+00
         -2   -1    0    0    0  501 -0.00000000000E+00  0.00000000000E+00  0.13872782615E+03  0.13872782615E+03  0.00000000000E+00 0.  1.
          2   -1    0    0  501    0  0.00000000000E+00 -0.00000000000E+00 -0.13155810845E+03  0.13155810845E+03  0.00000000000E+00 0. -1.
          5    1    1    2  502    0  0.24899017958E+02 -0.66676674714E+02 -0.23021843075E+02  0.74952220146E+02  0.47000000000E+01 0. -1.
         -5    1    1    2    0  502 -0.65277892077E+02  0.19436970873E+02 -0.20415015572E+02  0.71259117953E+02  0.47000000000E+01 0. -1.
        -11    1    1    2    0    0  0.57912167712E+02  0.53856359603E+02  0.10464607427E+02  0.79773646321E+02  0.00000000000E+00 0. -1.
         11    1    1    2    0    0 -0.17533293594E+02 -0.66166557614E+01  0.40141968919E+02  0.44300950175E+02  0.00000000000E+00 0.  1.
<mgrwt>
<rscale>  0 0.13250455E+03</rscale>
<asrwt>0</asrwt>
<pdfrwt beam="2">  1        2 0.20239709E-01 0.13961015E+03</pdfrwt>
<pdfrwt beam="1">  1       -2 0.21342742E-01 0.13961015E+03</pdfrwt>
<totfact> 0.49171504E+03</totfact>
</mgrwt>
</event>
<event>
 6    1  0.1133434E-005  0.1986727E+03  0.7546771E-02  0.1154953E+00
         -1   -1    0    0    0  501 -0.00000000000E+00  0.00000000000E+00  0.38838477501E+02  0.38838477501E+02  0.00000000000E+00 0.  1.
          1   -1    0    0  501    0  0.00000000000E+00 -0.00000000000E+00 -0.11056971511E+04  0.11056971511E+04  0.00000000000E+00 0. -1.
          5    1    1    2  502    0 -0.79789056432E+02  0.11034426205E+03 -0.53109207815E+03  0.54829101321E+03  0.47000000000E+01 0.  1.
         -5    1    1    2    0  502 -0.53312016861E+02 -0.32040936843E+02 -0.25492690386E+03  0.26244734536E+03  0.47000000000E+01 0.  1.
        -11    1    1    2    0    0  0.83032889926E+02 -0.31218665141E+02 -0.23499472913E+03  0.25118039052E+03  0.00000000000E+00 0. -1.
         11    1    1    2    0    0  0.50068183368E+02 -0.47084660065E+02 -0.45844962488E+02  0.82616879539E+02  0.00000000000E+00 0.  1.
<mgrwt>
<rscale>  0 0.19394206E+03</rscale>
<asrwt>0</asrwt>
<pdfrwt beam="2">  1        1 0.17010723E+00 0.19867271E+03</pdfrwt>
<pdfrwt beam="1">  1       -1 0.59751511E-02 0.19867271E+03</pdfrwt>
<totfact> 0.17947549E+03</totfact>
</mgrwt>
</event>
<event>
 6    1  0.9240440E-006  0.1973304E+03  0.7546771E-02  0.1173639E+00
         -2   -1    0    0    0  501 -0.00000000000E+00  0.00000000000E+00  0.21292861740E+02  0.21292861740E+02  0.00000000000E+00 0.  1.
          2   -1    0    0  501    0  0.00000000000E+00 -0.00000000000E+00 -0.11797632299E+04  0.11797632299E+04  0.00000000000E+00 0. -1.
          5    1    1    2  502    0  0.89808726805E+02  0.10187698348E+02 -0.41316840429E+03  0.42296526679E+03  0.47000000000E+01 0. -1.
         -5    1    1    2    0  502 -0.61853911289E+02 -0.82868898522E+02 -0.32227370628E+03  0.33849016595E+03  0.47000000000E+01 0.  1.
        -11    1    1    2    0    0  0.39651222500E+01  0.69926603275E+02 -0.37742162106E+03  0.38386525251E+03  0.00000000000E+00 0.  1.
         11    1    1    2    0    0 -0.31919937766E+02  0.27545968994E+01 -0.45606636571E+02  0.55735406434E+02  0.00000000000E+00 0. -1.
<mgrwt>
<rscale>  0 0.17409915E+03</rscale>
<asrwt>0</asrwt>
<pdfrwt beam="2">  1        2 0.18150208E+00 0.19733038E+03</pdfrwt>
<pdfrwt beam="1">  1       -2 0.32758241E-02 0.19733038E+03</pdfrwt>
<totfact> 0.75267024E+03</totfact>
</mgrwt>
</event>
<event>
 6    1  0.9240440E-006  0.1397933E+03  0.7546771E-02  0.1224932E+00
         -1   -1    0    0    0  501 -0.00000000000E+00  0.00000000000E+00  0.34239915678E+02  0.34239915678E+02  0.00000000000E+00 0.  1.
          1   -1    0    0  501    0  0.00000000000E+00 -0.00000000000E+00 -0.45637969791E+03  0.45637969791E+03  0.00000000000E+00 0. -1.
          5    1    1    2  502    0 -0.42395377548E+02  0.34653783422E+02 -0.10304292432E+03  0.11678264852E+03  0.47000000000E+01 0. -1.
         -5    1    1    2    0  502  0.37222102880E+01 -0.84098520150E+02 -0.12863017352E+03  0.15379930911E+03  0.47000000000E+01 0. -1.
        -11    1    1    2    0    0  0.55812883404E+02 -0.20771383554E+01 -0.94111058723E+02  0.10943620896E+03  0.00000000000E+00 0. -1.
         11    1    1    2    0    0 -0.17139716144E+02  0.51521875084E+02 -0.96355625664E+02  0.11060144700E+03  0.00000000000E+00 0.  1.
<mgrwt>
<rscale>  0 0.13171576E+03</rscale>
<asrwt>0</asrwt>
<pdfrwt beam="2">  1        1 0.70212263E-01 0.13979332E+03</pdfrwt>
<pdfrwt beam="1">  1       -1 0.52676792E-02 0.13979332E+03</pdfrwt>
<totfact> 0.79366125E+03</totfact>
</mgrwt>
</event>
<event>
 6    1  0.9240440E-006  0.1372110E+03  0.7546771E-02  0.1228780E+00
         -2   -1    0    0    0  501 -0.00000000000E+00  0.00000000000E+00  0.13224207013E+02  0.13224207013E+02  0.00000000000E+00 0.  1.
          2   -1    0    0  501    0  0.00000000000E+00 -0.00000000000E+00 -0.13572744504E+04  0.13572744504E+04  0.00000000000E+00 0. -1.
          5    1    1    2  502    0 -0.69541115166E+02  0.60884051368E+01 -0.48550349264E+03  0.49051887501E+03  0.47000000000E+01 0. -1.
         -5    1    1    2    0  502  0.39338497210E+02 -0.53958797005E+02 -0.53144259487E+03  0.53564203604E+03  0.47000000000E+01 0. -1.
        -11    1    1    2    0    0 -0.19655695906E+02  0.50914887896E+02 -0.21100274362E+03  0.21794685134E+03  0.00000000000E+00 0. -1.
         11    1    1    2    0    0  0.49858313862E+02 -0.30444960277E+01 -0.11610141227E+03  0.12639089504E+03  0.00000000000E+00 0.  1.
<mgrwt>
<rscale>  0 0.12911147E+03</rscale>
<asrwt>0</asrwt>
<pdfrwt beam="2">  1        2 0.20881130E+00 0.13721104E+03</pdfrwt>
<pdfrwt beam="1">  1       -2 0.20344949E-02 0.13721104E+03</pdfrwt>
<totfact> 0.11927744E+04</totfact>
</mgrwt>
</event>
<event>
 6    1  0.9240440E-006  0.3310868E+03  0.7546771E-02  0.1070657E+00
         -1   -1    0    0    0  501 -0.00000000000E+00  0.00000000000E+00  0.62786209306E+02  0.62786209306E+02  0.00000000000E+00 0.  1.
          1   -1    0    0  501    0  0.00000000000E+00 -0.00000000000E+00 -0.43647507388E+03  0.43647507388E+03  0.00000000000E+00 0. -1.
          5    1    1    2  502    0 -0.21361326791E+02  0.94337545175E+01 -0.41018529815E+01  0.24170585521E+02  0.47000000000E+01 0.  1.
         -5    1    1    2    0  502  0.27586157471E+02 -0.12719466413E+03 -0.26225960773E+03  0.29281678660E+03  0.47000000000E+01 0.  1.
        -11    1    1    2    0    0  0.36769641828E+02  0.25787071776E+02 -0.23945602151E+02  0.50895692286E+02  0.00000000000E+00 0.  1.
         11    1    1    2    0    0 -0.42994472508E+02  0.91973837840E+02 -0.83381801715E+02  0.13137821878E+03  0.00000000000E+00 0. -1.
<mgrwt>
<rscale>  0 0.33108679E+03</rscale>
<asrwt>0</asrwt>
<pdfrwt beam="2">  1        1 0.67150009E-01 0.33108679E+03</pdfrwt>
<pdfrwt beam="1">  1       -1 0.96594172E-02 0.33108679E+03</pdfrwt>
<totfact> 0.34842356E+03</totfact>
</mgrwt>
</event>
<event>
 6    1  0.9240440E-006  0.1259038E+03  0.7546771E-02  0.1249680E+00
          1   -1    0    0  501    0  0.00000000000E+00  0.00000000000E+00  0.10611170446E+04  0.10611170446E+04  0.00000000000E+00 0. -1.
         -1   -1    0    0    0  501 -0.00000000000E+00 -0.00000000000E+00 -0.13457549995E+02  0.13457549995E+02  0.00000000000E+00 0.  1.
          5    1    1    2  502    0 -0.80050361632E+01 -0.53854745586E+02  0.42920349221E+03  0.43266862835E+03  0.47000000000E+01 0.  1.
         -5    1    1    2    0  502  0.74816437532E+01  0.68923659563E+02  0.38712009320E+03  0.39330713495E+03  0.47000000000E+01 0.  1.
        -11    1    1    2    0    0 -0.38447690658E+02  0.15477287272E+02  0.10993614026E+03  0.11748926025E+03  0.00000000000E+00 0.  1.
         11    1    1    2    0    0  0.38971083068E+02 -0.30546201249E+02  0.12139976896E+03  0.13110957108E+03  0.00000000000E+00 0. -1.
<mgrwt>
<rscale>  0 0.11609571E+03</rscale>
<asrwt>0</asrwt>
<pdfrwt beam="1">  1        1 0.16324871E+00 0.12590379E+03</pdfrwt>
<pdfrwt beam="2">  1       -1 0.20703931E-02 0.12590379E+03</pdfrwt>
<totfact> 0.90420933E+03</totfact>
</mgrwt>
</event>
<event>
 6    1  0.9240440E-006  0.1283045E+03  0.7546771E-02  0.1244027E+00
          1   -1    0    0  501    0  0.00000000000E+00  0.00000000000E+00  0.15983997319E+03  0.15983997319E+03  0.00000000000E+00 0. -1.
         -1   -1    0    0    0  501 -0.00000000000E+00 -0.00000000000E+00 -0.11430462058E+03  0.11430462058E+03  0.00000000000E+00 0.  1.
          5    1    1    2  502    0  0.28037376849E+01  0.48205529295E+02  0.78934469771E+02  0.92651899698E+02  0.47000000000E+01 0. -1.
         -5    1    1    2    0  502  0.21963155082E+02 -0.63133667537E+02  0.21782548559E+02  0.70461404894E+02  0.47000000000E+01 0. -1.
        -11    1    1    2    0    0  0.33353125974E+02  0.90766802522E+00 -0.33910494704E+02  0.47572854913E+02  0.00000000000E+00 0.  1.
         11    1    1    2    0    0 -0.58120018741E+02  0.14020470217E+02 -0.21271171010E+02  0.63458434268E+02  0.00000000000E+00 0. -1.
<mgrwt>
<rscale>  0 0.11943784E+03</rscale>
<asrwt>0</asrwt>
<pdfrwt beam="1">  1        1 0.24590765E-01 0.12830445E+03</pdfrwt>
<pdfrwt beam="2">  1       -1 0.17585326E-01 0.12830445E+03</pdfrwt>
<totfact> 0.46366157E+03</totfact>
</mgrwt>
</event>
<event>
 6    1  0.9240440E-006  0.2152426E+03  0.7546771E-02  0.1140697E+00
          1   -1    0    0  501    0  0.00000000000E+00  0.00000000000E+00  0.26919037641E+03  0.26919037641E+03  0.00000000000E+00 0. -1.
         -1   -1    0    0    0  501 -0.00000000000E+00 -0.00000000000E+00 -0.15984953942E+03  0.15984953942E+03  0.00000000000E+00 0.  1.
          5    1    1    2  502    0  0.96742332773E+02 -0.57666011634E+02 -0.19636062612E+02  0.11442077086E+03  0.47000000000E+01 0. -1.
         -5    1    1    2    0  502  0.31776272039E+02 -0.61442482501E+02  0.86730035146E+02  0.11103647652E+03  0.47000000000E+01 0. -1.
        -11    1    1    2    0    0 -0.10803618456E+03  0.48708934364E+02 -0.89625686879E+00  0.11851236534E+03  0.00000000000E+00 0.  1.
         11    1    1    2    0    0 -0.20482420251E+02  0.70399559771E+02  0.43143121331E+02  0.85070303124E+02  0.00000000000E+00 0. -1.
<mgrwt>
<rscale>  0 0.21110171E+03</rscale>
<asrwt>0</asrwt>
<pdfrwt beam="1">  1        1 0.41413904E-01 0.21524258E+03</pdfrwt>
<pdfrwt beam="2">  1       -1 0.24592237E-01 0.21524258E+03</pdfrwt>
<totfact> 0.14322216E+03</totfact>
</mgrwt>
</event>
<event>
 6    1  0.9240440E-006  0.1273045E+03  0.7546771E-02  0.1245966E+00
         -2   -1    0    0    0  501 -0.00000000000E+00  0.00000000000E+00  0.35843902997E+02  0.35843902997E+02  0.00000000000E+00 0.  1.
          2   -1    0    0  501    0  0.00000000000E+00 -0.00000000000E+00 -0.34514173222E+03  0.34514173222E+03  0.00000000000E+00 0. -1.
          5    1    1    2  502    0  0.73431806359E+02 -0.29832671772E+01 -0.75378464190E+02  0.10538089453E+03  0.47000000000E+01 0. -1.
         -5    1    1    2    0  502 -0.50078391639E+02 -0.29165339470E+01 -0.92207311684E+02  0.10507440129E+03  0.47000000000E+01 0. -1.
        -11    1    1    2    0    0  0.46069347552E+01  0.10517726907E+02  0.10586290493E+02  0.15617809498E+02  0.00000000000E+00 0.  1.
         11    1    1    2    0    0 -0.27960349475E+02 -0.46179257828E+01 -0.15229834384E+03  0.15491252989E+03  0.00000000000E+00 0. -1.
<mgrwt>
<rscale>  0 0.11827770E+03</rscale>
<asrwt>0</asrwt>
<pdfrwt beam="2">  1        2 0.53098726E-01 0.12730451E+03</pdfrwt>
<pdfrwt beam="1">  1       -2 0.55144468E-02 0.12730451E+03</pdfrwt>
<totfact> 0.14800453E+04</totfact>
</mgrwt>
</event>
<event>
 6    1  0.9240440E-006  0.3705877E+03  0.7546771E-02  0.1054468E+00
          1   -1    0    0  501    0  0.00000000000E+00  0.00000000000E+00  0.46333575740E+03  0.46333575740E+03  0.00000000000E+00 0. -1.
         -1   -1    0    0    0  501 -0.00000000000E+00 -0.00000000000E+00 -0.74101348686E+02  0.74101348686E+02  0.00000000000E+00 0.  1.
          5    1    1    2  502    0  0.67588313660E+00 -0.16777762861E+02  0.33435504054E+03  0.33480939843E+03  0.47000000000E+01 0. -1.
         -5    1    1    2    0  502  0.56470227219E+02 -0.16448944399E+02  0.60121577990E+02  0.84238640029E+02  0.47000000000E+01 0. -1.
        -11    1    1    2    0    0 -0.32807143353E+02  0.65392107838E+02  0.12679223269E+02  0.74250920029E+02  0.00000000000E+00 0. -1.
         11    1    1    2    0    0 -0.24338967003E+02 -0.32165400579E+02 -0.17921433086E+02  0.44138147594E+02  0.00000000000E+00 0.  1.
<mgrwt>
<rscale>  0 0.37058767E+03</rscale>
<asrwt>0</asrwt>
<pdfrwt beam="1">  1        1 0.71282422E-01 0.37058767E+03</pdfrwt>
<pdfrwt beam="2">  1       -1 0.11400208E-01 0.37058767E+03</pdfrwt>
<totfact> 0.24912492E+03</totfact>
</mgrwt>
</event>
<event>
 6    1  0.9240440E-006  0.1347151E+03  0.7546771E-02  0.1233229E+00
         -2   -1    0    0    0  501 -0.00000000000E+00  0.00000000000E+00  0.26405146480E+03  0.26405146480E+03  0.00000000000E+00 0.  1.
          2   -1    0    0  501    0  0.00000000000E+00 -0.00000000000E+00 -0.10733145568E+03  0.10733145568E+03  0.00000000000E+00 0. -1.
          5    1    1    2  502    0 -0.78212970092E+01 -0.45344887527E+02 -0.72914628276E+00  0.46259627820E+02  0.47000000000E+01 0.  1.
         -5    1    1    2    0  502  0.54156165247E+02  0.64792164801E+02 -0.46360749272E+02  0.96448555857E+02  0.47000000000E+01 0.  1.
        -11    1    1    2    0    0 -0.51293443951E+02 -0.35805717815E+02  0.20202542820E+03  0.21148839320E+03  0.00000000000E+00 0.  1.
         11    1    1    2    0    0  0.49585757125E+01  0.16358440541E+02  0.17844764765E+01  0.17186343600E+02  0.00000000000E+00 0. -1.
<mgrwt>
<rscale>  0 0.12618473E+03</rscale>
<asrwt>0</asrwt>
<pdfrwt beam="2">  1        2 0.16512532E-01 0.13471513E+03</pdfrwt>
<pdfrwt beam="1">  1       -2 0.40623302E-01 0.13471513E+03</pdfrwt>
<totfact> 0.19494047E+03</totfact>
</mgrwt>
</event>
<event>
 6    1  0.9240440E-006  0.2783819E+03  0.7546771E-02  0.1096576E+00
         -2   -1    0    0    0  501 -0.00000000000E+00  0.00000000000E+00  0.33859154868E+02  0.33859154868E+02  0.00000000000E+00 0.  1.
          2   -1    0    0  501    0  0.00000000000E+00 -0.00000000000E+00 -0.57219721489E+03  0.57219721489E+03  0.00000000000E+00 0. -1.
          5    1    1    2  502    0  0.25456674399E+02  0.39582025516E+01 -0.11667946917E+03  0.11958218164E+03  0.47000000000E+01 0. -1.
         -5    1    1    2    0  502 -0.10234107643E+03 -0.38808506361E+02 -0.13528095525E+03  0.17407706037E+03  0.47000000000E+01 0. -1.
        -11    1    1    2    0    0  0.78323931929E+02 -0.41677427093E+01 -0.23579532111E+03  0.24849837393E+03  0.00000000000E+00 0. -1.
         11    1    1    2    0    0 -0.14395298935E+01  0.39018046519E+02 -0.50582314485E+02  0.63898753815E+02  0.00000000000E+00 0.  1.
<mgrwt>
<rscale>  0 0.27838185E+03</rscale>
<asrwt>0</asrwt>
<pdfrwt beam="2">  1        2 0.88030335E-01 0.27838185E+03</pdfrwt>
<pdfrwt beam="1">  1       -2 0.52091011E-02 0.27838185E+03</pdfrwt>
<totfact> 0.97655790E+03</totfact>
</mgrwt>
</event>
<event>
 6    1  0.9240440E-006  0.2739387E+03  0.7546771E-02  0.1099046E+00
          2   -1    0    0  501    0  0.00000000000E+00  0.00000000000E+00  0.36861807398E+03  0.36861807398E+03  0.00000000000E+00 0. -1.
         -2   -1    0    0    0  501 -0.00000000000E+00 -0.00000000000E+00 -0.50894420976E+02  0.50894420976E+02  0.00000000000E+00 0.  1.
          5    1    1    2  502    0  0.35216765600E+02 -0.32627917247E+02  0.44174585413E+02  0.65408604630E+02  0.47000000000E+01 0. -1.
         -5    1    1    2    0  502 -0.29579427691E+02  0.61621115337E+02  0.18541754991E+03  0.19767109605E+03  0.47000000000E+01 0. -1.
        -11    1    1    2    0    0  0.41415652927E+02 -0.39409393251E+02  0.13706338464E+01  0.57185970490E+02  0.00000000000E+00 0.  1.
         11    1    1    2    0    0 -0.47052990836E+02  0.10416195160E+02  0.86760883835E+02  0.99246823789E+02  0.00000000000E+00 0. -1.
<mgrwt>
<rscale>  0 0.27393870E+03</rscale>
<asrwt>0</asrwt>
<pdfrwt beam="1">  1        2 0.56710471E-01 0.27393870E+03</pdfrwt>
<pdfrwt beam="2">  1       -2 0.78299111E-02 0.27393870E+03</pdfrwt>
<totfact> 0.84786016E+03</totfact>
</mgrwt>
</event>
<event>
 6    1  0.9240440E-006  0.2852888E+03  0.7546771E-02  0.1092835E+00
         -1   -1    0    0    0  501 -0.00000000000E+00  0.00000000000E+00  0.47204764692E+03  0.47204764692E+03  0.00000000000E+00 0.  1.
          1   -1    0    0  501    0  0.00000000000E+00 -0.00000000000E+00 -0.43104613481E+02  0.43104613481E+02  0.00000000000E+00 0. -1.
          5    1    1    2  502    0 -0.54804563883E+02 -0.14435654429E+02  0.12975812821E+03  0.14167282795E+03  0.47000000000E+01 0.  1.
         -5    1    1    2    0  502  0.88101676899E+00  0.93573570639E+01 -0.26993190057E+02  0.28966508785E+02  0.47000000000E+01 0.  1.
        -11    1    1    2    0    0  0.44433111610E+02 -0.42893315767E+02  0.17090241930E+03  0.18171894472E+03  0.00000000000E+00 0.  1.
         11    1    1    2    0    0  0.94904355036E+01  0.47971613131E+02  0.15527567598E+03  0.16279397895E+03  0.00000000000E+00 0. -1.
<mgrwt>
<rscale>  0 0.28528885E+03</rscale>
<asrwt>0</asrwt>
<pdfrwt beam="2">  1        1 0.66314793E-02 0.28528885E+03</pdfrwt>
<pdfrwt beam="1">  1       -1 0.72622711E-01 0.28528885E+03</pdfrwt>
<totfact> 0.22377360E+03</totfact>
</mgrwt>
</event>
<event>
 6    1  0.9240440E-006  0.2667154E+03  0.7546771E-02  0.1103174E+00
         -3   -1    0    0    0  501 -0.00000000000E+00  0.00000000000E+00  0.25137284303E+03  0.25137284303E+03  0.00000000000E+00 0.  1.
          3   -1    0    0  501    0  0.00000000000E+00 -0.00000000000E+00 -0.70748618972E+02  0.70748618972E+02  0.00000000000E+00 0. -1.
          5    1    1    2  502    0  0.84031626131E+02 -0.22499559696E+02  0.54599809135E+02  0.10281426717E+03  0.47000000000E+01 0. -1.
         -5    1    1    2    0  502 -0.29029373223E+02  0.38039781118E+02  0.10327159669E+02  0.49177938997E+02  0.47000000000E+01 0. -1.
        -11    1    1    2    0    0 -0.35859705112E+01 -0.44836396302E+02  0.98847732254E+02  0.10860034894E+03  0.00000000000E+00 0.  1.
         11    1    1    2    0    0 -0.51416282398E+02  0.29296174880E+02  0.16849523000E+02  0.61528906894E+02  0.00000000000E+00 0. -1.
<mgrwt>
<rscale>  0 0.26671544E+03</rscale>
<asrwt>0</asrwt>
<pdfrwt beam="2">  1        3 0.10884403E-01 0.26671544E+03</pdfrwt>
<pdfrwt beam="1">  1       -3 0.38672745E-01 0.26671544E+03</pdfrwt>
<totfact> 0.10761043E+03</totfact>
</mgrwt>
</event>
<event>
 6    1  0.9240440E-006  0.1380844E+03  0.7546771E-02  0.1230540E+00
         -1   -1    0    0    0  501 -0.00000000000E+00  0.00000000000E+00  0.17896351209E+03  0.17896351209E+03  0.00000000000E+00 0.  1.
          1   -1    0    0  501    0  0.00000000000E+00 -0.00000000000E+00 -0.84319002250E+02  0.84319002250E+02  0.00000000000E+00 0. -1.
          5    1    1    2  502    0  0.21899503305E+02  0.71778333189E+02  0.47900815333E+02  0.89153213459E+02  0.47000000000E+01 0. -1.
         -5    1    1    2    0  502  0.26148820099E+02 -0.38081125768E+02 -0.21931640918E+02  0.51351921149E+02  0.47000000000E+01 0. -1.
        -11    1    1    2    0    0  0.22547720097E+01  0.23330616185E+02  0.28078513020E+02  0.36576010468E+02  0.00000000000E+00 0.  1.
         11    1    1    2    0    0 -0.50303095414E+02 -0.57027823606E+02  0.40596822403E+02  0.86201369262E+02  0.00000000000E+00 0. -1.
<mgrwt>
<rscale>  0 0.12794338E+03</rscale>
<asrwt>0</asrwt>
<pdfrwt beam="2">  1        1 0.12972154E-01 0.13808438E+03</pdfrwt>
<pdfrwt beam="1">  1       -1 0.27532848E-01 0.13808438E+03</pdfrwt>
<totfact> 0.51056868E+03</totfact>
</mgrwt>
</event>
<event>
 6    1  0.9240440E-006  0.1303211E+03  0.7546771E-02  0.1240012E+00
          3   -1    0    0  501    0  0.00000000000E+00  0.00000000000E+00  0.75919158161E+03  0.75919158161E+03  0.00000000000E+00 0. -1.
         -3   -1    0    0    0  501 -0.00000000000E+00 -0.00000000000E+00 -0.34721048252E+02  0.34721048252E+02  0.00000000000E+00 0.  1.
          5    1    1    2  502    0  0.21965578162E+02 -0.46161471166E+02  0.26136969149E+03  0.26636361177E+03  0.47000000000E+01 0.  1.
         -5    1    1    2    0  502 -0.58144436347E+02  0.53250481584E+02  0.40394718061E+03  0.41159665206E+03  0.47000000000E+01 0.  1.
        -11    1    1    2    0    0 -0.21847086687E+02  0.22860295726E+02  0.70107004959E+01  0.32388859795E+02  0.00000000000E+00 0. -1.
         11    1    1    2    0    0  0.58025944872E+02 -0.29949306144E+02  0.52142960754E+02  0.83563506227E+02  0.00000000000E+00 0.  1.
<mgrwt>
<rscale>  0 0.12188939E+03</rscale>
<asrwt>0</asrwt>
<pdfrwt beam="1">  1        3 0.11679869E+00 0.13032106E+03</pdfrwt>
<pdfrwt beam="2">  1       -3 0.53417003E-02 0.13032106E+03</pdfrwt>
<totfact> 0.30065076E+02</totfact>
</mgrwt>
</event>
<event>
 6    1  0.9240440E-006  0.4892025E+03  0.7546771E-02  0.1016636E+00
         -3   -1    0    0    0  501 -0.00000000000E+00  0.00000000000E+00  0.11056832937E+03  0.11056832937E+03  0.00000000000E+00 0.  1.
          3   -1    0    0  501    0  0.00000000000E+00 -0.00000000000E+00 -0.54111120221E+03  0.54111120221E+03  0.00000000000E+00 0. -1.
          5    1    1    2  502    0 -0.74792058407E+02  0.11870633452E+03 -0.45349554105E+03  0.47472659669E+03  0.47000000000E+01 0.  1.
         -5    1    1    2    0  502  0.97759374993E+01 -0.14396705019E+02 -0.95647583930E+01  0.20406094004E+02  0.47000000000E+01 0.  1.
        -11    1    1    2    0    0  0.26908242182E+02  0.12085708660E+02 -0.11783619609E+01  0.29521287032E+02  0.00000000000E+00 0. -1.
         11    1    1    2    0    0  0.38107878726E+02 -0.11639533816E+03  0.33695788562E+02  0.12702555386E+03  0.00000000000E+00 0.  1.
<mgrwt>
<rscale>  0 0.48920246E+03</rscale>
<asrwt>0</asrwt>
<pdfrwt beam="2">  1        3 0.83247879E-01 0.48920246E+03</pdfrwt>
<pdfrwt beam="1">  1       -3 0.17010512E-01 0.48920246E+03</pdfrwt>
<totfact> 0.10641823E+02</totfact>
</mgrwt>
</event>
<event>
 6    1  0.9240440E-006  0.1710139E+03  0.7546771E-02  0.1183414E+00
          1   -1    0    0  501    0  0.00000000000E+00  0.00000000000E+00  0.25866117540E+02  0.25866117540E+02  0.00000000000E+00 0. -1.
         -1   -1    0    0    0  501 -0.00000000000E+00 -0.00000000000E+00 -0.11226192155E+04  0.11226192155E+04  0.00000000000E+00 0.  1.
          5    1    1    2  502    0 -0.11676376896E+03 -0.68079556197E+02 -0.29069391370E+03  0.32061448061E+03  0.47000000000E+01 0. -1.
         -5    1    1    2    0  502  0.31941642374E+02 -0.14748883883E+02 -0.88864930767E+02  0.95691504396E+02  0.47000000000E+01 0.  1.
        -11    1    1    2    0    0  0.68482725655E+02  0.10126289417E+03 -0.57286936986E+03  0.58576733638E+03  0.00000000000E+00 0.  1.
         11    1    1    2    0    0  0.16339400936E+02 -0.18434454088E+02 -0.14432488364E+03  0.14641201166E+03  0.00000000000E+00 0. -1.
<mgrwt>
<rscale>  0 0.16477016E+03</rscale>
<asrwt>0</asrwt>
<pdfrwt beam="1">  1        1 0.39794025E-02 0.17101391E+03</pdfrwt>
<pdfrwt beam="2">  1       -1 0.17271066E+00 0.17101391E+03</pdfrwt>
<totfact> 0.58657642E+02</totfact>
</mgrwt>
</event>
<event>
 6    1  0.9240440E-006  0.1720137E+03  0.7546771E-02  0.1202213E+00
          1   -1    0    0  501    0  0.00000000000E+00  0.00000000000E+00  0.21532502154E+03  0.21532502154E+03  0.00000000000E+00 0. -1.
         -1   -1    0    0    0  501 -0.00000000000E+00 -0.00000000000E+00 -0.18008626327E+03  0.18008626327E+03  0.00000000000E+00 0.  1.
          5    1    1    2  502    0  0.24592117860E+02  0.78059419110E+02  0.14954539592E+03  0.17054020234E+03  0.47000000000E+01 0. -1.
         -5    1    1    2    0  502 -0.80903379308E+01 -0.63959970140E+02  0.12616744763E+02  0.65860485851E+02  0.47000000000E+01 0.  1.
        -11    1    1    2    0    0 -0.42126964311E+02  0.24962662742E+02 -0.68592734004E+02  0.84277985331E+02  0.00000000000E+00 0. -1.
         11    1    1    2    0    0  0.25625184382E+02 -0.39062111713E+02 -0.58330648405E+02  0.74732611285E+02  0.00000000000E+00 0.  1.
<mgrwt>
<rscale>  0 0.14859256E+03</rscale>
<asrwt>0</asrwt>
<pdfrwt beam="1">  1        1 0.33126926E-01 0.17201374E+03</pdfrwt>
<pdfrwt beam="2">  1       -1 0.27705579E-01 0.17201374E+03</pdfrwt>
<totfact> 0.15447502E+03</totfact>
</mgrwt>
</event>
<event>
 6    1  0.9240440E-006  0.1273086E+03  0.7546771E-02  0.1247203E+00
         -4   -1    0    0    0  501 -0.00000000000E+00  0.00000000000E+00  0.25463505040E+02  0.25463505040E+02  0.00000000000E+00 0.  1.
          4   -1    0    0  501    0  0.00000000000E+00 -0.00000000000E+00 -0.50323128358E+03  0.50323128358E+03  0.00000000000E+00 0. -1.
          5    1    1    2  502    0  0.76378169100E+01 -0.14236570200E+02  0.37575581588E+01  0.17240226841E+02  0.47000000000E+01 0.  1.
         -5    1    1    2    0  502 -0.28215203187E+02  0.26809790494E+02 -0.34074846370E+03  0.34299630912E+03  0.47000000000E+01 0.  1.
        -11    1    1    2    0    0 -0.25722060370E+02 -0.24032654562E+02 -0.98930647361E+02  0.10500698006E+03  0.00000000000E+00 0. -1.
         11    1    1    2    0    0  0.46299446647E+02  0.11459434268E+02 -0.41846225640E+02  0.63451272595E+02  0.00000000000E+00 0.  1.
<mgrwt>
<rscale>  0 0.11754468E+03</rscale>
<asrwt>0</asrwt>
<pdfrwt beam="2">  1        4 0.77420200E-01 0.12730865E+03</pdfrwt>
<pdfrwt beam="1">  1       -4 0.39174622E-02 0.12730865E+03</pdfrwt>
<totfact> 0.88223282E+02</totfact>
</mgrwt>
</event>
<event>
 6    1  0.9240440E-006  0.3162246E+03  0.7546771E-02  0.1077400E+00
         -2   -1    0    0    0  501 -0.00000000000E+00  0.00000000000E+00  0.12693165211E+03  0.12693165211E+03  0.00000000000E+00 0.  1.
          2   -1    0    0  501    0  0.00000000000E+00 -0.00000000000E+00 -0.19695245963E+03  0.19695245963E+03  0.00000000000E+00 0. -1.
          5    1    1    2  502    0 -0.21343672604E+02  0.37735674143E+01  0.37737164095E+02  0.43771859969E+02  0.47000000000E+01 0.  1.
         -5    1    1    2    0  502 -0.85325603708E+02 -0.38016695738E+02 -0.95684082952E+02  0.13380306997E+03  0.47000000000E+01 0.  1.
        -11    1    1    2    0    0  0.74197936111E+02  0.20321352874E+02 -0.52106648433E+02  0.92916058444E+02  0.00000000000E+00 0. -1.
         11    1    1    2    0    0  0.32471340201E+02  0.13921775450E+02  0.40032759776E+02  0.53393123353E+02  0.00000000000E+00 0.  1.
<mgrwt>
<rscale>  0 0.31622461E+03</rscale>
<asrwt>0</asrwt>
<pdfrwt beam="2">  1        2 0.30300378E-01 0.31622461E+03</pdfrwt>
<pdfrwt beam="1">  1       -2 0.19527946E-01 0.31622461E+03</pdfrwt>
<totfact> 0.37993480E+03</totfact>
</mgrwt>
</event>
<event>
 6    1  0.9240440E-006  0.1297723E+03  0.7546771E-02  0.1241892E+00
         -1   -1    0    0    0  501 -0.00000000000E+00  0.00000000000E+00  0.28139391723E+03  0.28139391723E+03  0.00000000000E+00 0.  1.
          1   -1    0    0  501    0  0.00000000000E+00 -0.00000000000E+00 -0.65698407451E+02  0.65698407451E+02  0.00000000000E+00 0. -1.
          5    1    1    2  502    0 -0.35737771058E+00 -0.14642608589E+02  0.71958433403E+02  0.73584236375E+02  0.47000000000E+01 0. -1.
         -5    1    1    2    0  502 -0.32406611823E+02  0.27066676237E+01 -0.48211034046E+02  0.58343023090E+02  0.47000000000E+01 0. -1.
        -11    1    1    2    0    0  0.13099925601E+02  0.48568860713E+02  0.69095711056E+02  0.85467886180E+02  0.00000000000E+00 0. -1.
         11    1    1    2    0    0  0.19664063933E+02 -0.36632919748E+02  0.12285239937E+03  0.12969717904E+03  0.00000000000E+00 0.  1.
<mgrwt>
<rscale>  0 0.12073319E+03</rscale>
<asrwt>0</asrwt>
<pdfrwt beam="2">  1        1 0.10107447E-01 0.12977235E+03</pdfrwt>
<pdfrwt beam="1">  1       -1 0.43291371E-01 0.12977235E+03</pdfrwt>
<totfact> 0.32510599E+03</totfact>
</mgrwt>
</event>
<event>
 6    1  0.9240440E-006  0.1228005E+03  0.7546771E-02  0.1254132E+00
          1   -1    0    0  501    0  0.00000000000E+00  0.00000000000E+00  0.19610059126E+02  0.19610059126E+02  0.00000000000E+00 0. -1.
         -1   -1    0    0    0  501 -0.00000000000E+00 -0.00000000000E+00 -0.57660868279E+03  0.57660868279E+03  0.00000000000E+00 0.  1.
          5    1    1    2  502    0 -0.45427363259E+02 -0.30662261166E+02 -0.24543080915E+03  0.25151976398E+03  0.47000000000E+01 0. -1.
         -5    1    1    2    0  502  0.46404313205E+02  0.28300340045E+02 -0.85102982050E+02  0.10108846168E+03  0.47000000000E+01 0.  1.
        -11    1    1    2    0    0  0.30532531523E+02 -0.17327071601E+02 -0.38892227833E+02  0.52393399176E+02  0.00000000000E+00 0.  1.
         11    1    1    2    0    0 -0.31509481470E+02  0.19688992722E+02 -0.18757260463E+03  0.19121711708E+03  0.00000000000E+00 0. -1.
<mgrwt>
<rscale>  0 0.11355088E+03</rscale>
<asrwt>0</asrwt>
<pdfrwt beam="1">  1        1 0.30169323E-02 0.12280054E+03</pdfrwt>
<pdfrwt beam="2">  1       -1 0.88709024E-01 0.12280054E+03</pdfrwt>
<totfact> 0.42139887E+03</totfact>
</mgrwt>
</event>
<event>
 6    1  0.9240440E-006  0.1291244E+03  0.7546771E-02  0.1238639E+00
         -1   -1    0    0    0  501 -0.00000000000E+00  0.00000000000E+00  0.33617014253E+02  0.33617014253E+02  0.00000000000E+00 0.  1.
          1   -1    0    0  501    0  0.00000000000E+00 -0.00000000000E+00 -0.54543452684E+03  0.54543452684E+03  0.00000000000E+00 0. -1.
          5    1    1    2  502    0 -0.66500255485E+02  0.51176578806E+02 -0.28964977739E+03  0.30159643523E+03  0.47000000000E+01 0. -1.
         -5    1    1    2    0  502  0.21195960954E+02 -0.39064933350E+02 -0.12982603790E+03  0.13730341545E+03  0.47000000000E+01 0.  1.
        -11    1    1    2    0    0 -0.69954058349E+00  0.22073942005E+02 -0.78004580848E+02  0.81070727800E+02  0.00000000000E+00 0. -1.
         11    1    1    2    0    0  0.46003835115E+02 -0.34185587462E+02 -0.14337116446E+02  0.59080962614E+02  0.00000000000E+00 0.  1.
<mgrwt>
<rscale>  0 0.12274321E+03</rscale>
<asrwt>0</asrwt>
<pdfrwt beam="2">  1        1 0.83912998E-01 0.12912443E+03</pdfrwt>
<pdfrwt beam="1">  1       -1 0.51718487E-02 0.12912443E+03</pdfrwt>
<totfact> 0.64327858E+03</totfact>
</mgrwt>
</event>
<event>
 6    1  0.9240440E-006  0.1567545E+03  0.7546771E-02  0.1198991E+00
         -4   -1    0    0    0  501 -0.00000000000E+00  0.00000000000E+00  0.45976784612E+03  0.45976784612E+03  0.00000000000E+00 0.  1.
          4   -1    0    0  501    0  0.00000000000E+00 -0.00000000000E+00 -0.48837372438E+02  0.48837372438E+02  0.00000000000E+00 0. -1.
          5    1    1    2  502    0  0.15701699282E+00 -0.72101558661E+02  0.33255633866E+02  0.79540471457E+02  0.47000000000E+01 0.  1.
         -5    1    1    2    0  502  0.67393260175E+02  0.58772373512E+01  0.13099396003E+03  0.14750559651E+03  0.47000000000E+01 0.  1.
        -11    1    1    2    0    0 -0.91766999949E+02  0.44165805257E+02  0.20123823025E+03  0.22554074122E+03  0.00000000000E+00 0.  1.
         11    1    1    2    0    0  0.24216722781E+02  0.22058516054E+02  0.45442649529E+02  0.56018409376E+02  0.00000000000E+00 0. -1.
<mgrwt>
<rscale>  0 0.15121274E+03</rscale>
<asrwt>0</asrwt>
<pdfrwt beam="2">  1        4 0.75134422E-02 0.15675455E+03</pdfrwt>
<pdfrwt beam="1">  1       -4 0.70733512E-01 0.15675455E+03</pdfrwt>
<totfact> 0.39018667E+02</totfact>
</mgrwt>
</event>
<event>
 6    1  0.9240440E-006  0.1269381E+03  0.7546771E-02  0.1246917E+00
         -2   -1    0    0    0  501 -0.00000000000E+00  0.00000000000E+00  0.26813298563E+02  0.26813298563E+02  0.00000000000E+00 0.  1.
          2   -1    0    0  501    0  0.00000000000E+00 -0.00000000000E+00 -0.55845907813E+03  0.55845907813E+03  0.00000000000E+00 0. -1.
          5    1    1    2  502    0 -0.38440897467E+02 -0.29169070936E+02 -0.39805869344E+03  0.40100043731E+03  0.47000000000E+01 0. -1.
         -5    1    1    2    0  502  0.16427757787E+02  0.27289357560E+02 -0.25209681145E+02  0.40892521143E+02  0.47000000000E+01 0. -1.
        -11    1    1    2    0    0 -0.16672567802E+02 -0.11819829757E+02  0.64560568453E+01  0.21432768431E+02  0.00000000000E+00 0.  1.
         11    1    1    2    0    0  0.38685707482E+02  0.13699543133E+02 -0.11483346182E+03  0.12194664981E+03  0.00000000000E+00 0. -1.
<mgrwt>
<rscale>  0 0.11771401E+03</rscale>
<asrwt>0</asrwt>
<pdfrwt beam="2">  1        2 0.85916778E-01 0.12693805E+03</pdfrwt>
<pdfrwt beam="1">  1       -2 0.41251230E-02 0.12693805E+03</pdfrwt>
<totfact> 0.13583136E+04</totfact>
</mgrwt>
</event>
<event>
 6    1  0.9240440E-006  0.2885364E+03  0.7546771E-02  0.1091116E+00
          2   -1    0    0  501    0  0.00000000000E+00  0.00000000000E+00  0.95853082808E+02  0.95853082808E+02  0.00000000000E+00 0. -1.
         -2   -1    0    0    0  501 -0.00000000000E+00 -0.00000000000E+00 -0.21713759322E+03  0.21713759322E+03  0.00000000000E+00 0.  1.
          5    1    1    2  502    0 -0.53899969695E+02 -0.22209642865E+02 -0.68897029381E+01  0.58890007437E+02  0.47000000000E+01 0. -1.
         -5    1    1    2    0  502  0.68291888718E+02 -0.28002905980E+01  0.11551223528E+02  0.69477654372E+02  0.47000000000E+01 0. -1.
        -11    1    1    2    0    0  0.39834318458E+02  0.17914655944E+02 -0.12224036790E+03  0.12980914979E+03  0.00000000000E+00 0.  1.
         11    1    1    2    0    0 -0.54226237481E+02  0.70952775185E+01 -0.37056631003E+01  0.54813864427E+02  0.00000000000E+00 0. -1.
<mgrwt>
<rscale>  0 0.28853636E+03</rscale>
<asrwt>0</asrwt>
<pdfrwt beam="1">  1        2 0.14746628E-01 0.28853636E+03</pdfrwt>
<pdfrwt beam="2">  1       -2 0.33405783E-01 0.28853636E+03</pdfrwt>
<totfact> 0.33254069E+03</totfact>
</mgrwt>
</event>
<event>
 6    1  0.9240440E-006  0.1288538E+03  0.7546771E-02  0.1238107E+00
          1   -1    0    0  501    0  0.00000000000E+00  0.00000000000E+00  0.23720607283E+03  0.23720607283E+03  0.00000000000E+00 0. -1.
         -1   -1    0    0    0  501 -0.00000000000E+00 -0.00000000000E+00 -0.62519501651E+02  0.62519501651E+02  0.00000000000E+00 0.  1.
          5    1    1    2  502    0 -0.41400506844E+02  0.13633287250E+02  0.15805074480E+02  0.46602133723E+02  0.47000000000E+01 0.  1.
         -5    1    1    2    0  502  0.67309200229E+02 -0.31144857825E+02  0.11568822683E+03  0.13750049611E+03  0.47000000000E+01 0.  1.
        -11    1    1    2    0    0  0.73687718677E+01  0.76712351069E+01 -0.31507877591E+02  0.33254969512E+02  0.00000000000E+00 0.  1.
         11    1    1    2    0    0 -0.33277465253E+02  0.98403354684E+01  0.74701147462E+02  0.82367975135E+02  0.00000000000E+00 0. -1.
<mgrwt>
<rscale>  0 0.12307624E+03</rscale>
<asrwt>0</asrwt>
<pdfrwt beam="1">  1        1 0.36493242E-01 0.12885375E+03</pdfrwt>
<pdfrwt beam="2">  1       -1 0.96183850E-02 0.12885375E+03</pdfrwt>
<totfact> 0.72355663E+03</totfact>
</mgrwt>
</event>
<event>
 6    1  0.1081098E-005  0.2110445E+03  0.7546771E-02  0.1144705E+00
         -1   -1    0    0    0  501 -0.00000000000E+00  0.00000000000E+00  0.17993589608E+02  0.17993589608E+02  0.00000000000E+00 0.  1.
          1   -1    0    0  501    0  0.00000000000E+00 -0.00000000000E+00 -0.26737266292E+04  0.26737266292E+04  0.00000000000E+00 0. -1.
          5    1    1    2  502    0 -0.16077559722E+02 -0.14040869972E+03 -0.91190513020E+03  0.92280341751E+03  0.47000000000E+01 0. -1.
         -5    1    1    2    0  502  0.22987536668E+02 -0.29494332461E+02 -0.10008425855E+04  0.10015519524E+04  0.47000000000E+01 0. -1.
        -11    1    1    2    0    0  0.10379783513E+02  0.14252687382E+03 -0.69458137744E+03  0.70912970574E+03  0.00000000000E+00 0. -1.
         11    1    1    2    0    0 -0.17289760458E+02  0.27376158360E+02 -0.48403946487E+02  0.58235143159E+02  0.00000000000E+00 0.  1.
<mgrwt>
<rscale>  0 0.20608355E+03</rscale>
<asrwt>0</asrwt>
<pdfrwt beam="2">  1        1 0.41134210E+00 0.21104446E+03</pdfrwt>
<pdfrwt beam="1">  1       -1 0.27682477E-02 0.21104446E+03</pdfrwt>
<totfact> 0.52081454E+02</totfact>
</mgrwt>
</event>
<event>
 6    1  0.9240440E-006  0.1854732E+03  0.7546771E-02  0.1189289E+00
         -1   -1    0    0    0  501 -0.00000000000E+00  0.00000000000E+00  0.10722512985E+03  0.10722512985E+03  0.00000000000E+00 0.  1.
          1   -1    0    0  501    0  0.00000000000E+00 -0.00000000000E+00 -0.19593539548E+03  0.19593539548E+03  0.00000000000E+00 0. -1.
          5    1    1    2  502    0  0.28072893184E+02  0.11130615530E+03 -0.57593941179E+02  0.12851575623E+03  0.47000000000E+01 0. -1.
         -5    1    1    2    0  502 -0.18372701243E+02 -0.67146329744E+02 -0.20447587327E+02  0.72707493263E+02  0.47000000000E+01 0.  1.
        -11    1    1    2    0    0 -0.46055034367E+02 -0.50156104114E+01 -0.14041669804E+02  0.48408584252E+02  0.00000000000E+00 0.  1.
         11    1    1    2    0    0  0.36354842426E+02 -0.39144215147E+02  0.33729326846E+01  0.53528691579E+02  0.00000000000E+00 0. -1.
<mgrwt>
<rscale>  0 0.15947634E+03</rscale>
<asrwt>0</asrwt>
<pdfrwt beam="2">  1        1 0.30143907E-01 0.18547322E+03</pdfrwt>
<pdfrwt beam="1">  1       -1 0.16496174E-01 0.18547322E+03</pdfrwt>
<totfact> 0.40559727E+03</totfact>
</mgrwt>
</event>
<event>
 6    1  0.9240440E-006  0.1422501E+03  0.7546771E-02  0.1217822E+00
         -1   -1    0    0    0  501 -0.00000000000E+00  0.00000000000E+00  0.20194961545E+03  0.20194961545E+03  0.00000000000E+00 0.  1.
          1   -1    0    0  501    0  0.00000000000E+00 -0.00000000000E+00 -0.86265719478E+02  0.86265719478E+02  0.00000000000E+00 0. -1.
          5    1    1    2  502    0  0.39700989829E+01  0.10238452876E+03  0.58318806245E+02  0.11798951893E+03  0.47000000000E+01 0. -1.
         -5    1    1    2    0  502 -0.15210893757E+02 -0.35418197237E+02  0.11679248435E+02  0.40550152015E+02  0.47000000000E+01 0. -1.
        -11    1    1    2    0    0  0.20447762783E+02 -0.35162844986E+01  0.60425769741E+02  0.63888566335E+02  0.00000000000E+00 0.  1.
         11    1    1    2    0    0 -0.92069680095E+01 -0.63450047021E+02 -0.14739928448E+02  0.65787097653E+02  0.00000000000E+00 0. -1.
<mgrwt>
<rscale>  0 0.13671294E+03</rscale>
<asrwt>0</asrwt>
<pdfrwt beam="2">  1        1 0.13271649E-01 0.14225013E+03</pdfrwt>
<pdfrwt beam="1">  1       -1 0.31069172E-01 0.14225013E+03</pdfrwt>
<totfact> 0.40545548E+03</totfact>
</mgrwt>
</event>
<event>
 6    1  0.9240440E-006  0.1290362E+03  0.7546771E-02  0.1242775E+00
         -1   -1    0    0    0  501 -0.00000000000E+00  0.00000000000E+00  0.11998147906E+03  0.11998147906E+03  0.00000000000E+00 0.  1.
          1   -1    0    0  501    0  0.00000000000E+00 -0.00000000000E+00 -0.11660930497E+03  0.11660930497E+03  0.00000000000E+00 0. -1.
          5    1    1    2  502    0 -0.55487610982E+02 -0.11269506732E+02 -0.34039881887E+01  0.56917079071E+02  0.47000000000E+01 0.  1.
         -5    1    1    2    0  502  0.55256824570E+02  0.43333329514E+02 -0.29043930316E+02  0.76136285676E+02  0.47000000000E+01 0.  1.
        -11    1    1    2    0    0  0.23694041416E+02  0.23747097576E+02  0.25463503201E+02  0.42115581881E+02  0.00000000000E+00 0.  1.
         11    1    1    2    0    0 -0.23463255004E+02 -0.55810920358E+02  0.10356589397E+02  0.61421837408E+02  0.00000000000E+00 0. -1.
<mgrwt>
<rscale>  0 0.12019526E+03</rscale>
<asrwt>0</asrwt>
<pdfrwt beam="2">  1        1 0.17939893E-01 0.12903616E+03</pdfrwt>
<pdfrwt beam="1">  1       -1 0.18458689E-01 0.12903616E+03</pdfrwt>
<totfact> 0.64011542E+03</totfact>
</mgrwt>
</event>
<event>
 6    1  0.9240440E-006  0.1418629E+03  0.7546771E-02  0.1219310E+00
         -4   -1    0    0    0  501 -0.00000000000E+00  0.00000000000E+00  0.18950869240E+03  0.18950869240E+03  0.00000000000E+00 0.  1.
          4   -1    0    0  501    0  0.00000000000E+00 -0.00000000000E+00 -0.11234901800E+03  0.11234901800E+03  0.00000000000E+00 0. -1.
          5    1    1    2  502    0 -0.20181388016E+02 -0.10689899655E+02 -0.52566650524E+02  0.57505696450E+02  0.47000000000E+01 0. -1.
         -5    1    1    2    0  502  0.66370654754E+02 -0.49327630245E+02  0.26022884628E+02  0.86819119106E+02  0.47000000000E+01 0.  1.
        -11    1    1    2    0    0  0.59798695542E+01  0.28280160317E+02 -0.82055593227E+01  0.30047587445E+02  0.00000000000E+00 0.  1.
         11    1    1    2    0    0 -0.52169136292E+02  0.31737369582E+02  0.11190899961E+03  0.12748530740E+03  0.00000000000E+00 0. -1.
<mgrwt>
<rscale>  0 0.13564641E+03</rscale>
<asrwt>0</asrwt>
<pdfrwt beam="2">  1        4 0.17284464E-01 0.14186289E+03</pdfrwt>
<pdfrwt beam="1">  1       -4 0.29155184E-01 0.14186289E+03</pdfrwt>
<totfact> 0.55041820E+02</totfact>
</mgrwt>
</event>
<event>
 6    1  0.9240440E-006  0.2111384E+03  0.7546771E-02  0.1144425E+00
          2   -1    0    0  501    0  0.00000000000E+00  0.00000000000E+00  0.65111455619E+03  0.65111455619E+03  0.00000000000E+00 0. -1.
         -2   -1    0    0    0  501 -0.00000000000E+00 -0.00000000000E+00 -0.96093324404E+02  0.96093324404E+02  0.00000000000E+00 0.  1.
          5    1    1    2  502    0 -0.11020980414E+03  0.30141163731E+02  0.44698920990E+03  0.46138501758E+03  0.47000000000E+01 0. -1.
         -5    1    1    2    0  502 -0.40394178818E+02  0.49062563711E+02  0.58816016256E+02  0.86719309318E+02  0.47000000000E+01 0. -1.
        -11    1    1    2    0    0  0.60918872136E+01 -0.36216342803E+02 -0.84447526144E+01  0.37683529858E+02  0.00000000000E+00 0.  1.
         11    1    1    2    0    0  0.14451209575E+03 -0.42987384639E+02  0.57660758246E+02  0.16142002384E+03  0.00000000000E+00 0. -1.
<mgrwt>
<rscale>  0 0.20642985E+03</rscale>
<asrwt>0</asrwt>
<pdfrwt beam="1">  1        2 0.10017147E+00 0.21113841E+03</pdfrwt>
<pdfrwt beam="2">  1       -2 0.14783589E-01 0.21113841E+03</pdfrwt>
<totfact> 0.16007940E+03</totfact>
</mgrwt>
</event>
<event>
 6    1  0.9240440E-006  0.1436587E+03  0.7546771E-02  0.1219605E+00
          1   -1    0    0  501    0  0.00000000000E+00  0.00000000000E+00  0.13954912443E+04  0.13954912443E+04  0.00000000000E+00 0. -1.
         -1   -1    0    0    0  501 -0.00000000000E+00 -0.00000000000E+00 -0.14085660855E+02  0.14085660855E+02  0.00000000000E+00 0.  1.
          5    1    1    2  502    0  0.86377464770E+02 -0.45446281934E+02  0.82368860606E+03  0.82946455061E+03  0.47000000000E+01 0.  1.
         -5    1    1    2    0  502 -0.15874670395E+02  0.38846462932E+02  0.21457769444E+03  0.21869323217E+03  0.47000000000E+01 0.  1.
        -11    1    1    2    0    0 -0.78099280600E+02  0.28702689272E+02  0.20376637423E+03  0.22010015282E+03  0.00000000000E+00 0.  1.
         11    1    1    2    0    0  0.75964862249E+01 -0.22102870270E+02  0.13937290874E+03  0.14131896960E+03  0.00000000000E+00 0. -1.
<mgrwt>
<rscale>  0 0.13543632E+03</rscale>
<asrwt>0</asrwt>
<pdfrwt beam="1">  1        1 0.21469085E+00 0.14365872E+03</pdfrwt>
<pdfrwt beam="2">  1       -1 0.21670259E-02 0.14365872E+03</pdfrwt>
<totfact> 0.50398898E+03</totfact>
</mgrwt>
</event>
<event>
 6    1  0.9240440E-006  0.1565085E+03  0.7546771E-02  0.1211896E+00
         -2   -1    0    0    0  501 -0.00000000000E+00  0.00000000000E+00  0.18981292177E+03  0.18981292177E+03  0.00000000000E+00 0.  1.
          2   -1    0    0  501    0  0.00000000000E+00 -0.00000000000E+00 -0.14285123697E+03  0.14285123697E+03  0.00000000000E+00 0. -1.
          5    1    1    2  502    0  0.30773809384E+02 -0.77212879405E+02 -0.34787497911E+02  0.90228133644E+02  0.47000000000E+01 0. -1.
         -5    1    1    2    0  502 -0.61829279364E+02  0.38543517387E+02 -0.39608669596E+02  0.83062622319E+02  0.47000000000E+01 0.  1.
        -11    1    1    2    0    0  0.29485623150E+02 -0.25129202359E+02  0.36776266634E+02  0.53416968945E+02  0.00000000000E+00 0. -1.
         11    1    1    2    0    0  0.15698468304E+01  0.63798564377E+02  0.84581585672E+02  0.10595643383E+03  0.00000000000E+00 0.  1.
<mgrwt>
<rscale>  0 0.14107006E+03</rscale>
<asrwt>0</asrwt>
<pdfrwt beam="2">  1        2 0.21977113E-01 0.15650845E+03</pdfrwt>
<pdfrwt beam="1">  1       -2 0.29201988E-01 0.15650845E+03</pdfrwt>
<totfact> 0.26052368E+03</totfact>
</mgrwt>
</event>
<event>
 6    1  0.9240440E-006  0.1495430E+03  0.7546771E-02  0.1210714E+00
          2   -1    0    0  501    0  0.00000000000E+00  0.00000000000E+00  0.22061141687E+03  0.22061141687E+03  0.00000000000E+00 0. -1.
         -2   -1    0    0    0  501 -0.00000000000E+00 -0.00000000000E+00 -0.89712281580E+02  0.89712281580E+02  0.00000000000E+00 0.  1.
          5    1    1    2  502    0 -0.43800221047E+02  0.76364396681E+02  0.96941990880E+02  0.13103365995E+03  0.47000000000E+01 0. -1.
         -5    1    1    2    0  502 -0.31550126091E+02 -0.43771360127E+02  0.16340714828E+02  0.56572532070E+02  0.47000000000E+01 0. -1.
        -11    1    1    2    0    0  0.28355058865E+02  0.26915252378E+02  0.25197833682E+02  0.46512052160E+02  0.00000000000E+00 0. -1.
         11    1    1    2    0    0  0.46995288273E+02 -0.59508288933E+02 -0.75814041042E+01  0.76205454265E+02  0.00000000000E+00 0.  1.
<mgrwt>
<rscale>  0 0.14196158E+03</rscale>
<asrwt>0</asrwt>
<pdfrwt beam="1">  1        2 0.33940218E-01 0.14954301E+03</pdfrwt>
<pdfrwt beam="2">  1       -2 0.13801890E-01 0.14954301E+03</pdfrwt>
<totfact> 0.57717398E+03</totfact>
</mgrwt>
</event>
<event>
 6    1  0.9240440E-006  0.3313361E+03  0.7546771E-02  0.1070547E+00
          1   -1    0    0  501    0  0.00000000000E+00  0.00000000000E+00  0.74426637976E+03  0.74426637976E+03  0.00000000000E+00 0. -1.
         -1   -1    0    0    0  501 -0.00000000000E+00 -0.00000000000E+00 -0.36876444805E+02  0.36876444805E+02  0.00000000000E+00 0.  1.
          5    1    1    2  502    0  0.13907996301E+03 -0.40788792773E+02  0.37572042006E+03  0.40273426199E+03  0.47000000000E+01 0.  1.
         -5    1    1    2    0  502 -0.15884825619E+02  0.22268167400E+02  0.38018551906E+02  0.47071214700E+02  0.47000000000E+01 0.  1.
        -11    1    1    2    0    0 -0.75615804128E+02  0.36588281055E+02  0.97523267985E+02  0.12871379080E+03  0.00000000000E+00 0.  1.
         11    1    1    2    0    0 -0.47579333262E+02 -0.18067655682E+02  0.19612769500E+03  0.20262355708E+03  0.00000000000E+00 0. -1.
<mgrwt>
<rscale>  0 0.33133607E+03</rscale>
<asrwt>0</asrwt>
<pdfrwt beam="1">  1        1 0.11450251E+00 0.33133607E+03</pdfrwt>
<pdfrwt beam="2">  1       -1 0.56732997E-02 0.33133607E+03</pdfrwt>
<totfact> 0.37511945E+03</totfact>
</mgrwt>
</event>
<event>
 6    1  0.9240440E-006  0.3385907E+03  0.7546771E-02  0.1067398E+00
          1   -1    0    0  501    0  0.00000000000E+00  0.00000000000E+00  0.20445749359E+03  0.20445749359E+03  0.00000000000E+00 0. -1.
         -1   -1    0    0    0  501 -0.00000000000E+00 -0.00000000000E+00 -0.14018033728E+03  0.14018033728E+03  0.00000000000E+00 0.  1.
          5    1    1    2  502    0 -0.22539145044E+02 -0.27982893773E+02 -0.33095535919E+02  0.49076062403E+02  0.47000000000E+01 0. -1.
         -5    1    1    2    0  502  0.44078067864E+02  0.39400117088E+02  0.39919069413E+02  0.71490330786E+02  0.47000000000E+01 0.  1.
        -11    1    1    2    0    0  0.82048284795E+01 -0.10316502602E+03  0.72633312795E+02  0.12643551689E+03  0.00000000000E+00 0.  1.
         11    1    1    2    0    0 -0.29743751300E+02  0.91747802703E+02 -0.15179689980E+02  0.97635920798E+02  0.00000000000E+00 0. -1.
<mgrwt>
<rscale>  0 0.33859073E+03</rscale>
<asrwt>0</asrwt>
<pdfrwt beam="1">  1        1 0.31454999E-01 0.33859073E+03</pdfrwt>
<pdfrwt beam="2">  1       -1 0.21566206E-01 0.33859073E+03</pdfrwt>
<totfact> 0.25458604E+03</totfact>
</mgrwt>
</event>
<event>
 6    1  0.9240440E-006  0.1370185E+03  0.7546771E-02  0.1232989E+00
          1   -1    0    0  501    0  0.00000000000E+00  0.00000000000E+00  0.10528567979E+04  0.10528567979E+04  0.00000000000E+00 0. -1.
         -1   -1    0    0    0  501 -0.00000000000E+00 -0.00000000000E+00 -0.68948855067E+02  0.68948855067E+02  0.00000000000E+00 0.  1.
          5    1    1    2  502    0  0.54940563610E+02 -0.36760189515E+01  0.63663933636E+03  0.63903342107E+03  0.47000000000E+01 0. -1.
         -5    1    1    2    0  502 -0.61126856738E+02 -0.37548532502E+02  0.37346486974E+03  0.38032155322E+03  0.47000000000E+01 0.  1.
        -11    1    1    2    0    0  0.31335423972E+02  0.31861710235E+02 -0.49657736645E+02  0.66805450251E+02  0.00000000000E+00 0.  1.
         11    1    1    2    0    0 -0.25149130844E+02  0.93628412186E+01  0.23461473414E+02  0.35645228470E+02  0.00000000000E+00 0. -1.
<mgrwt>
<rscale>  0 0.12634043E+03</rscale>
<asrwt>0</asrwt>
<pdfrwt beam="1">  1        1 0.16197796E+00 0.13701845E+03</pdfrwt>
<pdfrwt beam="2">  1       -1 0.10607517E-01 0.13701845E+03</pdfrwt>
<totfact> 0.82037598E+02</totfact>
</mgrwt>
</event>
<event>
 6    1  0.9240440E-006  0.1570034E+03  0.7546771E-02  0.1200463E+00
          2   -1    0    0  501    0  0.00000000000E+00  0.00000000000E+00  0.42420880757E+03  0.42420880757E+03  0.00000000000E+00 0. -1.
         -2   -1    0    0    0  501 -0.00000000000E+00 -0.00000000000E+00 -0.10684178032E+03  0.10684178032E+03  0.00000000000E+00 0.  1.
          5    1    1    2  502    0 -0.30516926943E+01  0.95916298306E+02  0.29326113461E+03  0.30859914482E+03  0.47000000000E+01 0.  1.
         -5    1    1    2    0  502  0.49466711226E+02 -0.13016479216E+02  0.67304441326E+02  0.84666180219E+02  0.47000000000E+01 0.  1.
        -11    1    1    2    0    0  0.12154161618E+02 -0.44929526640E+02 -0.49199723955E+02  0.67727386233E+02  0.00000000000E+00 0.  1.
         11    1    1    2    0    0 -0.58569180150E+02 -0.37970292450E+02  0.60011752634E+01  0.70057876621E+02  0.00000000000E+00 0. -1.
<mgrwt>
<rscale>  0 0.15000841E+03</rscale>
<asrwt>0</asrwt>
<pdfrwt beam="1">  1        2 0.65262892E-01 0.15700344E+03</pdfrwt>
<pdfrwt beam="2">  1       -2 0.16437197E-01 0.15700344E+03</pdfrwt>
<totfact> 0.21600914E+03</totfact>
</mgrwt>
</event>
<event>
 6    1  0.9240440E-006  0.4802743E+03  0.7546771E-02  0.1019060E+00
         -2   -1    0    0    0  501 -0.00000000000E+00  0.00000000000E+00  0.36466194558E+03  0.36466194558E+03  0.00000000000E+00 0.  1.
          2   -1    0    0  501    0  0.00000000000E+00 -0.00000000000E+00 -0.15813508879E+03  0.15813508879E+03  0.00000000000E+00 0. -1.
          5    1    1    2  502    0 -0.10921357436E+03 -0.97201620945E+02  0.20111956526E+02  0.14765615712E+03  0.47000000000E+01 0.  1.
         -5    1    1    2    0  502 -0.27406097217E+02  0.48095312942E+00 -0.58474571054E+02  0.64750991811E+02  0.47000000000E+01 0.  1.
        -11    1    1    2    0    0  0.38219431842E+02  0.71159234600E+02  0.64672672754E+02  0.10347422984E+03  0.00000000000E+00 0. -1.
         11    1    1    2    0    0  0.98400239739E+02  0.25561433216E+02  0.18021679856E+03  0.20691565560E+03  0.00000000000E+00 0.  1.
<mgrwt>
<rscale>  0 0.48027429E+03</rscale>
<asrwt>0</asrwt>
<pdfrwt beam="2">  1        2 0.24328475E-01 0.48027429E+03</pdfrwt>
<pdfrwt beam="1">  1       -2 0.56101837E-01 0.48027429E+03</pdfrwt>
<totfact> 0.67842713E+02</totfact>
</mgrwt>
</event>
<event>
 6    1  0.9240440E-006  0.1255050E+03  0.7546771E-02  0.1249922E+00
         -2   -1    0    0    0  501 -0.00000000000E+00  0.00000000000E+00  0.39675898181E+02  0.39675898181E+02  0.00000000000E+00 0.  1.
          2   -1    0    0  501    0  0.00000000000E+00 -0.00000000000E+00 -0.33234154579E+03  0.33234154579E+03  0.00000000000E+00 0. -1.
          5    1    1    2  502    0  0.56300389170E+02  0.16269968320E+01 -0.47397421426E+02  0.73763042895E+02  0.47000000000E+01 0. -1.
         -5    1    1    2    0  502 -0.46436591634E+02  0.37748047856E+01 -0.17976793453E+03  0.18576653756E+03  0.47000000000E+01 0. -1.
        -11    1    1    2    0    0 -0.38350018283E+02 -0.20668236753E+02 -0.49410315029E+01  0.43844198077E+02  0.00000000000E+00 0.  1.
         11    1    1    2    0    0  0.28486220746E+02  0.15266435135E+02 -0.60559260151E+02  0.68643665434E+02  0.00000000000E+00 0. -1.
<mgrwt>
<rscale>  0 0.11595581E+03</rscale>
<asrwt>0</asrwt>
<pdfrwt beam="2">  1        2 0.51129468E-01 0.12550500E+03</pdfrwt>
<pdfrwt beam="1">  1       -2 0.61039844E-02 0.12550500E+03</pdfrwt>
<totfact> 0.13197629E+04</totfact>
</mgrwt>
</event>
<event>
 6    1  0.9240440E-006  0.1458573E+03  0.7546771E-02  0.1215460E+00
          1   -1    0    0  501    0  0.00000000000E+00  0.00000000000E+00  0.29395758499E+03  0.29395758499E+03  0.00000000000E+00 0. -1.
         -1   -1    0    0    0  501 -0.00000000000E+00 -0.00000000000E+00 -0.60195848484E+02  0.60195848484E+02  0.00000000000E+00 0.  1.
          5    1    1    2  502    0  0.39752835632E+02  0.48451365783E+02  0.16813574623E+03  0.17949802770E+03  0.47000000000E+01 0.  1.
         -5    1    1    2    0  502  0.21815559046E+02 -0.53466924493E+01 -0.18491052893E+02  0.29470574710E+02  0.47000000000E+01 0.  1.
        -11    1    1    2    0    0 -0.54616141897E+02 -0.24939630175E+02  0.12375084173E+01  0.60053638825E+02  0.00000000000E+00 0.  1.
         11    1    1    2    0    0 -0.69522527803E+01 -0.18165043158E+02  0.82879534755E+02  0.85131192244E+02  0.00000000000E+00 0. -1.
<mgrwt>
<rscale>  0 0.13842787E+03</rscale>
<asrwt>0</asrwt>
<pdfrwt beam="1">  1        1 0.45224243E-01 0.14585727E+03</pdfrwt>
<pdfrwt beam="2">  1       -1 0.92608999E-02 0.14585727E+03</pdfrwt>
<totfact> 0.59264320E+03</totfact>
</mgrwt>
</event>
<event>
 6    1  0.9240440E-006  0.2039279E+03  0.7546771E-02  0.1151100E+00
         -2   -1    0    0    0  501 -0.00000000000E+00  0.00000000000E+00  0.65645668466E+02  0.65645668466E+02  0.00000000000E+00 0.  1.
          2   -1    0    0  501    0  0.00000000000E+00 -0.00000000000E+00 -0.57376875178E+03  0.57376875178E+03  0.00000000000E+00 0. -1.
          5    1    1    2  502    0 -0.16506496850E+03 -0.63264176866E+02 -0.23820343019E+03  0.29666776713E+03  0.47000000000E+01 0. -1.
         -5    1    1    2    0  502  0.12302470372E+02  0.12041556095E+02 -0.12987462511E+01  0.17892081832E+02  0.47000000000E+01 0. -1.
        -11    1    1    2    0    0  0.69256070242E+02  0.68180894278E+02 -0.15218314377E+03  0.18056784558E+03  0.00000000000E+00 0. -1.
         11    1    1    2    0    0  0.83506427883E+02 -0.16958273507E+02 -0.11643776311E+03  0.14428672571E+03  0.00000000000E+00 0.  1.
<mgrwt>
<rscale>  0 0.19839579E+03</rscale>
<asrwt>0</asrwt>
<pdfrwt beam="2">  1        2 0.88272117E-01 0.20392794E+03</pdfrwt>
<pdfrwt beam="1">  1       -2 0.10099333E-01 0.20392794E+03</pdfrwt>
<totfact> 0.34299590E+03</totfact>
</mgrwt>
</event>
<event>
 6    1  0.9240440E-006  0.1384953E+03  0.7546771E-02  0.1224379E+00
          2   -1    0    0  501    0  0.00000000000E+00  0.00000000000E+00  0.18759910160E+03  0.18759910160E+03  0.00000000000E+00 0. -1.
         -2   -1    0    0    0  501 -0.00000000000E+00 -0.00000000000E+00 -0.90651649841E+02  0.90651649841E+02  0.00000000000E+00 0.  1.
          5    1    1    2  502    0  0.44056798836E+02  0.12315363958E+02  0.95411092332E+02  0.10591523145E+03  0.47000000000E+01 0. -1.
         -5    1    1    2    0  502 -0.36319631821E+01 -0.56156851560E+02 -0.92086958167E+01  0.57216022339E+02  0.47000000000E+01 0. -1.
        -11    1    1    2    0    0 -0.27252098920E+02  0.72045680634E+02  0.24860240827E+02  0.80940030686E+02  0.00000000000E+00 0.  1.
         11    1    1    2    0    0 -0.13172736734E+02 -0.28204193032E+02 -0.14115185587E+02  0.34179466962E+02  0.00000000000E+00 0. -1.
<mgrwt>
<rscale>  0 0.13209565E+03</rscale>
<asrwt>0</asrwt>
<pdfrwt beam="1">  1        2 0.28861400E-01 0.13849532E+03</pdfrwt>
<pdfrwt beam="2">  1       -2 0.13946408E-01 0.13849532E+03</pdfrwt>
<totfact> 0.67290080E+03</totfact>
</mgrwt>
</event>
<event>
 6    1  0.9240440E-006  0.1255628E+03  0.7546771E-02  0.1247702E+00
         -2   -1    0    0    0  501 -0.00000000000E+00  0.00000000000E+00  0.22481665322E+02  0.22481665322E+02  0.00000000000E+00 0. -1.
          2   -1    0    0  501    0  0.00000000000E+00 -0.00000000000E+00 -0.63176565846E+03  0.63176565846E+03  0.00000000000E+00 0.  1.
          5    1    1    2  502    0  0.56020165145E+02 -0.20416604205E+02 -0.12942363385E+03  0.14257511575E+03  0.47000000000E+01 0.  1.
         -5    1    1    2    0  502 -0.44286511625E+02  0.20817901199E+02 -0.33231122591E+03  0.33592785087E+03  0.47000000000E+01 0.  1.
        -11    1    1    2    0    0  0.32120721890E+02 -0.21890654483E+02 -0.10122695044E+03  0.10843356042E+03  0.00000000000E+00 0.  1.
         11    1    1    2    0    0 -0.43854375410E+02  0.21489357489E+02 -0.46322182931E+02  0.67310796752E+02  0.00000000000E+00 0. -1.
<mgrwt>
<rscale>  0 0.11725118E+03</rscale>
<asrwt>0</asrwt>
<pdfrwt beam="2">  1        2 0.97194699E-01 0.12556277E+03</pdfrwt>
<pdfrwt beam="1">  1       -2 0.34587184E-02 0.12556277E+03</pdfrwt>
<totfact> 0.15318559E+04</totfact>
</mgrwt>
</event>
<event>
 6    1  0.9240440E-006  0.1344973E+03  0.7546771E-02  0.1232987E+00
          1   -1    0    0  501    0  0.00000000000E+00  0.00000000000E+00  0.56725223991E+03  0.56725223991E+03  0.00000000000E+00 0. -1.
         -1   -1    0    0    0  501 -0.00000000000E+00 -0.00000000000E+00 -0.26727418561E+02  0.26727418561E+02  0.00000000000E+00 0.  1.
          5    1    1    2  502    0  0.57418584664E+02  0.33135695028E+02  0.29469386073E+03  0.30209506732E+03  0.47000000000E+01 0. -1.
         -5    1    1    2    0  502 -0.11142960428E+02 -0.51131025248E+02  0.77297235454E+02  0.93463896339E+02  0.47000000000E+01 0. -1.
        -11    1    1    2    0    0 -0.71297499188E+02  0.58149339053E+01  0.89157986728E+02  0.11430788881E+03  0.00000000000E+00 0. -1.
         11    1    1    2    0    0  0.25021874953E+02  0.12180396315E+02  0.79375738441E+02  0.84112806002E+02  0.00000000000E+00 0.  1.
<mgrwt>
<rscale>  0 0.12634175E+03</rscale>
<asrwt>0</asrwt>
<pdfrwt beam="1">  1        1 0.87269566E-01 0.13449728E+03</pdfrwt>
<pdfrwt beam="2">  1       -1 0.41119110E-02 0.13449728E+03</pdfrwt>
<totfact> 0.85822947E+03</totfact>
</mgrwt>
</event>
<event>
 6    1  0.9240440E-006  0.1542508E+03  0.7546771E-02  0.1203833E+00
          1   -1    0    0  501    0  0.00000000000E+00  0.00000000000E+00  0.14311914521E+04  0.14311914521E+04  0.00000000000E+00 0. -1.
         -1   -1    0    0    0  501 -0.00000000000E+00 -0.00000000000E+00 -0.14770889007E+02  0.14770889007E+02  0.00000000000E+00 0.  1.
          5    1    1    2  502    0  0.88738218743E+02  0.39443885067E+02  0.41149276187E+03  0.42282227307E+03  0.47000000000E+01 0.  1.
         -5    1    1    2    0  502  0.15558122684E+01 -0.35875646326E+02  0.52878895266E+03  0.53002766815E+03  0.47000000000E+01 0.  1.
        -11    1    1    2    0    0 -0.10141832123E+03  0.15261366759E+02  0.42986803085E+03  0.44193337636E+03  0.00000000000E+00 0. -1.
         11    1    1    2    0    0  0.11124290220E+02 -0.18829605500E+02  0.46270817683E+02  0.51179023488E+02  0.00000000000E+00 0.  1.
<mgrwt>
<rscale>  0 0.14729795E+03</rscale>
<asrwt>0</asrwt>
<pdfrwt beam="1">  1        1 0.22018319E+00 0.15425080E+03</pdfrwt>
<pdfrwt beam="2">  1       -1 0.22724456E-02 0.15425080E+03</pdfrwt>
<totfact> 0.44660310E+03</totfact>
</mgrwt>
</event>
<event>
 6    1  0.9240440E-006  0.2837782E+03  0.7546771E-02  0.1093643E+00
         -1   -1    0    0    0  501 -0.00000000000E+00  0.00000000000E+00  0.88058550674E+03  0.88058550674E+03  0.00000000000E+00 0.  1.
          1   -1    0    0  501    0  0.00000000000E+00 -0.00000000000E+00 -0.22862640915E+02  0.22862640915E+02  0.00000000000E+00 0. -1.
          5    1    1    2  502    0 -0.34339500497E+02 -0.12625665754E+02  0.47035457132E+02  0.59774852218E+02  0.47000000000E+01 0. -1.
         -5    1    1    2    0  502  0.43768694912E+02  0.82039730307E+02  0.18792660348E+03  0.20972533061E+03  0.47000000000E+01 0.  1.
        -11    1    1    2    0    0 -0.52378552649E+02 -0.35815371206E+02  0.30326014536E+03  0.30982732184E+03  0.00000000000E+00 0.  1.
         11    1    1    2    0    0  0.42949358234E+02 -0.33598693347E+02  0.31950065985E+03  0.32412064299E+03  0.00000000000E+00 0. -1.
<mgrwt>
<rscale>  0 0.28377815E+03</rscale>
<asrwt>0</asrwt>
<pdfrwt beam="2">  1        1 0.35173301E-02 0.28377815E+03</pdfrwt>
<pdfrwt beam="1">  1       -1 0.13547467E+00 0.28377815E+03</pdfrwt>
<totfact> 0.13387965E+03</totfact>
</mgrwt>
</event>
<event>
 6    1  0.9240440E-006  0.1270579E+03  0.7546771E-02  0.1245703E+00
          1   -1    0    0  501    0  0.00000000000E+00  0.00000000000E+00  0.22533082396E+03  0.22533082396E+03  0.00000000000E+00 0. -1.
         -1   -1    0    0    0  501 -0.00000000000E+00 -0.00000000000E+00 -0.56318014092E+02  0.56318014092E+02  0.00000000000E+00 0.  1.
          5    1    1    2  502    0  0.30945625203E+02  0.56771844249E+02  0.28474332169E+02  0.70806437639E+02  0.47000000000E+01 0.  1.
         -5    1    1    2    0  502 -0.37023163782E+02 -0.34552332227E+02  0.87576665296E+02  0.10127359292E+03  0.47000000000E+01 0.  1.
        -11    1    1    2    0    0 -0.22993141979E+02 -0.38496120065E+02  0.60601624336E+02  0.75386953184E+02  0.00000000000E+00 0. -1.
         11    1    1    2    0    0  0.29070680558E+02  0.16276608043E+02 -0.76398119344E+01  0.34181854307E+02  0.00000000000E+00 0.  1.
<mgrwt>
<rscale>  0 0.11843412E+03</rscale>
<asrwt>0</asrwt>
<pdfrwt beam="1">  1        1 0.34666280E-01 0.12705787E+03</pdfrwt>
<pdfrwt beam="2">  1       -1 0.86643099E-02 0.12705787E+03</pdfrwt>
<totfact> 0.90235225E+03</totfact>
</mgrwt>
</event>
<event>
 6    1  0.9240440E-006  0.1299187E+03  0.7546771E-02  0.1240237E+00
         -2   -1    0    0    0  501 -0.00000000000E+00  0.00000000000E+00  0.20970180070E+03  0.20970180070E+03  0.00000000000E+00 0.  1.
          2   -1    0    0  501    0  0.00000000000E+00 -0.00000000000E+00 -0.71751150889E+02  0.71751150889E+02  0.00000000000E+00 0. -1.
          5    1    1    2  502    0 -0.33308010372E+02  0.62973571542E+02 -0.12428708808E+02  0.72468317700E+02  0.47000000000E+01 0.  1.
         -5    1    1    2    0  502  0.32189568963E+01 -0.44309653566E+02  0.40823025477E+02  0.60517076035E+02  0.47000000000E+01 0.  1.
        -11    1    1    2    0    0 -0.24015136579E+02 -0.16465414436E+02  0.34219073314E+01  0.29318016768E+02  0.00000000000E+00 0. -1.
         11    1    1    2    0    0  0.54104190054E+02 -0.21985035390E+01  0.10613442581E+03  0.11914954109E+03  0.00000000000E+00 0.  1.
<mgrwt>
<rscale>  0 0.12175048E+03</rscale>
<asrwt>0</asrwt>
<pdfrwt beam="2">  1        2 0.11038639E-01 0.12991874E+03</pdfrwt>
<pdfrwt beam="1">  1       -2 0.32261815E-01 0.12991874E+03</pdfrwt>
<totfact> 0.48088544E+03</totfact>
</mgrwt>
</event>
<event>
 6    1  0.9240440E-006  0.2406444E+03  0.7546771E-02  0.1121962E+00
         -2   -1    0    0    0  501 -0.00000000000E+00  0.00000000000E+00  0.61955654747E+03  0.61955654747E+03  0.00000000000E+00 0.  1.
          2   -1    0    0  501    0  0.00000000000E+00 -0.00000000000E+00 -0.96456762931E+02  0.96456762931E+02  0.00000000000E+00 0. -1.
          5    1    1    2  502    0  0.35957197849E+02 -0.14280819863E+02 -0.17372472922E+02  0.42670302419E+02  0.47000000000E+01 0.  1.
         -5    1    1    2    0  502  0.16965964365E+03  0.16982579443E+02  0.17874627676E+03  0.24707311498E+03  0.47000000000E+01 0.  1.
        -11    1    1    2    0    0 -0.52153390500E+02  0.30485469878E+02  0.15733219614E+03  0.16853118393E+03  0.00000000000E+00 0.  1.
         11    1    1    2    0    0 -0.15346345100E+03 -0.33187229459E+02  0.20439378456E+03  0.25773870908E+03  0.00000000000E+00 0. -1.
<mgrwt>
<rscale>  0 0.23677141E+03</rscale>
<asrwt>0</asrwt>
<pdfrwt beam="2">  1        2 0.14839502E-01 0.24064443E+03</pdfrwt>
<pdfrwt beam="1">  1       -2 0.95316389E-01 0.24064443E+03</pdfrwt>
<totfact> 0.37876220E+02</totfact>
</mgrwt>
</event>
<event>
 6    1  0.9240440E-006  0.1412374E+03  0.7546771E-02  0.1224160E+00
         -2   -1    0    0    0  501 -0.00000000000E+00  0.00000000000E+00  0.25405388176E+02  0.25405388176E+02  0.00000000000E+00 0.  1.
          2   -1    0    0  501    0  0.00000000000E+00 -0.00000000000E+00 -0.71693794618E+03  0.71693794618E+03  0.00000000000E+00 0. -1.
          5    1    1    2  502    0 -0.80919212946E+01  0.10990265277E+02 -0.15203931299E+01  0.14514362416E+02  0.47000000000E+01 0. -1.
         -5    1    1    2    0  502  0.93792909069E+01 -0.76706696018E+02 -0.52255364323E+03  0.52825778591E+03  0.47000000000E+01 0. -1.
        -11    1    1    2    0    0 -0.24787316188E+02 -0.11187398752E+02 -0.31532085460E+02  0.41639420602E+02  0.00000000000E+00 0.  1.
         11    1    1    2    0    0  0.23499946576E+02  0.76903829493E+02 -0.13592643618E+03  0.15793176543E+03  0.00000000000E+00 0. -1.
<mgrwt>
<rscale>  0 0.13224660E+03</rscale>
<asrwt>0</asrwt>
<pdfrwt beam="2">  1        2 0.11029816E+00 0.14123742E+03</pdfrwt>
<pdfrwt beam="1">  1       -2 0.39085209E-02 0.14123742E+03</pdfrwt>
<totfact> 0.11113600E+04</totfact>
</mgrwt>
</event>
<event>
 6    1  0.9240440E-006  0.1373606E+03  0.7546771E-02  0.1228788E+00
         -1   -1    0    0    0  501 -0.00000000000E+00  0.00000000000E+00  0.55892392512E+03  0.55892392512E+03  0.00000000000E+00 0. -1.
          1   -1    0    0  501    0  0.00000000000E+00 -0.00000000000E+00 -0.29138090475E+02  0.29138090475E+02  0.00000000000E+00 0.  1.
          5    1    1    2  502    0  0.46801902177E+02 -0.48617649455E+02  0.15412598158E+03  0.16831815732E+03  0.47000000000E+01 0. -1.
         -5    1    1    2    0  502 -0.60603175939E+02 -0.66316113870E+01  0.57219054165E+02  0.83742661547E+02  0.47000000000E+01 0. -1.
        -11    1    1    2    0    0  0.51025581059E+02  0.29372690881E+02  0.21786495909E+03  0.22568009503E+03  0.00000000000E+00 0. -1.
         11    1    1    2    0    0 -0.37224307297E+02  0.25876569961E+02  0.10057583981E+03  0.11032110170E+03  0.00000000000E+00 0.  1.
<mgrwt>
<rscale>  0 0.12910626E+03</rscale>
<asrwt>0</asrwt>
<pdfrwt beam="2">  1        1 0.44827836E-02 0.13736059E+03</pdfrwt>
<pdfrwt beam="1">  1       -1 0.85988288E-01 0.13736059E+03</pdfrwt>
<totfact> 0.26258818E+03</totfact>
</mgrwt>
</event>
<event>
 6    1  0.9240440E-006  0.2833355E+03  0.7546771E-02  0.1095908E+00
          2   -1    0    0  501    0  0.00000000000E+00  0.00000000000E+00  0.10233437839E+04  0.10233437839E+04  0.00000000000E+00 0. -1.
         -2   -1    0    0    0  501 -0.00000000000E+00 -0.00000000000E+00 -0.75236267709E+02  0.75236267709E+02  0.00000000000E+00 0.  1.
          5    1    1    2  502    0 -0.20339364925E+02  0.74804050425E+02  0.74848353966E+02  0.10785963943E+03  0.47000000000E+01 0. -1.
         -5    1    1    2    0  502 -0.14942773446E+03  0.11457209460E+03  0.46803456580E+03  0.50451348592E+03  0.47000000000E+01 0. -1.
        -11    1    1    2    0    0  0.15337933530E+03 -0.15637030810E+03  0.27897089617E+03  0.35468528960E+03  0.00000000000E+00 0.  1.
         11    1    1    2    0    0  0.16387764083E+02 -0.33005836918E+02  0.12625370028E+03  0.13152163669E+03  0.00000000000E+00 0. -1.
<mgrwt>
<rscale>  0 0.27959891E+03</rscale>
<asrwt>0</asrwt>
<pdfrwt beam="1">  1        2 0.15743750E+00 0.28333546E+03</pdfrwt>
<pdfrwt beam="2">  1       -2 0.11574811E-01 0.28333546E+03</pdfrwt>
<totfact> 0.13323281E+03</totfact>
</mgrwt>
</event>
<event>
 6    1  0.9240440E-006  0.1436877E+03  0.7546771E-02  0.1219372E+00
          2   -1    0    0  501    0  0.00000000000E+00  0.00000000000E+00  0.18732256854E+04  0.18732256854E+04  0.00000000000E+00 0.  1.
         -2   -1    0    0    0  501 -0.00000000000E+00 -0.00000000000E+00 -0.13189584942E+02  0.13189584942E+02  0.00000000000E+00 0. -1.
          5    1    1    2  502    0 -0.64970000096E+02 -0.79376758802E+02  0.13184743131E+04  0.13224667765E+04  0.47000000000E+01 0. -1.
         -5    1    1    2    0  502  0.12152476428E+02  0.32127189046E+02  0.22154232202E+03  0.22423855468E+03  0.47000000000E+01 0. -1.
        -11    1    1    2    0    0  0.47418092510E+02  0.37064473157E+02  0.32237415013E+03  0.32794411618E+03  0.00000000000E+00 0.  1.
         11    1    1    2    0    0  0.53994311575E+01  0.10185096599E+02 -0.23546847692E+01  0.11765822960E+02  0.00000000000E+00 0. -1.
<mgrwt>
<rscale>  0 0.13560240E+03</rscale>
<asrwt>0</asrwt>
<pdfrwt beam="1">  1        2 0.28818836E+00 0.14368767E+03</pdfrwt>
<pdfrwt beam="2">  1       -2 0.20291684E-02 0.14368767E+03</pdfrwt>
<totfact> 0.64822434E+03</totfact>
</mgrwt>
</event>
<event>
 6    1  0.9240440E-006  0.1625871E+03  0.7546771E-02  0.1193096E+00
         -3   -1    0    0    0  501 -0.00000000000E+00  0.00000000000E+00  0.87610670578E+03  0.87610670578E+03  0.00000000000E+00 0.  1.
          3   -1    0    0  501    0  0.00000000000E+00 -0.00000000000E+00 -0.26810784591E+02  0.26810784591E+02  0.00000000000E+00 0. -1.
          5    1    1    2  502    0  0.74534049100E+02 -0.42052725611E+02  0.48568741969E+03  0.49319176377E+03  0.47000000000E+01 0. -1.
         -5    1    1    2    0  502  0.29234540193E+02  0.35440506387E+02  0.57182747916E+02  0.73502683573E+02  0.47000000000E+01 0. -1.
        -11    1    1    2    0    0 -0.26386124415E+02 -0.39038171108E+02  0.83566966644E+02  0.95935625704E+02  0.00000000000E+00 0. -1.
         11    1    1    2    0    0 -0.77382464878E+02  0.45650390332E+02  0.22285878694E+03  0.24028741733E+03  0.00000000000E+00 0.  1.
<mgrwt>
<rscale>  0 0.15616491E+03</rscale>
<asrwt>0</asrwt>
<pdfrwt beam="2">  1        3 0.41247368E-02 0.16258714E+03</pdfrwt>
<pdfrwt beam="1">  1       -3 0.13478563E+00 0.16258714E+03</pdfrwt>
<totfact> 0.32964124E+02</totfact>
</mgrwt>
</event>
<event>
 6    1  0.9240440E-006  0.1740429E+03  0.7546771E-02  0.1179838E+00
          4   -1    0    0  501    0  0.00000000000E+00  0.00000000000E+00  0.69762928503E+02  0.69762928503E+02  0.00000000000E+00 0. -1.
         -4   -1    0    0    0  501 -0.00000000000E+00 -0.00000000000E+00 -0.38218980861E+03  0.38218980861E+03  0.00000000000E+00 0.  1.
          5    1    1    2  502    0 -0.39112067069E+02  0.15743790137E+02  0.10621895031E+02  0.43732543630E+02  0.47000000000E+01 0. -1.
         -5    1    1    2    0  502 -0.13915093978E+02  0.93156961625E+02 -0.15952150110E+03  0.18531337958E+03  0.47000000000E+01 0. -1.
        -11    1    1    2    0    0  0.23530172917E+02 -0.10889681034E+03 -0.88479001988E+02  0.14226987781E+03  0.00000000000E+00 0. -1.
         11    1    1    2    0    0  0.29496988130E+02 -0.39414230744E-02 -0.75048272053E+02  0.80636936093E+02  0.00000000000E+00 0.  1.
<mgrwt>
<rscale>  0 0.16810527E+03</rscale>
<asrwt>0</asrwt>
<pdfrwt beam="1">  1        4 0.10732758E-01 0.17404293E+03</pdfrwt>
<pdfrwt beam="2">  1       -4 0.58798433E-01 0.17404293E+03</pdfrwt>
<totfact> 0.32402855E+02</totfact>
</mgrwt>
</event>
<event>
 6    1  0.9240440E-006  0.1345208E+03  0.7546771E-02  0.1233395E+00
          3   -1    0    0  501    0  0.00000000000E+00  0.00000000000E+00  0.15014365004E+03  0.15014365004E+03  0.00000000000E+00 0. -1.
         -3   -1    0    0    0  501 -0.00000000000E+00 -0.00000000000E+00 -0.10468668569E+03  0.10468668569E+03  0.00000000000E+00 0.  1.
          5    1    1    2  502    0  0.27835496341E+01 -0.43238014671E+02  0.21869056599E+02  0.48760841849E+02  0.47000000000E+01 0.  1.
         -5    1    1    2    0  502  0.14729959736E+02  0.89603522915E+02  0.42822051374E+02  0.10050662225E+03  0.47000000000E+01 0.  1.
        -11    1    1    2    0    0 -0.33820438904E+02 -0.23599219083E+02 -0.49433851748E+02  0.64377410073E+02  0.00000000000E+00 0.  1.
         11    1    1    2    0    0  0.16306929533E+02 -0.22766289160E+02  0.30199708123E+02  0.41185461557E+02  0.00000000000E+00 0. -1.
<mgrwt>
<rscale>  0 0.12607731E+03</rscale>
<asrwt>0</asrwt>
<pdfrwt beam="1">  1        3 0.23099023E-01 0.13452077E+03</pdfrwt>
<pdfrwt beam="2">  1       -3 0.16105644E-01 0.13452077E+03</pdfrwt>
<totfact> 0.13075390E+03</totfact>
</mgrwt>
</event>
<event>
 6    1  0.9240440E-006  0.1506797E+03  0.7546771E-02  0.1210951E+00
          1   -1    0    0  501    0  0.00000000000E+00  0.00000000000E+00  0.22519692285E+02  0.22519692285E+02  0.00000000000E+00 0. -1.
         -1   -1    0    0    0  501 -0.00000000000E+00 -0.00000000000E+00 -0.83945156248E+03  0.83945156248E+03  0.00000000000E+00 0.  1.
          5    1    1    2  502    0 -0.40664887244E+02 -0.87716345378E+02 -0.15124988445E+03  0.17957284830E+03  0.47000000000E+01 0. -1.
         -5    1    1    2    0  502  0.86788592522E+00  0.25111654061E+02 -0.21423004102E+03  0.21574973667E+03  0.47000000000E+01 0.  1.
        -11    1    1    2    0    0  0.28307201887E+02  0.86815239917E+02 -0.34690602873E+03  0.35872270116E+03  0.00000000000E+00 0.  1.
         11    1    1    2    0    0  0.11489799432E+02 -0.24210548601E+02 -0.10454591599E+03  0.10792596863E+03  0.00000000000E+00 0. -1.
<mgrwt>
<rscale>  0 0.14178200E+03</rscale>
<asrwt>0</asrwt>
<pdfrwt beam="1">  1        1 0.34645674E-02 0.15067969E+03</pdfrwt>
<pdfrwt beam="2">  1       -1 0.12914642E+00 0.15067969E+03</pdfrwt>
<totfact> 0.15077895E+03</totfact>
</mgrwt>
</event>
<event>
 6    1  0.9240440E-006  0.1278312E+03  0.7546771E-02  0.1244901E+00
         -1   -1    0    0    0  501 -0.00000000000E+00  0.00000000000E+00  0.44981903051E+03  0.44981903051E+03  0.00000000000E+00 0.  1.
          1   -1    0    0  501    0  0.00000000000E+00 -0.00000000000E+00 -0.31396126878E+02  0.31396126878E+02  0.00000000000E+00 0. -1.
          5    1    1    2  502    0  0.38850874786E+02 -0.31053874193E+02  0.41471381386E+02  0.64928414797E+02  0.47000000000E+01 0.  1.
         -5    1    1    2    0  502 -0.50332565594E+02  0.55228956537E+02  0.11336704459E+03  0.13585941851E+03  0.47000000000E+01 0.  1.
        -11    1    1    2    0    0  0.32351860270E+02 -0.51610375835E+02  0.17939700637E+03  0.18945595702E+03  0.00000000000E+00 0.  1.
         11    1    1    2    0    0 -0.20870169462E+02  0.27435293490E+02  0.84187471293E+02  0.90971367061E+02  0.00000000000E+00 0. -1.
<mgrwt>
<rscale>  0 0.11891335E+03</rscale>
<asrwt>0</asrwt>
<pdfrwt beam="2">  1        1 0.48301737E-02 0.12783120E+03</pdfrwt>
<pdfrwt beam="1">  1       -1 0.69202923E-01 0.12783120E+03</pdfrwt>
<totfact> 0.36652955E+03</totfact>
</mgrwt>
</event>
<event>
 6    1  0.9240440E-006  0.2324252E+03  0.7546771E-02  0.1124944E+00
         -2   -1    0    0    0  501 -0.00000000000E+00  0.00000000000E+00  0.25173570621E+02  0.25173570621E+02  0.00000000000E+00 0.  1.
          2   -1    0    0  501    0  0.00000000000E+00 -0.00000000000E+00 -0.53649001936E+03  0.53649001936E+03  0.00000000000E+00 0. -1.
          5    1    1    2  502    0 -0.21604935237E+01 -0.45023464815E+01  0.11524415428E+02  0.13410481239E+02  0.47000000000E+01 0. -1.
         -5    1    1    2    0  502  0.36712331924E+02 -0.21503863540E+02 -0.31157222091E+03  0.31449888760E+03  0.47000000000E+01 0. -1.
        -11    1    1    2    0    0 -0.24981220553E+02  0.53660540488E+02 -0.18566236251E+03  0.19486925832E+03  0.00000000000E+00 0. -1.
         11    1    1    2    0    0 -0.95706178466E+01 -0.27654330466E+02 -0.25606280748E+02  0.38884962817E+02  0.00000000000E+00 0.  1.
<mgrwt>
<rscale>  0 0.23242521E+03</rscale>
<asrwt>0</asrwt>
<pdfrwt beam="2">  1        2 0.82536921E-01 0.23242521E+03</pdfrwt>
<pdfrwt beam="1">  1       -2 0.38728572E-02 0.23242521E+03</pdfrwt>
<totfact> 0.16307076E+04</totfact>
</mgrwt>
</event>
<event>
 6    1  0.9240440E-006  0.1285982E+03  0.7546771E-02  0.1243863E+00
          2   -1    0    0  501    0  0.00000000000E+00  0.00000000000E+00  0.72848798375E+02  0.72848798375E+02  0.00000000000E+00 0.  1.
         -2   -1    0    0    0  501 -0.00000000000E+00 -0.00000000000E+00 -0.18079407294E+03  0.18079407294E+03  0.00000000000E+00 0. -1.
          5    1    1    2  502    0  0.47526172193E+02  0.67621706859E+01 -0.29065591389E+02  0.56314852379E+02  0.47000000000E+01 0. -1.
         -5    1    1    2    0  502 -0.76693997989E+02  0.10895871787E+01 -0.65503497010E+01  0.77124273799E+02  0.47000000000E+01 0. -1.
        -11    1    1    2    0    0  0.40262462602E+02 -0.10118075938E+02 -0.90058763409E+02  0.99166638655E+02  0.00000000000E+00 0. -1.
         11    1    1    2    0    0 -0.11094636806E+02  0.22663180739E+01  0.17729429932E+02  0.21037106483E+02  0.00000000000E+00 0.  1.
<mgrwt>
<rscale>  0 0.11953700E+03</rscale>
<asrwt>0</asrwt>
<pdfrwt beam="1">  1        2 0.11207507E-01 0.12859823E+03</pdfrwt>
<pdfrwt beam="2">  1       -2 0.27814473E-01 0.12859823E+03</pdfrwt>
<totfact> 0.61578093E+03</totfact>
</mgrwt>
</event>
<event>
 6    1  0.9240440E-006  0.1322069E+03  0.7546771E-02  0.1237718E+00
          2   -1    0    0  501    0  0.00000000000E+00  0.00000000000E+00  0.14995962878E+04  0.14995962878E+04  0.00000000000E+00 0. -1.
         -2   -1    0    0    0  501 -0.00000000000E+00 -0.00000000000E+00 -0.15291499606E+02  0.15291499606E+02  0.00000000000E+00 0.  1.
          5    1    1    2  502    0  0.31654563629E+01  0.54898843698E+02  0.69718975524E+03  0.69937082293E+03  0.47000000000E+01 0. -1.
         -5    1    1    2    0  502  0.39257748435E+02 -0.62214011490E+02  0.58860927181E+03  0.59320714670E+03  0.47000000000E+01 0. -1.
        -11    1    1    2    0    0 -0.46408556137E+02  0.41651829543E+02  0.99324510826E+02  0.11727739526E+03  0.00000000000E+00 0.  1.
         11    1    1    2    0    0  0.39853513393E+01 -0.34336661751E+02  0.99181250295E+02  0.10503242250E+03  0.00000000000E+00 0. -1.
<mgrwt>
<rscale>  0 0.12331999E+03</rscale>
<asrwt>0</asrwt>
<pdfrwt beam="1">  1        2 0.23070701E+00 0.13220692E+03</pdfrwt>
<pdfrwt beam="2">  1       -2 0.23525396E-02 0.13220692E+03</pdfrwt>
<totfact> 0.81130775E+03</totfact>
</mgrwt>
</event>
<event>
 6    1  0.9240440E-006  0.1472982E+03  0.7546771E-02  0.1213523E+00
          1   -1    0    0  501    0  0.00000000000E+00  0.00000000000E+00  0.21015120475E+02  0.21015120475E+02  0.00000000000E+00 0. -1.
         -1   -1    0    0    0  501 -0.00000000000E+00 -0.00000000000E+00 -0.85243933324E+03  0.85243933324E+03  0.00000000000E+00 0.  1.
          5    1    1    2  502    0 -0.47168855360E+02  0.66262967921E+01 -0.49504984812E+02  0.68859583547E+02  0.47000000000E+01 0.  1.
         -5    1    1    2    0  502 -0.12834899969E+02  0.43250333101E+02 -0.43987523372E+03  0.44220768561E+03  0.47000000000E+01 0.  1.
        -11    1    1    2    0    0  0.27988519359E+02  0.25447698592E+02 -0.11228622795E+03  0.11848687508E+03  0.00000000000E+00 0. -1.
         11    1    1    2    0    0  0.32015235970E+02 -0.75324328485E+02 -0.22975776629E+03  0.24390030948E+03  0.00000000000E+00 0.  1.
<mgrwt>
<rscale>  0 0.13985573E+03</rscale>
<asrwt>0</asrwt>
<pdfrwt beam="1">  1        1 0.32330950E-02 0.14729819E+03</pdfrwt>
<pdfrwt beam="2">  1       -1 0.13114453E+00 0.14729819E+03</pdfrwt>
<totfact> 0.15970776E+03</totfact>
</mgrwt>
</event>
<event>
 6    1  0.9240440E-006  0.1287051E+03  0.7546771E-02  0.1243913E+00
         -2   -1    0    0    0  501 -0.00000000000E+00  0.00000000000E+00  0.19313590783E+02  0.19313590783E+02  0.00000000000E+00 0.  1.
          2   -1    0    0  501    0  0.00000000000E+00 -0.00000000000E+00 -0.98208480860E+03  0.98208480860E+03  0.00000000000E+00 0. -1.
          5    1    1    2  502    0  0.46310818276E+02 -0.23371036738E+02 -0.63464959710E+03  0.63678339987E+03  0.47000000000E+01 0. -1.
         -5    1    1    2    0  502 -0.26818821855E+02  0.47065535912E+02 -0.18208906691E+03  0.19003402896E+03  0.47000000000E+01 0. -1.
        -11    1    1    2    0    0 -0.36811576902E+02 -0.86817878390E+01 -0.13619738976E+02  0.40199041330E+02  0.00000000000E+00 0.  1.
         11    1    1    2    0    0  0.17319580481E+02 -0.15012711335E+02 -0.13241281482E+03  0.13438192921E+03  0.00000000000E+00 0. -1.
<mgrwt>
<rscale>  0 0.11950675E+03</rscale>
<asrwt>0</asrwt>
<pdfrwt beam="2">  1        2 0.15108994E+00 0.12870515E+03</pdfrwt>
<pdfrwt beam="1">  1       -2 0.29713222E-02 0.12870515E+03</pdfrwt>
<totfact> 0.11102543E+04</totfact>
</mgrwt>
</event>
<event>
 6    1  0.9240440E-006  0.1276585E+03  0.7546771E-02  0.1244068E+00
         -1   -1    0    0    0  501 -0.00000000000E+00  0.00000000000E+00  0.16598281915E+03  0.16598281915E+03  0.00000000000E+00 0.  1.
          1   -1    0    0  501    0  0.00000000000E+00 -0.00000000000E+00 -0.93606327348E+02  0.93606327348E+02  0.00000000000E+00 0. -1.
          5    1    1    2  502    0  0.50709492600E+02 -0.46996811203E+02 -0.90272843760E+01  0.69883723185E+02  0.47000000000E+01 0. -1.
         -5    1    1    2    0  502 -0.25332797118E+02  0.52350340998E+02 -0.59120036600E+01  0.58645976842E+02  0.47000000000E+01 0. -1.
        -11    1    1    2    0    0 -0.33662513334E+02  0.21066642322E+02  0.94456408517E+02  0.10246453695E+03  0.00000000000E+00 0.  1.
         11    1    1    2    0    0  0.82858178516E+01 -0.26420172118E+02 -0.71406286835E+01  0.28594909516E+02  0.00000000000E+00 0. -1.
<mgrwt>
<rscale>  0 0.11941317E+03</rscale>
<asrwt>0</asrwt>
<pdfrwt beam="2">  1        1 0.14400973E-01 0.12765853E+03</pdfrwt>
<pdfrwt beam="1">  1       -1 0.25535818E-01 0.12765853E+03</pdfrwt>
<totfact> 0.50217107E+03</totfact>
</mgrwt>
</event>
<event>
 6    1  0.9240440E-006  0.1424939E+03  0.7546771E-02  0.1220843E+00
         -2   -1    0    0    0  501 -0.00000000000E+00  0.00000000000E+00  0.13075398039E+02  0.13075398039E+02  0.00000000000E+00 0.  1.
          2   -1    0    0  501    0  0.00000000000E+00 -0.00000000000E+00 -0.14532661562E+04  0.14532661562E+04  0.00000000000E+00 0. -1.
          5    1    1    2  502    0  0.40361501664E+01  0.31046798301E+02 -0.10133950404E+03  0.10616957790E+03  0.47000000000E+01 0.  1.
         -5    1    1    2    0  502 -0.53520609910E+02 -0.78324469930E+02 -0.96138541333E+03  0.96606582655E+03  0.47000000000E+01 0.  1.
        -11    1    1    2    0    0  0.18438042682E+02 -0.26872611026E+02 -0.12303802517E+03  0.12728100518E+03  0.00000000000E+00 0. -1.
         11    1    1    2    0    0  0.31046417061E+02  0.74150282655E+02 -0.25442781561E+03  0.26682514460E+03  0.00000000000E+00 0.  1.
<mgrwt>
<rscale>  0 0.13455952E+03</rscale>
<asrwt>0</asrwt>
<pdfrwt beam="2">  1        2 0.22357941E+00 0.14249390E+03</pdfrwt>
<pdfrwt beam="1">  1       -2 0.20115997E-02 0.14249390E+03</pdfrwt>
<totfact> 0.10807245E+04</totfact>
</mgrwt>
</event>
<event>
 6    1  0.9240440E-006  0.1326733E+03  0.7546771E-02  0.1236564E+00
         -2   -1    0    0    0  501 -0.00000000000E+00  0.00000000000E+00  0.21720974538E+02  0.21720974538E+02  0.00000000000E+00 0.  1.
          2   -1    0    0  501    0  0.00000000000E+00 -0.00000000000E+00 -0.63330240049E+03  0.63330240049E+03  0.00000000000E+00 0. -1.
          5    1    1    2  502    0 -0.48526879435E+02 -0.72593518980E+02 -0.22401949028E+03  0.24048180607E+03  0.47000000000E+01 0. -1.
         -5    1    1    2    0  502  0.17650311688E+02  0.40605311922E+02 -0.14371726448E+03  0.15045619618E+03  0.47000000000E+01 0. -1.
        -11    1    1    2    0    0  0.54078715195E+02  0.17775201044E+02 -0.81114165713E+02  0.99095777350E+02  0.00000000000E+00 0.  1.
         11    1    1    2    0    0 -0.23202147448E+02  0.14213006014E+02 -0.16273050548E+03  0.16498959543E+03  0.00000000000E+00 0. -1.
<mgrwt>
<rscale>  0 0.12404844E+03</rscale>
<asrwt>0</asrwt>
<pdfrwt beam="2">  1        2 0.97431122E-01 0.13267329E+03</pdfrwt>
<pdfrwt beam="1">  1       -2 0.33416889E-02 0.13267329E+03</pdfrwt>
<totfact> 0.16141190E+04</totfact>
</mgrwt>
</event>
<event>
 6    1  0.9240440E-006  0.2808378E+03  0.7546771E-02  0.1095232E+00
         -2   -1    0    0    0  501 -0.00000000000E+00  0.00000000000E+00  0.21585899052E+02  0.21585899052E+02  0.00000000000E+00 0.  1.
          2   -1    0    0  501    0  0.00000000000E+00 -0.00000000000E+00 -0.91344171990E+03  0.91344171990E+03  0.00000000000E+00 0. -1.
          5    1    1    2  502    0 -0.14337009244E+02  0.55689316376E+01 -0.43971067844E+03  0.44000469721E+03  0.47000000000E+01 0. -1.
         -5    1    1    2    0  502 -0.38243963275E+02 -0.26405544361E+02 -0.49414520935E+02  0.67998076291E+02  0.47000000000E+01 0. -1.
        -11    1    1    2    0    0 -0.25143134510E+02  0.45123158248E+02 -0.89053783844E+02  0.10295073113E+03  0.00000000000E+00 0.  1.
         11    1    1    2    0    0  0.77724107030E+02 -0.24286545525E+02 -0.31367683762E+03  0.32407411431E+03  0.00000000000E+00 0. -1.
<mgrwt>
<rscale>  0 0.28083775E+03</rscale>
<asrwt>0</asrwt>
<pdfrwt beam="2">  1        2 0.14052945E+00 0.28083775E+03</pdfrwt>
<pdfrwt beam="1">  1       -2 0.33209085E-02 0.28083775E+03</pdfrwt>
<totfact> 0.10810321E+04</totfact>
</mgrwt>
</event>
<event>
 6    1  0.9240440E-006  0.1900294E+03  0.7546771E-02  0.1163370E+00
         -2   -1    0    0    0  501 -0.00000000000E+00  0.00000000000E+00  0.65039400869E+02  0.65039400869E+02  0.00000000000E+00 0.  1.
          2   -1    0    0  501    0  0.00000000000E+00 -0.00000000000E+00 -0.12235750797E+04  0.12235750797E+04  0.00000000000E+00 0. -1.
          5    1    1    2  502    0  0.33511028739E+02  0.11939860626E+03 -0.80976615573E+03  0.81922056443E+03  0.47000000000E+01 0. -1.
         -5    1    1    2    0  502  0.61514739600E+02 -0.12365028648E+02 -0.27924581644E+03  0.28624687443E+03  0.47000000000E+01 0. -1.
        -11    1    1    2    0    0 -0.76363879246E+02 -0.38585472539E+02 -0.72489806272E+02  0.11213854270E+03  0.00000000000E+00 0. -1.
         11    1    1    2    0    0 -0.18661889092E+02 -0.68448105076E+02  0.29660995552E+01  0.71008499066E+02  0.00000000000E+00 0.  1.
<mgrwt>
<rscale>  0 0.18465814E+03</rscale>
<asrwt>0</asrwt>
<pdfrwt beam="2">  1        2 0.18824231E+00 0.19002943E+03</pdfrwt>
<pdfrwt beam="1">  1       -2 0.10006062E-01 0.19002943E+03</pdfrwt>
<totfact> 0.12892746E+03</totfact>
</mgrwt>
</event>
<event>
 6    1  0.9240440E-006  0.1421944E+03  0.7546771E-02  0.1223531E+00
          2   -1    0    0  501    0  0.00000000000E+00  0.00000000000E+00  0.24030986502E+03  0.24030986502E+03  0.00000000000E+00 0. -1.
         -2   -1    0    0    0  501 -0.00000000000E+00 -0.00000000000E+00 -0.65663396735E+02  0.65663396735E+02  0.00000000000E+00 0.  1.
          5    1    1    2  502    0  0.19622075385E+02 -0.22521633810E+02 -0.28398559892E+02  0.41482743832E+02  0.47000000000E+01 0. -1.
         -5    1    1    2    0  502  0.47993658860E+02  0.17917766958E+02  0.11254166107E+03  0.12374228517E+03  0.47000000000E+01 0. -1.
        -11    1    1    2    0    0 -0.13912019776E+02 -0.14684994388E+02  0.80264438690E+02  0.82774231936E+02  0.00000000000E+00 0. -1.
         11    1    1    2    0    0 -0.53703714468E+02  0.19288861240E+02  0.10238928422E+02  0.57974000818E+02  0.00000000000E+00 0.  1.
<mgrwt>
<rscale>  0 0.13268106E+03</rscale>
<asrwt>0</asrwt>
<pdfrwt beam="1">  1        2 0.36970748E-01 0.14219440E+03</pdfrwt>
<pdfrwt beam="2">  1       -2 0.10102061E-01 0.14219440E+03</pdfrwt>
<totfact> 0.86402359E+03</totfact>
</mgrwt>
</event>
<event>
 6    1  0.9240440E-006  0.2926872E+03  0.7546771E-02  0.1088954E+00
         -2   -1    0    0    0  501 -0.00000000000E+00  0.00000000000E+00  0.20369843889E+02  0.20369843889E+02  0.00000000000E+00 0.  1.
          2   -1    0    0  501    0  0.00000000000E+00 -0.00000000000E+00 -0.10513798096E+04  0.10513798096E+04  0.00000000000E+00 0. -1.
          5    1    1    2  502    0  0.11718977786E+03  0.52009192934E+02 -0.49746456028E+03  0.51374261933E+03  0.47000000000E+01 0. -1.
         -5    1    1    2    0  502 -0.28870528594E+02 -0.82558154044E+01 -0.95714287731E+02  0.10042400502E+03  0.47000000000E+01 0. -1.
        -11    1    1    2    0    0 -0.44304337221E+02 -0.57996772573E+02 -0.15912640178E+03  0.17506487845E+03  0.00000000000E+00 0.  1.
         11    1    1    2    0    0 -0.44014912047E+02  0.14243395044E+02 -0.27870471597E+03  0.28251815073E+03  0.00000000000E+00 0. -1.
<mgrwt>
<rscale>  0 0.29268715E+03</rscale>
<asrwt>0</asrwt>
<pdfrwt beam="2">  1        2 0.16175071E+00 0.29268715E+03</pdfrwt>
<pdfrwt beam="1">  1       -2 0.31338226E-02 0.29268715E+03</pdfrwt>
<totfact> 0.96937012E+03</totfact>
</mgrwt>
</event>
<event>
 6    1  0.9240440E-006  0.2117991E+03  0.7546771E-02  0.1143930E+00
          2   -1    0    0  501    0  0.00000000000E+00  0.00000000000E+00  0.26117820962E+04  0.26117820962E+04  0.00000000000E+00 0. -1.
         -2   -1    0    0    0  501 -0.00000000000E+00 -0.00000000000E+00 -0.18044727272E+02  0.18044727272E+02  0.00000000000E+00 0.  1.
          5    1    1    2  502    0 -0.81290044746E+02  0.87363664918E+02  0.92585679904E+03  0.93352738773E+03  0.47000000000E+01 0. -1.
         -5    1    1    2    0  502 -0.82434776608E+02 -0.38088079677E+02  0.89423510076E+03  0.89884631592E+03  0.47000000000E+01 0. -1.
        -11    1    1    2    0    0  0.13864893833E+03 -0.46646578197E+02  0.74528309445E+03  0.75950399751E+03  0.00000000000E+00 0. -1.
         11    1    1    2    0    0  0.25075883019E+02 -0.26290070439E+01  0.28362374701E+02  0.37949122334E+02  0.00000000000E+00 0.  1.
<mgrwt>
<rscale>  0 0.20704183E+03</rscale>
<asrwt>0</asrwt>
<pdfrwt beam="1">  1        2 0.40181233E+00 0.21179912E+03</pdfrwt>
<pdfrwt beam="2">  1       -2 0.27761140E-02 0.21179912E+03</pdfrwt>
<totfact> 0.16664480E+03</totfact>
</mgrwt>
</event>
<event>
 6    1  0.9240440E-006  0.1284205E+03  0.7546771E-02  0.1245183E+00
         -1   -1    0    0    0  501 -0.00000000000E+00  0.00000000000E+00  0.24105085556E+02  0.24105085556E+02  0.00000000000E+00 0. -1.
          1   -1    0    0  501    0  0.00000000000E+00 -0.00000000000E+00 -0.80983994565E+03  0.80983994565E+03  0.00000000000E+00 0.  1.
          5    1    1    2  502    0  0.55217999172E+02  0.15211147706E+01 -0.18385820213E+03  0.19203455344E+03  0.47000000000E+01 0. -1.
         -5    1    1    2    0  502 -0.54806833386E+02  0.27953496934E+02 -0.49836782361E+03  0.50217304248E+03  0.47000000000E+01 0. -1.
        -11    1    1    2    0    0 -0.23710542184E+02 -0.52795466727E+02 -0.82031486864E+02  0.10039280828E+03  0.00000000000E+00 0.  1.
         11    1    1    2    0    0  0.23299376398E+02  0.23320855023E+02 -0.21477347481E+02  0.39344627007E+02  0.00000000000E+00 0. -1.
<mgrwt>
<rscale>  0 0.11874439E+03</rscale>
<asrwt>0</asrwt>
<pdfrwt beam="2">  1        1 0.12459074E+00 0.12842054E+03</pdfrwt>
<pdfrwt beam="1">  1       -1 0.37084752E-02 0.12842054E+03</pdfrwt>
<totfact> 0.60142440E+03</totfact>
</mgrwt>
</event>
<event>
 6    1  0.9240440E-006  0.1207657E+03  0.7546771E-02  0.1249906E+00
         -4   -1    0    0    0  501 -0.00000000000E+00  0.00000000000E+00  0.47092402580E+03  0.47092402580E+03  0.00000000000E+00 0.  1.
          4   -1    0    0  501    0  0.00000000000E+00 -0.00000000000E+00 -0.28874936714E+02  0.28874936714E+02  0.00000000000E+00 0. -1.
          5    1    1    2  502    0  0.11552496641E+02 -0.43547860172E+02  0.71768135362E+01  0.45863634360E+02  0.47000000000E+01 0. -1.
         -5    1    1    2    0  502  0.11166994268E+02  0.61838110274E+01  0.15889175509E+03  0.15947294791E+03  0.47000000000E+01 0.  1.
        -11    1    1    2    0    0  0.60822483382E+01 -0.25716547712E+02  0.13242064366E+03  0.13503170531E+03  0.00000000000E+00 0.  1.
         11    1    1    2    0    0 -0.28801739247E+02  0.63080596856E+02  0.14355987679E+03  0.15943067493E+03  0.00000000000E+00 0. -1.
<mgrwt>
<rscale>  0 0.11596510E+03</rscale>
<asrwt>0</asrwt>
<pdfrwt beam="2">  1        4 0.44422983E-02 0.12076565E+03</pdfrwt>
<pdfrwt beam="1">  1       -4 0.72449845E-01 0.12076565E+03</pdfrwt>
<totfact> 0.82551683E+02</totfact>
</mgrwt>
</event>
<event>
 6    1  0.9240440E-006  0.1712942E+03  0.7546771E-02  0.1183175E+00
          3   -1    0    0  501    0  0.00000000000E+00  0.00000000000E+00  0.17216496287E+04  0.17216496287E+04  0.00000000000E+00 0. -1.
         -3   -1    0    0    0  501 -0.00000000000E+00 -0.00000000000E+00 -0.17293465102E+02  0.17293465102E+02  0.00000000000E+00 0.  1.
          5    1    1    2  502    0 -0.29285235773E+02  0.28908844492E+02  0.81857692532E+03  0.81962407175E+03  0.47000000000E+01 0.  1.
         -5    1    1    2    0  502 -0.87442321825E+02 -0.38439130575E+02  0.42055590021E+03  0.43129233892E+03  0.47000000000E+01 0.  1.
        -11    1    1    2    0    0  0.83477899148E+02  0.38276528123E+02  0.21228095600E+03  0.23129387483E+03  0.00000000000E+00 0.  1.
         11    1    1    2    0    0  0.33249658449E+02 -0.28746242040E+02  0.25294238208E+03  0.25673280833E+03  0.00000000000E+00 0. -1.
<mgrwt>
<rscale>  0 0.16499003E+03</rscale>
<asrwt>0</asrwt>
<pdfrwt beam="1">  1        3 0.26486904E+00 0.17129421E+03</pdfrwt>
<pdfrwt beam="2">  1       -3 0.26605345E-02 0.17129421E+03</pdfrwt>
<totfact> 0.10296646E+02</totfact>
</mgrwt>
</event>
<event>
 6    1  0.9240440E-006  0.1682330E+03  0.7546771E-02  0.1260961E+00
         -2   -1    0    0    0  501 -0.00000000000E+00  0.00000000000E+00  0.78322057552E+01  0.78322057552E+01  0.00000000000E+00 0.  1.
          2   -1    0    0  501    0  0.00000000000E+00 -0.00000000000E+00 -0.15556000005E+04  0.15556000005E+04  0.00000000000E+00 0. -1.
          5    1    1    2  502    0  0.62287931727E+02 -0.46969859081E+02 -0.11110336114E+04  0.11137790310E+04  0.47000000000E+01 0. -1.
         -5    1    1    2    0  502 -0.38682212964E+02  0.59043557575E+02 -0.36343801456E+03  0.37025901167E+03  0.47000000000E+01 0.  1.
        -11    1    1    2    0    0 -0.81471413190E+01 -0.12612143618E+02 -0.34306077485E+02  0.37447950955E+02  0.00000000000E+00 0. -1.
         11    1    1    2    0    0 -0.15458577444E+02  0.53844512333E+00 -0.38990091250E+02  0.41946212647E+02  0.00000000000E+00 0.  1.
<mgrwt>
<rscale>  0 0.10978884E+03</rscale>
<asrwt>0</asrwt>
<pdfrwt beam="2">  1        2 0.23932338E+00 0.16823298E+03</pdfrwt>
<pdfrwt beam="1">  1       -2 0.12049532E-02 0.16823298E+03</pdfrwt>
<totfact> 0.20228579E+04</totfact>
</mgrwt>
</event>
<event>
 6    1  0.9240440E-006  0.1297205E+03  0.7546771E-02  0.1241492E+00
          2   -1    0    0  501    0  0.00000000000E+00  0.00000000000E+00  0.11906077889E+04  0.11906077889E+04  0.00000000000E+00 0. -1.
         -2   -1    0    0    0  501 -0.00000000000E+00 -0.00000000000E+00 -0.11849981865E+02  0.11849981865E+02  0.00000000000E+00 0.  1.
          5    1    1    2  502    0  0.61389124795E+02  0.22719167642E+02  0.53358498329E+03  0.53760562648E+03  0.47000000000E+01 0.  1.
         -5    1    1    2    0  502 -0.37045064909E+02 -0.47404172566E+02  0.29958068166E+03  0.30559804848E+03  0.47000000000E+01 0.  1.
        -11    1    1    2    0    0  0.17549259322E+02  0.44824101870E+02  0.22321560408E+03  0.22834706593E+03  0.00000000000E+00 0. -1.
         11    1    1    2    0    0 -0.41893319208E+02 -0.20139096946E+02  0.12237653799E+03  0.13090702987E+03  0.00000000000E+00 0.  1.
<mgrwt>
<rscale>  0 0.12097828E+03</rscale>
<asrwt>0</asrwt>
<pdfrwt beam="1">  1        2 0.18317034E+00 0.12972052E+03</pdfrwt>
<pdfrwt beam="2">  1       -2 0.18230751E-02 0.12972052E+03</pdfrwt>
<totfact> 0.17165189E+04</totfact>
</mgrwt>
</event>
<event>
 6    1  0.9240440E-006  0.1267530E+03  0.7546771E-02  0.1247125E+00
          2   -1    0    0  501    0  0.00000000000E+00  0.00000000000E+00  0.40362270883E+03  0.40362270883E+03  0.00000000000E+00 0. -1.
         -2   -1    0    0    0  501 -0.00000000000E+00 -0.00000000000E+00 -0.30652351175E+02  0.30652351175E+02  0.00000000000E+00 0.  1.
          5    1    1    2  502    0  0.16088454505E+02  0.48527758394E+02  0.47338814186E+02  0.69834339917E+02  0.47000000000E+01 0. -1.
         -5    1    1    2    0  502 -0.10666513344E+02 -0.68778271556E+02  0.13908882070E+03  0.15560210535E+03  0.47000000000E+01 0. -1.
        -11    1    1    2    0    0 -0.16996488023E+02  0.48858322213E+02  0.63087254174E+02  0.81584421882E+02  0.00000000000E+00 0.  1.
         11    1    1    2    0    0  0.11574546862E+02 -0.28607809050E+02  0.12345546859E+03  0.12725419285E+03  0.00000000000E+00 0. -1.
<mgrwt>
<rscale>  0 0.11759094E+03</rscale>
<asrwt>0</asrwt>
<pdfrwt beam="1">  1        2 0.62095797E-01 0.12675302E+03</pdfrwt>
<pdfrwt beam="2">  1       -2 0.47157466E-02 0.12675302E+03</pdfrwt>
<totfact> 0.15843280E+04</totfact>
</mgrwt>
</event>
<event>
 6    1  0.9240440E-006  0.1255975E+03  0.7546771E-02  0.1248604E+00
         -1   -1    0    0    0  501 -0.00000000000E+00  0.00000000000E+00  0.17159908087E+03  0.17159908087E+03  0.00000000000E+00 0.  1.
          1   -1    0    0  501    0  0.00000000000E+00 -0.00000000000E+00 -0.75789563331E+02  0.75789563331E+02  0.00000000000E+00 0. -1.
          5    1    1    2  502    0 -0.13976205577E+02  0.13705984560E+02  0.69286748380E+02  0.72152143670E+02  0.47000000000E+01 0. -1.
         -5    1    1    2    0  502  0.79218864907E+01 -0.24290226709E+02 -0.48628951565E+02  0.55132896980E+02  0.47000000000E+01 0. -1.
        -11    1    1    2    0    0  0.21474094649E+02 -0.17625217720E+02  0.82563012124E+02  0.87111629601E+02  0.00000000000E+00 0.  1.
         11    1    1    2    0    0 -0.15419775563E+02  0.28209459869E+02 -0.74112914054E+01  0.32991973946E+02  0.00000000000E+00 0. -1.
<mgrwt>
<rscale>  0 0.11672252E+03</rscale>
<asrwt>0</asrwt>
<pdfrwt beam="2">  1        1 0.11659933E-01 0.12559752E+03</pdfrwt>
<pdfrwt beam="1">  1       -1 0.26399859E-01 0.12559752E+03</pdfrwt>
<totfact> 0.62527320E+03</totfact>
</mgrwt>
</event>
<event>
 6    1  0.9240440E-006  0.3975644E+03  0.7546771E-02  0.1044626E+00
         -2   -1    0    0    0  501 -0.00000000000E+00  0.00000000000E+00  0.28512181206E+02  0.28512181206E+02  0.00000000000E+00 0. -1.
          2   -1    0    0  501    0  0.00000000000E+00 -0.00000000000E+00 -0.13858766635E+04  0.13858766635E+04  0.00000000000E+00 0.  1.
          5    1    1    2  502    0  0.17329947923E+02 -0.19001097318E+02 -0.31885089711E+03  0.31992085487E+03  0.47000000000E+01 0.  1.
         -5    1    1    2    0  502 -0.12643989418E+03 -0.91872192468E+02 -0.57017471673E+03  0.59122655911E+03  0.47000000000E+01 0.  1.
        -11    1    1    2    0    0  0.62454764772E+02  0.12088954341E+03 -0.36011236536E+03  0.38496206960E+03  0.00000000000E+00 0.  1.
         11    1    1    2    0    0  0.46655181488E+02 -0.10016253625E+02 -0.10822650306E+03  0.11827936110E+03  0.00000000000E+00 0. -1.
<mgrwt>
<rscale>  0 0.39756442E+03</rscale>
<asrwt>0</asrwt>
<pdfrwt beam="2">  1        2 0.21321179E+00 0.39756442E+03</pdfrwt>
<pdfrwt beam="1">  1       -2 0.43864895E-02 0.39756442E+03</pdfrwt>
<totfact> 0.37680850E+03</totfact>
</mgrwt>
</event>
<event>
 6    1  0.9240440E-006  0.3079310E+03  0.7546771E-02  0.1081342E+00
          1   -1    0    0  501    0  0.00000000000E+00  0.00000000000E+00  0.17173966049E+04  0.17173966049E+04  0.00000000000E+00 0. -1.
         -1   -1    0    0    0  501 -0.00000000000E+00 -0.00000000000E+00 -0.13803086333E+02  0.13803086333E+02  0.00000000000E+00 0.  1.
          5    1    1    2  502    0 -0.41609334678E+01 -0.21573905685E+01  0.12899922507E+04  0.12900093273E+04  0.47000000000E+01 0. -1.
         -5    1    1    2    0  502  0.16726480348E+02  0.45824040572E+02  0.97988749691E+02  0.10956049884E+03  0.47000000000E+01 0.  1.
        -11    1    1    2    0    0  0.63854499722E+01 -0.69004778343E+02  0.19547765923E+03  0.20739804403E+03  0.00000000000E+00 0.  1.
         11    1    1    2    0    0 -0.18950996853E+02  0.25338128340E+02  0.12013485893E+03  0.12423182105E+03  0.00000000000E+00 0. -1.
<mgrwt>
<rscale>  0 0.30793099E+03</rscale>
<asrwt>0</asrwt>
<pdfrwt beam="1">  1        1 0.26421469E+00 0.30793099E+03</pdfrwt>
<pdfrwt beam="2">  1       -1 0.21235531E-02 0.30793099E+03</pdfrwt>
<totfact> 0.32339739E+03</totfact>
</mgrwt>
</event>
<event>
 6    1  0.9240440E-006  0.1273848E+03  0.7546771E-02  0.1246541E+00
          2   -1    0    0  501    0  0.00000000000E+00  0.00000000000E+00  0.88969076629E+03  0.88969076629E+03  0.00000000000E+00 0. -1.
         -2   -1    0    0    0  501 -0.00000000000E+00 -0.00000000000E+00 -0.14016813044E+02  0.14016813044E+02  0.00000000000E+00 0.  1.
          5    1    1    2  502    0 -0.12234723700E+02 -0.38617756151E+02  0.46399155380E+03  0.46578028249E+03  0.47000000000E+01 0.  1.
         -5    1    1    2    0  502 -0.88363426260E+01  0.51178663716E+02  0.10426177321E+03  0.11657591485E+03  0.47000000000E+01 0.  1.
        -11    1    1    2    0    0  0.49878606233E+02 -0.16318139954E+02  0.26361357871E+03  0.26878667365E+03  0.00000000000E+00 0. -1.
         11    1    1    2    0    0 -0.28807539907E+02  0.37572323893E+01  0.43807047526E+02  0.52564708347E+02  0.00000000000E+00 0.  1.
<mgrwt>
<rscale>  0 0.11793611E+03</rscale>
<asrwt>0</asrwt>
<pdfrwt beam="1">  1        2 0.13687546E+00 0.12738484E+03</pdfrwt>
<pdfrwt beam="2">  1       -2 0.21564335E-02 0.12738484E+03</pdfrwt>
<totfact> 0.20194417E+04</totfact>
</mgrwt>
</event>
<event>
 6    1  0.9240440E-006  0.2669702E+03  0.7546771E-02  0.1103026E+00
          3   -1    0    0  501    0  0.00000000000E+00  0.00000000000E+00  0.30403245975E+03  0.30403245975E+03  0.00000000000E+00 0. -1.
         -3   -1    0    0    0  501 -0.00000000000E+00 -0.00000000000E+00 -0.58606477055E+02  0.58606477055E+02  0.00000000000E+00 0.  1.
          5    1    1    2  502    0 -0.75360778450E+02  0.76958902532E+02  0.96808004647E+02  0.14489927319E+03  0.47000000000E+01 0.  1.
         -5    1    1    2    0  502  0.28489818384E+02 -0.17568483489E+02  0.63981057279E+02  0.72360120606E+02  0.47000000000E+01 0.  1.
        -11    1    1    2    0    0 -0.12189409246E+02 -0.57849906605E+02  0.42729862936E+02  0.72945421916E+02  0.00000000000E+00 0.  1.
         11    1    1    2    0    0  0.59060369312E+02 -0.15405124384E+01  0.41907057828E+02  0.72434121087E+02  0.00000000000E+00 0. -1.
<mgrwt>
<rscale>  0 0.26697020E+03</rscale>
<asrwt>0</asrwt>
<pdfrwt beam="1">  1        3 0.46774224E-01 0.26697020E+03</pdfrwt>
<pdfrwt beam="2">  1       -3 0.90163812E-02 0.26697020E+03</pdfrwt>
<totfact> 0.10143760E+03</totfact>
</mgrwt>
</event>
<event>
 6    1  0.9240440E-006  0.1337922E+03  0.7546771E-02  0.1231380E+00
         -1   -1    0    0    0  501 -0.00000000000E+00  0.00000000000E+00  0.28377830457E+02  0.28377830457E+02  0.00000000000E+00 0.  1.
          1   -1    0    0  501    0  0.00000000000E+00 -0.00000000000E+00 -0.55686487327E+03  0.55686487327E+03  0.00000000000E+00 0. -1.
          5    1    1    2  502    0  0.21569348421E+02 -0.47726552705E+02 -0.21794445893E+03  0.22419843398E+03  0.47000000000E+01 0. -1.
         -5    1    1    2    0  502  0.37482498520E+02  0.62819093133E+02 -0.14193010602E+03  0.15974173266E+03  0.47000000000E+01 0.  1.
        -11    1    1    2    0    0 -0.34609843909E+02  0.37847611716E+02 -0.87168892551E+02  0.10113703000E+03  0.00000000000E+00 0.  1.
         11    1    1    2    0    0 -0.24442003032E+02 -0.52940152144E+02 -0.81443585315E+02  0.10016550709E+03  0.00000000000E+00 0. -1.
<mgrwt>
<rscale>  0 0.12739071E+03</rscale>
<asrwt>0</asrwt>
<pdfrwt beam="2">  1        1 0.85671516E-01 0.13379219E+03</pdfrwt>
<pdfrwt beam="1">  1       -1 0.43658202E-02 0.13379219E+03</pdfrwt>
<totfact> 0.80525033E+03</totfact>
</mgrwt>
</event>
<event>
 6    1  0.9240440E-006  0.1570461E+03  0.7546771E-02  0.1200236E+00
         -1   -1    0    0    0  501 -0.00000000000E+00  0.00000000000E+00  0.24927817888E+03  0.24927817888E+03  0.00000000000E+00 0.  1.
          1   -1    0    0  501    0  0.00000000000E+00 -0.00000000000E+00 -0.84246020468E+02  0.84246020468E+02  0.00000000000E+00 0. -1.
          5    1    1    2  502    0 -0.98393680762E+01  0.69121375852E+02  0.36494137613E+02  0.78920782079E+02  0.47000000000E+01 0.  1.
         -5    1    1    2    0  502  0.85111288178E+02 -0.11046159436E+02  0.69660709272E+02  0.11063748655E+03  0.47000000000E+01 0.  1.
        -11    1    1    2    0    0 -0.90142750580E+02 -0.61792281044E+02  0.33480707679E+02  0.11430205276E+03  0.00000000000E+00 0.  1.
         11    1    1    2    0    0  0.14870830479E+02  0.37170646274E+01  0.25396603850E+02  0.29663877961E+02  0.00000000000E+00 0. -1.
<mgrwt>
<rscale>  0 0.15019291E+03</rscale>
<asrwt>0</asrwt>
<pdfrwt beam="2">  1        1 0.12960926E-01 0.15704613E+03</pdfrwt>
<pdfrwt beam="1">  1       -1 0.38350489E-01 0.15704613E+03</pdfrwt>
<totfact> 0.29287938E+03</totfact>
</mgrwt>
</event>
<event>
 6    1  0.9240440E-006  0.1343679E+03  0.7546771E-02  0.1234590E+00
          3   -1    0    0  501    0  0.00000000000E+00  0.00000000000E+00  0.18826062008E+03  0.18826062008E+03  0.00000000000E+00 0. -1.
         -3   -1    0    0    0  501 -0.00000000000E+00 -0.00000000000E+00 -0.75369318985E+02  0.75369318985E+02  0.00000000000E+00 0.  1.
          5    1    1    2  502    0  0.67221818270E+02  0.57868609848E+02  0.36415396607E+02  0.95998541485E+02  0.47000000000E+01 0.  1.
         -5    1    1    2    0  502 -0.21571641607E+02 -0.39266453487E+02  0.98544921601E+01  0.46112808490E+02  0.47000000000E+01 0.  1.
        -11    1    1    2    0    0 -0.44245655626E+01 -0.19671754041E+02 -0.18226094125E+02  0.27179867449E+02  0.00000000000E+00 0.  1.
         11    1    1    2    0    0 -0.41225611100E+02  0.10695976806E+01  0.84847506451E+02  0.94338721640E+02  0.00000000000E+00 0. -1.
<mgrwt>
<rscale>  0 0.12530706E+03</rscale>
<asrwt>0</asrwt>
<pdfrwt beam="1">  1        3 0.28963172E-01 0.13436790E+03</pdfrwt>
<pdfrwt beam="2">  1       -3 0.11595280E-01 0.13436790E+03</pdfrwt>
<totfact> 0.15140193E+03</totfact>
</mgrwt>
</event>
<event>
 6    1  0.9240440E-006  0.2259173E+03  0.7546771E-02  0.1129547E+00
         -1   -1    0    0    0  501 -0.00000000000E+00  0.00000000000E+00  0.11491227808E+03  0.11491227808E+03  0.00000000000E+00 0.  1.
          1   -1    0    0  501    0  0.00000000000E+00 -0.00000000000E+00 -0.11103820604E+03  0.11103820604E+03  0.00000000000E+00 0. -1.
          5    1    1    2  502    0  0.85642276182E+01  0.36568379566E+02 -0.38851457460E+02  0.54241295389E+02  0.47000000000E+01 0. -1.
         -5    1    1    2    0  502 -0.34669049154E+02 -0.46340486299E+02  0.22204442340E+02  0.62165190415E+02  0.47000000000E+01 0.  1.
        -11    1    1    2    0    0  0.20629742076E+02 -0.43446094352E+02  0.27800498966E+02  0.55551931698E+02  0.00000000000E+00 0.  1.
         11    1    1    2    0    0  0.54750794599E+01  0.53218201084E+02 -0.72794117996E+01  0.53992066620E+02  0.00000000000E+00 0. -1.
<mgrwt>
<rscale>  0 0.22591727E+03</rscale>
<asrwt>0</asrwt>
<pdfrwt beam="2">  1        1 0.17082801E-01 0.22591727E+03</pdfrwt>
<pdfrwt beam="1">  1       -1 0.17678812E-01 0.22591727E+03</pdfrwt>
<totfact> 0.75809925E+03</totfact>
</mgrwt>
</event>
<event>
 6    1  0.9240440E-006  0.1437548E+03  0.7546771E-02  0.1217446E+00
         -2   -1    0    0    0  501 -0.00000000000E+00  0.00000000000E+00  0.53393244930E+02  0.53393244930E+02  0.00000000000E+00 0.  1.
          2   -1    0    0  501    0  0.00000000000E+00 -0.00000000000E+00 -0.34261111524E+03  0.34261111524E+03  0.00000000000E+00 0. -1.
          5    1    1    2  502    0 -0.62832347425E+02 -0.17630335248E+02 -0.13735121442E+03  0.15213868248E+03  0.47000000000E+01 0.  1.
         -5    1    1    2    0  502  0.14604077731E+02  0.69737658197E+02 -0.68578341345E+02  0.99003530032E+02  0.47000000000E+01 0.  1.
        -11    1    1    2    0    0  0.16059975501E+02  0.15820093619E+02  0.10337799913E+02  0.24800570200E+02  0.00000000000E+00 0.  1.
         11    1    1    2    0    0  0.32168294193E+02 -0.67927416569E+02 -0.93626114456E+02  0.12006157746E+03  0.00000000000E+00 0. -1.
<mgrwt>
<rscale>  0 0.13698369E+03</rscale>
<asrwt>0</asrwt>
<pdfrwt beam="2">  1        2 0.52709402E-01 0.14375475E+03</pdfrwt>
<pdfrwt beam="1">  1       -2 0.82143454E-02 0.14375475E+03</pdfrwt>
<totfact> 0.81916729E+03</totfact>
</mgrwt>
</event>
<event>
 6    1  0.9240440E-006  0.2303499E+03  0.7546771E-02  0.1129392E+00
         -3   -1    0    0    0  501 -0.00000000000E+00  0.00000000000E+00  0.23835390508E+03  0.23835390508E+03  0.00000000000E+00 0.  1.
          3   -1    0    0  501    0  0.00000000000E+00 -0.00000000000E+00 -0.21845549051E+03  0.21845549051E+03  0.00000000000E+00 0. -1.
          5    1    1    2  502    0  0.14739122212E+02  0.23746690748E+02 -0.29227421518E+02  0.40712150688E+02  0.47000000000E+01 0.  1.
         -5    1    1    2    0  502 -0.16909393691E+03  0.92920507580E+02 -0.12657949596E+02  0.19341482341E+03  0.47000000000E+01 0.  1.
        -11    1    1    2    0    0  0.22495832770E+01 -0.34863986473E+02  0.32097079696E+02  0.47442393518E+02  0.00000000000E+00 0.  1.
         11    1    1    2    0    0  0.15210523142E+03 -0.81803211855E+02  0.29686705988E+02  0.17524002798E+03  0.00000000000E+00 0. -1.
<mgrwt>
<rscale>  0 0.22613294E+03</rscale>
<asrwt>0</asrwt>
<pdfrwt beam="2">  1        3 0.33608537E-01 0.23034985E+03</pdfrwt>
<pdfrwt beam="1">  1       -3 0.36669832E-01 0.23034985E+03</pdfrwt>
<totfact> 0.15768871E+02</totfact>
</mgrwt>
</event>
<event>
 6    1  0.9240440E-006  0.1297385E+03  0.7546771E-02  0.1243161E+00
          2   -1    0    0  501    0  0.00000000000E+00  0.00000000000E+00  0.89876193668E+03  0.89876193668E+03  0.00000000000E+00 0. -1.
         -2   -1    0    0    0  501 -0.00000000000E+00 -0.00000000000E+00 -0.16700032770E+02  0.16700032770E+02  0.00000000000E+00 0.  1.
          5    1    1    2  502    0  0.37432396338E+02  0.29683849358E+02  0.23125573149E+03  0.23618555958E+03  0.47000000000E+01 0. -1.
         -5    1    1    2    0  502 -0.55825597772E+02 -0.59156760996E+02  0.44857389513E+03  0.45591298416E+03  0.47000000000E+01 0. -1.
        -11    1    1    2    0    0 -0.25950442034E+02  0.73693766362E+01  0.17627611988E+02  0.32225236355E+02  0.00000000000E+00 0.  1.
         11    1    1    2    0    0  0.44343643468E+02  0.22103535002E+02  0.18460466530E+03  0.19113818935E+03  0.00000000000E+00 0. -1.
<mgrwt>
<rscale>  0 0.11996143E+03</rscale>
<asrwt>0</asrwt>
<pdfrwt beam="1">  1        2 0.13827103E+00 0.12973848E+03</pdfrwt>
<pdfrwt beam="2">  1       -2 0.25692365E-02 0.12973848E+03</pdfrwt>
<totfact> 0.15463691E+04</totfact>
</mgrwt>
</event>
<event>
 6    1  0.9240440E-006  0.1293909E+03  0.7546771E-02  0.1242370E+00
         -2   -1    0    0    0  501 -0.00000000000E+00  0.00000000000E+00  0.22419576151E+02  0.22419576151E+02  0.00000000000E+00 0.  1.
          2   -1    0    0  501    0  0.00000000000E+00 -0.00000000000E+00 -0.57242151697E+03  0.57242151697E+03  0.00000000000E+00 0. -1.
          5    1    1    2  502    0 -0.39136353126E+02  0.48937677061E+02 -0.20039364767E+03  0.21001489089E+03  0.47000000000E+01 0. -1.
         -5    1    1    2    0  502  0.58779582281E+02 -0.21899630017E+02 -0.11922311409E+03  0.13479938435E+03  0.47000000000E+01 0. -1.
        -11    1    1    2    0    0 -0.22510591547E+02  0.27753149516E+02 -0.49825343193E+02  0.61314997057E+02  0.00000000000E+00 0.  1.
         11    1    1    2    0    0  0.28673623914E+01 -0.54791196559E+02 -0.18055983587E+03  0.18871182082E+03  0.00000000000E+00 0. -1.
<mgrwt>
<rscale>  0 0.12044168E+03</rscale>
<asrwt>0</asrwt>
<pdfrwt beam="2">  1        2 0.88064831E-01 0.12939092E+03</pdfrwt>
<pdfrwt beam="1">  1       -2 0.34491662E-02 0.12939092E+03</pdfrwt>
<totfact> 0.17246633E+04</totfact>
</mgrwt>
</event>
<event>
 6    1  0.9240440E-006  0.1380084E+03  0.7546771E-02  0.1228114E+00
          2   -1    0    0  501    0  0.00000000000E+00  0.00000000000E+00  0.95484849859E+03  0.95484849859E+03  0.00000000000E+00 0. -1.
         -2   -1    0    0    0  501 -0.00000000000E+00 -0.00000000000E+00 -0.16126810887E+02  0.16126810887E+02  0.00000000000E+00 0.  1.
          5    1    1    2  502    0  0.65387185050E+02  0.59207813530E+02  0.28067121024E+03  0.29424389103E+03  0.47000000000E+01 0.  1.
         -5    1    1    2    0  502 -0.12703909084E+02 -0.33767265115E+02  0.32084223733E+03  0.32289851154E+03  0.47000000000E+01 0.  1.
        -11    1    1    2    0    0 -0.16845853949E+02  0.27251427084E+02  0.48155363802E+02  0.57839105598E+02  0.00000000000E+00 0.  1.
         11    1    1    2    0    0 -0.35837422017E+02 -0.52691975499E+02  0.28905287632E+03  0.29599380130E+03  0.00000000000E+00 0. -1.
<mgrwt>
<rscale>  0 0.12955711E+03</rscale>
<asrwt>0</asrwt>
<pdfrwt beam="1">  1        2 0.14689973E+00 0.13800840E+03</pdfrwt>
<pdfrwt beam="2">  1       -2 0.24810486E-02 0.13800840E+03</pdfrwt>
<totfact> 0.15083582E+04</totfact>
</mgrwt>
</event>
<event>
 6    1  0.9240440E-006  0.1513801E+03  0.7546771E-02  0.1211781E+00
          1   -1    0    0  501    0  0.00000000000E+00  0.00000000000E+00  0.34265470896E+03  0.34265470896E+03  0.00000000000E+00 0. -1.
         -1   -1    0    0    0  501 -0.00000000000E+00 -0.00000000000E+00 -0.51670590281E+02  0.51670590281E+02  0.00000000000E+00 0.  1.
          5    1    1    2  502    0  0.29084082103E+02  0.46392290810E+02  0.95196521352E+02  0.10992086315E+03  0.47000000000E+01 0. -1.
         -5    1    1    2    0  502 -0.87927155978E+02 -0.10520220694E+02  0.61252449533E+02  0.10777667825E+03  0.47000000000E+01 0.  1.
        -11    1    1    2    0    0  0.44486783030E+02 -0.61976625297E+02  0.12288185411E+03  0.14463791349E+03  0.00000000000E+00 0. -1.
         11    1    1    2    0    0  0.14356290845E+02  0.26104555181E+02  0.11653293685E+02  0.31989844353E+02  0.00000000000E+00 0.  1.
<mgrwt>
<rscale>  0 0.14115648E+03</rscale>
<asrwt>0</asrwt>
<pdfrwt beam="1">  1        1 0.52716108E-01 0.15138011E+03</pdfrwt>
<pdfrwt beam="2">  1       -1 0.79493218E-02 0.15138011E+03</pdfrwt>
<totfact> 0.61880087E+03</totfact>
</mgrwt>
</event>
<event>
 6    1  0.9240440E-006  0.1345963E+03  0.7546771E-02  0.1232200E+00
          1   -1    0    0  501    0  0.00000000000E+00  0.00000000000E+00  0.18695499962E+03  0.18695499962E+03  0.00000000000E+00 0. -1.
         -1   -1    0    0    0  501 -0.00000000000E+00 -0.00000000000E+00 -0.77595017001E+02  0.77595017001E+02  0.00000000000E+00 0.  1.
          5    1    1    2  502    0 -0.90625203413E+02  0.19191899323E+01  0.51368654254E+02  0.10429496356E+03  0.47000000000E+01 0. -1.
         -5    1    1    2    0  502  0.40937848785E+02 -0.57550587727E+01  0.60791493264E+01  0.42048474659E+02  0.47000000000E+01 0. -1.
        -11    1    1    2    0    0  0.21048121185E+02  0.11015124643E+02 -0.25801957363E+02  0.35072744120E+02  0.00000000000E+00 0.  1.
         11    1    1    2    0    0  0.28639233444E+02 -0.71792558025E+01  0.77714136398E+02  0.83133834281E+02  0.00000000000E+00 0. -1.
<mgrwt>
<rscale>  0 0.12685377E+03</rscale>
<asrwt>0</asrwt>
<pdfrwt beam="1">  1        1 0.28762307E-01 0.13459625E+03</pdfrwt>
<pdfrwt beam="2">  1       -1 0.11937695E-01 0.13459625E+03</pdfrwt>
<totfact> 0.70038017E+03</totfact>
</mgrwt>
</event>
<event>
 6    1  0.9240440E-006  0.1378790E+03  0.7546771E-02  0.1229019E+00
          2   -1    0    0  501    0  0.00000000000E+00  0.00000000000E+00  0.32193501932E+03  0.32193501932E+03  0.00000000000E+00 0.  1.
         -2   -1    0    0    0  501 -0.00000000000E+00 -0.00000000000E+00 -0.56688875442E+02  0.56688875442E+02  0.00000000000E+00 0. -1.
          5    1    1    2  502    0 -0.39606929067E+02  0.27124709054E+02  0.77909299135E+02  0.91631913454E+02  0.47000000000E+01 0. -1.
         -5    1    1    2    0  502  0.89455791070E+02  0.29088858852E+01  0.15066412990E+03  0.17530707405E+03  0.47000000000E+01 0. -1.
        -11    1    1    2    0    0 -0.18950698244E+02 -0.89941600570E+01  0.62712704323E+02  0.66127960520E+02  0.00000000000E+00 0.  1.
         11    1    1    2    0    0 -0.30898163759E+02 -0.21039434882E+02 -0.26039989483E+02  0.45556946738E+02  0.00000000000E+00 0. -1.
<mgrwt>
<rscale>  0 0.12895220E+03</rscale>
<asrwt>0</asrwt>
<pdfrwt beam="1">  1        2 0.49528464E-01 0.13787897E+03</pdfrwt>
<pdfrwt beam="2">  1       -2 0.87213656E-02 0.13787897E+03</pdfrwt>
<totfact> 0.79525300E+03</totfact>
</mgrwt>
</event>
<event>
 6    1  0.9240440E-006  0.1484783E+03  0.7546771E-02  0.1211914E+00
         -3   -1    0    0    0  501 -0.00000000000E+00  0.00000000000E+00  0.31801250471E+03  0.31801250471E+03  0.00000000000E+00 0.  1.
          3   -1    0    0  501    0  0.00000000000E+00 -0.00000000000E+00 -0.82861469358E+02  0.82861469358E+02  0.00000000000E+00 0. -1.
          5    1    1    2  502    0 -0.19030087234E+02 -0.70748695751E+02  0.17118467962E+02  0.75383380901E+02  0.47000000000E+01 0.  1.
         -5    1    1    2    0  502 -0.57255981864E+02  0.46236297640E+02 -0.27018674774E+01  0.73793175609E+02  0.47000000000E+01 0.  1.
        -11    1    1    2    0    0  0.61781679331E+01  0.40462026773E+02  0.40191857787E+02  0.57364891719E+02  0.00000000000E+00 0. -1.
         11    1    1    2    0    0  0.70107901165E+02 -0.15949628662E+02  0.18054257708E+03  0.19433252584E+03  0.00000000000E+00 0.  1.
<mgrwt>
<rscale>  0 0.14105711E+03</rscale>
<asrwt>0</asrwt>
<pdfrwt beam="2">  1        3 0.12747919E-01 0.14847830E+03</pdfrwt>
<pdfrwt beam="1">  1       -3 0.48925000E-01 0.14847830E+03</pdfrwt>
<totfact> 0.48085415E+02</totfact>
</mgrwt>
</event>
<event>
 6    1  0.9240440E-006  0.2392036E+03  0.7546771E-02  0.1122858E+00
          1   -1    0    0  501    0  0.00000000000E+00  0.00000000000E+00  0.28293406766E+03  0.28293406766E+03  0.00000000000E+00 0. -1.
         -1   -1    0    0    0  501 -0.00000000000E+00 -0.00000000000E+00 -0.19744884806E+03  0.19744884806E+03  0.00000000000E+00 0.  1.
          5    1    1    2  502    0 -0.10277220912E+03 -0.16523737933E+03 -0.25940681684E+02  0.19636834639E+03  0.47000000000E+01 0.  1.
         -5    1    1    2    0  502 -0.33031951625E+02  0.13087950549E+02  0.23482834739E+02  0.42847844813E+02  0.47000000000E+01 0.  1.
        -11    1    1    2    0    0  0.33818927652E+02  0.10487824424E+03  0.59424090450E+02  0.12519739817E+03  0.00000000000E+00 0. -1.
         11    1    1    2    0    0  0.10198523309E+03  0.47271184542E+02  0.28518976087E+02  0.11596932635E+03  0.00000000000E+00 0.  1.
<mgrwt>
<rscale>  0 0.23545562E+03</rscale>
<asrwt>0</asrwt>
<pdfrwt beam="1">  1        1 0.43528318E-01 0.23920356E+03</pdfrwt>
<pdfrwt beam="2">  1       -1 0.30376746E-01 0.23920356E+03</pdfrwt>
<totfact> 0.94461750E+02</totfact>
</mgrwt>
</event>
<event>
 6    1  0.9240440E-006  0.1267927E+03  0.7546771E-02  0.1248048E+00
         -1   -1    0    0    0  501 -0.00000000000E+00  0.00000000000E+00  0.36508654299E+02  0.36508654299E+02  0.00000000000E+00 0.  1.
          1   -1    0    0  501    0  0.00000000000E+00 -0.00000000000E+00 -0.32811831338E+03  0.32811831338E+03  0.00000000000E+00 0. -1.
          5    1    1    2  502    0 -0.29302674141E+02 -0.27802553303E+02 -0.14343123040E+03  0.14908466231E+03  0.47000000000E+01 0. -1.
         -5    1    1    2    0  502  0.30215382487E+02  0.49033554638E+02 -0.28197935386E+02  0.64299862981E+02  0.47000000000E+01 0. -1.
        -11    1    1    2    0    0 -0.37799942478E+02 -0.37570613611E+01 -0.97513241890E+02  0.10465076925E+03  0.00000000000E+00 0. -1.
         11    1    1    2    0    0  0.36887234132E+02 -0.17473939974E+02 -0.22467251413E+02  0.46591673142E+02  0.00000000000E+00 0.  1.
<mgrwt>
<rscale>  0 0.11704785E+03</rscale>
<asrwt>0</asrwt>
<pdfrwt beam="2">  1        1 0.50479738E-01 0.12679269E+03</pdfrwt>
<pdfrwt beam="1">  1       -1 0.56167163E-02 0.12679269E+03</pdfrwt>
<totfact> 0.10853065E+04</totfact>
</mgrwt>
</event>
<event>
 6    1  0.1115568E-005  0.2366557E+03  0.7546771E-02  0.1122041E+00
         -1   -1    0    0    0  501 -0.00000000000E+00  0.00000000000E+00  0.51798771224E+03  0.51798771224E+03  0.00000000000E+00 0.  1.
          1   -1    0    0  501    0  0.00000000000E+00 -0.00000000000E+00 -0.27030529963E+02  0.27030529963E+02  0.00000000000E+00 0. -1.
          5    1    1    2  502    0  0.37398471851E+02 -0.60154645059E+01  0.14856345138E+03  0.15338846305E+03  0.47000000000E+01 0.  1.
         -5    1    1    2    0  502 -0.73345340156E+02 -0.85567590409E+01  0.72985530495E+02  0.10393139424E+03  0.47000000000E+01 0.  1.
        -11    1    1    2    0    0  0.50143260920E+01  0.45344270126E+02  0.20423526777E+03  0.20926846609E+03  0.00000000000E+00 0.  1.
         11    1    1    2    0    0  0.30932542213E+02 -0.30772046579E+02  0.65172932640E+02  0.78429918828E+02  0.00000000000E+00 0. -1.
<mgrwt>
<rscale>  0 0.23665572E+03</rscale>
<asrwt>0</asrwt>
<pdfrwt beam="2">  1        1 0.41585435E-02 0.23665572E+03</pdfrwt>
<pdfrwt beam="1">  1       -1 0.79690410E-01 0.23665572E+03</pdfrwt>
<totfact> 0.35090946E+03</totfact>
</mgrwt>
</event>
<event>
 6    1  0.9240440E-006  0.1253337E+03  0.7546771E-02  0.1249964E+00
          2   -1    0    0  501    0  0.00000000000E+00  0.00000000000E+00  0.29114941439E+03  0.29114941439E+03  0.00000000000E+00 0. -1.
         -2   -1    0    0    0  501 -0.00000000000E+00 -0.00000000000E+00 -0.40790584816E+02  0.40790584816E+02  0.00000000000E+00 0.  1.
          5    1    1    2  502    0  0.61344221670E+02  0.22084996940E+02  0.66799900926E+02  0.93462170881E+02  0.47000000000E+01 0. -1.
         -5    1    1    2    0  502 -0.56092139062E+02 -0.14500088996E+02  0.92254828309E+02  0.10903955242E+03  0.47000000000E+01 0. -1.
        -11    1    1    2    0    0  0.22672803138E+02  0.19265674475E+02  0.85168529370E+02  0.90215855647E+02  0.00000000000E+00 0. -1.
         11    1    1    2    0    0 -0.27924885745E+02 -0.26850582420E+02  0.61355709737E+01  0.39222420263E+02  0.00000000000E+00 0.  1.
<mgrwt>
<rscale>  0 0.11593137E+03</rscale>
<asrwt>0</asrwt>
<pdfrwt beam="1">  1        2 0.44792216E-01 0.12533372E+03</pdfrwt>
<pdfrwt beam="2">  1       -2 0.62754748E-02 0.12533372E+03</pdfrwt>
<totfact> 0.14552514E+04</totfact>
</mgrwt>
</event>
<event>
 6    1  0.9240440E-006  0.1451503E+03  0.7546771E-02  0.1217101E+00
         -1   -1    0    0    0  501 -0.00000000000E+00  0.00000000000E+00  0.37811863760E+03  0.37811863760E+03  0.00000000000E+00 0.  1.
          1   -1    0    0  501    0  0.00000000000E+00 -0.00000000000E+00 -0.47331684274E+02  0.47331684274E+02  0.00000000000E+00 0. -1.
          5    1    1    2  502    0 -0.52257049028E+02 -0.68252218604E+01  0.81345644382E+02  0.97039098751E+02  0.47000000000E+01 0. -1.
         -5    1    1    2    0  502  0.34991400404E+02  0.78556379549E+02  0.55572018757E+02  0.10249801041E+03  0.47000000000E+01 0. -1.
        -11    1    1    2    0    0  0.15954346809E+02  0.88586434842E+01  0.27002228022E+01  0.18447437482E+02  0.00000000000E+00 0. -1.
         11    1    1    2    0    0  0.13113018151E+01 -0.80589801173E+02  0.19116906739E+03  0.20746577523E+03  0.00000000000E+00 0.  1.
<mgrwt>
<rscale>  0 0.13723337E+03</rscale>
<asrwt>0</asrwt>
<pdfrwt beam="2">  1        1 0.72817978E-02 0.14515031E+03</pdfrwt>
<pdfrwt beam="1">  1       -1 0.58172096E-01 0.14515031E+03</pdfrwt>
<totfact> 0.29535868E+03</totfact>
</mgrwt>
</event>
<event>
 6    1  0.9240440E-006  0.1903170E+03  0.7546771E-02  0.1169511E+00
          1   -1    0    0  501    0  0.00000000000E+00  0.00000000000E+00  0.20661774794E+04  0.20661774794E+04  0.00000000000E+00 0. -1.
         -1   -1    0    0    0  501 -0.00000000000E+00 -0.00000000000E+00 -0.20100975096E+02  0.20100975096E+02  0.00000000000E+00 0.  1.
          5    1    1    2  502    0  0.65059733292E+02  0.67631592392E+02  0.42679197071E+03  0.43701290307E+03  0.47000000000E+01 0. -1.
         -5    1    1    2    0  502  0.31322327388E+02 -0.62305627649E+01  0.12714883692E+04  0.12718980585E+04  0.47000000000E+01 0.  1.
        -11    1    1    2    0    0 -0.31999680172E+02 -0.74162392092E+02  0.19575717558E+03  0.21176617228E+03  0.00000000000E+00 0.  1.
         11    1    1    2    0    0 -0.64382380508E+02  0.12761362465E+02  0.15203898878E+03  0.16560132065E+03  0.00000000000E+00 0. -1.
<mgrwt>
<rscale>  0 0.17824672E+03</rscale>
<asrwt>0</asrwt>
<pdfrwt beam="1">  1        1 0.31787329E+00 0.19031700E+03</pdfrwt>
<pdfrwt beam="2">  1       -1 0.30924593E-02 0.19031700E+03</pdfrwt>
<totfact> 0.11098665E+03</totfact>
</mgrwt>
</event>
<event>
 6    1  0.9240440E-006  0.1269797E+03  0.7546771E-02  0.1247264E+00
          1   -1    0    0  501    0  0.00000000000E+00  0.00000000000E+00  0.35372808175E+02  0.35372808175E+02  0.00000000000E+00 0. -1.
         -1   -1    0    0    0  501 -0.00000000000E+00 -0.00000000000E+00 -0.35504694009E+03  0.35504694009E+03  0.00000000000E+00 0.  1.
          5    1    1    2  502    0 -0.18893154272E+02 -0.71750978700E+02 -0.80737978336E+02  0.10975365765E+03  0.47000000000E+01 0.  1.
         -5    1    1    2    0  502  0.16371272389E+02  0.49579841135E+02 -0.66391956501E+02  0.84594096098E+02  0.47000000000E+01 0.  1.
        -11    1    1    2    0    0 -0.26874747081E+02 -0.56953952880E+01 -0.14380786220E+03  0.14640830164E+03  0.00000000000E+00 0.  1.
         11    1    1    2    0    0  0.29396628963E+02  0.27866532853E+02 -0.28736334878E+02  0.49663692874E+02  0.00000000000E+00 0. -1.
<mgrwt>
<rscale>  0 0.11750871E+03</rscale>
<asrwt>0</asrwt>
<pdfrwt beam="1">  1        1 0.54419705E-02 0.12697965E+03</pdfrwt>
<pdfrwt beam="2">  1       -1 0.54622606E-01 0.12697965E+03</pdfrwt>
<totfact> 0.48909106E+03</totfact>
</mgrwt>
</event>
<event>
 6    1  0.9240440E-006  0.1332654E+03  0.7546771E-02  0.1236693E+00
          1   -1    0    0  501    0  0.00000000000E+00  0.00000000000E+00  0.49467348721E+02  0.49467348721E+02  0.00000000000E+00 0. -1.
         -1   -1    0    0    0  501 -0.00000000000E+00 -0.00000000000E+00 -0.27991695283E+03  0.27991695283E+03  0.00000000000E+00 0.  1.
          5    1    1    2  502    0 -0.57111255120E+02 -0.12140900230E+02 -0.51190498346E+02  0.77792377780E+02  0.47000000000E+01 0.  1.
         -5    1    1    2    0  502  0.66677029176E+02 -0.33095345789E+02 -0.57564777676E+02  0.94217417506E+02  0.47000000000E+01 0.  1.
        -11    1    1    2    0    0  0.15082219864E+02  0.30054639068E+02 -0.12386172831E+03  0.12834516908E+03  0.00000000000E+00 0.  1.
         11    1    1    2    0    0 -0.24647993920E+02  0.15181606951E+02  0.21674002210E+01  0.29029337189E+02  0.00000000000E+00 0. -1.
<mgrwt>
<rscale>  0 0.12396677E+03</rscale>
<asrwt>0</asrwt>
<pdfrwt beam="1">  1        1 0.76103611E-02 0.13326537E+03</pdfrwt>
<pdfrwt beam="2">  1       -1 0.43064148E-01 0.13326537E+03</pdfrwt>
<totfact> 0.47989354E+03</totfact>
</mgrwt>
</event>
<event>
 6    1  0.9240440E-006  0.1194798E+03  0.7546771E-02  0.1257617E+00
          2   -1    0    0  501    0  0.00000000000E+00  0.00000000000E+00  0.73737524617E+02  0.73737524617E+02  0.00000000000E+00 0. -1.
         -2   -1    0    0    0  501 -0.00000000000E+00 -0.00000000000E+00 -0.24669937914E+03  0.24669937914E+03  0.00000000000E+00 0.  1.
          5    1    1    2  502    0 -0.25163249912E+02 -0.17331288682E+00  0.53398398273E+02  0.59217380232E+02  0.47000000000E+01 0. -1.
         -5    1    1    2    0  502  0.30145258539E+02  0.21848441898E+02 -0.47348158884E+02  0.60415471325E+02  0.47000000000E+01 0.  1.
        -11    1    1    2    0    0  0.21657785121E+02  0.26372572767E+02 -0.89399133642E+02  0.95691051549E+02  0.00000000000E+00 0. -1.
         11    1    1    2    0    0 -0.26639793748E+02 -0.48047701778E+02 -0.89612960266E+02  0.10511300065E+03  0.00000000000E+00 0.  1.
<mgrwt>
<rscale>  0 0.11161035E+03</rscale>
<asrwt>0</asrwt>
<pdfrwt beam="1">  1        2 0.11344235E-01 0.11947976E+03</pdfrwt>
<pdfrwt beam="2">  1       -2 0.37953750E-01 0.11947976E+03</pdfrwt>
<totfact> 0.34290801E+03</totfact>
</mgrwt>
</event>
<event>
 6    1  0.9240440E-006  0.1435652E+03  0.7546771E-02  0.1218694E+00
          1   -1    0    0  501    0  0.00000000000E+00  0.00000000000E+00  0.22826591174E+03  0.22826591174E+03  0.00000000000E+00 0. -1.
         -1   -1    0    0    0  501 -0.00000000000E+00 -0.00000000000E+00 -0.74307424358E+02  0.74307424358E+02  0.00000000000E+00 0.  1.
          5    1    1    2  502    0  0.76398558397E+02  0.45621372625E+02  0.16223115507E+02  0.90572229972E+02  0.47000000000E+01 0.  1.
         -5    1    1    2    0  502 -0.58880844285E+01 -0.41715577230E+02  0.55715577632E+02  0.70008388874E+02  0.47000000000E+01 0.  1.
        -11    1    1    2    0    0 -0.52110170837E+02  0.69648700964E+01 -0.46009186234E+01  0.52774499262E+02  0.00000000000E+00 0.  1.
         11    1    1    2    0    0 -0.18400303132E+02 -0.10870665492E+02  0.86620712872E+02  0.89218217994E+02  0.00000000000E+00 0. -1.
<mgrwt>
<rscale>  0 0.13608657E+03</rscale>
<asrwt>0</asrwt>
<pdfrwt beam="1">  1        1 0.35117832E-01 0.14356518E+03</pdfrwt>
<pdfrwt beam="2">  1       -1 0.11431912E-01 0.14356518E+03</pdfrwt>
<totfact> 0.58667964E+03</totfact>
</mgrwt>
</event>
<event>
 6    1  0.9240440E-006  0.1405946E+03  0.7546771E-02  0.1227549E+00
          1   -1    0    0  501    0  0.00000000000E+00  0.00000000000E+00  0.92585026397E+02  0.92585026397E+02  0.00000000000E+00 0. -1.
         -1   -1    0    0    0  501 -0.00000000000E+00 -0.00000000000E+00 -0.19449543287E+03  0.19449543287E+03  0.00000000000E+00 0.  1.
          5    1    1    2  502    0 -0.47159792832E+02 -0.26072347042E+01  0.61986368446E+02  0.78072041128E+02  0.47000000000E+01 0. -1.
         -5    1    1    2    0  502 -0.15760457690E+02 -0.10922846139E+02 -0.59349571104E+02  0.62547279594E+02  0.47000000000E+01 0. -1.
        -11    1    1    2    0    0  0.81479239492E+02  0.44422622477E+01 -0.78690055319E+02  0.11336103814E+03  0.00000000000E+00 0.  1.
         11    1    1    2    0    0 -0.18558988970E+02  0.90878185955E+01 -0.25857148494E+02  0.33100100403E+02  0.00000000000E+00 0. -1.
<mgrwt>
<rscale>  0 0.12993684E+03</rscale>
<asrwt>0</asrwt>
<pdfrwt beam="1">  1        1 0.14243850E-01 0.14059460E+03</pdfrwt>
<pdfrwt beam="2">  1       -1 0.29922374E-01 0.14059460E+03</pdfrwt>
<totfact> 0.39371134E+03</totfact>
</mgrwt>
</event>
<event>
 6    1  0.9240440E-006  0.1273599E+03  0.7546771E-02  0.1248144E+00
          1   -1    0    0  501    0  0.00000000000E+00  0.00000000000E+00  0.10986228849E+03  0.10986228849E+03  0.00000000000E+00 0. -1.
         -1   -1    0    0    0  501 -0.00000000000E+00 -0.00000000000E+00 -0.10824927468E+03  0.10824927468E+03  0.00000000000E+00 0.  1.
          5    1    1    2  502    0  0.43777321529E+02 -0.60001971482E+02 -0.85252032856E+01  0.74909675964E+02  0.47000000000E+01 0.  1.
         -5    1    1    2    0  502 -0.25134126442E+02  0.44239736005E+02  0.12048522691E+02  0.52498909063E+02  0.47000000000E+01 0.  1.
        -11    1    1    2    0    0 -0.10127024260E+01  0.22638411331E+02  0.39294389749E+02  0.45360470672E+02  0.00000000000E+00 0. -1.
         11    1    1    2    0    0 -0.17630492661E+02 -0.68761758540E+01 -0.41204695339E+02  0.45342507472E+02  0.00000000000E+00 0.  1.
<mgrwt>
<rscale>  0 0.11699188E+03</rscale>
<asrwt>0</asrwt>
<pdfrwt beam="1">  1        1 0.16901891E-01 0.12735986E+03</pdfrwt>
<pdfrwt beam="2">  1       -1 0.16653735E-01 0.12735986E+03</pdfrwt>
<totfact> 0.81239732E+03</totfact>
</mgrwt>
</event>
<event>
 6    1  0.9240440E-006  0.1628958E+03  0.7546771E-02  0.1192872E+00
          2   -1    0    0  501    0  0.00000000000E+00  0.00000000000E+00  0.11373179121E+04  0.11373179121E+04  0.00000000000E+00 0. -1.
         -2   -1    0    0    0  501 -0.00000000000E+00 -0.00000000000E+00 -0.23723680033E+02  0.23723680033E+02  0.00000000000E+00 0.  1.
          5    1    1    2  502    0  0.52355281072E+02 -0.55261610179E+02  0.41841434300E+03  0.42530879775E+03  0.47000000000E+01 0. -1.
         -5    1    1    2    0  502  0.51170232721E+02  0.69209845764E+02  0.40788558853E+03  0.41689463752E+03  0.47000000000E+01 0. -1.
        -11    1    1    2    0    0 -0.51516778422E+02  0.34736853341E+02  0.92549891931E+02  0.11147246268E+03  0.00000000000E+00 0.  1.
         11    1    1    2    0    0 -0.52008735370E+02 -0.48685088926E+02  0.19474440859E+03  0.20736569416E+03  0.00000000000E+00 0. -1.
<mgrwt>
<rscale>  0 0.15635715E+03</rscale>
<asrwt>0</asrwt>
<pdfrwt beam="1">  1        2 0.17497194E+00 0.16289582E+03</pdfrwt>
<pdfrwt beam="2">  1       -2 0.36497978E-02 0.16289582E+03</pdfrwt>
<totfact> 0.67267092E+03</totfact>
</mgrwt>
</event>
<event>
 6    1  0.9240440E-006  0.1357880E+03  0.7546771E-02  0.1226842E+00
         -1   -1    0    0    0  501 -0.00000000000E+00  0.00000000000E+00  0.90079673806E+01  0.90079673806E+01  0.00000000000E+00 0.  1.
          1   -1    0    0  501    0  0.00000000000E+00 -0.00000000000E+00 -0.20184570114E+04  0.20184570114E+04  0.00000000000E+00 0. -1.
          5    1    1    2  502    0 -0.22261343188E+02 -0.81505671207E+02 -0.11857150873E+04  0.11887308779E+04  0.47000000000E+01 0. -1.
         -5    1    1    2    0  502 -0.28517785625E+02  0.29971299614E+02 -0.25590796616E+03  0.25927306077E+03  0.47000000000E+01 0.  1.
        -11    1    1    2    0    0 -0.60289941635E+01 -0.20702829016E+02 -0.70809191864E+02  0.74019575467E+02  0.00000000000E+00 0. -1.
         11    1    1    2    0    0  0.56808122976E+02  0.72237200609E+02 -0.49701679876E+03  0.50544146470E+03  0.00000000000E+00 0.  1.
<mgrwt>
<rscale>  0 0.13041455E+03</rscale>
<asrwt>0</asrwt>
<pdfrwt beam="2">  1        1 0.31053224E+00 0.13578799E+03</pdfrwt>
<pdfrwt beam="1">  1       -1 0.13858394E-02 0.13578799E+03</pdfrwt>
<totfact> 0.38170230E+03</totfact>
</mgrwt>
</event>
<event>
 6    1  0.9240440E-006  0.1263526E+03  0.7546771E-02  0.1247766E+00
         -1   -1    0    0    0  501 -0.00000000000E+00  0.00000000000E+00  0.25441682681E+02  0.25441682681E+02  0.00000000000E+00 0.  1.
          1   -1    0    0  501    0  0.00000000000E+00 -0.00000000000E+00 -0.48441779985E+03  0.48441779985E+03  0.00000000000E+00 0. -1.
          5    1    1    2  502    0  0.53714684818E+02  0.11901565395E+02 -0.15961581931E+03  0.16889705266E+03  0.47000000000E+01 0.  1.
         -5    1    1    2    0  502 -0.63407769649E+02 -0.27609513630E+02 -0.13804810503E+03  0.15447394537E+03  0.47000000000E+01 0.  1.
        -11    1    1    2    0    0 -0.18605461741E+02 -0.25596150170E+02 -0.11133897333E+03  0.11574840427E+03  0.00000000000E+00 0. -1.
         11    1    1    2    0    0  0.28298546572E+02  0.41304098406E+02 -0.49973219494E+02  0.70740080222E+02  0.00000000000E+00 0.  1.
<mgrwt>
<rscale>  0 0.11721374E+03</rscale>
<asrwt>0</asrwt>
<pdfrwt beam="2">  1        1 0.74525816E-01 0.12635264E+03</pdfrwt>
<pdfrwt beam="1">  1       -1 0.39141050E-02 0.12635264E+03</pdfrwt>
<totfact> 0.11305272E+04</totfact>
</mgrwt>
</event>
<event>
 6    1  0.9240440E-006  0.2313981E+03  0.7546771E-02  0.1125660E+00
         -2   -1    0    0    0  501 -0.00000000000E+00  0.00000000000E+00  0.36426409089E+02  0.36426409089E+02  0.00000000000E+00 0.  1.
          2   -1    0    0  501    0  0.00000000000E+00 -0.00000000000E+00 -0.36748818840E+03  0.36748818840E+03  0.00000000000E+00 0. -1.
          5    1    1    2  502    0  0.45837669879E+02 -0.51908556124E+02 -0.39694811446E+02  0.79958478191E+02  0.47000000000E+01 0.  1.
         -5    1    1    2    0  502 -0.10354178176E+02  0.19283433000E+02 -0.15363687657E+03  0.15525926586E+03  0.47000000000E+01 0.  1.
        -11    1    1    2    0    0 -0.53821069896E+02 -0.74277639013E+00 -0.10697071831E+03  0.11974971339E+03  0.00000000000E+00 0. -1.
         11    1    1    2    0    0  0.18337578193E+02  0.33367899514E+02 -0.30759372985E+02  0.48947140043E+02  0.00000000000E+00 0.  1.
<mgrwt>
<rscale>  0 0.23139814E+03</rscale>
<asrwt>0</asrwt>
<pdfrwt beam="2">  1        2 0.56536641E-01 0.23139814E+03</pdfrwt>
<pdfrwt beam="1">  1       -2 0.56040633E-02 0.23139814E+03</pdfrwt>
<totfact> 0.14132264E+04</totfact>
</mgrwt>
</event>
<event>
 6    1  0.9240440E-006  0.3165071E+03  0.7546771E-02  0.1077268E+00
          2   -1    0    0  501    0  0.00000000000E+00  0.00000000000E+00  0.72208208892E+03  0.72208208892E+03  0.00000000000E+00 0. -1.
         -2   -1    0    0    0  501 -0.00000000000E+00 -0.00000000000E+00 -0.34683292509E+02  0.34683292509E+02  0.00000000000E+00 0.  1.
          5    1    1    2  502    0 -0.46788339512E+01  0.22591598773E+00  0.30671458204E+03  0.30678635458E+03  0.47000000000E+01 0.  1.
         -5    1    1    2    0  502 -0.97231171886E+02  0.21647618076E+02  0.17175174257E+03  0.19860330116E+03  0.47000000000E+01 0.  1.
        -11    1    1    2    0    0  0.40116298603E+02 -0.14136430259E+02  0.17572433813E+03  0.18079878065E+03  0.00000000000E+00 0. -1.
         11    1    1    2    0    0  0.61793707234E+02 -0.77371038048E+01  0.33208133682E+02  0.70576945044E+02  0.00000000000E+00 0.  1.
<mgrwt>
<rscale>  0 0.31650709E+03</rscale>
<asrwt>0</asrwt>
<pdfrwt beam="1">  1        2 0.11108954E+00 0.31650709E+03</pdfrwt>
<pdfrwt beam="2">  1       -2 0.53358917E-02 0.31650709E+03</pdfrwt>
<totfact> 0.71681622E+03</totfact>
</mgrwt>
</event>
<event>
 6    1  0.9240440E-006  0.1260101E+03  0.7546771E-02  0.1247991E+00
          2   -1    0    0  501    0  0.00000000000E+00  0.00000000000E+00  0.33873564859E+03  0.33873564859E+03  0.00000000000E+00 0. -1.
         -2   -1    0    0    0  501 -0.00000000000E+00 -0.00000000000E+00 -0.38645688698E+02  0.38645688698E+02  0.00000000000E+00 0.  1.
          5    1    1    2  502    0 -0.31561210206E+02  0.71987062045E+01  0.17441668785E+01  0.32757647638E+02  0.47000000000E+01 0. -1.
         -5    1    1    2    0  502  0.23416325787E+02 -0.20857390657E+02  0.22013389421E+03  0.22240588220E+03  0.47000000000E+01 0. -1.
        -11    1    1    2    0    0 -0.10812581335E+02  0.50049546982E+02  0.54699612140E+02  0.74926074476E+02  0.00000000000E+00 0.  1.
         11    1    1    2    0    0  0.18957465754E+02 -0.36390862529E+02  0.23512286667E+02  0.47291732974E+02  0.00000000000E+00 0. -1.
<mgrwt>
<rscale>  0 0.11708149E+03</rscale>
<asrwt>0</asrwt>
<pdfrwt beam="1">  1        2 0.52113175E-01 0.12601013E+03</pdfrwt>
<pdfrwt beam="2">  1       -2 0.59454908E-02 0.12601013E+03</pdfrwt>
<totfact> 0.13464084E+04</totfact>
</mgrwt>
</event>
<event>
 6    1  0.9240440E-006  0.1531433E+03  0.7546771E-02  0.1206635E+00
          2   -1    0    0  501    0  0.00000000000E+00  0.00000000000E+00  0.65181390508E+03  0.65181390508E+03  0.00000000000E+00 0. -1.
         -2   -1    0    0    0  501 -0.00000000000E+00 -0.00000000000E+00 -0.29654748672E+02  0.29654748672E+02  0.00000000000E+00 0.  1.
          5    1    1    2  502    0 -0.50560980645E+02 -0.28619735223E+02  0.48923009071E+02  0.76098967303E+02  0.47000000000E+01 0.  1.
         -5    1    1    2    0  502 -0.37166553433E+02  0.17059168866E+02  0.33066677804E+03  0.33321911115E+03  0.47000000000E+01 0.  1.
        -11    1    1    2    0    0  0.85097413145E+01  0.98295213632E+01 -0.36430776485E+01  0.13502118435E+02  0.00000000000E+00 0.  1.
         11    1    1    2    0    0  0.79217792763E+02  0.17310449934E+01  0.24621244695E+03  0.25864845687E+03  0.00000000000E+00 0. -1.
<mgrwt>
<rscale>  0 0.14509316E+03</rscale>
<asrwt>0</asrwt>
<pdfrwt beam="1">  1        2 0.10027905E+00 0.15314334E+03</pdfrwt>
<pdfrwt beam="2">  1       -2 0.45622695E-02 0.15314334E+03</pdfrwt>
<totfact> 0.99250076E+03</totfact>
</mgrwt>
</event>
<event>
 6    1  0.9240440E-006  0.1462013E+03  0.7546771E-02  0.1214870E+00
         -4   -1    0    0    0  501 -0.00000000000E+00  0.00000000000E+00  0.11501732035E+03  0.11501732035E+03  0.00000000000E+00 0.  1.
          4   -1    0    0  501    0  0.00000000000E+00 -0.00000000000E+00 -0.16758178128E+03  0.16758178128E+03  0.00000000000E+00 0. -1.
          5    1    1    2  502    0 -0.42074283478E+02  0.17841006065E+02 -0.82283533267E+02  0.94240207313E+02  0.47000000000E+01 0.  1.
         -5    1    1    2    0  502  0.33907184933E+02  0.57605097468E+02  0.11840810060E+02  0.68046596001E+02  0.47000000000E+01 0.  1.
        -11    1    1    2    0    0  0.37031929707E+02 -0.66431139902E+02  0.36954530198E+02  0.84558248969E+02  0.00000000000E+00 0.  1.
         11    1    1    2    0    0 -0.28864831162E+02 -0.90149636318E+01 -0.19076267914E+02  0.35754049348E+02  0.00000000000E+00 0. -1.
<mgrwt>
<rscale>  0 0.13886053E+03</rscale>
<asrwt>0</asrwt>
<pdfrwt beam="2">  1        4 0.25781812E-01 0.14620133E+03</pdfrwt>
<pdfrwt beam="1">  1       -4 0.17694972E-01 0.14620133E+03</pdfrwt>
<totfact> 0.66834246E+02</totfact>
</mgrwt>
</event>
<event>
 6    1  0.9240440E-006  0.3289573E+03  0.7546771E-02  0.1112012E+00
         -2   -1    0    0    0  501 -0.00000000000E+00  0.00000000000E+00  0.14829938490E+03  0.14829938490E+03  0.00000000000E+00 0.  1.
          2   -1    0    0  501    0  0.00000000000E+00 -0.00000000000E+00 -0.42524996001E+03  0.42524996001E+03  0.00000000000E+00 0. -1.
          5    1    1    2  502    0  0.41211800980E+02 -0.38009586291E+02 -0.36526326678E+03  0.36957067693E+03  0.47000000000E+01 0. -1.
         -5    1    1    2    0  502  0.16139364702E+02  0.65088685181E+02  0.51765182444E+02  0.84845389651E+02  0.47000000000E+01 0.  1.
        -11    1    1    2    0    0  0.28878868562E+01  0.30155020836E+02  0.10118340930E+02  0.31938158922E+02  0.00000000000E+00 0.  1.
         11    1    1    2    0    0 -0.60239052538E+02 -0.57234119726E+02  0.26429168292E+02  0.87195119405E+02  0.00000000000E+00 0. -1.
<mgrwt>
<rscale>  0 0.25205609E+03</rscale>
<asrwt>0</asrwt>
<pdfrwt beam="2">  1        2 0.65423072E-01 0.32895731E+03</pdfrwt>
<pdfrwt beam="1">  1       -2 0.22815290E-01 0.32895731E+03</pdfrwt>
<totfact> 0.12498813E+03</totfact>
</mgrwt>
</event>
<event>
 6    1  0.9240440E-006  0.2916228E+03  0.7546771E-02  0.1126759E+00
         -2   -1    0    0    0  501 -0.00000000000E+00  0.00000000000E+00  0.44998922666E+02  0.44998922666E+02  0.00000000000E+00 0.  1.
          2   -1    0    0  501    0  0.00000000000E+00 -0.00000000000E+00 -0.20597403427E+04  0.20597403427E+04  0.00000000000E+00 0. -1.
          5    1    1    2  502    0  0.48133565830E+02  0.40751153398E+02 -0.15158529689E+04  0.15171716481E+04  0.47000000000E+01 0. -1.
         -5    1    1    2    0  502 -0.11069833963E+03 -0.77579542747E+02 -0.44053233497E+03  0.46082918311E+03  0.47000000000E+01 0.  1.
        -11    1    1    2    0    0  0.63815258258E+02  0.60511603901E+02 -0.39347199106E+02  0.96344400308E+02  0.00000000000E+00 0.  1.
         11    1    1    2    0    0 -0.12504844542E+01 -0.23683214552E+02 -0.19008917091E+02  0.30394033820E+02  0.00000000000E+00 0. -1.
<mgrwt>
<rscale>  0 0.22983080E+03</rscale>
<asrwt>0</asrwt>
<pdfrwt beam="2">  1        2 0.31688307E+00 0.29162276E+03</pdfrwt>
<pdfrwt beam="1">  1       -2 0.69229126E-02 0.29162276E+03</pdfrwt>
<totfact> 0.81734213E+02</totfact>
</mgrwt>
</event>
<event>
 6    1  0.9240440E-006  0.1433402E+03  0.7546771E-02  0.1222915E+00
          1   -1    0    0  501    0  0.00000000000E+00  0.00000000000E+00  0.61983940368E+03  0.61983940368E+03  0.00000000000E+00 0. -1.
         -1   -1    0    0    0  501 -0.00000000000E+00 -0.00000000000E+00 -0.25344357367E+02  0.25344357367E+02  0.00000000000E+00 0.  1.
          5    1    1    2  502    0 -0.48155822363E+02 -0.39246355491E+02  0.13177050576E+03  0.14575601475E+03  0.47000000000E+01 0. -1.
         -5    1    1    2    0  502  0.75060135590E+02 -0.25481597304E+02  0.23350579678E+03  0.24663816186E+03  0.47000000000E+01 0. -1.
        -11    1    1    2    0    0  0.12520791617E+02  0.77349638970E+01  0.15400147081E+01  0.14797686795E+02  0.00000000000E+00 0.  1.
         11    1    1    2    0    0 -0.39425104844E+02  0.56992988898E+02  0.22767872906E+03  0.23799189764E+03  0.00000000000E+00 0. -1.
<mgrwt>
<rscale>  0 0.13310817E+03</rscale>
<asrwt>0</asrwt>
<pdfrwt beam="1">  1        1 0.95359897E-01 0.14334020E+03</pdfrwt>
<pdfrwt beam="2">  1       -1 0.38991324E-02 0.14334020E+03</pdfrwt>
<totfact> 0.82588496E+03</totfact>
</mgrwt>
</event>
<event>
 6    1  0.9240440E-006  0.3103063E+03  0.7546771E-02  0.1080199E+00
         -2   -1    0    0    0  501 -0.00000000000E+00  0.00000000000E+00  0.22910398504E+02  0.22910398504E+02  0.00000000000E+00 0.  1.
          2   -1    0    0  501    0  0.00000000000E+00 -0.00000000000E+00 -0.10507240448E+04  0.10507240448E+04  0.00000000000E+00 0. -1.
          5    1    1    2  502    0  0.15954394122E+02 -0.15546377023E+02 -0.35654074811E+02  0.42302902748E+02  0.47000000000E+01 0. -1.
         -5    1    1    2    0  502 -0.75621965329E+02  0.88066757140E+02 -0.72560533762E+03  0.73484667199E+03  0.47000000000E+01 0. -1.
        -11    1    1    2    0    0 -0.88715442575E+01 -0.36385424544E+02 -0.31329047319E+02  0.48827375751E+02  0.00000000000E+00 0.  1.
         11    1    1    2    0    0  0.68539115465E+02 -0.36134955573E+02 -0.23522518659E+03  0.24765749286E+03  0.00000000000E+00 0. -1.
<mgrwt>
<rscale>  0 0.31030634E+03</rscale>
<asrwt>0</asrwt>
<pdfrwt beam="2">  1        2 0.16164983E+00 0.31030634E+03</pdfrwt>
<pdfrwt beam="1">  1       -2 0.35246771E-02 0.31030634E+03</pdfrwt>
<totfact> 0.81476761E+03</totfact>
</mgrwt>
</event>
<event>
 6    1  0.9240440E-006  0.1335671E+03  0.7546771E-02  0.1235823E+00
         -2   -1    0    0    0  501 -0.00000000000E+00  0.00000000000E+00  0.58961031964E+02  0.58961031964E+02  0.00000000000E+00 0.  1.
          2   -1    0    0  501    0  0.00000000000E+00 -0.00000000000E+00 -0.25993754749E+03  0.25993754749E+03  0.00000000000E+00 0. -1.
          5    1    1    2  502    0 -0.82748830353E+01 -0.45693310801E+02 -0.13312512639E+03  0.14106998837E+03  0.47000000000E+01 0. -1.
         -5    1    1    2    0  502  0.53648526530E+02  0.33186042890E+02 -0.30730471840E+02  0.70327304378E+02  0.47000000000E+01 0. -1.
        -11    1    1    2    0    0 -0.67748982254E+02  0.28266892509E+02 -0.29266203156E+02  0.79028175075E+02  0.00000000000E+00 0. -1.
         11    1    1    2    0    0  0.22375338759E+02 -0.15759624598E+02 -0.78547141422E+01  0.28473111637E+02  0.00000000000E+00 0.  1.
<mgrwt>
<rscale>  0 0.12451892E+03</rscale>
<asrwt>0</asrwt>
<pdfrwt beam="2">  1        2 0.39990393E-01 0.13356706E+03</pdfrwt>
<pdfrwt beam="1">  1       -2 0.90709279E-02 0.13356706E+03</pdfrwt>
<totfact> 0.93638939E+03</totfact>
</mgrwt>
</event>
<event>
 6    1  0.9240440E-006  0.2729850E+03  0.7546771E-02  0.1099583E+00
         -2   -1    0    0    0  501 -0.00000000000E+00  0.00000000000E+00  0.15232120753E+02  0.15232120753E+02  0.00000000000E+00 0.  1.
          2   -1    0    0  501    0  0.00000000000E+00 -0.00000000000E+00 -0.12230869782E+04  0.12230869782E+04  0.00000000000E+00 0. -1.
          5    1    1    2  502    0  0.29229439550E+02  0.25378349437E+02 -0.11025542760E+03  0.11694772367E+03  0.47000000000E+01 0.  1.
         -5    1    1    2    0  502 -0.96085685988E+01 -0.10575071400E+03 -0.54002943972E+03  0.55039024688E+03  0.47000000000E+01 0.  1.
        -11    1    1    2    0    0 -0.55044920628E+02  0.35464565817E+02 -0.27612331818E+03  0.28378119311E+03  0.00000000000E+00 0.  1.
         11    1    1    2    0    0  0.35424049677E+02  0.44907798745E+02 -0.28144667192E+03  0.28719993527E+03  0.00000000000E+00 0. -1.
<mgrwt>
<rscale>  0 0.27298504E+03</rscale>
<asrwt>0</asrwt>
<pdfrwt beam="2">  1        2 0.18816727E+00 0.27298504E+03</pdfrwt>
<pdfrwt beam="1">  1       -2 0.23434027E-02 0.27298504E+03</pdfrwt>
<totfact> 0.11839914E+04</totfact>
</mgrwt>
</event>
<event>
 6    1  0.9240440E-006  0.1252881E+03  0.7546771E-02  0.1249371E+00
         -2   -1    0    0    0  501 -0.00000000000E+00  0.00000000000E+00  0.35021094860E+03  0.35021094860E+03  0.00000000000E+00 0.  1.
          2   -1    0    0  501    0  0.00000000000E+00 -0.00000000000E+00 -0.41238263904E+02  0.41238263904E+02  0.00000000000E+00 0. -1.
          5    1    1    2  502    0 -0.17001221327E+02  0.17344530739E+02  0.11873349750E+03  0.12128317156E+03  0.47000000000E+01 0.  1.
         -5    1    1    2    0  502  0.18877184438E+02 -0.90748855336E+01 -0.26638785527E+02  0.34211350954E+02  0.47000000000E+01 0.  1.
        -11    1    1    2    0    0 -0.36624885196E+02 -0.22936538483E+01  0.35071463889E+02  0.50760719488E+02  0.00000000000E+00 0. -1.
         11    1    1    2    0    0  0.34748922086E+02 -0.59759913570E+01  0.18180650883E+03  0.18519397051E+03  0.00000000000E+00 0.  1.
<mgrwt>
<rscale>  0 0.11627533E+03</rscale>
<asrwt>0</asrwt>
<pdfrwt beam="2">  1        2 0.63443485E-02 0.12528811E+03</pdfrwt>
<pdfrwt beam="1">  1       -2 0.53878605E-01 0.12528811E+03</pdfrwt>
<totfact> 0.35973068E+03</totfact>
</mgrwt>
</event>
<event>
 6    1  0.9240440E-006  0.3565445E+03  0.7546771E-02  0.1059961E+00
         -1   -1    0    0    0  501 -0.00000000000E+00  0.00000000000E+00  0.47403017517E+02  0.47403017517E+02  0.00000000000E+00 0.  1.
          1   -1    0    0  501    0  0.00000000000E+00 -0.00000000000E+00 -0.67044234257E+03  0.67044234257E+03  0.00000000000E+00 0. -1.
          5    1    1    2  502    0 -0.14529143143E+01 -0.78667839748E+02 -0.11924501541E+03  0.14294125951E+03  0.47000000000E+01 0.  1.
         -5    1    1    2    0  502  0.98348971445E+01 -0.22403326293E+02 -0.39782713560E+03  0.39860651532E+03  0.47000000000E+01 0.  1.
        -11    1    1    2    0    0 -0.31974573956E+02  0.46470615260E+02 -0.10215707570E+03  0.11669601355E+03  0.00000000000E+00 0. -1.
         11    1    1    2    0    0  0.23592591126E+02  0.54600550781E+02 -0.38100983451E+01  0.59601571716E+02  0.00000000000E+00 0.  1.
<mgrwt>
<rscale>  0 0.35654447E+03</rscale>
<asrwt>0</asrwt>
<pdfrwt beam="2">  1        1 0.10314498E+00 0.35654447E+03</pdfrwt>
<pdfrwt beam="1">  1       -1 0.72927720E-02 0.35654447E+03</pdfrwt>
<totfact> 0.29889818E+03</totfact>
</mgrwt>
</event>
<event>
 6    1  0.9240440E-006  0.1706403E+03  0.7546771E-02  0.1184148E+00
         -1   -1    0    0    0  501 -0.00000000000E+00  0.00000000000E+00  0.14850905419E+02  0.14850905419E+02  0.00000000000E+00 0.  1.
          1   -1    0    0  501    0  0.00000000000E+00 -0.00000000000E+00 -0.17428864207E+04  0.17428864207E+04  0.00000000000E+00 0. -1.
          5    1    1    2  502    0  0.90368154400E+01  0.58950871997E+02 -0.15329029479E+03  0.16455052057E+03  0.47000000000E+01 0. -1.
         -5    1    1    2    0  502 -0.26640057471E+02  0.55863117883E+02 -0.93283546692E+03  0.93489811153E+03  0.47000000000E+01 0. -1.
        -11    1    1    2    0    0 -0.31517671969E+02 -0.65673236990E+02 -0.40085690959E+03  0.40742189394E+03  0.00000000000E+00 0. -1.
         11    1    1    2    0    0  0.49120914000E+02 -0.49140752891E+02 -0.24105284403E+03  0.25086680011E+03  0.00000000000E+00 0.  1.
<mgrwt>
<rscale>  0 0.16409608E+03</rscale>
<asrwt>0</asrwt>
<pdfrwt beam="2">  1        1 0.26813653E+00 0.17064034E+03</pdfrwt>
<pdfrwt beam="1">  1       -1 0.22847534E-02 0.17064034E+03</pdfrwt>
<totfact> 0.27881314E+03</totfact>
</mgrwt>
</event>
<event>
 6    1  0.9240440E-006  0.2545313E+03  0.7546771E-02  0.1112795E+00
         -1   -1    0    0    0  501 -0.00000000000E+00  0.00000000000E+00  0.10497971913E+04  0.10497971913E+04  0.00000000000E+00 0.  1.
          1   -1    0    0  501    0  0.00000000000E+00 -0.00000000000E+00 -0.61472204969E+02  0.61472204969E+02  0.00000000000E+00 0. -1.
          5    1    1    2  502    0 -0.17079800170E+03 -0.49130300672E+02  0.33593882442E+03  0.38008252733E+03  0.47000000000E+01 0.  1.
         -5    1    1    2    0  502 -0.50651587372E+02  0.38231947690E+02  0.44498658138E+02  0.77649763062E+02  0.47000000000E+01 0.  1.
        -11    1    1    2    0    0  0.18497170479E+03 -0.11326911088E+02  0.39374318012E+03  0.43517412880E+03  0.00000000000E+00 0. -1.
         11    1    1    2    0    0  0.36477884286E+02  0.22225264069E+02  0.21414432369E+03  0.21836297711E+03  0.00000000000E+00 0.  1.
<mgrwt>
<rscale>  0 0.25080902E+03</rscale>
<asrwt>0</asrwt>
<pdfrwt beam="2">  1        1 0.94572631E-02 0.25453128E+03</pdfrwt>
<pdfrwt beam="1">  1       -1 0.16150725E+00 0.25453128E+03</pdfrwt>
<totfact> 0.21515920E+02</totfact>
</mgrwt>
</event>
<event>
 6    1  0.9240440E-006  0.1314196E+03  0.7546771E-02  0.1237622E+00
         -1   -1    0    0    0  501 -0.00000000000E+00  0.00000000000E+00  0.31995757631E+02  0.31995757631E+02  0.00000000000E+00 0.  1.
          1   -1    0    0  501    0  0.00000000000E+00 -0.00000000000E+00 -0.42614816865E+03  0.42614816865E+03  0.00000000000E+00 0. -1.
          5    1    1    2  502    0  0.41331196057E+02  0.35236293282E+02 -0.10774088589E+03  0.12074788870E+03  0.47000000000E+01 0.  1.
         -5    1    1    2    0  502 -0.74965417680E+02 -0.12548289827E+02 -0.11713973966E+03  0.13971786583E+03  0.47000000000E+01 0.  1.
        -11    1    1    2    0    0  0.30937250580E+02 -0.52013458272E+02 -0.62823300316E+02  0.87231189248E+02  0.00000000000E+00 0.  1.
         11    1    1    2    0    0  0.26969710429E+01  0.29325454817E+02 -0.10644848516E+03  0.11044698251E+03  0.00000000000E+00 0. -1.
<mgrwt>
<rscale>  0 0.12338091E+03</rscale>
<asrwt>0</asrwt>
<pdfrwt beam="2">  1        1 0.65561257E-01 0.13141961E+03</pdfrwt>
<pdfrwt beam="1">  1       -1 0.49224242E-02 0.13141961E+03</pdfrwt>
<totfact> 0.95368934E+03</totfact>
</mgrwt>
</event>
<event>
 6    1  0.9240440E-006  0.1508368E+03  0.7546771E-02  0.1211699E+00
         -1   -1    0    0    0  501 -0.00000000000E+00  0.00000000000E+00  0.83179948071E+02  0.83179948071E+02  0.00000000000E+00 0.  1.
          1   -1    0    0  501    0  0.00000000000E+00 -0.00000000000E+00 -0.23081302167E+03  0.23081302167E+03  0.00000000000E+00 0. -1.
          5    1    1    2  502    0  0.36759129130E+02 -0.24865527533E+02 -0.49627652867E+02  0.66742205261E+02  0.47000000000E+01 0. -1.
         -5    1    1    2    0  502 -0.83364460966E+01  0.10444900716E+03 -0.75406929750E+02  0.12917966746E+03  0.47000000000E+01 0. -1.
        -11    1    1    2    0    0 -0.42934388507E+02 -0.33768950110E+02  0.15459470611E+02  0.56768820135E+02  0.00000000000E+00 0.  1.
         11    1    1    2    0    0  0.14511705473E+02 -0.45814529517E+02 -0.38057961589E+02  0.61302276882E+02  0.00000000000E+00 0. -1.
<mgrwt>
<rscale>  0 0.14121808E+03</rscale>
<asrwt>0</asrwt>
<pdfrwt beam="2">  1        1 0.35509695E-01 0.15083678E+03</pdfrwt>
<pdfrwt beam="1">  1       -1 0.12796915E-01 0.15083678E+03</pdfrwt>
<totfact> 0.48744012E+03</totfact>
</mgrwt>
</event>
<event>
 6    1  0.9240440E-006  0.1388618E+03  0.7546771E-02  0.1226269E+00
          1   -1    0    0  501    0  0.00000000000E+00  0.00000000000E+00  0.98836662749E+03  0.98836662749E+03  0.00000000000E+00 0. -1.
         -1   -1    0    0    0  501 -0.00000000000E+00 -0.00000000000E+00 -0.29997560081E+02  0.29997560081E+02  0.00000000000E+00 0.  1.
          5    1    1    2  502    0  0.61053450653E+02  0.35864146355E+02  0.53278233790E+03  0.53748755372E+03  0.47000000000E+01 0. -1.
         -5    1    1    2    0  502 -0.60224103315E+02  0.24592807547E+02  0.32771688734E+03  0.33414397653E+03  0.47000000000E+01 0. -1.
        -11    1    1    2    0    0  0.30136101415E+02 -0.28847293038E+02  0.27309735891E+01  0.41806807351E+02  0.00000000000E+00 0.  1.
         11    1    1    2    0    0 -0.30965448753E+02 -0.31609660864E+02  0.95138868580E+02  0.10492584997E+03  0.00000000000E+00 0. -1.
<mgrwt>
<rscale>  0 0.13080281E+03</rscale>
<asrwt>0</asrwt>
<pdfrwt beam="1">  1        1 0.15205638E+00 0.13886183E+03</pdfrwt>
<pdfrwt beam="2">  1       -1 0.46150100E-02 0.13886183E+03</pdfrwt>
<totfact> 0.31878150E+03</totfact>
</mgrwt>
</event>
<event>
 6    1  0.1122862E-005  0.3081140E+03  0.7546771E-02  0.1082537E+00
          3   -1    0    0  501    0  0.00000000000E+00  0.00000000000E+00  0.53238074848E+03  0.53238074848E+03  0.00000000000E+00 0. -1.
         -3   -1    0    0    0  501 -0.00000000000E+00 -0.00000000000E+00 -0.19628941245E+03  0.19628941245E+03  0.00000000000E+00 0.  1.
          5    1    1    2  502    0  0.79219139204E+02 -0.67589259260E+02  0.11079285909E+03  0.15212208127E+03  0.47000000000E+01 0.  1.
         -5    1    1    2    0  502  0.20047600813E+03  0.34718645796E+02  0.18706662123E+03  0.27642725079E+03  0.47000000000E+01 0.  1.
        -11    1    1    2    0    0 -0.89613991495E+02 -0.27435870397E+02  0.36831849278E+02  0.10069746559E+03  0.00000000000E+00 0. -1.
         11    1    1    2    0    0 -0.19008115584E+03  0.60306483861E+02  0.14000064338E+01  0.19942336327E+03  0.00000000000E+00 0.  1.
<mgrwt>
<rscale>  0 0.30547064E+03</rscale>
<asrwt>0</asrwt>
<pdfrwt beam="1">  1        3 0.81904730E-01 0.30811404E+03</pdfrwt>
<pdfrwt beam="2">  1       -3 0.30198371E-01 0.30811404E+03</pdfrwt>
<totfact> 0.37705085E+01</totfact>
</mgrwt>
</event>
<event>
 6    1  0.9240440E-006  0.1688258E+03  0.7546771E-02  0.1184986E+00
          1   -1    0    0  501    0  0.00000000000E+00  0.00000000000E+00  0.74850263271E+03  0.74850263271E+03  0.00000000000E+00 0. -1.
         -1   -1    0    0    0  501 -0.00000000000E+00 -0.00000000000E+00 -0.35192164197E+02  0.35192164197E+02  0.00000000000E+00 0.  1.
          5    1    1    2  502    0  0.82717781044E+01  0.78155963532E+02  0.96629539157E+02  0.12464403229E+03  0.47000000000E+01 0. -1.
         -5    1    1    2    0  502  0.90999520008E+01  0.33927002920E+02  0.36807761904E+03  0.36977976458E+03  0.47000000000E+01 0. -1.
        -11    1    1    2    0    0 -0.37999018839E+02 -0.11430713354E+03  0.17253555144E+03  0.21042471984E+03  0.00000000000E+00 0. -1.
         11    1    1    2    0    0  0.20627288734E+02  0.22241670834E+01  0.76067758877E+02  0.78846280193E+02  0.00000000000E+00 0.  1.
<mgrwt>
<rscale>  0 0.16333166E+03</rscale>
<asrwt>0</asrwt>
<pdfrwt beam="1">  1        1 0.11515424E+00 0.16882579E+03</pdfrwt>
<pdfrwt beam="2">  1       -1 0.54141797E-02 0.16882579E+03</pdfrwt>
<totfact> 0.39139441E+03</totfact>
</mgrwt>
</event>
<event>
 6    1  0.9240440E-006  0.1329113E+03  0.7546771E-02  0.1235966E+00
         -1   -1    0    0    0  501 -0.00000000000E+00  0.00000000000E+00  0.69833201518E+02  0.69833201518E+02  0.00000000000E+00 0.  1.
          1   -1    0    0  501    0  0.00000000000E+00 -0.00000000000E+00 -0.19777548819E+03  0.19777548819E+03  0.00000000000E+00 0. -1.
          5    1    1    2  502    0  0.49903410784E+02 -0.33118158957E+02 -0.18999835296E+02  0.63009892888E+02  0.47000000000E+01 0. -1.
         -5    1    1    2    0  502 -0.19931273631E+02  0.66911869246E+02 -0.55831087560E+02  0.89519016152E+02  0.47000000000E+01 0. -1.
        -11    1    1    2    0    0 -0.91501042594E+01 -0.53528608142E+02 -0.64409015155E+02  0.84247003097E+02  0.00000000000E+00 0. -1.
         11    1    1    2    0    0 -0.20822032893E+02  0.19734897852E+02  0.11297651338E+02  0.30832777572E+02  0.00000000000E+00 0.  1.
<mgrwt>
<rscale>  0 0.12442797E+03</rscale>
<asrwt>0</asrwt>
<pdfrwt beam="2">  1        1 0.30426998E-01 0.13291125E+03</pdfrwt>
<pdfrwt beam="1">  1       -1 0.10743570E-01 0.13291125E+03</pdfrwt>
<totfact> 0.76718715E+03</totfact>
</mgrwt>
</event>
<event>
 6    1  0.9240440E-006  0.1901561E+03  0.7546771E-02  0.1167319E+00
         -2   -1    0    0    0  501 -0.00000000000E+00  0.00000000000E+00  0.65256305304E+02  0.65256305304E+02  0.00000000000E+00 0.  1.
          2   -1    0    0  501    0  0.00000000000E+00 -0.00000000000E+00 -0.47120484652E+03  0.47120484652E+03  0.00000000000E+00 0. -1.
          5    1    1    2  502    0 -0.74215039487E+02  0.11458916370E+03 -0.27752875275E+03  0.30932644104E+03  0.47000000000E+01 0. -1.
         -5    1    1    2    0  502  0.22577972706E+02 -0.11699503821E+01  0.43709347056E+01  0.23501674528E+02  0.47000000000E+01 0.  1.
        -11    1    1    2    0    0  0.69006794318E+02 -0.10275662239E+03 -0.80866816880E+02  0.14785230191E+03  0.00000000000E+00 0.  1.
         11    1    1    2    0    0 -0.17369727537E+02 -0.10662590933E+02 -0.51923906285E+02  0.55780734345E+02  0.00000000000E+00 0. -1.
<mgrwt>
<rscale>  0 0.18050125E+03</rscale>
<asrwt>0</asrwt>
<pdfrwt beam="2">  1        2 0.72493052E-01 0.19015615E+03</pdfrwt>
<pdfrwt beam="1">  1       -2 0.10039432E-01 0.19015615E+03</pdfrwt>
<totfact> 0.43069309E+03</totfact>
</mgrwt>
</event>
<event>
 6    1  0.9240440E-006  0.1349997E+03  0.7546771E-02  0.1232025E+00
         -2   -1    0    0    0  501 -0.00000000000E+00  0.00000000000E+00  0.12670006244E+02  0.12670006244E+02  0.00000000000E+00 0.  1.
          2   -1    0    0  501    0  0.00000000000E+00 -0.00000000000E+00 -0.13317742172E+04  0.13317742172E+04  0.00000000000E+00 0. -1.
          5    1    1    2  502    0  0.38413416183E+02  0.81453854587E+02 -0.71135647264E+03  0.71704981845E+03  0.47000000000E+01 0.  1.
         -5    1    1    2    0  502 -0.44905077924E+01 -0.43413843816E+02 -0.26906374497E+03  0.27262119388E+03  0.47000000000E+01 0.  1.
        -11    1    1    2    0    0  0.35552639164E+01 -0.61116512736E+02 -0.21194288150E+03  0.22060746372E+03  0.00000000000E+00 0. -1.
         11    1    1    2    0    0 -0.37478172307E+02  0.23076501965E+02 -0.12674111186E+03  0.13416574741E+03  0.00000000000E+00 0.  1.
<mgrwt>
<rscale>  0 0.12696787E+03</rscale>
<asrwt>0</asrwt>
<pdfrwt beam="2">  1        2 0.20488828E+00 0.13499966E+03</pdfrwt>
<pdfrwt beam="1">  1       -2 0.19492324E-02 0.13499966E+03</pdfrwt>
<totfact> 0.13085899E+04</totfact>
</mgrwt>
</event>
<event>
 6    1  0.9240440E-006  0.4260412E+03  0.7546771E-02  0.1035118E+00
          1   -1    0    0  501    0  0.00000000000E+00  0.00000000000E+00  0.16914815728E+03  0.16914815728E+03  0.00000000000E+00 0. -1.
         -1   -1    0    0    0  501 -0.00000000000E+00 -0.00000000000E+00 -0.26827240477E+03  0.26827240477E+03  0.00000000000E+00 0.  1.
          5    1    1    2  502    0  0.55714993856E+02  0.13169624679E+03  0.71601677627E+02  0.15999047533E+03  0.47000000000E+01 0. -1.
         -5    1    1    2    0  502  0.18133920379E+02 -0.45213345760E+02  0.26714441016E+01  0.49013389158E+02  0.47000000000E+01 0.  1.
        -11    1    1    2    0    0 -0.71355767916E+02 -0.12017690060E+02 -0.67657322235E+02  0.99063533862E+02  0.00000000000E+00 0.  1.
         11    1    1    2    0    0 -0.24931463191E+01 -0.74465210965E+02 -0.10574004699E+03  0.12935316370E+03  0.00000000000E+00 0. -1.
<mgrwt>
<rscale>  0 0.42604123E+03</rscale>
<asrwt>0</asrwt>
<pdfrwt beam="1">  1        1 0.26022794E-01 0.42604123E+03</pdfrwt>
<pdfrwt beam="2">  1       -1 0.41272678E-01 0.42604123E+03</pdfrwt>
<totfact> 0.10653142E+03</totfact>
</mgrwt>
</event>
<event>
 6    1  0.9240440E-006  0.1305208E+03  0.7546771E-02  0.1241726E+00
         -1   -1    0    0    0  501 -0.00000000000E+00  0.00000000000E+00  0.10282452366E+03  0.10282452366E+03  0.00000000000E+00 0.  1.
          1   -1    0    0  501    0  0.00000000000E+00 -0.00000000000E+00 -0.15565758787E+03  0.15565758787E+03  0.00000000000E+00 0. -1.
          5    1    1    2  502    0  0.57400171804E+01  0.44694874607E+02 -0.10805327677E+02  0.46577083631E+02  0.47000000000E+01 0. -1.
         -5    1    1    2    0  502 -0.29123360378E+02 -0.74105814393E+02 -0.76011295523E+02  0.11018007485E+03  0.47000000000E+01 0. -1.
        -11    1    1    2    0    0 -0.18300588343E+01  0.52265748452E+02  0.41632689055E+02  0.66845630930E+02  0.00000000000E+00 0.  1.
         11    1    1    2    0    0  0.25213402032E+02 -0.22854808667E+02 -0.76491300620E+01  0.34879322125E+02  0.00000000000E+00 0. -1.
<mgrwt>
<rscale>  0 0.12083492E+03</rscale>
<asrwt>0</asrwt>
<pdfrwt beam="2">  1        1 0.23947321E-01 0.13052081E+03</pdfrwt>
<pdfrwt beam="1">  1       -1 0.15819157E-01 0.13052081E+03</pdfrwt>
<totfact> 0.56712709E+03</totfact>
</mgrwt>
</event>
<event>
 6    1  0.9240440E-006  0.1262741E+03  0.7546771E-02  0.1248238E+00
         -2   -1    0    0    0  501 -0.00000000000E+00  0.00000000000E+00  0.61639782284E+02  0.61639782284E+02  0.00000000000E+00 0.  1.
          2   -1    0    0  501    0  0.00000000000E+00 -0.00000000000E+00 -0.19477230078E+03  0.19477230078E+03  0.00000000000E+00 0. -1.
          5    1    1    2  502    0  0.49256938310E+02  0.91813678655E+01  0.12486901541E+02  0.51851289258E+02  0.47000000000E+01 0. -1.
         -5    1    1    2    0  502 -0.35281454344E+02  0.20064544422E+01 -0.88806336684E+02  0.95694630546E+02  0.47000000000E+01 0. -1.
        -11    1    1    2    0    0 -0.71286893701E+00 -0.32449798538E+02 -0.72408426406E+02  0.79350348593E+02  0.00000000000E+00 0. -1.
         11    1    1    2    0    0 -0.13262615029E+02  0.21261976230E+02  0.15595343052E+02  0.29515814669E+02  0.00000000000E+00 0.  1.
<mgrwt>
<rscale>  0 0.11693647E+03</rscale>
<asrwt>0</asrwt>
<pdfrwt beam="2">  1        2 0.29964970E-01 0.12627408E+03</pdfrwt>
<pdfrwt beam="1">  1       -2 0.94830433E-02 0.12627408E+03</pdfrwt>
<totfact> 0.11847259E+04</totfact>
</mgrwt>
</event>
<event>
 6    1  0.9240440E-006  0.1254372E+03  0.7546771E-02  0.1250046E+00
          2   -1    0    0  501    0  0.00000000000E+00  0.00000000000E+00  0.50456702218E+03  0.50456702218E+03  0.00000000000E+00 0. -1.
         -2   -1    0    0    0  501 -0.00000000000E+00 -0.00000000000E+00 -0.27200857543E+02  0.27200857543E+02  0.00000000000E+00 0.  1.
          5    1    1    2  502    0 -0.66815727943E+02  0.10697889159E+02  0.19223099047E+03  0.20384707510E+03  0.47000000000E+01 0.  1.
         -5    1    1    2    0  502  0.56785333240E+02 -0.76749248147E+01  0.17830110198E+03  0.18734153706E+03  0.47000000000E+01 0.  1.
        -11    1    1    2    0    0  0.51179971799E+01  0.29862326509E+02  0.17366044099E+01  0.30347458452E+02  0.00000000000E+00 0.  1.
         11    1    1    2    0    0  0.49123975232E+01 -0.32885290853E+02  0.10509746779E+03  0.11023180911E+03  0.00000000000E+00 0. -1.
<mgrwt>
<rscale>  0 0.11588420E+03</rscale>
<asrwt>0</asrwt>
<pdfrwt beam="1">  1        2 0.77625689E-01 0.12543723E+03</pdfrwt>
<pdfrwt beam="2">  1       -2 0.41847477E-02 0.12543723E+03</pdfrwt>
<totfact> 0.14862258E+04</totfact>
</mgrwt>
</event>
<event>
 6    1  0.9240440E-006  0.2061001E+03  0.7546771E-02  0.1148659E+00
          2   -1    0    0  501    0  0.00000000000E+00  0.00000000000E+00  0.16658920713E+04  0.16658920713E+04  0.00000000000E+00 0. -1.
         -2   -1    0    0    0  501 -0.00000000000E+00 -0.00000000000E+00 -0.29310929875E+02  0.29310929875E+02  0.00000000000E+00 0.  1.
          5    1    1    2  502    0 -0.21755374160E+02 -0.67550313148E+02  0.67232648612E+03  0.67607790605E+03  0.47000000000E+01 0. -1.
         -5    1    1    2    0  502  0.93841251111E+02 -0.79606753841E+02  0.56171770821E+03  0.57505850953E+03  0.47000000000E+01 0. -1.
        -11    1    1    2    0    0 -0.92611674695E+02  0.12961970114E+03  0.36018031292E+03  0.39383758966E+03  0.00000000000E+00 0.  1.
         11    1    1    2    0    0  0.20525797744E+02  0.17537365853E+02  0.42356634179E+02  0.50228995939E+02  0.00000000000E+00 0. -1.
<mgrwt>
<rscale>  0 0.20128595E+03</rscale>
<asrwt>0</asrwt>
<pdfrwt beam="1">  1        2 0.25629101E+00 0.20610011E+03</pdfrwt>
<pdfrwt beam="2">  1       -2 0.45093751E-02 0.20610011E+03</pdfrwt>
<totfact> 0.25537211E+03</totfact>
</mgrwt>
</event>
<event>
 6    1  0.9240440E-006  0.1268295E+03  0.7546771E-02  0.1246571E+00
          3   -1    0    0  501    0  0.00000000000E+00  0.00000000000E+00  0.11486000794E+03  0.11486000794E+03  0.00000000000E+00 0. -1.
         -3   -1    0    0    0  501 -0.00000000000E+00 -0.00000000000E+00 -0.11211109921E+03  0.11211109921E+03  0.00000000000E+00 0.  1.
          5    1    1    2  502    0  0.46264930391E+02  0.21213293857E+02  0.27430895834E+02  0.58008548221E+02  0.47000000000E+01 0.  1.
         -5    1    1    2    0  502 -0.67700013911E+02 -0.22212370361E+02 -0.16046420580E+01  0.71423708646E+02  0.47000000000E+01 0.  1.
        -11    1    1    2    0    0  0.31256731093E+01  0.38572450835E+02  0.14507098477E+02  0.41328678930E+02  0.00000000000E+00 0. -1.
         11    1    1    2    0    0  0.18309410410E+02 -0.37573374332E+02 -0.37584443531E+02  0.56210171356E+02  0.00000000000E+00 0.  1.
<mgrwt>
<rscale>  0 0.11791860E+03</rscale>
<asrwt>0</asrwt>
<pdfrwt beam="1">  1        3 0.17670771E-01 0.12682947E+03</pdfrwt>
<pdfrwt beam="2">  1       -3 0.17247861E-01 0.12682947E+03</pdfrwt>
<totfact> 0.18434291E+03</totfact>
</mgrwt>
</event>
<event>
 6    1  0.9240440E-006  0.3148554E+03  0.7546771E-02  0.1078042E+00
          2   -1    0    0  501    0  0.00000000000E+00  0.00000000000E+00  0.13494089309E+04  0.13494089309E+04  0.00000000000E+00 0. -1.
         -2   -1    0    0    0  501 -0.00000000000E+00 -0.00000000000E+00 -0.18366178587E+02  0.18366178587E+02  0.00000000000E+00 0.  1.
          5    1    1    2  502    0 -0.59121974518E+02 -0.96650992944E+02  0.93495638258E+03  0.94180802165E+03  0.47000000000E+01 0. -1.
         -5    1    1    2    0  502  0.17772898728E+02  0.71881861421E+01  0.30043216584E+02  0.35947612048E+02  0.47000000000E+01 0.  1.
        -11    1    1    2    0    0 -0.11633871601E+02  0.46282597724E+02  0.25649956793E+03  0.26090123451E+03  0.00000000000E+00 0. -1.
         11    1    1    2    0    0  0.52982947391E+02  0.43180209077E+02  0.10954358524E+03  0.12911824130E+03  0.00000000000E+00 0.  1.
<mgrwt>
<rscale>  0 0.31485543E+03</rscale>
<asrwt>0</asrwt>
<pdfrwt beam="1">  1        2 0.20760130E+00 0.31485543E+03</pdfrwt>
<pdfrwt beam="2">  1       -2 0.28255670E-02 0.31485543E+03</pdfrwt>
<totfact> 0.76497134E+03</totfact>
</mgrwt>
</event>
<event>
 6    1  0.9240440E-006  0.1399338E+03  0.7546771E-02  0.1224390E+00
         -2   -1    0    0    0  501 -0.00000000000E+00  0.00000000000E+00  0.17653831393E+03  0.17653831393E+03  0.00000000000E+00 0.  1.
          2   -1    0    0  501    0  0.00000000000E+00 -0.00000000000E+00 -0.90105160536E+02  0.90105160536E+02  0.00000000000E+00 0. -1.
          5    1    1    2  502    0  0.62133591582E+01 -0.50400347787E+02  0.38545478409E+02  0.63926870679E+02  0.47000000000E+01 0.  1.
         -5    1    1    2    0  502  0.56350661124E+02  0.56977953396E+02 -0.34231708655E+01  0.80347322800E+02  0.47000000000E+01 0.  1.
        -11    1    1    2    0    0 -0.23789784595E+02  0.42361469927E+02  0.24610105876E+02  0.54461961925E+02  0.00000000000E+00 0.  1.
         11    1    1    2    0    0 -0.38774235687E+02 -0.48939075536E+02  0.26700739979E+02  0.67907319067E+02  0.00000000000E+00 0. -1.
<mgrwt>
<rscale>  0 0.13208779E+03</rscale>
<asrwt>0</asrwt>
<pdfrwt beam="2">  1        2 0.13862332E-01 0.13993379E+03</pdfrwt>
<pdfrwt beam="1">  1       -2 0.27159741E-01 0.13993379E+03</pdfrwt>
<totfact> 0.50106740E+03</totfact>
</mgrwt>
</event>
<event>
 6    1  0.9240440E-006  0.3576751E+03  0.7546771E-02  0.1059508E+00
         -2   -1    0    0    0  501 -0.00000000000E+00  0.00000000000E+00  0.63507657712E+03  0.63507657712E+03  0.00000000000E+00 0.  1.
          2   -1    0    0  501    0  0.00000000000E+00 -0.00000000000E+00 -0.50360651839E+02  0.50360651839E+02  0.00000000000E+00 0. -1.
          5    1    1    2  502    0  0.12587117650E+02 -0.25956203597E+02  0.16511250058E+02  0.33568905469E+02  0.47000000000E+01 0.  1.
         -5    1    1    2    0  502  0.86151916285E+02  0.12414946752E+03  0.24776655731E+03  0.29025092573E+03  0.47000000000E+01 0.  1.
        -11    1    1    2    0    0 -0.95265977587E+02 -0.57607886217E+02  0.15252199668E+03  0.18883123288E+03  0.00000000000E+00 0. -1.
         11    1    1    2    0    0 -0.34730563472E+01 -0.40585377708E+02  0.16791612123E+03  0.17278616488E+03  0.00000000000E+00 0.  1.
<mgrwt>
<rscale>  0 0.35767511E+03</rscale>
<asrwt>0</asrwt>
<pdfrwt beam="2">  1        2 0.77477930E-02 0.35767511E+03</pdfrwt>
<pdfrwt beam="1">  1       -2 0.97704083E-01 0.35767511E+03</pdfrwt>
<totfact> 0.80664491E+02</totfact>
</mgrwt>
</event>
<event>
 6    1  0.9240440E-006  0.1516235E+03  0.7546771E-02  0.1207375E+00
         -2   -1    0    0    0  501 -0.00000000000E+00  0.00000000000E+00  0.99837597186E+02  0.99837597186E+02  0.00000000000E+00 0. -1.
          2   -1    0    0  501    0  0.00000000000E+00 -0.00000000000E+00 -0.22642820837E+03  0.22642820837E+03  0.00000000000E+00 0.  1.
          5    1    1    2  502    0  0.32094571284E+02  0.36884680880E+02  0.70930443626E+01  0.49628041144E+02  0.47000000000E+01 0. -1.
         -5    1    1    2    0  502 -0.34094996876E+02  0.48930858414E+02 -0.13905989242E+03  0.15138177366E+03  0.47000000000E+01 0. -1.
        -11    1    1    2    0    0 -0.25964873610E+02 -0.74663658024E+02 -0.24581910546E+02  0.82783493628E+02  0.00000000000E+00 0.  1.
         11    1    1    2    0    0  0.27965299202E+02 -0.11151881270E+02  0.29958147418E+02  0.42472497125E+02  0.00000000000E+00 0. -1.
<mgrwt>
<rscale>  0 0.14451885E+03</rscale>
<asrwt>0</asrwt>
<pdfrwt beam="2">  1        2 0.34835108E-01 0.15162354E+03</pdfrwt>
<pdfrwt beam="1">  1       -2 0.15359631E-01 0.15162354E+03</pdfrwt>
<totfact> 0.47171453E+03</totfact>
</mgrwt>
</event>
<event>
 6    1  0.9240440E-006  0.1319980E+03  0.7546771E-02  0.1234168E+00
          2   -1    0    0  501    0  0.00000000000E+00  0.00000000000E+00  0.10491414581E+04  0.10491414581E+04  0.00000000000E+00 0. -1.
         -2   -1    0    0    0  501 -0.00000000000E+00 -0.00000000000E+00 -0.17687007237E+02  0.17687007237E+02  0.00000000000E+00 0.  1.
          5    1    1    2  502    0 -0.19404320051E+02  0.42754050837E+02  0.11845811403E+03  0.12751020069E+03  0.47000000000E+01 0. -1.
         -5    1    1    2    0  502 -0.22996993258E+02 -0.41963706968E+02  0.68808133321E+03  0.68975925185E+03  0.47000000000E+01 0. -1.
        -11    1    1    2    0    0 -0.97290959534E+01  0.96949163223E+01 -0.41934656831E+01  0.14360775223E+02  0.00000000000E+00 0.  1.
         11    1    1    2    0    0  0.52130409263E+02 -0.10485260191E+02  0.22910846926E+03  0.23519823753E+03  0.00000000000E+00 0. -1.
<mgrwt>
<rscale>  0 0.12557872E+03</rscale>
<asrwt>0</asrwt>
<pdfrwt beam="1">  1        2 0.16140633E+00 0.13199802E+03</pdfrwt>
<pdfrwt beam="2">  1       -2 0.27210789E-02 0.13199802E+03</pdfrwt>
<totfact> 0.11544353E+04</totfact>
</mgrwt>
</event>
<event>
 6    1  0.9240440E-006  0.1283290E+03  0.7546771E-02  0.1244023E+00
         -1   -1    0    0    0  501 -0.00000000000E+00  0.00000000000E+00  0.10864262257E+03  0.10864262257E+03  0.00000000000E+00 0.  1.
          1   -1    0    0  501    0  0.00000000000E+00 -0.00000000000E+00 -0.12122729119E+03  0.12122729119E+03  0.00000000000E+00 0. -1.
          5    1    1    2  502    0  0.48480577608E+02 -0.33642526777E+02 -0.27973854907E+02  0.65473754830E+02  0.47000000000E+01 0. -1.
         -5    1    1    2    0  502 -0.65449515491E+02  0.10082042894E+02 -0.25582404907E+01  0.66437348391E+02  0.47000000000E+01 0. -1.
        -11    1    1    2    0    0  0.51721697192E+02 -0.28662387343E+01  0.16159355418E+02  0.54263008141E+02  0.00000000000E+00 0.  1.
         11    1    1    2    0    0 -0.34752759309E+02  0.26426722617E+02  0.17880713590E+01  0.43695802397E+02  0.00000000000E+00 0. -1.
<mgrwt>
<rscale>  0 0.11944031E+03</rscale>
<asrwt>0</asrwt>
<pdfrwt beam="2">  1        1 0.18650353E-01 0.12832899E+03</pdfrwt>
<pdfrwt beam="1">  1       -1 0.16714250E-01 0.12832899E+03</pdfrwt>
<totfact> 0.71264447E+03</totfact>
</mgrwt>
</event>
<event>
 6    1  0.9240440E-006  0.1849379E+03  0.7546771E-02  0.1168246E+00
         -2   -1    0    0    0  501 -0.00000000000E+00  0.00000000000E+00  0.77883104018E+02  0.77883104018E+02  0.00000000000E+00 0. -1.
          2   -1    0    0  501    0  0.00000000000E+00 -0.00000000000E+00 -0.48671682605E+03  0.48671682605E+03  0.00000000000E+00 0.  1.
          5    1    1    2  502    0  0.61015734266E+02 -0.54614889732E+02 -0.13563602169E+03  0.15850844264E+03  0.47000000000E+01 0.  1.
         -5    1    1    2    0  502 -0.61467014960E+02 -0.81677454228E+02 -0.20320549834E+03  0.22751695544E+03  0.47000000000E+01 0.  1.
        -11    1    1    2    0    0 -0.39551904777E+02  0.59575622755E+02 -0.56224567605E+02  0.90965982655E+02  0.00000000000E+00 0. -1.
         11    1    1    2    0    0  0.40003185471E+02  0.76716721205E+02 -0.13767634406E+02  0.87608549339E+02  0.00000000000E+00 0.  1.
<mgrwt>
<rscale>  0 0.17954352E+03</rscale>
<asrwt>0</asrwt>
<pdfrwt beam="2">  1        2 0.74879511E-01 0.18493791E+03</pdfrwt>
<pdfrwt beam="1">  1       -2 0.11982016E-01 0.18493791E+03</pdfrwt>
<totfact> 0.31301635E+03</totfact>
</mgrwt>
</event>
<event>
 6    1  0.9240440E-006  0.2289283E+03  0.7546771E-02  0.1130234E+00
          2   -1    0    0  501    0  0.00000000000E+00  0.00000000000E+00  0.41355371320E+03  0.41355371320E+03  0.00000000000E+00 0. -1.
         -2   -1    0    0    0  501 -0.00000000000E+00 -0.00000000000E+00 -0.12093865823E+03  0.12093865823E+03  0.00000000000E+00 0.  1.
          5    1    1    2  502    0  0.10554616986E+03 -0.94399114950E+02  0.20081421902E+03  0.24576335658E+03  0.47000000000E+01 0. -1.
         -5    1    1    2    0  502  0.30689804917E+02 -0.40591367969E+02 -0.10224607905E+02  0.52116752453E+02  0.47000000000E+01 0. -1.
        -11    1    1    2    0    0 -0.90313147520E+02  0.49189146134E+02  0.11116998820E+02  0.10343898866E+03  0.00000000000E+00 0.  1.
         11    1    1    2    0    0 -0.45922827261E+02  0.85801336784E+02  0.90908445040E+02  0.13317327373E+03  0.00000000000E+00 0. -1.
<mgrwt>
<rscale>  0 0.22496597E+03</rscale>
<asrwt>0</asrwt>
<pdfrwt beam="1">  1        2 0.63623648E-01 0.22892828E+03</pdfrwt>
<pdfrwt beam="2">  1       -2 0.18605948E-01 0.22892828E+03</pdfrwt>
<totfact> 0.18221289E+03</totfact>
</mgrwt>
</event>
<event>
 6    1  0.9240440E-006  0.1563528E+03  0.7546771E-02  0.1200728E+00
         -2   -1    0    0    0  501 -0.00000000000E+00  0.00000000000E+00  0.41979767193E+02  0.41979767193E+02  0.00000000000E+00 0.  1.
          2   -1    0    0  501    0  0.00000000000E+00 -0.00000000000E+00 -0.60504984712E+03  0.60504984712E+03  0.00000000000E+00 0. -1.
          5    1    1    2  502    0  0.32552855707E+02  0.27393959776E+02 -0.26814651942E+03  0.27154145784E+03  0.47000000000E+01 0. -1.
         -5    1    1    2    0  502 -0.72907806028E+02  0.57417266575E+02 -0.17111660782E+03  0.19471844841E+03  0.47000000000E+01 0. -1.
        -11    1    1    2    0    0  0.63264316602E+02 -0.62174528411E+02 -0.53883753500E+02  0.10378585949E+03  0.00000000000E+00 0.  1.
         11    1    1    2    0    0 -0.22909366282E+02 -0.22636697939E+02 -0.69923199187E+02  0.76983848576E+02  0.00000000000E+00 0. -1.
<mgrwt>
<rscale>  0 0.14979256E+03</rscale>
<asrwt>0</asrwt>
<pdfrwt beam="2">  1        2 0.93084588E-01 0.15635282E+03</pdfrwt>
<pdfrwt beam="1">  1       -2 0.64584260E-02 0.15635282E+03</pdfrwt>
<totfact> 0.64012643E+03</totfact>
</mgrwt>
</event>
<event>
 6    1  0.9240440E-006  0.1262700E+03  0.7546771E-02  0.1277088E+00
         -2   -1    0    0    0  501 -0.00000000000E+00  0.00000000000E+00  0.61019779176E+01  0.61019779176E+01  0.00000000000E+00 0.  1.
          2   -1    0    0  501    0  0.00000000000E+00 -0.00000000000E+00 -0.18843119807E+04  0.18843119807E+04  0.00000000000E+00 0. -1.
          5    1    1    2  502    0  0.24595381327E+02  0.20476488730E+02 -0.14623884122E+04  0.14627461084E+04  0.47000000000E+01 0. -1.
         -5    1    1    2    0  502 -0.72995597652E+01 -0.44407501543E+02 -0.23396112178E+03  0.23829646718E+03  0.47000000000E+01 0.  1.
        -11    1    1    2    0    0  0.14808298666E+02  0.56481289543E+01 -0.52893794558E+02  0.55217212650E+02  0.00000000000E+00 0. -1.
         11    1    1    2    0    0 -0.32104120227E+02  0.18282883858E+02 -0.12896667416E+03  0.13415417035E+03  0.00000000000E+00 0.  1.
<mgrwt>
<rscale>  0 0.10154120E+03</rscale>
<asrwt>0</asrwt>
<pdfrwt beam="2">  1        2 0.28989482E+00 0.12626996E+03</pdfrwt>
<pdfrwt beam="1">  1       -2 0.93876367E-03 0.12626996E+03</pdfrwt>
<totfact> 0.19314133E+04</totfact>
</mgrwt>
</event>
<event>
 6    1  0.9240440E-006  0.1338276E+03  0.7546771E-02  0.1234825E+00
          2   -1    0    0  501    0  0.00000000000E+00  0.00000000000E+00  0.78726304131E+03  0.78726304131E+03  0.00000000000E+00 0. -1.
         -2   -1    0    0    0  501 -0.00000000000E+00 -0.00000000000E+00 -0.19970898605E+02  0.19970898605E+02  0.00000000000E+00 0.  1.
          5    1    1    2  502    0 -0.58541295680E+02  0.68662206532E+02  0.38625250181E+03  0.39667955211E+03  0.47000000000E+01 0. -1.
         -5    1    1    2    0  502  0.32243781965E+02 -0.28734377690E+02  0.17726130502E+03  0.18250749627E+03  0.47000000000E+01 0. -1.
        -11    1    1    2    0    0  0.39764537330E+02 -0.31505311277E+02  0.20586719595E+03  0.21202619045E+03  0.00000000000E+00 0. -1.
         11    1    1    2    0    0 -0.13467023616E+02 -0.84225175651E+01 -0.20888600703E+01  0.16020701095E+02  0.00000000000E+00 0.  1.
<mgrwt>
<rscale>  0 0.12515646E+03</rscale>
<asrwt>0</asrwt>
<pdfrwt beam="1">  1        2 0.12111737E+00 0.13382760E+03</pdfrwt>
<pdfrwt beam="2">  1       -2 0.30724465E-02 0.13382760E+03</pdfrwt>
<totfact> 0.14104974E+04</totfact>
</mgrwt>
</event>
<event>
 6    1  0.9240440E-006  0.1381444E+03  0.7546771E-02  0.1228287E+00
          2   -1    0    0  501    0  0.00000000000E+00  0.00000000000E+00  0.42796156355E+03  0.42796156355E+03  0.00000000000E+00 0. -1.
         -2   -1    0    0    0  501 -0.00000000000E+00 -0.00000000000E+00 -0.35029159445E+02  0.35029159445E+02  0.00000000000E+00 0.  1.
          5    1    1    2  502    0  0.37934371543E+02  0.10054164512E+02  0.17773079146E+03  0.18207258718E+03  0.47000000000E+01 0. -1.
         -5    1    1    2    0  502 -0.88133935846E+01 -0.61156039778E+02  0.33837592002E+02  0.70603185058E+02  0.47000000000E+01 0. -1.
        -11    1    1    2    0    0 -0.15243353397E+02  0.74879289293E+02  0.11103104946E+03  0.13478561396E+03  0.00000000000E+00 0. -1.
         11    1    1    2    0    0 -0.13877624561E+02 -0.23777414027E+02  0.70332971179E+02  0.75529336791E+02  0.00000000000E+00 0.  1.
<mgrwt>
<rscale>  0 0.12944163E+03</rscale>
<asrwt>0</asrwt>
<pdfrwt beam="1">  1        2 0.65840237E-01 0.13814436E+03</pdfrwt>
<pdfrwt beam="2">  1       -2 0.53891017E-02 0.13814436E+03</pdfrwt>
<totfact> 0.12262720E+04</totfact>
</mgrwt>
</event>
<event>
 6    1  0.9240440E-006  0.1471663E+03  0.7546771E-02  0.1219978E+00
          2   -1    0    0  501    0  0.00000000000E+00  0.00000000000E+00  0.14817392474E+03  0.14817392474E+03  0.00000000000E+00 0. -1.
         -2   -1    0    0    0  501 -0.00000000000E+00 -0.00000000000E+00 -0.11011215971E+03  0.11011215971E+03  0.00000000000E+00 0.  1.
          5    1    1    2  502    0  0.83279849231E+02  0.17354406415E+02  0.51603440500E+02  0.99607799802E+02  0.47000000000E+01 0. -1.
         -5    1    1    2    0  502 -0.36593366665E+02 -0.38282915952E+02 -0.82682019084E+01  0.53806219905E+02  0.47000000000E+01 0.  1.
        -11    1    1    2    0    0  0.19444031221E+02 -0.12373380082E+02  0.15735881666E+02  0.27906788718E+02  0.00000000000E+00 0.  1.
         11    1    1    2    0    0 -0.66130513787E+02  0.33301889620E+02 -0.21009355224E+02  0.76965276020E+02  0.00000000000E+00 0. -1.
<mgrwt>
<rscale>  0 0.13517108E+03</rscale>
<asrwt>0</asrwt>
<pdfrwt beam="1">  1        2 0.22795989E-01 0.14716630E+03</pdfrwt>
<pdfrwt beam="2">  1       -2 0.16940332E-01 0.14716630E+03</pdfrwt>
<totfact> 0.63688244E+03</totfact>
</mgrwt>
</event>
<event>
 6    1  0.9240440E-006  0.3284194E+03  0.7546771E-02  0.1073086E+00
          1   -1    0    0  501    0  0.00000000000E+00  0.00000000000E+00  0.23781503316E+03  0.23781503316E+03  0.00000000000E+00 0. -1.
         -1   -1    0    0    0  501 -0.00000000000E+00 -0.00000000000E+00 -0.72671339209E+03  0.72671339209E+03  0.00000000000E+00 0.  1.
          5    1    1    2  502    0  0.20128509062E+03  0.28392960672E+02 -0.22273263648E+02  0.20454837129E+03  0.47000000000E+01 0.  1.
         -5    1    1    2    0  502  0.96349652482E+02  0.32012773597E+02  0.79011431216E+02  0.12873604573E+03  0.47000000000E+01 0.  1.
        -11    1    1    2    0    0 -0.18743674706E+03  0.51054552285E+01 -0.35560867735E+03  0.40201508831E+03  0.00000000000E+00 0. -1.
         11    1    1    2    0    0 -0.11019799604E+03 -0.65511189497E+02 -0.19002784914E+03  0.22922891992E+03  0.00000000000E+00 0.  1.
<mgrwt>
<rscale>  0 0.32563201E+03</rscale>
<asrwt>0</asrwt>
<pdfrwt beam="1">  1        1 0.36586929E-01 0.32841937E+03</pdfrwt>
<pdfrwt beam="2">  1       -1 0.11180206E+00 0.32841937E+03</pdfrwt>
<totfact> 0.91983328E+01</totfact>
</mgrwt>
</event>
<event>
 6    1  0.9240440E-006  0.1450816E+03  0.7546771E-02  0.1219063E+00
          1   -1    0    0  501    0  0.00000000000E+00  0.00000000000E+00  0.22840628181E+03  0.22840628181E+03  0.00000000000E+00 0. -1.
         -1   -1    0    0    0  501 -0.00000000000E+00 -0.00000000000E+00 -0.79232841760E+02  0.79232841760E+02  0.00000000000E+00 0.  1.
          5    1    1    2  502    0 -0.10717628390E+02 -0.40050299343E+02  0.53217524916E+02  0.67624618254E+02  0.47000000000E+01 0. -1.
         -5    1    1    2    0  502  0.81661819255E+02  0.59835828302E+02  0.76289295685E+02  0.12685080098E+03  0.47000000000E+01 0. -1.
        -11    1    1    2    0    0 -0.35664348124E+02  0.36628240809E+01  0.49666999947E+02  0.61254982582E+02  0.00000000000E+00 0.  1.
         11    1    1    2    0    0 -0.35279842741E+02 -0.23448353040E+02 -0.30000380500E+02  0.51908721755E+02  0.00000000000E+00 0. -1.
<mgrwt>
<rscale>  0 0.13582233E+03</rscale>
<asrwt>0</asrwt>
<pdfrwt beam="1">  1        1 0.35139428E-01 0.14508160E+03</pdfrwt>
<pdfrwt beam="2">  1       -1 0.12189668E-01 0.14508160E+03</pdfrwt>
<totfact> 0.53127600E+03</totfact>
</mgrwt>
</event>
<event>
 6    1  0.9240440E-006  0.1278835E+03  0.7546771E-02  0.1261820E+00
          1   -1    0    0  501    0  0.00000000000E+00  0.00000000000E+00  0.19484464690E+03  0.19484464690E+03  0.00000000000E+00 0. -1.
         -1   -1    0    0    0  501 -0.00000000000E+00 -0.00000000000E+00 -0.59550490496E+02  0.59550490496E+02  0.00000000000E+00 0.  1.
          5    1    1    2  502    0 -0.14052343575E+02 -0.16787273272E+02  0.14624130039E+03  0.14794556041E+03  0.47000000000E+01 0.  1.
         -5    1    1    2    0  502  0.36177958607E+02  0.11850835479E+01 -0.11060857807E+02  0.38140289556E+02  0.47000000000E+01 0.  1.
        -11    1    1    2    0    0 -0.20369484469E+02  0.35096419054E+02 -0.15328621232E+02  0.43377887879E+02  0.00000000000E+00 0.  1.
         11    1    1    2    0    0 -0.17561305633E+01 -0.19494229331E+02  0.15442335044E+02  0.24931399547E+02  0.00000000000E+00 0. -1.
<mgrwt>
<rscale>  0 0.10932782E+03</rscale>
<asrwt>0</asrwt>
<pdfrwt beam="1">  1        1 0.29976099E-01 0.12788351E+03</pdfrwt>
<pdfrwt beam="2">  1       -1 0.91616140E-02 0.12788351E+03</pdfrwt>
<totfact> 0.99331765E+03</totfact>
</mgrwt>
</event>
<event>
 6    1  0.9240440E-006  0.2229919E+03  0.7546771E-02  0.1131672E+00
         -1   -1    0    0    0  501 -0.00000000000E+00  0.00000000000E+00  0.54815605855E+02  0.54815605855E+02  0.00000000000E+00 0.  1.
          1   -1    0    0  501    0  0.00000000000E+00 -0.00000000000E+00 -0.22678488352E+03  0.22678488352E+03  0.00000000000E+00 0. -1.
          5    1    1    2  502    0 -0.54161340422E+01 -0.33157643923E+00 -0.17012128024E+03  0.17027267674E+03  0.47000000000E+01 0. -1.
         -5    1    1    2    0  502  0.11297382179E+02 -0.39242767032E+01  0.15442145913E+02  0.20089317115E+02  0.47000000000E+01 0.  1.
        -11    1    1    2    0    0 -0.32011098944E+02  0.13853962091E+02  0.23353082366E+02  0.41976293038E+02  0.00000000000E+00 0. -1.
         11    1    1    2    0    0  0.26129850807E+02 -0.95981089485E+01 -0.40643225702E+02  0.49262202489E+02  0.00000000000E+00 0.  1.
<mgrwt>
<rscale>  0 0.22299194E+03</rscale>
<asrwt>0</asrwt>
<pdfrwt beam="2">  1        1 0.34889982E-01 0.22299194E+03</pdfrwt>
<pdfrwt beam="1">  1       -1 0.84331702E-02 0.22299194E+03</pdfrwt>
<totfact> 0.97030008E+03</totfact>
</mgrwt>
</event>
<event>
 6    1  0.9240440E-006  0.1451815E+03  0.7546771E-02  0.1214315E+00
          2   -1    0    0  501    0  0.00000000000E+00  0.00000000000E+00  0.12550611292E+04  0.12550611292E+04  0.00000000000E+00 0. -1.
         -2   -1    0    0    0  501 -0.00000000000E+00 -0.00000000000E+00 -0.14685108347E+02  0.14685108347E+02  0.00000000000E+00 0.  1.
          5    1    1    2  502    0 -0.36396111259E+02  0.15071277361E+02  0.80755897106E+02  0.89974581040E+02  0.47000000000E+01 0.  1.
         -5    1    1    2    0  502 -0.33304129940E+01 -0.77316424191E+02  0.68939931302E+03  0.69374521540E+03  0.47000000000E+01 0.  1.
        -11    1    1    2    0    0  0.24418501304E+02 -0.10284146694E+02  0.31838894739E+02  0.41421517323E+02  0.00000000000E+00 0.  1.
         11    1    1    2    0    0  0.15308022949E+02  0.72529293524E+02  0.43838191600E+03  0.44460492379E+03  0.00000000000E+00 0. -1.
<mgrwt>
<rscale>  0 0.13926957E+03</rscale>
<asrwt>0</asrwt>
<pdfrwt beam="1">  1        2 0.19308624E+00 0.14518151E+03</pdfrwt>
<pdfrwt beam="2">  1       -2 0.22592484E-02 0.14518151E+03</pdfrwt>
<totfact> 0.11659387E+04</totfact>
</mgrwt>
</event>
<event>
 6    1  0.9240440E-006  0.1526739E+03  0.7546771E-02  0.1205727E+00
          3   -1    0    0  501    0  0.00000000000E+00  0.00000000000E+00  0.10612163055E+03  0.10612163055E+03  0.00000000000E+00 0. -1.
         -3   -1    0    0    0  501 -0.00000000000E+00 -0.00000000000E+00 -0.18606201623E+03  0.18606201623E+03  0.00000000000E+00 0.  1.
          5    1    1    2  502    0  0.12515948969E+02  0.40495983558E+02 -0.92594000023E+02  0.10194269225E+03  0.47000000000E+01 0.  1.
         -5    1    1    2    0  502  0.41661177226E+02  0.28419511268E+02  0.34638095481E+02  0.61361306759E+02  0.47000000000E+01 0.  1.
        -11    1    1    2    0    0 -0.70985217897E+02 -0.26141398700E+02  0.46020855596E+01  0.75785573016E+02  0.00000000000E+00 0. -1.
         11    1    1    2    0    0  0.16808091701E+02 -0.42774096126E+02 -0.26586566693E+02  0.53094074760E+02  0.00000000000E+00 0.  1.
<mgrwt>
<rscale>  0 0.14580302E+03</rscale>
<asrwt>0</asrwt>
<pdfrwt beam="1">  1        3 0.16326405E-01 0.15267387E+03</pdfrwt>
<pdfrwt beam="2">  1       -3 0.28624925E-01 0.15267387E+03</pdfrwt>
<totfact> 0.88242089E+02</totfact>
</mgrwt>
</event>
<event>
 6    1  0.9240440E-006  0.1243026E+03  0.7546771E-02  0.1244989E+00
         -1   -1    0    0    0  501 -0.00000000000E+00  0.00000000000E+00  0.52824851730E+02  0.52824851730E+02  0.00000000000E+00 0.  1.
          1   -1    0    0  501    0  0.00000000000E+00 -0.00000000000E+00 -0.45839475893E+03  0.45839475893E+03  0.00000000000E+00 0. -1.
          5    1    1    2  502    0 -0.72124693514E+02  0.34248277691E+02 -0.33969561970E+03  0.34898441223E+03  0.47000000000E+01 0. -1.
         -5    1    1    2    0  502  0.21737372685E+02 -0.23594219297E+02 -0.46239157631E+02  0.56474332700E+02  0.47000000000E+01 0.  1.
        -11    1    1    2    0    0  0.64483385109E+02  0.19536059552E+02 -0.58454580387E+00  0.67380310713E+02  0.00000000000E+00 0.  1.
         11    1    1    2    0    0 -0.14096064280E+02 -0.30190117946E+02 -0.19050584062E+02  0.38380555010E+02  0.00000000000E+00 0. -1.
<mgrwt>
<rscale>  0 0.11886043E+03</rscale>
<asrwt>0</asrwt>
<pdfrwt beam="2">  1        1 0.70522268E-01 0.12430262E+03</pdfrwt>
<pdfrwt beam="1">  1       -1 0.81269006E-02 0.12430262E+03</pdfrwt>
<totfact> 0.41012422E+03</totfact>
</mgrwt>
</event>
<event>
 6    1  0.9240440E-006  0.3875412E+03  0.7546771E-02  0.1048181E+00
         -2   -1    0    0    0  501 -0.00000000000E+00  0.00000000000E+00  0.57293465646E+02  0.57293465646E+02  0.00000000000E+00 0.  1.
          2   -1    0    0  501    0  0.00000000000E+00 -0.00000000000E+00 -0.65534599218E+03  0.65534599218E+03  0.00000000000E+00 0. -1.
          5    1    1    2  502    0  0.12438780741E+03  0.21036551494E+02 -0.21772517189E+03  0.25167678401E+03  0.47000000000E+01 0.  1.
         -5    1    1    2    0  502  0.96824588940E+01 -0.81115025056E+01 -0.25723979654E+03  0.25759260355E+03  0.47000000000E+01 0.  1.
        -11    1    1    2    0    0 -0.47939533472E+02 -0.20993599908E+02 -0.10151762724E+03  0.11421365395E+03  0.00000000000E+00 0. -1.
         11    1    1    2    0    0 -0.86130732836E+02  0.80685509190E+01 -0.21569930853E+02  0.89156416313E+02  0.00000000000E+00 0.  1.
<mgrwt>
<rscale>  0 0.38754119E+03</rscale>
<asrwt>0</asrwt>
<pdfrwt beam="2">  1        2 0.10082246E+00 0.38754119E+03</pdfrwt>
<pdfrwt beam="1">  1       -2 0.88143792E-02 0.38754119E+03</pdfrwt>
<totfact> 0.37064042E+03</totfact>
</mgrwt>
</event>
<event>
 6    1  0.9240440E-006  0.1516314E+03  0.7546771E-02  0.1207306E+00
         -1   -1    0    0    0  501 -0.00000000000E+00  0.00000000000E+00  0.57763176581E+02  0.57763176581E+02  0.00000000000E+00 0.  1.
          1   -1    0    0  501    0  0.00000000000E+00 -0.00000000000E+00 -0.33821639292E+03  0.33821639292E+03  0.00000000000E+00 0. -1.
          5    1    1    2  502    0  0.66486890801E+02 -0.34996275606E+02 -0.15817068644E+03  0.17517220671E+03  0.47000000000E+01 0. -1.
         -5    1    1    2    0  502  0.17391615663E+02  0.53189418486E+02 -0.21998907932E+02  0.60312722410E+02  0.47000000000E+01 0. -1.
        -11    1    1    2    0    0 -0.78640965461E+02 -0.45389532987E+02 -0.51475510934E+02  0.10437595211E+03  0.00000000000E+00 0.  1.
         11    1    1    2    0    0 -0.52375410027E+01  0.27196390106E+02 -0.48808111025E+02  0.56118688263E+02  0.00000000000E+00 0. -1.
<mgrwt>
<rscale>  0 0.14457233E+03</rscale>
<asrwt>0</asrwt>
<pdfrwt beam="2">  1        1 0.52033292E-01 0.15163136E+03</pdfrwt>
<pdfrwt beam="1">  1       -1 0.88866424E-02 0.15163136E+03</pdfrwt>
<totfact> 0.53120672E+03</totfact>
</mgrwt>
</event>
<event>
 6    1  0.9240440E-006  0.1637746E+03  0.7546771E-02  0.1195705E+00
          1   -1    0    0  501    0  0.00000000000E+00  0.00000000000E+00  0.67394864402E+02  0.67394864402E+02  0.00000000000E+00 0. -1.
         -1   -1    0    0    0  501 -0.00000000000E+00 -0.00000000000E+00 -0.38979500318E+03  0.38979500318E+03  0.00000000000E+00 0.  1.
          5    1    1    2  502    0  0.56226384831E+02 -0.88773498417E+02 -0.65257890651E+02  0.12378538954E+03  0.47000000000E+01 0.  1.
         -5    1    1    2    0  502 -0.53363699169E+02 -0.17009404557E+02 -0.12823890637E+02  0.57650207315E+02  0.47000000000E+01 0.  1.
        -11    1    1    2    0    0 -0.75948722165E+01  0.24914694791E+02 -0.10122586239E+02  0.27944424358E+02  0.00000000000E+00 0. -1.
         11    1    1    2    0    0  0.47321865543E+01  0.80868208182E+02 -0.23419577125E+03  0.24780984637E+03  0.00000000000E+00 0.  1.
<mgrwt>
<rscale>  0 0.15394696E+03</rscale>
<asrwt>0</asrwt>
<pdfrwt beam="1">  1        1 0.10368441E-01 0.16377457E+03</pdfrwt>
<pdfrwt beam="2">  1       -1 0.59968461E-01 0.16377457E+03</pdfrwt>
<totfact> 0.17454135E+03</totfact>
</mgrwt>
</event>
<event>
 6    1  0.9240440E-006  0.3694082E+03  0.7546771E-02  0.1055885E+00
          2   -1    0    0  501    0  0.00000000000E+00  0.00000000000E+00  0.22602539432E+03  0.22602539432E+03  0.00000000000E+00 0. -1.
         -2   -1    0    0    0  501 -0.00000000000E+00 -0.00000000000E+00 -0.61536017772E+03  0.61536017772E+03  0.00000000000E+00 0.  1.
          5    1    1    2  502    0  0.26309178408E+03 -0.23637117134E+03 -0.26229567935E+03  0.44035182627E+03  0.47000000000E+01 0.  1.
         -5    1    1    2    0  502 -0.10941709042E+02 -0.29154015308E+01 -0.24216836925E+02  0.27143429287E+02  0.47000000000E+01 0.  1.
        -11    1    1    2    0    0 -0.21047479681E+03  0.17736901949E+03 -0.11493461699E+03  0.29827734636E+03  0.00000000000E+00 0.  1.
         11    1    1    2    0    0 -0.41675278229E+02  0.61917553381E+02  0.12112349863E+02  0.75612970127E+02  0.00000000000E+00 0. -1.
<mgrwt>
<rscale>  0 0.36689918E+03</rscale>
<asrwt>0</asrwt>
<pdfrwt beam="1">  1        2 0.34773138E-01 0.36940816E+03</pdfrwt>
<pdfrwt beam="2">  1       -2 0.94670797E-01 0.36940816E+03</pdfrwt>
<totfact> 0.14517359E+02</totfact>
</mgrwt>
</event>
<event>
 6    1  0.9240440E-006  0.1744572E+03  0.7546771E-02  0.1194244E+00
         -1   -1    0    0    0  501 -0.00000000000E+00  0.00000000000E+00  0.91513401067E+02  0.91513401067E+02  0.00000000000E+00 0.  1.
          1   -1    0    0  501    0  0.00000000000E+00 -0.00000000000E+00 -0.11435924290E+04  0.11435924290E+04  0.00000000000E+00 0. -1.
          5    1    1    2  502    0  0.94645847528E+02 -0.24141814000E+02 -0.95591856080E+03  0.96090740892E+03  0.47000000000E+01 0. -1.
         -5    1    1    2    0  502 -0.49235915098E+02 -0.13232627925E+02 -0.14557521316E+03  0.15431626766E+03  0.47000000000E+01 0.  1.
        -11    1    1    2    0    0 -0.46540782167E+02 -0.20001071625E+02  0.14427620296E+02  0.52671087878E+02  0.00000000000E+00 0.  1.
         11    1    1    2    0    0  0.11308497370E+01  0.57375513550E+02  0.34987125717E+02  0.67211065623E+02  0.00000000000E+00 0. -1.
<mgrwt>
<rscale>  0 0.15518378E+03</rscale>
<asrwt>0</asrwt>
<pdfrwt beam="2">  1        1 0.17593730E+00 0.17445720E+03</pdfrwt>
<pdfrwt beam="1">  1       -1 0.14078984E-01 0.17445720E+03</pdfrwt>
<totfact> 0.45418657E+02</totfact>
</mgrwt>
</event>
<event>
 6    1  0.1722544E-005  0.1713926E+03  0.7546771E-02  0.1183402E+00
          1   -1    0    0  501    0  0.00000000000E+00  0.00000000000E+00  0.56329312242E+03  0.56329312242E+03  0.00000000000E+00 0. -1.
         -1   -1    0    0    0  501 -0.00000000000E+00 -0.00000000000E+00 -0.45175942306E+02  0.45175942306E+02  0.00000000000E+00 0.  1.
          5    1    1    2  502    0 -0.11766992526E+02  0.89181042092E+02  0.11700044983E+03  0.14765810388E+03  0.47000000000E+01 0. -1.
         -5    1    1    2    0  502 -0.73651304005E+02 -0.88429737472E+01  0.18868211094E+03  0.20279482675E+03  0.47000000000E+01 0. -1.
        -11    1    1    2    0    0  0.24696165392E+02  0.80482167122E+01  0.80250871651E+01  0.27185959635E+02  0.00000000000E+00 0.  1.
         11    1    1    2    0    0  0.60722131139E+02 -0.88386285057E+02  0.20440953218E+03  0.23083017446E+03  0.00000000000E+00 0. -1.
<mgrwt>
<rscale>  0 0.16478093E+03</rscale>
<asrwt>0</asrwt>
<pdfrwt beam="1">  1        1 0.86660475E-01 0.17139262E+03</pdfrwt>
<pdfrwt beam="2">  1       -1 0.69501454E-02 0.17139262E+03</pdfrwt>
<totfact> 0.40185142E+03</totfact>
</mgrwt>
</event>
<event>
 6    1  0.9240440E-006  0.1318861E+03  0.7546771E-02  0.1237902E+00
         -1   -1    0    0    0  501 -0.00000000000E+00  0.00000000000E+00  0.18589018789E+02  0.18589018789E+02  0.00000000000E+00 0.  1.
          1   -1    0    0  501    0  0.00000000000E+00 -0.00000000000E+00 -0.78183290649E+03  0.78183290649E+03  0.00000000000E+00 0. -1.
          5    1    1    2  502    0 -0.43891616423E+02 -0.32336353170E+00 -0.10050645639E+03  0.10977347736E+03  0.47000000000E+01 0.  1.
         -5    1    1    2    0  502  0.68525061581E+02  0.34413714871E+02 -0.43519293496E+03  0.44192190314E+03  0.47000000000E+01 0.  1.
        -11    1    1    2    0    0  0.99669333128E+01 -0.56818934993E+02 -0.15207590170E+03  0.16264934987E+03  0.00000000000E+00 0.  1.
         11    1    1    2    0    0 -0.34600378471E+02  0.22728583654E+02 -0.75468594649E+02  0.86077194910E+02  0.00000000000E+00 0. -1.
<mgrwt>
<rscale>  0 0.12320466E+03</rscale>
<asrwt>0</asrwt>
<pdfrwt beam="2">  1        1 0.12028199E+00 0.13188614E+03</pdfrwt>
<pdfrwt beam="1">  1       -1 0.28598488E-02 0.13188614E+03</pdfrwt>
<totfact> 0.92747785E+03</totfact>
</mgrwt>
</event>
<event>
 6    1  0.9240440E-006  0.1257398E+03  0.7546771E-02  0.1251606E+00
          1   -1    0    0  501    0  0.00000000000E+00  0.00000000000E+00  0.60217276404E+03  0.60217276404E+03  0.00000000000E+00 0. -1.
         -1   -1    0    0    0  501 -0.00000000000E+00 -0.00000000000E+00 -0.24248976937E+02  0.24248976937E+02  0.00000000000E+00 0.  1.
          5    1    1    2  502    0 -0.35709227975E+02  0.26151174293E+02  0.59536051521E+02  0.74334812236E+02  0.47000000000E+01 0.  1.
         -5    1    1    2    0  502  0.22215883147E+02 -0.28679088140E+02  0.41393393485E+03  0.41554714291E+03  0.47000000000E+01 0.  1.
        -11    1    1    2    0    0  0.33569067631E+01  0.28301767274E+02  0.10504034925E+03  0.10883810833E+03  0.00000000000E+00 0. -1.
         11    1    1    2    0    0  0.10136438065E+02 -0.25773853426E+02 -0.58654852309E+00  0.27701677499E+02  0.00000000000E+00 0.  1.
<mgrwt>
<rscale>  0 0.11498594E+03</rscale>
<asrwt>0</asrwt>
<pdfrwt beam="1">  1        1 0.92641952E-01 0.12573982E+03</pdfrwt>
<pdfrwt beam="2">  1       -1 0.37306123E-02 0.12573982E+03</pdfrwt>
<totfact> 0.90907001E+03</totfact>
</mgrwt>
</event>
<event>
 6    1  0.9240440E-006  0.2513133E+03  0.7546771E-02  0.1112478E+00
         -3   -1    0    0    0  501 -0.00000000000E+00  0.00000000000E+00  0.21480760663E+03  0.21480760663E+03  0.00000000000E+00 0.  1.
          3   -1    0    0  501    0  0.00000000000E+00 -0.00000000000E+00 -0.73505729325E+02  0.73505729325E+02  0.00000000000E+00 0. -1.
          5    1    1    2  502    0  0.18680716754E+02 -0.80645490684E+02  0.10797138332E+02  0.83614188642E+02  0.47000000000E+01 0. -1.
         -5    1    1    2    0  502 -0.35190872145E+02  0.28026409296E+02  0.45493641818E+02  0.64153242679E+02  0.47000000000E+01 0. -1.
        -11    1    1    2    0    0  0.52854924740E+02  0.93458844473E+01  0.29124166038E+02  0.61067222573E+02  0.00000000000E+00 0. -1.
         11    1    1    2    0    0 -0.36344769350E+02  0.43273196941E+02  0.55886931114E+02  0.79478682059E+02  0.00000000000E+00 0.  1.
<mgrwt>
<rscale>  0 0.25131327E+03</rscale>
<asrwt>0</asrwt>
<pdfrwt beam="2">  1        3 0.11308574E-01 0.25131327E+03</pdfrwt>
<pdfrwt beam="1">  1       -3 0.33047324E-01 0.25131327E+03</pdfrwt>
<totfact> 0.13539594E+03</totfact>
</mgrwt>
</event>
<event>
 6    1  0.9240440E-006  0.2202378E+03  0.7546771E-02  0.1136533E+00
         -1   -1    0    0    0  501 -0.00000000000E+00  0.00000000000E+00  0.29791198405E+02  0.29791198405E+02  0.00000000000E+00 0.  1.
          1   -1    0    0  501    0  0.00000000000E+00 -0.00000000000E+00 -0.22098369658E+04  0.22098369658E+04  0.00000000000E+00 0. -1.
          5    1    1    2  502    0 -0.11449833585E+03 -0.67694999860E+02 -0.84867572454E+03  0.85904892605E+03  0.47000000000E+01 0. -1.
         -5    1    1    2    0  502 -0.65333112110E+02  0.44437965689E+02 -0.89179509234E+03  0.89530091313E+03  0.47000000000E+01 0. -1.
        -11    1    1    2    0    0  0.56116809609E+02  0.45318184841E+02 -0.10082160416E+03  0.12396705233E+03  0.00000000000E+00 0. -1.
         11    1    1    2    0    0  0.12371463835E+03 -0.22061150670E+02 -0.33875334633E+03  0.36131127267E+03  0.00000000000E+00 0.  1.
<mgrwt>
<rscale>  0 0.21648188E+03</rscale>
<asrwt>0</asrwt>
<pdfrwt beam="2">  1        1 0.33997499E+00 0.22023781E+03</pdfrwt>
<pdfrwt beam="1">  1       -1 0.45832604E-02 0.22023781E+03</pdfrwt>
<totfact> 0.49820559E+02</totfact>
</mgrwt>
</event>
<event>
 6    1  0.9240440E-006  0.1261287E+03  0.7546771E-02  0.1248439E+00
         -2   -1    0    0    0  501 -0.00000000000E+00  0.00000000000E+00  0.19032284995E+02  0.19032284995E+02  0.00000000000E+00 0.  1.
          2   -1    0    0  501    0  0.00000000000E+00 -0.00000000000E+00 -0.65029955156E+03  0.65029955156E+03  0.00000000000E+00 0. -1.
          5    1    1    2  502    0  0.46160579963E+02 -0.22759470702E+02 -0.98591572776E+02  0.11131568116E+03  0.47000000000E+01 0. -1.
         -5    1    1    2    0  502 -0.46496975961E+02  0.39550588656E+02 -0.32249457374E+03  0.32825456269E+03  0.47000000000E+01 0. -1.
        -11    1    1    2    0    0  0.12740962457E+02 -0.40465540578E+02 -0.19385400910E+03  0.19844185280E+03  0.00000000000E+00 0. -1.
         11    1    1    2    0    0 -0.12404566460E+02  0.23674422624E+02 -0.16327110947E+02  0.31319739902E+02  0.00000000000E+00 0.  1.
<mgrwt>
<rscale>  0 0.11681885E+03</rscale>
<asrwt>0</asrwt>
<pdfrwt beam="2">  1        2 0.10004607E+00 0.12612873E+03</pdfrwt>
<pdfrwt beam="1">  1       -2 0.29280442E-02 0.12612873E+03</pdfrwt>
<totfact> 0.18933332E+04</totfact>
</mgrwt>
</event>
<event>
 6    1  0.9240440E-006  0.1452145E+03  0.7546771E-02  0.1216074E+00
         -1   -1    0    0    0  501 -0.00000000000E+00  0.00000000000E+00  0.45809498081E+03  0.45809498081E+03  0.00000000000E+00 0.  1.
          1   -1    0    0  501    0  0.00000000000E+00 -0.00000000000E+00 -0.50521807129E+02  0.50521807129E+02  0.00000000000E+00 0. -1.
          5    1    1    2  502    0 -0.79845746211E+02 -0.29257442385E+02  0.41608228357E+02  0.94787529717E+02  0.47000000000E+01 0. -1.
         -5    1    1    2    0  502  0.45456498111E+02 -0.36111410193E+02  0.51217197652E+02  0.77560418397E+02  0.47000000000E+01 0. -1.
        -11    1    1    2    0    0  0.61561969981E+00  0.69068424200E+02  0.11898799155E+03  0.13758258735E+03  0.00000000000E+00 0. -1.
         11    1    1    2    0    0  0.33773628400E+02 -0.36995716226E+01  0.19575975612E+03  0.19868625247E+03  0.00000000000E+00 0.  1.
<mgrwt>
<rscale>  0 0.13797950E+03</rscale>
<asrwt>0</asrwt>
<pdfrwt beam="2">  1        1 0.77725860E-02 0.14521452E+03</pdfrwt>
<pdfrwt beam="1">  1       -1 0.70476148E-01 0.14521452E+03</pdfrwt>
<totfact> 0.18668390E+03</totfact>
</mgrwt>
</event>
<event>
 6    1  0.9240440E-006  0.1313992E+03  0.7546771E-02  0.1238606E+00
         -1   -1    0    0    0  501 -0.00000000000E+00  0.00000000000E+00  0.15096558642E+03  0.15096558642E+03  0.00000000000E+00 0.  1.
          1   -1    0    0  501    0  0.00000000000E+00 -0.00000000000E+00 -0.89679161002E+02  0.89679161002E+02  0.00000000000E+00 0. -1.
          5    1    1    2  502    0 -0.16871044330E+01  0.58610224848E+02  0.28604687057E+02  0.65408890067E+02  0.47000000000E+01 0. -1.
         -5    1    1    2    0  502  0.41803086186E+02 -0.53011025049E+02 -0.59268226206E+01  0.67932937651E+02  0.47000000000E+01 0. -1.
        -11    1    1    2    0    0 -0.37594837072E+02  0.39539444897E+02  0.25550316295E+02  0.60245814294E+02  0.00000000000E+00 0. -1.
         11    1    1    2    0    0 -0.25211446810E+01 -0.45138644696E+02  0.13058244689E+02  0.47057105413E+02  0.00000000000E+00 0.  1.
<mgrwt>
<rscale>  0 0.12276397E+03</rscale>
<asrwt>0</asrwt>
<pdfrwt beam="2">  1        1 0.13796794E-01 0.13139923E+03</pdfrwt>
<pdfrwt beam="1">  1       -1 0.23225475E-01 0.13139923E+03</pdfrwt>
<totfact> 0.62123639E+03</totfact>
</mgrwt>
</event>
<event>
 6    1  0.9240440E-006  0.1393184E+03  0.7546771E-02  0.1217658E+00
          2   -1    0    0  501    0  0.00000000000E+00  0.00000000000E+00  0.19682131108E+04  0.19682131108E+04  0.00000000000E+00 0.  1.
         -2   -1    0    0    0  501 -0.00000000000E+00 -0.00000000000E+00 -0.15160085667E+02  0.15160085667E+02  0.00000000000E+00 0. -1.
          5    1    1    2  502    0  0.33572469613E+02 -0.44236958414E+02  0.56886795625E+03  0.57159151573E+03  0.47000000000E+01 0.  1.
         -5    1    1    2    0  502  0.15619251654E+02  0.81175967284E+02  0.10511618428E+04  0.10544177580E+04  0.47000000000E+01 0.  1.
        -11    1    1    2    0    0  0.23148027182E+02 -0.50459093999E+02  0.12748496987E+03  0.13904808115E+03  0.00000000000E+00 0. -1.
         11    1    1    2    0    0 -0.72339748449E+02  0.13520085128E+02  0.20553825621E+03  0.21831584156E+03  0.00000000000E+00 0.  1.
<mgrwt>
<rscale>  0 0.13683100E+03</rscale>
<asrwt>0</asrwt>
<pdfrwt beam="1">  1        2 0.30280181E+00 0.13931837E+03</pdfrwt>
<pdfrwt beam="2">  1       -2 0.23323224E-02 0.13931837E+03</pdfrwt>
<totfact> 0.47292146E+03</totfact>
</mgrwt>
</event>
<event>
 6    1  0.9240440E-006  0.2273636E+03  0.7546771E-02  0.1167396E+00
          1   -1    0    0  501    0  0.00000000000E+00  0.00000000000E+00  0.17761062139E+03  0.17761062139E+03  0.00000000000E+00 0. -1.
         -1   -1    0    0    0  501 -0.00000000000E+00 -0.00000000000E+00 -0.16130889903E+03  0.16130889903E+03  0.00000000000E+00 0.  1.
          5    1    1    2  502    0 -0.11377127981E+02  0.96835581992E+02 -0.43047171728E+01  0.97709720963E+02  0.47000000000E+01 0. -1.
         -5    1    1    2    0  502 -0.12319004849E+02 -0.11949745974E+03  0.69279757081E+02  0.13875581252E+03  0.47000000000E+01 0.  1.
        -11    1    1    2    0    0  0.42489535921E+02 -0.30973687027E+00  0.32837291365E+01  0.42617361213E+02  0.00000000000E+00 0.  1.
         11    1    1    2    0    0 -0.18793403092E+02  0.22971614623E+02 -0.51957046681E+02  0.59836625724E+02  0.00000000000E+00 0. -1.
<mgrwt>
<rscale>  0 0.18042088E+03</rscale>
<asrwt>0</asrwt>
<pdfrwt beam="1">  1        1 0.27324711E-01 0.22736357E+03</pdfrwt>
<pdfrwt beam="2">  1       -1 0.24816754E-01 0.22736357E+03</pdfrwt>
<totfact> 0.23840082E+03</totfact>
</mgrwt>
</event>
<event>
 6    1  0.9240440E-006  0.1524052E+03  0.7546771E-02  0.1204226E+00
         -2   -1    0    0    0  501 -0.00000000000E+00  0.00000000000E+00  0.12292448402E+02  0.12292448402E+02  0.00000000000E+00 0.  1.
          2   -1    0    0  501    0  0.00000000000E+00 -0.00000000000E+00 -0.18069548402E+04  0.18069548402E+04  0.00000000000E+00 0. -1.
          5    1    1    2  502    0 -0.63232752033E+02 -0.22184743915E+02 -0.93206703405E+03  0.93448466534E+03  0.47000000000E+01 0. -1.
         -5    1    1    2    0  502 -0.26407552104E+02  0.59053854159E+02 -0.29727112051E+03  0.30426456513E+03  0.47000000000E+01 0.  1.
        -11    1    1    2    0    0  0.25729277271E+02 -0.56535468504E+02 -0.33293071724E+03  0.33867553409E+03  0.00000000000E+00 0.  1.
         11    1    1    2    0    0  0.63911026866E+02  0.19666358261E+02 -0.23239351997E+03  0.24182252402E+03  0.00000000000E+00 0. -1.
<mgrwt>
<rscale>  0 0.14698616E+03</rscale>
<asrwt>0</asrwt>
<pdfrwt beam="2">  1        2 0.27799282E+00 0.15240524E+03</pdfrwt>
<pdfrwt beam="1">  1       -2 0.18911475E-02 0.15240524E+03</pdfrwt>
<totfact> 0.77767207E+03</totfact>
</mgrwt>
</event>
<event>
 6    1  0.9240440E-006  0.1290549E+03  0.7546771E-02  0.1237137E+00
         -1   -1    0    0    0  501 -0.00000000000E+00  0.00000000000E+00  0.19524895268E+03  0.19524895268E+03  0.00000000000E+00 0. -1.
          1   -1    0    0  501    0  0.00000000000E+00 -0.00000000000E+00 -0.12733884400E+03  0.12733884400E+03  0.00000000000E+00 0.  1.
          5    1    1    2  502    0  0.14615286356E+02 -0.18330190230E+02 -0.86740615206E+02  0.89975701140E+02  0.47000000000E+01 0.  1.
         -5    1    1    2    0  502 -0.43638174849E+02  0.32067729261E+02  0.16694341669E+02  0.56863174444E+02  0.47000000000E+01 0.  1.
        -11    1    1    2    0    0  0.66453140239E+02 -0.50245596320E+01  0.10848094450E+03  0.12731606877E+03  0.00000000000E+00 0. -1.
         11    1    1    2    0    0 -0.37430251746E+02 -0.87129793990E+01  0.29475437720E+02  0.48432852328E+02  0.00000000000E+00 0.  1.
<mgrwt>
<rscale>  0 0.12368640E+03</rscale>
<asrwt>0</asrwt>
<pdfrwt beam="2">  1        1 0.19590591E-01 0.12905493E+03</pdfrwt>
<pdfrwt beam="1">  1       -1 0.30038301E-01 0.12905493E+03</pdfrwt>
<totfact> 0.25853073E+03</totfact>
</mgrwt>
</event>
<event>
 6    1  0.9240440E-006  0.1466995E+03  0.7546771E-02  0.1215442E+00
          1   -1    0    0  501    0  0.00000000000E+00  0.00000000000E+00  0.32468020746E+03  0.32468020746E+03  0.00000000000E+00 0.  1.
         -1   -1    0    0    0  501 -0.00000000000E+00 -0.00000000000E+00 -0.58176346056E+02  0.58176346056E+02  0.00000000000E+00 0. -1.
          5    1    1    2  502    0 -0.56596096435E+02  0.58744623171E+02  0.93097316354E+02  0.12386786991E+03  0.47000000000E+01 0.  1.
         -5    1    1    2    0  502  0.60076326648E+02  0.17955148581E+02  0.10942646286E+03  0.12620536105E+03  0.47000000000E+01 0.  1.
        -11    1    1    2    0    0 -0.10167518911E+02 -0.95681480220E+02  0.52346980379E+02  0.10953780376E+03  0.00000000000E+00 0.  1.
         11    1    1    2    0    0  0.66872886978E+01  0.18981708467E+02  0.11633101816E+02  0.23245518801E+02  0.00000000000E+00 0. -1.
<mgrwt>
<rscale>  0 0.13844128E+03</rscale>
<asrwt>0</asrwt>
<pdfrwt beam="1">  1        1 0.49950800E-01 0.14669949E+03</pdfrwt>
<pdfrwt beam="2">  1       -1 0.89502073E-02 0.14669949E+03</pdfrwt>
<totfact> 0.55190080E+03</totfact>
</mgrwt>
</event>
<event>
 6    1  0.9240440E-006  0.1381658E+03  0.7546771E-02  0.1227856E+00
         -1   -1    0    0    0  501 -0.00000000000E+00  0.00000000000E+00  0.22210335587E+02  0.22210335587E+02  0.00000000000E+00 0. -1.
          1   -1    0    0  501    0  0.00000000000E+00 -0.00000000000E+00 -0.10026978095E+04  0.10026978095E+04  0.00000000000E+00 0.  1.
          5    1    1    2  502    0  0.13666660112E+02  0.82177154718E+02 -0.31375503099E+03  0.32466008659E+03  0.47000000000E+01 0.  1.
         -5    1    1    2    0  502 -0.20847767357E+00 -0.24898783030E+02 -0.50781503721E+03  0.50844684568E+03  0.47000000000E+01 0.  1.
        -11    1    1    2    0    0 -0.23006652006E+02 -0.49369501613E+02 -0.16788511067E+03  0.17649947340E+03  0.00000000000E+00 0.  1.
         11    1    1    2    0    0  0.95484695676E+01 -0.79088700752E+01  0.89677049575E+01  0.15301739416E+02  0.00000000000E+00 0. -1.
<mgrwt>
<rscale>  0 0.12973077E+03</rscale>
<asrwt>0</asrwt>
<pdfrwt beam="2">  1        1 0.15426123E+00 0.13816578E+03</pdfrwt>
<pdfrwt beam="1">  1       -1 0.34169740E-02 0.13816578E+03</pdfrwt>
<totfact> 0.48375626E+03</totfact>
</mgrwt>
</event>
<event>
 6    1  0.9240440E-006  0.1777165E+03  0.7546771E-02  0.1177019E+00
          1   -1    0    0  501    0  0.00000000000E+00  0.00000000000E+00  0.78452253381E+02  0.78452253381E+02  0.00000000000E+00 0.  1.
         -1   -1    0    0    0  501 -0.00000000000E+00 -0.00000000000E+00 -0.42988024736E+03  0.42988024736E+03  0.00000000000E+00 0. -1.
          5    1    1    2  502    0  0.21937480705E+02  0.98294512055E+01 -0.79120310656E+02  0.82825024775E+02  0.47000000000E+01 0.  1.
         -5    1    1    2    0  502  0.28537773999E+02  0.10597441718E+03  0.44520795240E+01  0.10994040501E+03  0.47000000000E+01 0.  1.
        -11    1    1    2    0    0 -0.39125199566E+02 -0.89846502436E+02 -0.11386848086E+03  0.15023051013E+03  0.00000000000E+00 0.  1.
         11    1    1    2    0    0 -0.11350055138E+02 -0.25957365946E+02 -0.16289128199E+03  0.16533656083E+03  0.00000000000E+00 0. -1.
<mgrwt>
<rscale>  0 0.17079700E+03</rscale>
<asrwt>0</asrwt>
<pdfrwt beam="1">  1        1 0.12069577E-01 0.17771653E+03</pdfrwt>
<pdfrwt beam="2">  1       -1 0.66135424E-01 0.17771653E+03</pdfrwt>
<totfact> 0.11838637E+03</totfact>
</mgrwt>
</event>
<event>
 6    1  0.9240440E-006  0.1297581E+03  0.7546771E-02  0.1241302E+00
         -2   -1    0    0    0  501 -0.00000000000E+00  0.00000000000E+00  0.77287817714E+01  0.77287817714E+01  0.00000000000E+00 0.  1.
          2   -1    0    0  501    0  0.00000000000E+00 -0.00000000000E+00 -0.22211371676E+04  0.22211371676E+04  0.00000000000E+00 0. -1.
          5    1    1    2  502    0  0.17017053384E+02  0.70418464459E+02 -0.81041262822E+03  0.81365782625E+03  0.47000000000E+01 0. -1.
         -5    1    1    2    0  502 -0.35022497107E+02 -0.40619705790E+02 -0.95554154196E+03  0.95705708514E+03  0.47000000000E+01 0. -1.
        -11    1    1    2    0    0  0.30875524870E+02  0.26258858729E+02 -0.16558307621E+03  0.17047164229E+03  0.00000000000E+00 0.  1.
         11    1    1    2    0    0 -0.12870081147E+02 -0.56057617398E+02 -0.28187113944E+03  0.28767939570E+03  0.00000000000E+00 0. -1.
<mgrwt>
<rscale>  0 0.12109469E+03</rscale>
<asrwt>0</asrwt>
<pdfrwt beam="2">  1        2 0.34171347E+00 0.12975811E+03</pdfrwt>
<pdfrwt beam="1">  1       -2 0.11890431E-02 0.12975811E+03</pdfrwt>
<totfact> 0.92688755E+03</totfact>
</mgrwt>
</event>
<event>
 6    1  0.9240440E-006  0.5600512E+03  0.7546771E-02  0.9991939E-01
         -1   -1    0    0    0  501 -0.00000000000E+00  0.00000000000E+00  0.26301006908E+03  0.26301006908E+03  0.00000000000E+00 0.  1.
          1   -1    0    0  501    0  0.00000000000E+00 -0.00000000000E+00 -0.29814195605E+03  0.29814195605E+03  0.00000000000E+00 0. -1.
          5    1    1    2  502    0  0.11666939369E+03  0.22163958426E+02 -0.20517219942E+03  0.23710906750E+03  0.47000000000E+01 0. -1.
         -5    1    1    2    0  502 -0.25462729835E+02  0.31275341664E+02 -0.48784538074E+02  0.63470613374E+02  0.47000000000E+01 0.  1.
        -11    1    1    2    0    0 -0.52589813412E+02 -0.89712793410E+01  0.18525005938E+03  0.19277903628E+03  0.00000000000E+00 0.  1.
         11    1    1    2    0    0 -0.38616850440E+02 -0.44468020749E+02  0.33574791139E+02  0.67793307984E+02  0.00000000000E+00 0. -1.
<mgrwt>
<rscale>  0 0.56005120E+03</rscale>
<asrwt>0</asrwt>
<pdfrwt beam="2">  1        1 0.45867993E-01 0.56005120E+03</pdfrwt>
<pdfrwt beam="1">  1       -1 0.40463088E-01 0.56005120E+03</pdfrwt>
<totfact> 0.53268743E+02</totfact>
</mgrwt>
</event>
<event>
 6    1  0.9240440E-006  0.1537290E+03  0.7546771E-02  0.1205452E+00
          3   -1    0    0  501    0  0.00000000000E+00  0.00000000000E+00  0.73696871516E+02  0.73696871516E+02  0.00000000000E+00 0. -1.
         -3   -1    0    0    0  501 -0.00000000000E+00 -0.00000000000E+00 -0.33602075683E+03  0.33602075683E+03  0.00000000000E+00 0.  1.
          5    1    1    2  502    0  0.15265251097E+02 -0.35791257212E+02 -0.42273250413E+02  0.57646853204E+02  0.47000000000E+01 0. -1.
         -5    1    1    2    0  502  0.60641900809E+02  0.83162885049E+02 -0.48647071926E+01  0.10314679326E+03  0.47000000000E+01 0. -1.
        -11    1    1    2    0    0 -0.81956082437E+02 -0.59585157375E+02 -0.21193542712E+03  0.23491235748E+03  0.00000000000E+00 0.  1.
         11    1    1    2    0    0  0.60489305316E+01  0.12213529538E+02 -0.32505005871E+01  0.14011624404E+02  0.00000000000E+00 0. -1.
<mgrwt>
<rscale>  0 0.14601904E+03</rscale>
<asrwt>0</asrwt>
<pdfrwt beam="1">  1        3 0.11337980E-01 0.15372901E+03</pdfrwt>
<pdfrwt beam="2">  1       -3 0.51695500E-01 0.15372901E+03</pdfrwt>
<totfact> 0.52693885E+02</totfact>
</mgrwt>
</event>
<event>
 6    1  0.9240440E-006  0.1292651E+03  0.7546771E-02  0.1242263E+00
         -1   -1    0    0    0  501 -0.00000000000E+00  0.00000000000E+00  0.68661031815E+02  0.68661031815E+02  0.00000000000E+00 0.  1.
          1   -1    0    0  501    0  0.00000000000E+00 -0.00000000000E+00 -0.19691746554E+03  0.19691746554E+03  0.00000000000E+00 0. -1.
          5    1    1    2  502    0 -0.29412116113E+02  0.24098579958E+02 -0.93474838787E+02  0.10102202540E+03  0.47000000000E+01 0. -1.
         -5    1    1    2    0  502  0.60926364007E+02 -0.14513785707E+02 -0.79999208611E+01  0.63314773477E+02  0.47000000000E+01 0. -1.
        -11    1    1    2    0    0 -0.54433782255E+02 -0.29423975929E+02 -0.17057220815E+01  0.61900860235E+02  0.00000000000E+00 0.  1.
         11    1    1    2    0    0  0.22919534361E+02  0.19839181678E+02 -0.25075951995E+02  0.39340838240E+02  0.00000000000E+00 0. -1.
<mgrwt>
<rscale>  0 0.12050704E+03</rscale>
<asrwt>0</asrwt>
<pdfrwt beam="2">  1        1 0.30294994E-01 0.12926506E+03</pdfrwt>
<pdfrwt beam="1">  1       -1 0.10563236E-01 0.12926506E+03</pdfrwt>
<totfact> 0.78995583E+03</totfact>
</mgrwt>
</event>
<event>
 6    1  0.9240440E-006  0.1475044E+03  0.7546771E-02  0.1213517E+00
         -1   -1    0    0    0  501 -0.00000000000E+00  0.00000000000E+00  0.86763067142E+02  0.86763067142E+02  0.00000000000E+00 0.  1.
          1   -1    0    0  501    0  0.00000000000E+00 -0.00000000000E+00 -0.27289163703E+03  0.27289163703E+03  0.00000000000E+00 0. -1.
          5    1    1    2  502    0 -0.32258002883E+02 -0.24221564771E+02 -0.15459973805E+03  0.15984502480E+03  0.47000000000E+01 0. -1.
         -5    1    1    2    0  502  0.50199862783E+02 -0.52001082751E+02 -0.35195365511E+02  0.80529141211E+02  0.47000000000E+01 0. -1.
        -11    1    1    2    0    0  0.20751400613E+02  0.41318562997E+02  0.35431999057E+02  0.58251788236E+02  0.00000000000E+00 0.  1.
         11    1    1    2    0    0 -0.38693260514E+02  0.34904084525E+02 -0.31765465381E+02  0.61028749918E+02  0.00000000000E+00 0. -1.
<mgrwt>
<rscale>  0 0.13986044E+03</rscale>
<asrwt>0</asrwt>
<pdfrwt beam="2">  1        1 0.41983329E-01 0.14750444E+03</pdfrwt>
<pdfrwt beam="1">  1       -1 0.13348164E-01 0.14750444E+03</pdfrwt>
<totfact> 0.37044753E+03</totfact>
</mgrwt>
</event>
<event>
 6    1  0.9240440E-006  0.2873681E+03  0.7546771E-02  0.1091731E+00
         -2   -1    0    0    0  501 -0.00000000000E+00  0.00000000000E+00  0.18210005630E+02  0.18210005630E+02  0.00000000000E+00 0.  1.
          2   -1    0    0  501    0  0.00000000000E+00 -0.00000000000E+00 -0.11337235348E+04  0.11337235348E+04  0.00000000000E+00 0. -1.
          5    1    1    2  502    0  0.99088434136E+02  0.34739662810E+02 -0.65089520516E+03  0.65932694474E+03  0.47000000000E+01 0. -1.
         -5    1    1    2    0  502 -0.19594699850E+02  0.12626865860E+02 -0.26124782265E+02  0.35326820576E+02  0.47000000000E+01 0. -1.
        -11    1    1    2    0    0 -0.28598625117E+02 -0.65236311468E+02 -0.18793421481E+03  0.20097991638E+03  0.00000000000E+00 0.  1.
         11    1    1    2    0    0 -0.50895109168E+02  0.17869782799E+02 -0.25055932693E+03  0.25629985873E+03  0.00000000000E+00 0. -1.
<mgrwt>
<rscale>  0 0.28736814E+03</rscale>
<asrwt>0</asrwt>
<pdfrwt beam="2">  1        2 0.17441895E+00 0.28736814E+03</pdfrwt>
<pdfrwt beam="1">  1       -2 0.28015402E-02 0.28736814E+03</pdfrwt>
<totfact> 0.10237450E+04</totfact>
</mgrwt>
</event>
<event>
 6    1  0.9240440E-006  0.1556694E+03  0.7546771E-02  0.1202130E+00
         -1   -1    0    0    0  501 -0.00000000000E+00  0.00000000000E+00  0.34064809432E+02  0.34064809432E+02  0.00000000000E+00 0.  1.
          1   -1    0    0  501    0  0.00000000000E+00 -0.00000000000E+00 -0.11836901542E+04  0.11836901542E+04  0.00000000000E+00 0. -1.
          5    1    1    2  502    0  0.51293802667E+02  0.91492429321E+01 -0.16688309200E+03  0.17489087808E+03  0.47000000000E+01 0.  1.
         -5    1    1    2    0  502 -0.18457478782E+02  0.77639687882E+02 -0.86242419564E+03  0.86612134421E+03  0.47000000000E+01 0.  1.
        -11    1    1    2    0    0 -0.40701153650E+02 -0.13439568122E+02 -0.99692110789E+01  0.44006716184E+02  0.00000000000E+00 0.  1.
         11    1    1    2    0    0  0.78648297658E+01 -0.73349362692E+02 -0.11034884606E+03  0.13273602519E+03  0.00000000000E+00 0. -1.
<mgrwt>
<rscale>  0 0.14865917E+03</rscale>
<asrwt>0</asrwt>
<pdfrwt beam="2">  1        1 0.18210615E+00 0.15566938E+03</pdfrwt>
<pdfrwt beam="1">  1       -1 0.52407407E-02 0.15566938E+03</pdfrwt>
<totfact> 0.19216495E+03</totfact>
</mgrwt>
</event>
<event>
 6    1  0.9240440E-006  0.5053240E+03  0.7546771E-02  0.1012399E+00
         -2   -1    0    0    0  501 -0.00000000000E+00  0.00000000000E+00  0.86731767615E+03  0.86731767615E+03  0.00000000000E+00 0.  1.
          2   -1    0    0  501    0  0.00000000000E+00 -0.00000000000E+00 -0.73604045019E+02  0.73604045019E+02  0.00000000000E+00 0. -1.
          5    1    1    2  502    0  0.77171009824E+01  0.15107742605E+02  0.32069791654E+02  0.36583590186E+02  0.47000000000E+01 0.  1.
         -5    1    1    2    0  502 -0.15861758703E+03 -0.13126539286E+03  0.14330033386E+03  0.25089284159E+03  0.47000000000E+01 0.  1.
        -11    1    1    2    0    0  0.47310869900E+02  0.11191406083E+02  0.28244468308E+03  0.28659826409E+03  0.00000000000E+00 0.  1.
         11    1    1    2    0    0  0.10358961615E+03  0.10496624417E+03  0.33589882254E+03  0.36684702530E+03  0.00000000000E+00 0. -1.
<mgrwt>
<rscale>  0 0.50532401E+03</rscale>
<asrwt>0</asrwt>
<pdfrwt beam="2">  1        2 0.11323700E-01 0.50532401E+03</pdfrwt>
<pdfrwt beam="1">  1       -2 0.13343348E+00 0.50532401E+03</pdfrwt>
<totfact> 0.23433762E+02</totfact>
</mgrwt>
</event>
<event>
 6    1  0.9892036E-006  0.3549617E+03  0.7546771E-02  0.1060597E+00
         -1   -1    0    0    0  501 -0.00000000000E+00  0.00000000000E+00  0.91405890783E+02  0.91405890783E+02  0.00000000000E+00 0.  1.
          1   -1    0    0  501    0  0.00000000000E+00 -0.00000000000E+00 -0.34461078875E+03  0.34461078875E+03  0.00000000000E+00 0. -1.
          5    1    1    2  502    0 -0.20080966301E+02 -0.60414117540E+01 -0.49092174517E+02  0.53589882090E+02  0.47000000000E+01 0.  1.
         -5    1    1    2    0  502  0.14512656670E+03  0.59832383203E+02 -0.13195775877E+03  0.20512575299E+03  0.47000000000E+01 0.  1.
        -11    1    1    2    0    0 -0.39836509119E+02  0.15450014987E+02  0.51280622283E+01  0.43034258958E+02  0.00000000000E+00 0.  1.
         11    1    1    2    0    0 -0.85209091277E+02 -0.69240986437E+02 -0.77283026914E+02  0.13426678550E+03  0.00000000000E+00 0. -1.
<mgrwt>
<rscale>  0 0.35496172E+03</rscale>
<asrwt>0</asrwt>
<pdfrwt beam="2">  1        1 0.53017044E-01 0.35496172E+03</pdfrwt>
<pdfrwt beam="1">  1       -1 0.14062445E-01 0.35496172E+03</pdfrwt>
<totfact> 0.26242695E+03</totfact>
</mgrwt>
</event>
<event>
 6    1  0.9240440E-006  0.1294914E+03  0.7546771E-02  0.1241963E+00
         -3   -1    0    0    0  501 -0.00000000000E+00  0.00000000000E+00  0.34277803808E+03  0.34277803808E+03  0.00000000000E+00 0.  1.
          3   -1    0    0  501    0  0.00000000000E+00 -0.00000000000E+00 -0.38128734552E+02  0.38128734552E+02  0.00000000000E+00 0. -1.
          5    1    1    2  502    0 -0.51672514373E+02  0.14990122238E+02  0.58941606245E+02  0.79943451596E+02  0.47000000000E+01 0.  1.
         -5    1    1    2    0  502  0.74535653157E+02  0.99182344746E+01  0.93291415045E+02  0.11991377355E+03  0.47000000000E+01 0.  1.
        -11    1    1    2    0    0 -0.43527415354E+02  0.61096036704E+01  0.30335298362E+02  0.53405931048E+02  0.00000000000E+00 0. -1.
         11    1    1    2    0    0  0.20664276571E+02 -0.31017960383E+02  0.12208098388E+03  0.12764361643E+03  0.00000000000E+00 0.  1.
<mgrwt>
<rscale>  0 0.12068990E+03</rscale>
<asrwt>0</asrwt>
<pdfrwt beam="2">  1        3 0.58659594E-02 0.12949138E+03</pdfrwt>
<pdfrwt beam="1">  1       -3 0.52735081E-01 0.12949138E+03</pdfrwt>
<totfact> 0.14448934E+03</totfact>
</mgrwt>
</event>
<event>
 6    1  0.9240440E-006  0.1442167E+03  0.7546771E-02  0.1218129E+00
          1   -1    0    0  501    0  0.00000000000E+00  0.00000000000E+00  0.33066517356E+03  0.33066517356E+03  0.00000000000E+00 0. -1.
         -1   -1    0    0    0  501 -0.00000000000E+00 -0.00000000000E+00 -0.51184251143E+02  0.51184251143E+02  0.00000000000E+00 0.  1.
          5    1    1    2  502    0 -0.51083802453E+02 -0.19614963697E+02  0.15149361961E+03  0.16114188921E+03  0.47000000000E+01 0. -1.
         -5    1    1    2    0  502 -0.12028862682E+02  0.54096368930E+02  0.12051417440E+02  0.56907269580E+02  0.47000000000E+01 0. -1.
        -11    1    1    2    0    0  0.24755090626E+02 -0.34283996944E+02  0.64103324355E+00  0.42292054596E+02  0.00000000000E+00 0.  1.
         11    1    1    2    0    0  0.38357574509E+02 -0.19740828833E+00  0.11529485212E+03  0.12150821132E+03  0.00000000000E+00 0. -1.
<mgrwt>
<rscale>  0 0.13649187E+03</rscale>
<asrwt>0</asrwt>
<pdfrwt beam="1">  1        1 0.50871564E-01 0.14421670E+03</pdfrwt>
<pdfrwt beam="2">  1       -1 0.78745004E-02 0.14421670E+03</pdfrwt>
<totfact> 0.65429833E+03</totfact>
</mgrwt>
</event>
<event>
 6    1  0.9240440E-006  0.1257493E+03  0.7546771E-02  0.1251514E+00
         -1   -1    0    0    0  501 -0.00000000000E+00  0.00000000000E+00  0.10338580903E+02  0.10338580903E+02  0.00000000000E+00 0.  1.
          1   -1    0    0  501    0  0.00000000000E+00 -0.00000000000E+00 -0.12444791994E+04  0.12444791994E+04  0.00000000000E+00 0. -1.
          5    1    1    2  502    0 -0.18386034741E+01 -0.11094752855E+02 -0.48913783101E+01  0.13133529055E+02  0.47000000000E+01 0. -1.
         -5    1    1    2    0  502 -0.44299482125E+01  0.22886284979E+02 -0.91545995049E+03  0.91576875762E+03  0.47000000000E+01 0. -1.
        -11    1    1    2    0    0 -0.33586763888E+02 -0.26678904598E+02 -0.19707015217E+03  0.20168410829E+03  0.00000000000E+00 0. -1.
         11    1    1    2    0    0  0.39855315574E+02  0.14887372475E+02 -0.11671913752E+03  0.12423138533E+03  0.00000000000E+00 0.  1.
<mgrwt>
<rscale>  0 0.11503825E+03</rscale>
<asrwt>0</asrwt>
<pdfrwt beam="2">  1        1 0.19145842E+00 0.12574931E+03</pdfrwt>
<pdfrwt beam="1">  1       -1 0.15905503E-02 0.12574931E+03</pdfrwt>
<totfact> 0.98613604E+03</totfact>
</mgrwt>
</event>
<event>
 6    1  0.9240440E-006  0.1225408E+03  0.7546771E-02  0.1248338E+00
          2   -1    0    0  501    0  0.00000000000E+00  0.00000000000E+00  0.60103140575E+03  0.60103140575E+03  0.00000000000E+00 0. -1.
         -2   -1    0    0    0  501 -0.00000000000E+00 -0.00000000000E+00 -0.23715326810E+02  0.23715326810E+02  0.00000000000E+00 0.  1.
          5    1    1    2  502    0 -0.37783240349E+02  0.24219317725E+01  0.86392313722E+02  0.94441309155E+02  0.47000000000E+01 0. -1.
         -5    1    1    2    0  502  0.77143847064E+02 -0.20619282876E+02  0.33414634111E+03  0.34358724546E+03  0.47000000000E+01 0.  1.
        -11    1    1    2    0    0 -0.10745889897E+02 -0.30009290266E+02  0.17015767889E+02  0.36132644642E+02  0.00000000000E+00 0.  1.
         11    1    1    2    0    0 -0.28614716819E+02  0.48206641369E+02  0.13976165622E+03  0.15058553330E+03  0.00000000000E+00 0. -1.
<mgrwt>
<rscale>  0 0.11687822E+03</rscale>
<asrwt>0</asrwt>
<pdfrwt beam="1">  1        2 0.92466359E-01 0.12254083E+03</pdfrwt>
<pdfrwt beam="2">  1       -2 0.36485123E-02 0.12254083E+03</pdfrwt>
<totfact> 0.14957819E+04</totfact>
</mgrwt>
</event>
<event>
 6    1  0.9240440E-006  0.1587899E+03  0.7546771E-02  0.1212663E+00
          2   -1    0    0  501    0  0.00000000000E+00  0.00000000000E+00  0.19706647696E+03  0.19706647696E+03  0.00000000000E+00 0. -1.
         -2   -1    0    0    0  501 -0.00000000000E+00 -0.00000000000E+00 -0.83609126308E+02  0.83609126308E+02  0.00000000000E+00 0.  1.
          5    1    1    2  502    0  0.20649186476E+02 -0.66093489661E+02  0.59824157593E+02  0.91628369566E+02  0.47000000000E+01 0. -1.
         -5    1    1    2    0  502 -0.56637993581E+02  0.61466410756E+02  0.19878828370E+02  0.86042081481E+02  0.47000000000E+01 0.  1.
        -11    1    1    2    0    0  0.12750319711E+01  0.28872034654E+02 -0.19578628543E+02  0.34907632220E+02  0.00000000000E+00 0.  1.
         11    1    1    2    0    0  0.34713775134E+02 -0.24244955749E+02  0.53332993232E+02  0.68097520002E+02  0.00000000000E+00 0. -1.
<mgrwt>
<rscale>  0 0.14049630E+03</rscale>
<asrwt>0</asrwt>
<pdfrwt beam="1">  1        2 0.30317919E-01 0.15878987E+03</pdfrwt>
<pdfrwt beam="2">  1       -2 0.12862943E-01 0.15878987E+03</pdfrwt>
<totfact> 0.73373668E+03</totfact>
</mgrwt>
</event>
<event>
 6    1  0.9240440E-006  0.1376342E+03  0.7546771E-02  0.1228577E+00
          1   -1    0    0  501    0  0.00000000000E+00  0.00000000000E+00  0.15582661818E+03  0.15582661818E+03  0.00000000000E+00 0. -1.
         -1   -1    0    0    0  501 -0.00000000000E+00 -0.00000000000E+00 -0.98289236576E+02  0.98289236576E+02  0.00000000000E+00 0.  1.
          5    1    1    2  502    0 -0.88862082064E+02 -0.18368834562E+02  0.47215031902E+02  0.10239742648E+03  0.47000000000E+01 0. -1.
         -5    1    1    2    0  502  0.32415609404E+02  0.29852036392E+02  0.41572040787E+01  0.44511663141E+02  0.47000000000E+01 0. -1.
        -11    1    1    2    0    0  0.45509433811E+02  0.13631824362E+02 -0.34120162411E+02  0.58490346932E+02  0.00000000000E+00 0.  1.
         11    1    1    2    0    0  0.10937038848E+02 -0.25115026191E+02  0.40285308033E+02  0.48716418204E+02  0.00000000000E+00 0. -1.
<mgrwt>
<rscale>  0 0.12924701E+03</rscale>
<asrwt>0</asrwt>
<pdfrwt beam="1">  1        1 0.23973326E-01 0.13763420E+03</pdfrwt>
<pdfrwt beam="2">  1       -1 0.15121421E-01 0.13763420E+03</pdfrwt>
<totfact> 0.61004000E+03</totfact>
</mgrwt>
</event>
<event>
 6    1  0.9240440E-006  0.1253986E+03  0.7546771E-02  0.1250679E+00
          2   -1    0    0  501    0  0.00000000000E+00  0.00000000000E+00  0.11585433191E+03  0.11585433191E+03  0.00000000000E+00 0. -1.
         -2   -1    0    0    0  501 -0.00000000000E+00 -0.00000000000E+00 -0.11393204234E+03  0.11393204234E+03  0.00000000000E+00 0.  1.
          5    1    1    2  502    0 -0.53778755093E+02  0.34123214868E+02 -0.39976159564E+00  0.63865468774E+02  0.47000000000E+01 0. -1.
         -5    1    1    2    0  502  0.46965714999E+02 -0.26875351426E+02  0.40623693107E+02  0.67826523878E+02  0.47000000000E+01 0. -1.
        -11    1    1    2    0    0 -0.28506957092E+00  0.24708637440E+02 -0.55763332705E+02  0.60993010281E+02  0.00000000000E+00 0.  1.
         11    1    1    2    0    0  0.70981096650E+01 -0.31956500882E+02  0.17461690767E+02  0.37101371321E+02  0.00000000000E+00 0. -1.
<mgrwt>
<rscale>  0 0.11551832E+03</rscale>
<asrwt>0</asrwt>
<pdfrwt beam="1">  1        2 0.17823743E-01 0.12539863E+03</pdfrwt>
<pdfrwt beam="2">  1       -2 0.17528006E-01 0.12539863E+03</pdfrwt>
<totfact> 0.78558063E+03</totfact>
</mgrwt>
</event>
<event>
 6    1  0.9240440E-006  0.1536250E+03  0.7546771E-02  0.1205661E+00
          2   -1    0    0  501    0  0.00000000000E+00  0.00000000000E+00  0.13431216380E+04  0.13431216380E+04  0.00000000000E+00 0. -1.
         -2   -1    0    0    0  501 -0.00000000000E+00 -0.00000000000E+00 -0.15072757198E+02  0.15072757198E+02  0.00000000000E+00 0.  1.
          5    1    1    2  502    0  0.10650776249E+02 -0.25750314992E+02  0.58651062470E+02  0.65104184856E+02  0.47000000000E+01 0. -1.
         -5    1    1    2    0  502  0.40971619172E+02  0.98625180017E+02  0.81048646869E+03  0.81750596673E+03  0.47000000000E+01 0. -1.
        -11    1    1    2    0    0 -0.29540337283E+02 -0.89080576541E+02  0.39599161097E+03  0.40696109962E+03  0.00000000000E+00 0.  1.
         11    1    1    2    0    0 -0.22082058137E+02  0.16205711516E+02  0.62919738700E+02  0.68623144022E+02  0.00000000000E+00 0. -1.
<mgrwt>
<rscale>  0 0.14585452E+03</rscale>
<asrwt>0</asrwt>
<pdfrwt beam="1">  1        2 0.20663400E+00 0.15362497E+03</pdfrwt>
<pdfrwt beam="2">  1       -2 0.23188868E-02 0.15362497E+03</pdfrwt>
<totfact> 0.10083499E+04</totfact>
</mgrwt>
</event>
<event>
 6    1  0.9240440E-006  0.4169059E+03  0.7546771E-02  0.1038078E+00
         -2   -1    0    0    0  501 -0.00000000000E+00  0.00000000000E+00  0.31811072644E+02  0.31811072644E+02  0.00000000000E+00 0.  1.
          2   -1    0    0  501    0  0.00000000000E+00 -0.00000000000E+00 -0.13659596312E+04  0.13659596312E+04  0.00000000000E+00 0. -1.
          5    1    1    2  502    0 -0.23335424620E+02 -0.21216461261E+02 -0.60336639868E+03  0.60420839230E+03  0.47000000000E+01 0.  1.
         -5    1    1    2    0  502  0.33477474714E+02 -0.11496172534E+03 -0.47180246250E+03  0.48678187438E+03  0.47000000000E+01 0.  1.
        -11    1    1    2    0    0 -0.45449237301E+02  0.37995985754E+02 -0.10934351796E+03  0.12435969212E+03  0.00000000000E+00 0. -1.
         11    1    1    2    0    0  0.35307187206E+02  0.98182200844E+02 -0.14963617942E+03  0.18242074504E+03  0.00000000000E+00 0.  1.
<mgrwt>
<rscale>  0 0.41690594E+03</rscale>
<asrwt>0</asrwt>
<pdfrwt beam="2">  1        2 0.21014765E+00 0.41690594E+03</pdfrwt>
<pdfrwt beam="1">  1       -2 0.48940108E-02 0.41690594E+03</pdfrwt>
<totfact> 0.32682646E+03</totfact>
</mgrwt>
</event>
<event>
 6    1  0.9240440E-006  0.1416503E+03  0.7546771E-02  0.1221029E+00
         -2   -1    0    0    0  501 -0.00000000000E+00  0.00000000000E+00  0.53049464900E+02  0.53049464900E+02  0.00000000000E+00 0.  1.
          2   -1    0    0  501    0  0.00000000000E+00 -0.00000000000E+00 -0.32026745077E+03  0.32026745077E+03  0.00000000000E+00 0. -1.
          5    1    1    2  502    0  0.47991905942E+02  0.43066659844E+02 -0.17062948649E+03  0.18246772834E+03  0.47000000000E+01 0.  1.
         -5    1    1    2    0  502 -0.39201370334E+02  0.22964512421E+02 -0.94424739970E+01  0.46640825271E+02  0.47000000000E+01 0.  1.
        -11    1    1    2    0    0 -0.29264953508E+02 -0.66551293310E+02 -0.22058133748E+02  0.75974162776E+02  0.00000000000E+00 0.  1.
         11    1    1    2    0    0  0.20474417899E+02  0.52012104506E+00 -0.65087891632E+02  0.68234199279E+02  0.00000000000E+00 0. -1.
<mgrwt>
<rscale>  0 0.13442858E+03</rscale>
<asrwt>0</asrwt>
<pdfrwt beam="2">  1        2 0.49271916E-01 0.14165034E+03</pdfrwt>
<pdfrwt beam="1">  1       -2 0.81614560E-02 0.14165034E+03</pdfrwt>
<totfact> 0.88797048E+03</totfact>
</mgrwt>
</event>
<event>
 6    1  0.9240440E-006  0.1257593E+03  0.7546771E-02  0.1249307E+00
          1   -1    0    0  501    0  0.00000000000E+00  0.00000000000E+00  0.93505896378E+03  0.93505896378E+03  0.00000000000E+00 0. -1.
         -1   -1    0    0    0  501 -0.00000000000E+00 -0.00000000000E+00 -0.20303126697E+02  0.20303126697E+02  0.00000000000E+00 0.  1.
          5    1    1    2  502    0 -0.24080122737E+02 -0.47743089924E+02  0.22836410551E+03  0.23458795713E+03  0.47000000000E+01 0.  1.
         -5    1    1    2    0  502  0.36888073679E+02  0.52907969518E+02  0.56375372516E+03  0.56745073430E+03  0.47000000000E+01 0.  1.
        -11    1    1    2    0    0 -0.50151371608E+02  0.10435366557E+02  0.62065462082E+02  0.80474707410E+02  0.00000000000E+00 0.  1.
         11    1    1    2    0    0  0.37343420666E+02 -0.15600246151E+02  0.60572544331E+02  0.72848691641E+02  0.00000000000E+00 0. -1.
<mgrwt>
<rscale>  0 0.11631283E+03</rscale>
<asrwt>0</asrwt>
<pdfrwt beam="1">  1        1 0.14385519E+00 0.12575931E+03</pdfrwt>
<pdfrwt beam="2">  1       -1 0.31235587E-02 0.12575931E+03</pdfrwt>
<totfact> 0.61641414E+03</totfact>
</mgrwt>
</event>
<event>
 6    1  0.9240440E-006  0.1279491E+03  0.7546771E-02  0.1244451E+00
         -2   -1    0    0    0  501 -0.00000000000E+00  0.00000000000E+00  0.37423537493E+03  0.37423537493E+03  0.00000000000E+00 0. -1.
          2   -1    0    0  501    0  0.00000000000E+00 -0.00000000000E+00 -0.34566377210E+02  0.34566377210E+02  0.00000000000E+00 0.  1.
          5    1    1    2  502    0 -0.27433829988E+02  0.65002023424E+02  0.57593827755E+02  0.91197681289E+02  0.47000000000E+01 0.  1.
         -5    1    1    2    0  502  0.31446623700E+02 -0.37974474494E+02  0.10170324638E+03  0.11312201899E+03  0.47000000000E+01 0.  1.
        -11    1    1    2    0    0  0.34639981036E+02  0.75385674907E+01  0.33695832200E+02  0.48909788322E+02  0.00000000000E+00 0.  1.
         11    1    1    2    0    0 -0.38652774749E+02 -0.34566116421E+02  0.14667609138E+03  0.15557226354E+03  0.00000000000E+00 0. -1.
<mgrwt>
<rscale>  0 0.11918318E+03</rscale>
<asrwt>0</asrwt>
<pdfrwt beam="2">  1        2 0.53179045E-02 0.12794914E+03</pdfrwt>
<pdfrwt beam="1">  1       -2 0.57574670E-01 0.12794914E+03</pdfrwt>
<totfact> 0.39554015E+03</totfact>
</mgrwt>
</event>
<event>
 6    1  0.9240440E-006  0.1461471E+03  0.7546771E-02  0.1214953E+00
          4   -1    0    0  501    0  0.00000000000E+00  0.00000000000E+00  0.22230262652E+03  0.22230262652E+03  0.00000000000E+00 0. -1.
         -4   -1    0    0    0  501 -0.00000000000E+00 -0.00000000000E+00 -0.99718770060E+02  0.99718770060E+02  0.00000000000E+00 0.  1.
          5    1    1    2  502    0  0.93147923611E+01 -0.87709988622E+02  0.41147149259E+02  0.97442215456E+02  0.47000000000E+01 0.  1.
         -5    1    1    2    0  502 -0.31845988601E+02  0.15424230084E+02  0.98214381783E+02  0.10449989786E+03  0.47000000000E+01 0.  1.
        -11    1    1    2    0    0  0.13175819575E+02 -0.21133821437E+02 -0.56287260355E+01  0.25532786506E+02  0.00000000000E+00 0.  1.
         11    1    1    2    0    0  0.93553766652E+01  0.93419579975E+02 -0.11148948548E+02  0.94546496757E+02  0.00000000000E+00 0. -1.
<mgrwt>
<rscale>  0 0.13879999E+03</rscale>
<asrwt>0</asrwt>
<pdfrwt beam="1">  1        4 0.34200404E-01 0.14614712E+03</pdfrwt>
<pdfrwt beam="2">  1       -4 0.15341349E-01 0.14614712E+03</pdfrwt>
<totfact> 0.50391874E+02</totfact>
</mgrwt>
</event>
<event>
 6    1  0.9240440E-006  0.3153056E+03  0.7546771E-02  0.1079231E+00
          2   -1    0    0  501    0  0.00000000000E+00  0.00000000000E+00  0.95432539931E+03  0.95432539931E+03  0.00000000000E+00 0. -1.
         -2   -1    0    0    0  501 -0.00000000000E+00 -0.00000000000E+00 -0.10041007342E+03  0.10041007342E+03  0.00000000000E+00 0.  1.
          5    1    1    2  502    0 -0.22053733338E+03 -0.45977223414E+02  0.31657098063E+03  0.38857418373E+03  0.47000000000E+01 0. -1.
         -5    1    1    2    0  502 -0.39844717641E+02 -0.80491855862E+02  0.13196089984E+03  0.15969442529E+03  0.47000000000E+01 0. -1.
        -11    1    1    2    0    0  0.21760353121E+03  0.82596418557E+02  0.26150511252E+03  0.35008340296E+03  0.00000000000E+00 0.  1.
         11    1    1    2    0    0  0.42778519813E+02  0.43872660719E+02  0.14387833291E+03  0.15638346075E+03  0.00000000000E+00 0. -1.
<mgrwt>
<rscale>  0 0.31233755E+03</rscale>
<asrwt>0</asrwt>
<pdfrwt beam="1">  1        2 0.14681929E+00 0.31530560E+03</pdfrwt>
<pdfrwt beam="2">  1       -2 0.15447704E-01 0.31530560E+03</pdfrwt>
<totfact> 0.91435795E+02</totfact>
</mgrwt>
</event>
<event>
 6    1  0.9240440E-006  0.2364966E+03  0.7546771E-02  0.1122149E+00
         -1   -1    0    0    0  501 -0.00000000000E+00  0.00000000000E+00  0.15805736758E+03  0.15805736758E+03  0.00000000000E+00 0.  1.
          1   -1    0    0  501    0  0.00000000000E+00 -0.00000000000E+00 -0.88465765794E+02  0.88465765794E+02  0.00000000000E+00 0. -1.
          5    1    1    2  502    0 -0.36405435394E+02  0.62806049310E+01 -0.45713864250E+02  0.58963116515E+02  0.47000000000E+01 0.  1.
         -5    1    1    2    0  502 -0.11275778851E+02  0.27458121411E+00  0.77847586015E+02  0.78800731163E+02  0.47000000000E+01 0.  1.
        -11    1    1    2    0    0  0.18902955168E+02 -0.24345664563E+02 -0.23690435581E+02  0.38875054149E+02  0.00000000000E+00 0. -1.
         11    1    1    2    0    0  0.28778259077E+02  0.17790478418E+02  0.61148315606E+02  0.69884231549E+02  0.00000000000E+00 0.  1.
<mgrwt>
<rscale>  0 0.23649665E+03</rscale>
<asrwt>0</asrwt>
<pdfrwt beam="2">  1        1 0.13610118E-01 0.23649665E+03</pdfrwt>
<pdfrwt beam="1">  1       -1 0.24316518E-01 0.23649665E+03</pdfrwt>
<totfact> 0.60866709E+03</totfact>
</mgrwt>
</event>
<event>
 6    1  0.9240440E-006  0.1407509E+03  0.7546771E-02  0.1223249E+00
         -1   -1    0    0    0  501 -0.00000000000E+00  0.00000000000E+00  0.12157977549E+03  0.12157977549E+03  0.00000000000E+00 0.  1.
          1   -1    0    0  501    0  0.00000000000E+00 -0.00000000000E+00 -0.13594331808E+03  0.13594331808E+03  0.00000000000E+00 0. -1.
          5    1    1    2  502    0  0.40461343530E+02  0.36801876604E+02 -0.28519781974E+02  0.61862479790E+02  0.47000000000E+01 0. -1.
         -5    1    1    2    0  502  0.57041981253E+01 -0.82074499187E+02 -0.34791875007E+01  0.82480034182E+02  0.47000000000E+01 0. -1.
        -11    1    1    2    0    0 -0.15631701324E+02  0.69762873423E+02  0.35477327339E+01  0.71580688751E+02  0.00000000000E+00 0.  1.
         11    1    1    2    0    0 -0.30533840332E+02 -0.24490250840E+02  0.14087694154E+02  0.41599890844E+02  0.00000000000E+00 0. -1.
<mgrwt>
<rscale>  0 0.13287619E+03</rscale>
<asrwt>0</asrwt>
<pdfrwt beam="2">  1        1 0.20914357E-01 0.14075094E+03</pdfrwt>
<pdfrwt beam="1">  1       -1 0.18704581E-01 0.14075094E+03</pdfrwt>
<totfact> 0.51850448E+03</totfact>
</mgrwt>
</event>
<event>
 6    1  0.9240440E-006  0.1491403E+03  0.7546771E-02  0.1210722E+00
          1   -1    0    0  501    0  0.00000000000E+00  0.00000000000E+00  0.66157968183E+02  0.66157968183E+02  0.00000000000E+00 0. -1.
         -1   -1    0    0    0  501 -0.00000000000E+00 -0.00000000000E+00 -0.29019583581E+03  0.29019583581E+03  0.00000000000E+00 0.  1.
          5    1    1    2  502    0 -0.54043487826E+02  0.64889363864E+02 -0.38323753259E+01  0.84664663347E+02  0.47000000000E+01 0. -1.
         -5    1    1    2    0  502  0.25597425741E+02  0.11446867402E+02 -0.83401220482E+02  0.88114201783E+02  0.47000000000E+01 0. -1.
        -11    1    1    2    0    0  0.54644003841E+02 -0.78377391091E+02 -0.11432878613E+03  0.14899682523E+03  0.00000000000E+00 0. -1.
         11    1    1    2    0    0 -0.26197941756E+02  0.20411598246E+01 -0.22475485688E+02  0.34578113636E+02  0.00000000000E+00 0.  1.
<mgrwt>
<rscale>  0 0.14195512E+03</rscale>
<asrwt>0</asrwt>
<pdfrwt beam="1">  1        1 0.10178149E-01 0.14914032E+03</pdfrwt>
<pdfrwt beam="2">  1       -1 0.44645513E-01 0.14914032E+03</pdfrwt>
<totfact> 0.30716878E+03</totfact>
</mgrwt>
</event>
<event>
 6    1  0.9240440E-006  0.2601560E+03  0.7546771E-02  0.1107050E+00
          1   -1    0    0  501    0  0.00000000000E+00  0.00000000000E+00  0.14395560336E+03  0.14395560336E+03  0.00000000000E+00 0. -1.
         -1   -1    0    0    0  501 -0.00000000000E+00 -0.00000000000E+00 -0.11753822800E+03  0.11753822800E+03  0.00000000000E+00 0.  1.
          5    1    1    2  502    0  0.15213845024E+02  0.31344222567E+01  0.84427154070E+02  0.85972786553E+02  0.47000000000E+01 0. -1.
         -5    1    1    2    0  502 -0.40576613514E+02  0.44298417539E+02 -0.21451708098E+02  0.63961528601E+02  0.47000000000E+01 0. -1.
        -11    1    1    2    0    0 -0.11286741497E+02 -0.59659042064E+02 -0.40097573714E+02  0.72762677599E+02  0.00000000000E+00 0.  1.
         11    1    1    2    0    0  0.36649509987E+02  0.12226202268E+02  0.35395031026E+01  0.38796838613E+02  0.00000000000E+00 0. -1.
<mgrwt>
<rscale>  0 0.26015600E+03</rscale>
<asrwt>0</asrwt>
<pdfrwt beam="1">  1        1 0.22147016E-01 0.26015600E+03</pdfrwt>
<pdfrwt beam="2">  1       -1 0.18082804E-01 0.26015600E+03</pdfrwt>
<totfact> 0.52647423E+03</totfact>
</mgrwt>
</event>
<event>
 6    1  0.9240440E-006  0.2838304E+03  0.7546771E-02  0.1093615E+00
         -1   -1    0    0    0  501 -0.00000000000E+00  0.00000000000E+00  0.52567095569E+03  0.52567095569E+03  0.00000000000E+00 0.  1.
          1   -1    0    0  501    0  0.00000000000E+00 -0.00000000000E+00 -0.38312788934E+02  0.38312788934E+02  0.00000000000E+00 0. -1.
          5    1    1    2  502    0 -0.86100577203E+02  0.53106977177E+02  0.24273478073E+03  0.26301316354E+03  0.47000000000E+01 0.  1.
         -5    1    1    2    0  502  0.86541167220E+01 -0.80765857726E+01 -0.98268947694E+01  0.16086728530E+02  0.47000000000E+01 0.  1.
        -11    1    1    2    0    0  0.83077782421E+02 -0.51738042419E+01  0.20410140103E+03  0.22042247636E+03  0.00000000000E+00 0. -1.
         11    1    1    2    0    0 -0.56313219396E+01 -0.39856587163E+02  0.50348879758E+02  0.64461376187E+02  0.00000000000E+00 0.  1.
<mgrwt>
<rscale>  0 0.28383037E+03</rscale>
<asrwt>0</asrwt>
<pdfrwt beam="2">  1        1 0.58942756E-02 0.28383037E+03</pdfrwt>
<pdfrwt beam="1">  1       -1 0.80872450E-01 0.28383037E+03</pdfrwt>
<totfact> 0.21105175E+03</totfact>
</mgrwt>
</event>
<event>
 6    1  0.9240440E-006  0.1252568E+03  0.7546771E-02  0.1250813E+00
          2   -1    0    0  501    0  0.00000000000E+00  0.00000000000E+00  0.41138352646E+02  0.41138352646E+02  0.00000000000E+00 0. -1.
         -2   -1    0    0    0  501 -0.00000000000E+00 -0.00000000000E+00 -0.34987830491E+03  0.34987830491E+03  0.00000000000E+00 0.  1.
          5    1    1    2  502    0 -0.48455601753E+02 -0.44021431109E+02 -0.84584432148E+02  0.10706282221E+03  0.47000000000E+01 0. -1.
         -5    1    1    2    0  502  0.44594936268E+02  0.13100752806E+02 -0.51064181137E+01  0.46994718541E+02  0.47000000000E+01 0.  1.
        -11    1    1    2    0    0  0.39383005489E+02 -0.49364037210E+01 -0.88520645785E+02  0.97011823677E+02  0.00000000000E+00 0. -1.
         11    1    1    2    0    0 -0.35522340004E+02  0.35857082024E+02 -0.13052845622E+03  0.13994729312E+03  0.00000000000E+00 0.  1.
<mgrwt>
<rscale>  0 0.11544089E+03</rscale>
<asrwt>0</asrwt>
<pdfrwt beam="1">  1        2 0.63289773E-02 0.12525685E+03</pdfrwt>
<pdfrwt beam="2">  1       -2 0.53827432E-01 0.12525685E+03</pdfrwt>
<totfact> 0.36153008E+03</totfact>
</mgrwt>
</event>
<event>
 6    1  0.9240440E-006  0.1656118E+03  0.7546771E-02  0.1186268E+00
          2   -1    0    0  501    0  0.00000000000E+00  0.00000000000E+00  0.98479597899E+02  0.98479597899E+02  0.00000000000E+00 0. -1.
         -2   -1    0    0    0  501 -0.00000000000E+00 -0.00000000000E+00 -0.33539626331E+03  0.33539626331E+03  0.00000000000E+00 0.  1.
          5    1    1    2  502    0 -0.38202092534E+02 -0.91470646301E+02  0.30487065285E+01  0.99285767461E+02  0.47000000000E+01 0. -1.
         -5    1    1    2    0  502  0.56222437257E+02 -0.30445496881E+02 -0.20177341574E+02  0.67209417826E+02  0.47000000000E+01 0.  1.
        -11    1    1    2    0    0  0.38166356501E+01  0.81799985371E+02 -0.20269648068E+03  0.21861305449E+03  0.00000000000E+00 0.  1.
         11    1    1    2    0    0 -0.21836980373E+02  0.40116157811E+02 -0.17091549689E+02  0.48767621432E+02  0.00000000000E+00 0. -1.
<mgrwt>
<rscale>  0 0.16217010E+03</rscale>
<asrwt>0</asrwt>
<pdfrwt beam="1">  1        2 0.15150707E-01 0.16561176E+03</pdfrwt>
<pdfrwt beam="2">  1       -2 0.51599426E-01 0.16561176E+03</pdfrwt>
<totfact> 0.13644201E+03</totfact>
</mgrwt>
</event>
<event>
 6    1  0.9240440E-006  0.1302106E+03  0.7546771E-02  0.1244250E+00
          1   -1    0    0  501    0  0.00000000000E+00  0.00000000000E+00  0.78039884511E+02  0.78039884511E+02  0.00000000000E+00 0. -1.
         -1   -1    0    0    0  501 -0.00000000000E+00 -0.00000000000E+00 -0.27709385274E+03  0.27709385274E+03  0.00000000000E+00 0.  1.
          5    1    1    2  502    0 -0.31141983681E+02  0.60944708173E+02  0.18635763861E+02  0.71087708477E+02  0.47000000000E+01 0.  1.
         -5    1    1    2    0  502  0.49636831268E+02 -0.29505821943E+02 -0.12495762124E+02  0.59267551138E+02  0.47000000000E+01 0.  1.
        -11    1    1    2    0    0 -0.51157099600E+02 -0.25129312569E+02 -0.10912496228E+03  0.12311290989E+03  0.00000000000E+00 0. -1.
         11    1    1    2    0    0  0.32662252014E+02 -0.63095736605E+01 -0.96069007688E+02  0.10166556774E+03  0.00000000000E+00 0.  1.
<mgrwt>
<rscale>  0 0.11930368E+03</rscale>
<asrwt>0</asrwt>
<pdfrwt beam="1">  1        1 0.12006136E-01 0.13021058E+03</pdfrwt>
<pdfrwt beam="2">  1       -1 0.42629824E-01 0.13021058E+03</pdfrwt>
<totfact> 0.26637958E+03</totfact>
</mgrwt>
</event>
<event>
 6    1  0.9240440E-006  0.1362202E+03  0.7546771E-02  0.1230415E+00
         -1   -1    0    0    0  501 -0.00000000000E+00  0.00000000000E+00  0.76458984276E+02  0.76458984276E+02  0.00000000000E+00 0.  1.
          1   -1    0    0  501    0  0.00000000000E+00 -0.00000000000E+00 -0.19967251472E+03  0.19967251472E+03  0.00000000000E+00 0. -1.
          5    1    1    2  502    0  0.21665735416E+02  0.34626781177E+02 -0.13000033141E+02  0.43122023694E+02  0.47000000000E+01 0.  1.
         -5    1    1    2    0  502 -0.70160195988E+02 -0.58670157255E+02 -0.82288108919E+02  0.12311808690E+03  0.47000000000E+01 0.  1.
        -11    1    1    2    0    0  0.74954005889E+02  0.98051524992E+01 -0.25367408213E+02  0.79735496574E+02  0.00000000000E+00 0.  1.
         11    1    1    2    0    0 -0.26459545317E+02  0.14238223578E+02 -0.25579801684E+01  0.30155891822E+02  0.00000000000E+00 0. -1.
<mgrwt>
<rscale>  0 0.12802599E+03</rscale>
<asrwt>0</asrwt>
<pdfrwt beam="2">  1        1 0.30718848E-01 0.13622021E+03</pdfrwt>
<pdfrwt beam="1">  1       -1 0.11762921E-01 0.13622021E+03</pdfrwt>
<totfact> 0.66068911E+03</totfact>
</mgrwt>
</event>
<event>
 6    1  0.9240440E-006  0.2573850E+03  0.7546771E-02  0.1110980E+00
         -2   -1    0    0    0  501 -0.00000000000E+00  0.00000000000E+00  0.26611005394E+03  0.26611005394E+03  0.00000000000E+00 0.  1.
          2   -1    0    0  501    0  0.00000000000E+00 -0.00000000000E+00 -0.24510909761E+03  0.24510909761E+03  0.00000000000E+00 0. -1.
          5    1    1    2  502    0 -0.68846659218E+02 -0.18011215614E+03  0.26683455782E+01  0.19289754105E+03  0.47000000000E+01 0. -1.
         -5    1    1    2    0  502 -0.50829481493E+02 -0.10410000339E+02 -0.43160789177E+02  0.67653144926E+02  0.47000000000E+01 0. -1.
        -11    1    1    2    0    0  0.87245293141E+02  0.10203510533E+03 -0.65813102639E+01  0.13441063030E+03  0.00000000000E+00 0. -1.
         11    1    1    2    0    0  0.32430847570E+02  0.88487051151E+02  0.68074710194E+02  0.11625783528E+03  0.00000000000E+00 0.  1.
<mgrwt>
<rscale>  0 0.25371308E+03</rscale>
<asrwt>0</asrwt>
<pdfrwt beam="2">  1        2 0.37709092E-01 0.25738497E+03</pdfrwt>
<pdfrwt beam="1">  1       -2 0.40940008E-01 0.25738497E+03</pdfrwt>
<totfact> 0.77768551E+02</totfact>
</mgrwt>
</event>
<event>
 6    1  0.9240440E-006  0.2384874E+03  0.7546771E-02  0.1120805E+00
         -1   -1    0    0    0  501 -0.00000000000E+00  0.00000000000E+00  0.46543968646E+02  0.46543968646E+02  0.00000000000E+00 0.  1.
          1   -1    0    0  501    0  0.00000000000E+00 -0.00000000000E+00 -0.30549732468E+03  0.30549732468E+03  0.00000000000E+00 0. -1.
          5    1    1    2  502    0 -0.13978169409E+02 -0.23656279179E+02 -0.13529840368E+03  0.13814035183E+03  0.47000000000E+01 0. -1.
         -5    1    1    2    0  502  0.11242453724E+02  0.45387678853E+02 -0.71179513470E+01  0.47530930864E+02  0.47000000000E+01 0.  1.
        -11    1    1    2    0    0  0.45201255674E+02 -0.19372501162E+02 -0.80347158489E+01  0.49829749895E+02  0.00000000000E+00 0.  1.
         11    1    1    2    0    0 -0.42465539989E+02 -0.23588985115E+01 -0.10850228516E+03  0.11654026074E+03  0.00000000000E+00 0. -1.
<mgrwt>
<rscale>  0 0.23848738E+03</rscale>
<asrwt>0</asrwt>
<pdfrwt beam="2">  1        1 0.46999589E-01 0.23848738E+03</pdfrwt>
<pdfrwt beam="1">  1       -1 0.71606105E-02 0.23848738E+03</pdfrwt>
<totfact> 0.86006811E+03</totfact>
</mgrwt>
</event>
<event>
 6    1  0.9240440E-006  0.1428962E+03  0.7546771E-02  0.1218546E+00
          2   -1    0    0  501    0  0.00000000000E+00  0.00000000000E+00  0.16207987944E+03  0.16207987944E+03  0.00000000000E+00 0. -1.
         -2   -1    0    0    0  501 -0.00000000000E+00 -0.00000000000E+00 -0.11153450539E+03  0.11153450539E+03  0.00000000000E+00 0.  1.
          5    1    1    2  502    0 -0.73784057211E+02  0.39371500138E+02  0.62367957936E+01  0.83995176906E+02  0.47000000000E+01 0. -1.
         -5    1    1    2    0  502  0.40422489315E+02  0.21309583677E+02  0.54489861142E+02  0.71269284872E+02  0.47000000000E+01 0. -1.
        -11    1    1    2    0    0 -0.33422979305E+02 -0.15949877013E+02  0.18192414979E+01  0.37078346268E+02  0.00000000000E+00 0. -1.
         11    1    1    2    0    0  0.66784547201E+02 -0.44731206802E+02 -0.12000524388E+02  0.81271576781E+02  0.00000000000E+00 0.  1.
<mgrwt>
<rscale>  0 0.13619284E+03</rscale>
<asrwt>0</asrwt>
<pdfrwt beam="1">  1        2 0.24935366E-01 0.14289621E+03</pdfrwt>
<pdfrwt beam="2">  1       -2 0.17159155E-01 0.14289621E+03</pdfrwt>
<totfact> 0.56323957E+03</totfact>
</mgrwt>
</event>
<event>
 6    1  0.1237348E-005  0.3285605E+03  0.7546771E-02  0.1071776E+00
         -1   -1    0    0    0  501 -0.00000000000E+00  0.00000000000E+00  0.47406372855E+02  0.47406372855E+02  0.00000000000E+00 0.  1.
          1   -1    0    0  501    0  0.00000000000E+00 -0.00000000000E+00 -0.56929039298E+03  0.56929039298E+03  0.00000000000E+00 0. -1.
          5    1    1    2  502    0  0.67653853262E+01 -0.27665740403E+02 -0.45348393519E+02  0.53756212900E+02  0.47000000000E+01 0. -1.
         -5    1    1    2    0  502  0.51061833801E+02  0.13908604505E+03 -0.25079754915E+03  0.29133097923E+03  0.47000000000E+01 0. -1.
        -11    1    1    2    0    0 -0.31831820378E+02 -0.31613609023E+02 -0.15650015068E+03  0.16280350803E+03  0.00000000000E+00 0. -1.
         11    1    1    2    0    0 -0.25995398750E+02 -0.79806695628E+02 -0.69237926780E+02  0.10880606568E+03  0.00000000000E+00 0.  1.
<mgrwt>
<rscale>  0 0.32856045E+03</rscale>
<asrwt>0</asrwt>
<pdfrwt beam="2">  1        1 0.87583140E-01 0.32856045E+03</pdfrwt>
<pdfrwt beam="1">  1       -1 0.72932879E-02 0.32856045E+03</pdfrwt>
<totfact> 0.37618053E+03</totfact>
</mgrwt>
</event>
<event>
 6    1  0.9240440E-006  0.1815672E+03  0.7546771E-02  0.1171636E+00
         -2   -1    0    0    0  501 -0.00000000000E+00  0.00000000000E+00  0.38953240238E+03  0.38953240238E+03  0.00000000000E+00 0.  1.
          2   -1    0    0  501    0  0.00000000000E+00 -0.00000000000E+00 -0.79746450775E+02  0.79746450775E+02  0.00000000000E+00 0. -1.
          5    1    1    2  502    0 -0.63596661118E+02  0.67090359766E+02  0.11387565499E+01  0.92569100921E+02  0.47000000000E+01 0. -1.
         -5    1    1    2    0  502 -0.51635529091E+02 -0.33449413858E+01  0.10652119525E+03  0.11851696728E+03  0.47000000000E+01 0. -1.
        -11    1    1    2    0    0 -0.29826794499E+01 -0.20877649091E+02  0.80618974511E+02  0.83331816609E+02  0.00000000000E+00 0.  1.
         11    1    1    2    0    0  0.11821486966E+03 -0.42867769290E+02  0.12150702530E+03  0.17486096834E+03  0.00000000000E+00 0. -1.
<mgrwt>
<rscale>  0 0.17609566E+03</rscale>
<asrwt>0</asrwt>
<pdfrwt beam="2">  1        2 0.12268685E-01 0.18156724E+03</pdfrwt>
<pdfrwt beam="1">  1       -2 0.59928061E-01 0.18156724E+03</pdfrwt>
<totfact> 0.12991556E+03</totfact>
</mgrwt>
</event>
<event>
 6    1  0.9240440E-006  0.2527261E+03  0.7546771E-02  0.1111594E+00
         -1   -1    0    0    0  501 -0.00000000000E+00  0.00000000000E+00  0.21788727968E+02  0.21788727968E+02  0.00000000000E+00 0.  1.
          1   -1    0    0  501    0  0.00000000000E+00 -0.00000000000E+00 -0.73283832007E+03  0.73283832007E+03  0.00000000000E+00 0. -1.
          5    1    1    2  502    0 -0.68214113221E+02  0.75143066183E+02 -0.35470634790E+03  0.36896927905E+03  0.47000000000E+01 0. -1.
         -5    1    1    2    0  502  0.20121432531E+02 -0.26477608693E+02 -0.90056287583E+02  0.96115351232E+02  0.47000000000E+01 0.  1.
        -11    1    1    2    0    0  0.24628153914E+02 -0.38287239590E+02 -0.25885907355E+03  0.26283165456E+03  0.00000000000E+00 0. -1.
         11    1    1    2    0    0  0.23464526776E+02 -0.10378217901E+02 -0.74278830643E+01  0.26710763194E+02  0.00000000000E+00 0.  1.
<mgrwt>
<rscale>  0 0.25272606E+03</rscale>
<asrwt>0</asrwt>
<pdfrwt beam="2">  1        1 0.11274438E+00 0.25272606E+03</pdfrwt>
<pdfrwt beam="1">  1       -1 0.33521112E-02 0.25272606E+03</pdfrwt>
<totfact> 0.83737760E+03</totfact>
</mgrwt>
</event>
<event>
 6    1  0.9240440E-006  0.2076748E+03  0.7546771E-02  0.1155397E+00
         -2   -1    0    0    0  501 -0.00000000000E+00  0.00000000000E+00  0.35929070036E+02  0.35929070036E+02  0.00000000000E+00 0.  1.
          2   -1    0    0  501    0  0.00000000000E+00 -0.00000000000E+00 -0.12734350246E+04  0.12734350246E+04  0.00000000000E+00 0. -1.
          5    1    1    2  502    0 -0.35325865059E+02 -0.48681371458E+02 -0.50686245130E+03  0.51044042474E+03  0.47000000000E+01 0. -1.
         -5    1    1    2    0  502 -0.67254702700E+02  0.11664626185E+03 -0.51658583632E+03  0.53386567760E+03  0.47000000000E+01 0.  1.
        -11    1    1    2    0    0  0.11627632315E+02 -0.62732194345E+02 -0.70997427698E+02  0.95452421552E+02  0.00000000000E+00 0.  1.
         11    1    1    2    0    0  0.90952935445E+02 -0.52326960429E+01 -0.14306023927E+03  0.16960557076E+03  0.00000000000E+00 0. -1.
<mgrwt>
<rscale>  0 0.19343701E+03</rscale>
<asrwt>0</asrwt>
<pdfrwt beam="2">  1        2 0.19591304E+00 0.20767484E+03</pdfrwt>
<pdfrwt beam="1">  1       -2 0.55275503E-02 0.20767484E+03</pdfrwt>
<totfact> 0.30390566E+03</totfact>
</mgrwt>
</event>
<event>
 6    1  0.9240440E-006  0.5890502E+03  0.7546771E-02  0.1038457E+00
         -2   -1    0    0    0  501 -0.00000000000E+00  0.00000000000E+00  0.16958038669E+03  0.16958038669E+03  0.00000000000E+00 0.  1.
          2   -1    0    0  501    0  0.00000000000E+00 -0.00000000000E+00 -0.12116946524E+04  0.12116946524E+04  0.00000000000E+00 0. -1.
          5    1    1    2  502    0 -0.20830994974E+03 -0.15712993924E+02 -0.88196267633E+02  0.22680521371E+03  0.47000000000E+01 0.  1.
         -5    1    1    2    0  502  0.13428571584E+03 -0.71053363977E+02 -0.99186433152E+03  0.10034431604E+04  0.47000000000E+01 0. -1.
        -11    1    1    2    0    0  0.86539592173E+02  0.83210841943E+02  0.52910748604E+02  0.13119715145E+03  0.00000000000E+00 0.  1.
         11    1    1    2    0    0 -0.12515358266E+02  0.35555159578E+01 -0.14964415181E+02  0.19829513559E+02  0.00000000000E+00 0. -1.
<mgrwt>
<rscale>  0 0.41575511E+03</rscale>
<asrwt>0</asrwt>
<pdfrwt beam="2">  1        2 0.18641456E+00 0.58905022E+03</pdfrwt>
<pdfrwt beam="1">  1       -2 0.26089290E-01 0.58905022E+03</pdfrwt>
<totfact> 0.25257339E+02</totfact>
</mgrwt>
</event>
<event>
 6    1  0.9240440E-006  0.2122266E+03  0.7546771E-02  0.1143432E+00
          2   -1    0    0  501    0  0.00000000000E+00  0.00000000000E+00  0.47252183774E+03  0.47252183774E+03  0.00000000000E+00 0. -1.
         -2   -1    0    0    0  501 -0.00000000000E+00 -0.00000000000E+00 -0.87546074490E+02  0.87546074490E+02  0.00000000000E+00 0.  1.
          5    1    1    2  502    0  0.10421161458E+03 -0.52743051254E+02  0.94929646242E+02  0.15058425483E+03  0.47000000000E+01 0. -1.
         -5    1    1    2    0  502 -0.13824186861E+02 -0.93011119985E+02  0.10422078991E+03  0.14045013219E+03  0.47000000000E+01 0. -1.
        -11    1    1    2    0    0 -0.26999663153E+02  0.11387546620E+03  0.80524946083E+02  0.14205939094E+03  0.00000000000E+00 0.  1.
         11    1    1    2    0    0 -0.63387764561E+02  0.31878705043E+02  0.10530038101E+03  0.12697413427E+03  0.00000000000E+00 0. -1.
<mgrwt>
<rscale>  0 0.20766111E+03</rscale>
<asrwt>0</asrwt>
<pdfrwt beam="1">  1        2 0.72695666E-01 0.21222657E+03</pdfrwt>
<pdfrwt beam="2">  1       -2 0.13468627E-01 0.21222657E+03</pdfrwt>
<totfact> 0.26879276E+03</totfact>
</mgrwt>
</event>
<event>
 6    1  0.9240440E-006  0.3072803E+03  0.7546771E-02  0.1081657E+00
         -2   -1    0    0    0  501 -0.00000000000E+00  0.00000000000E+00  0.33082942664E+02  0.33082942664E+02  0.00000000000E+00 0.  1.
          2   -1    0    0  501    0  0.00000000000E+00 -0.00000000000E+00 -0.71351881376E+03  0.71351881376E+03  0.00000000000E+00 0. -1.
          5    1    1    2  502    0 -0.40417022388E+01  0.13396500002E+02 -0.41608339655E+03  0.41634515063E+03  0.47000000000E+01 0.  1.
         -5    1    1    2    0  502 -0.43320846974E+02 -0.62465099291E+02 -0.16191511274E+03  0.17893344614E+03  0.47000000000E+01 0.  1.
        -11    1    1    2    0    0  0.38690621285E+02  0.19324238041E+02 -0.11104284311E+03  0.11916754322E+03  0.00000000000E+00 0. -1.
         11    1    1    2    0    0  0.86719279277E+01  0.29744361248E+02  0.86054813036E+01  0.32155616438E+02  0.00000000000E+00 0.  1.
<mgrwt>
<rscale>  0 0.30728034E+03</rscale>
<asrwt>0</asrwt>
<pdfrwt beam="2">  1        2 0.10977211E+00 0.30728034E+03</pdfrwt>
<pdfrwt beam="1">  1       -2 0.50896840E-02 0.30728034E+03</pdfrwt>
<totfact> 0.78124425E+03</totfact>
</mgrwt>
</event>
<event>
 6    1  0.9240440E-006  0.1697858E+03  0.7546771E-02  0.1190576E+00
         -1   -1    0    0    0  501 -0.00000000000E+00  0.00000000000E+00  0.11125809405E+03  0.11125809405E+03  0.00000000000E+00 0.  1.
          1   -1    0    0  501    0  0.00000000000E+00 -0.00000000000E+00 -0.23554576434E+03  0.23554576434E+03  0.00000000000E+00 0. -1.
          5    1    1    2  502    0 -0.19213446010E+02  0.10955960185E+03 -0.42979305803E+02  0.11933890226E+03  0.47000000000E+01 0. -1.
         -5    1    1    2    0  502  0.24923017194E+02 -0.17947344704E+02 -0.93416045238E+02  0.98447506194E+02  0.47000000000E+01 0.  1.
        -11    1    1    2    0    0 -0.36091558404E+02 -0.84500245856E+02 -0.74578223181E+01  0.92187370347E+02  0.00000000000E+00 0.  1.
         11    1    1    2    0    0  0.30381987220E+02 -0.71120112898E+01  0.19565503070E+02  0.36830079587E+02  0.00000000000E+00 0. -1.
<mgrwt>
<rscale>  0 0.15834632E+03</rscale>
<asrwt>0</asrwt>
<pdfrwt beam="2">  1        1 0.36237809E-01 0.16978583E+03</pdfrwt>
<pdfrwt beam="1">  1       -1 0.17116630E-01 0.16978583E+03</pdfrwt>
<totfact> 0.30260328E+03</totfact>
</mgrwt>
</event>
<event>
 6    1  0.9240440E-006  0.1622867E+03  0.7546771E-02  0.1192851E+00
          2   -1    0    0  501    0  0.00000000000E+00  0.00000000000E+00  0.13340564595E+04  0.13340564595E+04  0.00000000000E+00 0. -1.
         -2   -1    0    0    0  501 -0.00000000000E+00 -0.00000000000E+00 -0.19185136036E+02  0.19185136036E+02  0.00000000000E+00 0.  1.
          5    1    1    2  502    0  0.27783392714E+02 -0.76817026169E+02  0.50013799326E+03  0.50678681388E+03  0.47000000000E+01 0.  1.
         -5    1    1    2    0  502  0.69035532042E+02  0.40235446845E+02  0.42257236424E+03  0.43008637376E+03  0.47000000000E+01 0.  1.
        -11    1    1    2    0    0 -0.94842149378E+02 -0.45408053487E+01  0.22504267948E+03  0.24425367919E+03  0.00000000000E+00 0.  1.
         11    1    1    2    0    0 -0.19767753778E+01  0.41122384672E+02  0.16711828647E+03  0.17211472870E+03  0.00000000000E+00 0. -1.
<mgrwt>
<rscale>  0 0.15637515E+03</rscale>
<asrwt>0</asrwt>
<pdfrwt beam="1">  1        2 0.20523938E+00 0.16228668E+03</pdfrwt>
<pdfrwt beam="2">  1       -2 0.29515604E-02 0.16228668E+03</pdfrwt>
<totfact> 0.71704849E+03</totfact>
</mgrwt>
</event>
<event>
 6    1  0.9240440E-006  0.1492746E+03  0.7546771E-02  0.1211864E+00
         -2   -1    0    0    0  501 -0.00000000000E+00  0.00000000000E+00  0.22175754496E+02  0.22175754496E+02  0.00000000000E+00 0. -1.
          2   -1    0    0  501    0  0.00000000000E+00 -0.00000000000E+00 -0.83508167871E+03  0.83508167871E+03  0.00000000000E+00 0.  1.
          5    1    1    2  502    0  0.37160509636E+02  0.48775007909E+02 -0.82806422368E+02  0.10314503603E+03  0.47000000000E+01 0.  1.
         -5    1    1    2    0  502  0.24483117586E+01  0.22601963597E+02 -0.43845859133E+03  0.43907273806E+03  0.47000000000E+01 0.  1.
        -11    1    1    2    0    0 -0.25466244760E+02 -0.72153181419E+02 -0.29096735699E+03  0.30085979134E+03  0.00000000000E+00 0.  1.
         11    1    1    2    0    0 -0.14142576635E+02  0.77620991275E+00 -0.67355351715E+00  0.14179867772E+02  0.00000000000E+00 0. -1.
<mgrwt>
<rscale>  0 0.14109398E+03</rscale>
<asrwt>0</asrwt>
<pdfrwt beam="2">  1        2 0.12847411E+00 0.14927458E+03</pdfrwt>
<pdfrwt beam="1">  1       -2 0.34116545E-02 0.14927458E+03</pdfrwt>
<totfact> 0.11305037E+04</totfact>
</mgrwt>
</event>
<event>
 6    1  0.9240440E-006  0.1375860E+03  0.7546771E-02  0.1227766E+00
          2   -1    0    0  501    0  0.00000000000E+00  0.00000000000E+00  0.95828241112E+02  0.95828241112E+02  0.00000000000E+00 0.  1.
         -2   -1    0    0    0  501 -0.00000000000E+00 -0.00000000000E+00 -0.15937769193E+03  0.15937769193E+03  0.00000000000E+00 0. -1.
          5    1    1    2  502    0  0.40471697081E+02  0.21451426160E+02 -0.13316527836E+02  0.47932680527E+02  0.47000000000E+01 0.  1.
         -5    1    1    2    0  502 -0.45952011495E+02 -0.78673943435E+02 -0.13127460951E+02  0.92171562681E+02  0.47000000000E+01 0.  1.
        -11    1    1    2    0    0 -0.19732846397E+02  0.48911575067E+02  0.16516587321E+02  0.55267757863E+02  0.00000000000E+00 0.  1.
         11    1    1    2    0    0  0.25213160812E+02  0.83109422080E+01 -0.53622049349E+02  0.59833931969E+02  0.00000000000E+00 0. -1.
<mgrwt>
<rscale>  0 0.12979092E+03</rscale>
<asrwt>0</asrwt>
<pdfrwt beam="1">  1        2 0.14742807E-01 0.13758603E+03</pdfrwt>
<pdfrwt beam="2">  1       -2 0.24519645E-01 0.13758603E+03</pdfrwt>
<totfact> 0.55701271E+03</totfact>
</mgrwt>
</event>
<event>
 6    1  0.9240440E-006  0.1953496E+03  0.7546771E-02  0.1218406E+00
         -2   -1    0    0    0  501 -0.00000000000E+00  0.00000000000E+00  0.15406479882E+02  0.15406479882E+02  0.00000000000E+00 0.  1.
          2   -1    0    0  501    0  0.00000000000E+00 -0.00000000000E+00 -0.16931714366E+04  0.16931714366E+04  0.00000000000E+00 0. -1.
          5    1    1    2  502    0 -0.54071613061E+02 -0.57246442454E+02 -0.15414111402E+04  0.15434284200E+04  0.47000000000E+01 0. -1.
         -5    1    1    2    0  502  0.37218532961E+02  0.20507911094E+02 -0.90020357039E+02  0.99657153756E+02  0.47000000000E+01 0.  1.
        -11    1    1    2    0    0  0.16356804585E+02  0.14540926797E+02 -0.32985907621E+02  0.39586029226E+02  0.00000000000E+00 0.  1.
         11    1    1    2    0    0  0.49627551547E+00  0.22197604563E+02 -0.13347551812E+02  0.25906313460E+02  0.00000000000E+00 0. -1.
<mgrwt>
<rscale>  0 0.13629297E+03</rscale>
<asrwt>0</asrwt>
<pdfrwt beam="2">  1        2 0.26048785E+00 0.19534962E+03</pdfrwt>
<pdfrwt beam="1">  1       -2 0.23702283E-02 0.19534962E+03</pdfrwt>
<totfact> 0.64368743E+03</totfact>
</mgrwt>
</event>
<event>
 6    1  0.9240440E-006  0.2036604E+03  0.7546771E-02  0.1150623E+00
         -1   -1    0    0    0  501 -0.00000000000E+00  0.00000000000E+00  0.34219204805E+02  0.34219204805E+02  0.00000000000E+00 0.  1.
          1   -1    0    0  501    0  0.00000000000E+00 -0.00000000000E+00 -0.11111471947E+04  0.11111471947E+04  0.00000000000E+00 0. -1.
          5    1    1    2  502    0 -0.72231503665E+02 -0.72569278375E+02 -0.19762829188E+03  0.22262686729E+03  0.47000000000E+01 0. -1.
         -5    1    1    2    0  502 -0.80448100389E+02  0.22140331191E+02 -0.40351858120E+03  0.41208182015E+03  0.47000000000E+01 0. -1.
        -11    1    1    2    0    0  0.48719092851E+02  0.27133582392E+02 -0.62036483855E+02  0.83416464986E+02  0.00000000000E+00 0. -1.
         11    1    1    2    0    0  0.10396051120E+03  0.23295364792E+02 -0.41374463297E+03  0.42724124709E+03  0.00000000000E+00 0.  1.
<mgrwt>
<rscale>  0 0.19895528E+03</rscale>
<asrwt>0</asrwt>
<pdfrwt beam="2">  1        1 0.17094571E+00 0.20366039E+03</pdfrwt>
<pdfrwt beam="1">  1       -1 0.52644933E-02 0.20366039E+03</pdfrwt>
<totfact> 0.21512789E+03</totfact>
</mgrwt>
</event>
<event>
 6    1  0.9240440E-006  0.6336054E+03  0.7546771E-02  0.1018726E+00
          1   -1    0    0  501    0  0.00000000000E+00  0.00000000000E+00  0.70139538135E+03  0.70139538135E+03  0.00000000000E+00 0. -1.
         -1   -1    0    0    0  501 -0.00000000000E+00 -0.00000000000E+00 -0.76577592136E+03  0.76577592136E+03  0.00000000000E+00 0.  1.
          5    1    1    2  502    0 -0.21295731843E+03  0.95316613405E+02  0.64792404645E+03  0.68866808858E+03  0.47000000000E+01 0. -1.
         -5    1    1    2    0  502  0.77751229038E+02  0.39434149738E+02 -0.11143171118E+03  0.14156066558E+03  0.47000000000E+01 0.  1.
        -11    1    1    2    0    0  0.53285668151E+02 -0.60480847073E+00 -0.12875587748E+03  0.13934778150E+03  0.00000000000E+00 0. -1.
         11    1    1    2    0    0  0.81920421241E+02 -0.13414595467E+03 -0.47211699781E+03  0.49759476704E+03  0.00000000000E+00 0.  1.
<mgrwt>
<rscale>  0 0.48149180E+03</rscale>
<asrwt>0</asrwt>
<pdfrwt beam="1">  1        1 0.10790698E+00 0.63360536E+03</pdfrwt>
<pdfrwt beam="2">  1       -1 0.11781168E+00 0.63360536E+03</pdfrwt>
<totfact> 0.18336633E+01</totfact>
</mgrwt>
</event>
<event>
 6    1  0.9240440E-006  0.1508191E+03  0.7546771E-02  0.1208790E+00
          2   -1    0    0  501    0  0.00000000000E+00  0.00000000000E+00  0.72116766942E+03  0.72116766942E+03  0.00000000000E+00 0. -1.
         -2   -1    0    0    0  501 -0.00000000000E+00 -0.00000000000E+00 -0.27976977985E+02  0.27976977985E+02  0.00000000000E+00 0.  1.
          5    1    1    2  502    0 -0.52223867533E+02  0.43923296250E+02  0.99241502385E+02  0.12053030361E+03  0.47000000000E+01 0. -1.
         -5    1    1    2    0  502  0.19054984415E+02  0.33675629266E+02  0.37729810150E+03  0.37930606090E+03  0.47000000000E+01 0. -1.
        -11    1    1    2    0    0  0.50744406509E+02 -0.47566110399E+02  0.70356355104E+02  0.98932028959E+02  0.00000000000E+00 0.  1.
         11    1    1    2    0    0 -0.17575523391E+02 -0.30032815117E+02  0.14629473244E+03  0.15037625393E+03  0.00000000000E+00 0. -1.
<mgrwt>
<rscale>  0 0.14342772E+03</rscale>
<asrwt>0</asrwt>
<pdfrwt beam="1">  1        2 0.11094886E+00 0.15081909E+03</pdfrwt>
<pdfrwt beam="2">  1       -2 0.43041510E-02 0.15081909E+03</pdfrwt>
<totfact> 0.95971051E+03</totfact>
</mgrwt>
</event>
<event>
 6    1  0.9240440E-006  0.1649116E+03  0.7546771E-02  0.1190605E+00
         -1   -1    0    0    0  501 -0.00000000000E+00  0.00000000000E+00  0.21794244530E+02  0.21794244530E+02  0.00000000000E+00 0.  1.
          1   -1    0    0  501    0  0.00000000000E+00 -0.00000000000E+00 -0.11679749406E+04  0.11679749406E+04  0.00000000000E+00 0. -1.
          5    1    1    2  502    0  0.19266598506E+02 -0.41637394594E+02 -0.15015276273E+03  0.15707583074E+03  0.47000000000E+01 0.  1.
         -5    1    1    2    0  502 -0.11363499668E+03 -0.99764965938E+01 -0.63986489091E+03  0.64997046977E+03  0.47000000000E+01 0.  1.
        -11    1    1    2    0    0  0.98710352065E+02  0.11278796498E+02 -0.24423030935E+03  0.26366529704E+03  0.00000000000E+00 0. -1.
         11    1    1    2    0    0 -0.43419538887E+01  0.40335094690E+02 -0.11193273309E+03  0.11905758759E+03  0.00000000000E+00 0.  1.
<mgrwt>
<rscale>  0 0.15832109E+03</rscale>
<asrwt>0</asrwt>
<pdfrwt beam="2">  1        1 0.17968844E+00 0.16491161E+03</pdfrwt>
<pdfrwt beam="1">  1       -1 0.33529609E-02 0.16491161E+03</pdfrwt>
<totfact> 0.38147633E+03</totfact>
</mgrwt>
</event>
<event>
 6    1  0.9240440E-006  0.1262804E+03  0.7546771E-02  0.1247161E+00
          2   -1    0    0  501    0  0.00000000000E+00  0.00000000000E+00  0.12483327517E+03  0.12483327517E+03  0.00000000000E+00 0. -1.
         -2   -1    0    0    0  501 -0.00000000000E+00 -0.00000000000E+00 -0.10326802806E+03  0.10326802806E+03  0.00000000000E+00 0.  1.
          5    1    1    2  502    0  0.31541770166E+02 -0.54765615267E+01  0.77299641644E+02  0.83798571525E+02  0.47000000000E+01 0.  1.
         -5    1    1    2    0  502 -0.19340943790E+02  0.18855992743E+02 -0.39441333900E+02  0.48034668614E+02  0.47000000000E+01 0.  1.
        -11    1    1    2    0    0  0.61563477610E+01  0.30799264964E+02  0.19098380839E+02  0.36759264012E+02  0.00000000000E+00 0. -1.
         11    1    1    2    0    0 -0.18357174137E+02 -0.44178696180E+02 -0.35391441474E+02  0.59508799081E+02  0.00000000000E+00 0.  1.
<mgrwt>
<rscale>  0 0.11756957E+03</rscale>
<asrwt>0</asrwt>
<pdfrwt beam="1">  1        2 0.19205119E-01 0.12628045E+03</pdfrwt>
<pdfrwt beam="2">  1       -2 0.15887389E-01 0.12628045E+03</pdfrwt>
<totfact> 0.84911608E+03</totfact>
</mgrwt>
</event>
<event>
 6    1  0.9240440E-006  0.1874209E+03  0.7546771E-02  0.1165637E+00
         -1   -1    0    0    0  501 -0.00000000000E+00  0.00000000000E+00  0.81954304827E+02  0.81954304827E+02  0.00000000000E+00 0.  1.
          1   -1    0    0  501    0  0.00000000000E+00 -0.00000000000E+00 -0.41908567008E+03  0.41908567008E+03  0.00000000000E+00 0. -1.
          5    1    1    2  502    0 -0.11086763056E+02  0.20102059527E+02  0.10789821323E+02  0.25797661841E+02  0.47000000000E+01 0.  1.
         -5    1    1    2    0  502 -0.10103230410E+03  0.63149413799E+02 -0.25987030661E+03  0.28591964114E+03  0.47000000000E+01 0.  1.
        -11    1    1    2    0    0  0.18458690809E+02  0.11478080497E+02 -0.43893748167E+02  0.48980922066E+02  0.00000000000E+00 0. -1.
         11    1    1    2    0    0  0.93660376346E+02 -0.94729553823E+02 -0.44157131803E+02  0.14034174986E+03  0.00000000000E+00 0.  1.
<mgrwt>
<rscale>  0 0.18225636E+03</rscale>
<asrwt>0</asrwt>
<pdfrwt beam="2">  1        1 0.64474719E-01 0.18742089E+03</pdfrwt>
<pdfrwt beam="1">  1       -1 0.12608355E-01 0.18742089E+03</pdfrwt>
<totfact> 0.23855044E+03</totfact>
</mgrwt>
</event>
<event>
 6    1  0.9240440E-006  0.4894591E+03  0.7546771E-02  0.1016567E+00
         -2   -1    0    0    0  501 -0.00000000000E+00  0.00000000000E+00  0.67790927112E+02  0.67790927112E+02  0.00000000000E+00 0.  1.
          2   -1    0    0  501    0  0.00000000000E+00 -0.00000000000E+00 -0.88348921088E+03  0.88348921088E+03  0.00000000000E+00 0. -1.
          5    1    1    2  502    0  0.31112493411E+02  0.19362755368E+03 -0.29364829434E+03  0.35314448538E+03  0.47000000000E+01 0.  1.
         -5    1    1    2    0  502  0.20983102198E+02  0.16464224673E+02 -0.18369793253E+03  0.18568355255E+03  0.47000000000E+01 0.  1.
        -11    1    1    2    0    0 -0.35960985799E+02 -0.17052019277E+03 -0.18889351064E+03  0.25700406028E+03  0.00000000000E+00 0.  1.
         11    1    1    2    0    0 -0.16134609810E+02 -0.39571585581E+02 -0.14945854626E+03  0.15544803978E+03  0.00000000000E+00 0. -1.
<mgrwt>
<rscale>  0 0.48945910E+03</rscale>
<asrwt>0</asrwt>
<pdfrwt beam="2">  1        2 0.13592142E+00 0.48945910E+03</pdfrwt>
<pdfrwt beam="1">  1       -2 0.10429373E-01 0.48945910E+03</pdfrwt>
<totfact> 0.19350700E+03</totfact>
</mgrwt>
</event>
<event>
 6    1  0.9240440E-006  0.3159159E+03  0.7546771E-02  0.1077544E+00
         -3   -1    0    0    0  501 -0.00000000000E+00  0.00000000000E+00  0.13855583239E+03  0.13855583239E+03  0.00000000000E+00 0.  1.
          3   -1    0    0  501    0  0.00000000000E+00 -0.00000000000E+00 -0.18007696730E+03  0.18007696730E+03  0.00000000000E+00 0. -1.
          5    1    1    2  502    0  0.14624592234E+02  0.38954458878E+02 -0.72749895325E+02  0.83940251573E+02  0.47000000000E+01 0. -1.
         -5    1    1    2    0  502  0.73621047749E+02 -0.58063704171E+02 -0.19939679934E+02  0.95974648995E+02  0.47000000000E+01 0. -1.
        -11    1    1    2    0    0 -0.49950255018E+02 -0.35099352999E+02  0.35135395920E+02  0.70437835031E+02  0.00000000000E+00 0. -1.
         11    1    1    2    0    0 -0.38295384965E+02  0.54208598293E+02  0.16033044423E+02  0.68280064089E+02  0.00000000000E+00 0.  1.
<mgrwt>
<rscale>  0 0.31591590E+03</rscale>
<asrwt>0</asrwt>
<pdfrwt beam="2">  1        3 0.27704149E-01 0.31591590E+03</pdfrwt>
<pdfrwt beam="1">  1       -3 0.21316282E-01 0.31591590E+03</pdfrwt>
<totfact> 0.64169595E+02</totfact>
</mgrwt>
</event>
<event>
 6    1  0.9240440E-006  0.1339368E+03  0.7546771E-02  0.1232792E+00
          1   -1    0    0  501    0  0.00000000000E+00  0.00000000000E+00  0.70545574813E+03  0.70545574813E+03  0.00000000000E+00 0. -1.
         -1   -1    0    0    0  501 -0.00000000000E+00 -0.00000000000E+00 -0.20486196876E+02  0.20486196876E+02  0.00000000000E+00 0.  1.
          5    1    1    2  502    0  0.67968792518E+02 -0.24187524015E+02  0.19008944696E+03  0.20337374688E+03  0.47000000000E+01 0. -1.
         -5    1    1    2    0  502 -0.56823843149E+02 -0.22612570106E+02  0.18606549527E+03  0.19591512450E+03  0.47000000000E+01 0. -1.
        -11    1    1    2    0    0  0.81139695382E+01 -0.24868956111E+02  0.40091602475E+02  0.47871056691E+02  0.00000000000E+00 0.  1.
         11    1    1    2    0    0 -0.19258918907E+02  0.71669050232E+02  0.26872300655E+03  0.27878201693E+03  0.00000000000E+00 0. -1.
<mgrwt>
<rscale>  0 0.12646818E+03</rscale>
<asrwt>0</asrwt>
<pdfrwt beam="1">  1        1 0.10853164E+00 0.13393678E+03</pdfrwt>
<pdfrwt beam="2">  1       -1 0.31517231E-02 0.13393678E+03</pdfrwt>
<totfact> 0.93643800E+03</totfact>
</mgrwt>
</event>
<event>
 6    1  0.9240440E-006  0.1378476E+03  0.7546771E-02  0.1227784E+00
          4   -1    0    0  501    0  0.00000000000E+00  0.00000000000E+00  0.82635779091E+03  0.82635779091E+03  0.00000000000E+00 0.  1.
         -4   -1    0    0    0  501 -0.00000000000E+00 -0.00000000000E+00 -0.20067660023E+02  0.20067660023E+02  0.00000000000E+00 0. -1.
          5    1    1    2  502    0  0.39015358168E+02  0.34949116857E+02  0.27953871381E+03  0.28444265057E+03  0.47000000000E+01 0. -1.
         -5    1    1    2    0  502 -0.54297667079E+01 -0.82368317449E+02  0.29153880189E+03  0.30303627686E+03  0.47000000000E+01 0. -1.
        -11    1    1    2    0    0 -0.34557286304E+02  0.22461270833E+02  0.22970024459E+03  0.23336862918E+03  0.00000000000E+00 0.  1.
         11    1    1    2    0    0  0.97169484411E+00  0.24957929758E+02  0.55123706070E+01  0.25577894331E+02  0.00000000000E+00 0. -1.
<mgrwt>
<rscale>  0 0.12977885E+03</rscale>
<asrwt>0</asrwt>
<pdfrwt beam="1">  1        4 0.12713194E+00 0.13784760E+03</pdfrwt>
<pdfrwt beam="2">  1       -4 0.30873330E-02 0.13784760E+03</pdfrwt>
<totfact> 0.41521045E+02</totfact>
</mgrwt>
</event>
<event>
 6    1  0.9240440E-006  0.2213588E+03  0.7546771E-02  0.1136188E+00
         -1   -1    0    0    0  501 -0.00000000000E+00  0.00000000000E+00  0.56483215275E+03  0.56483215275E+03  0.00000000000E+00 0.  1.
          1   -1    0    0  501    0  0.00000000000E+00 -0.00000000000E+00 -0.80345195463E+02  0.80345195463E+02  0.00000000000E+00 0. -1.
          5    1    1    2  502    0 -0.11150229851E+03 -0.80586560851E+02  0.91194755317E+02  0.16512277178E+03  0.47000000000E+01 0. -1.
         -5    1    1    2    0  502 -0.37389120865E+02 -0.25268928564E+02  0.17650342536E+03  0.18224163705E+03  0.47000000000E+01 0. -1.
        -11    1    1    2    0    0  0.78301561868E+02  0.32225929384E+01  0.10011797166E+03  0.12714215645E+03  0.00000000000E+00 0.  1.
         11    1    1    2    0    0  0.70589857506E+02  0.10263289648E+03  0.11667080494E+03  0.17067078294E+03  0.00000000000E+00 0. -1.
<mgrwt>
<rscale>  0 0.21693684E+03</rscale>
<asrwt>0</asrwt>
<pdfrwt beam="2">  1        1 0.12360800E-01 0.22135880E+03</pdfrwt>
<pdfrwt beam="1">  1       -1 0.86897252E-01 0.22135880E+03</pdfrwt>
<totfact> 0.66023146E+02</totfact>
</mgrwt>
</event>
<event>
 6    1  0.9240440E-006  0.1375914E+03  0.7546771E-02  0.1228256E+00
          2   -1    0    0  501    0  0.00000000000E+00  0.00000000000E+00  0.12834796395E+03  0.12834796395E+03  0.00000000000E+00 0. -1.
         -2   -1    0    0    0  501 -0.00000000000E+00 -0.00000000000E+00 -0.16803761203E+03  0.16803761203E+03  0.00000000000E+00 0.  1.
          5    1    1    2  502    0  0.23824703282E+02  0.23902864728E+02  0.64135392957E+02  0.72625078715E+02  0.47000000000E+01 0.  1.
         -5    1    1    2    0  502 -0.76955329989E+02 -0.19299760620E+01 -0.46754981716E+01  0.77264467283E+02  0.47000000000E+01 0.  1.
        -11    1    1    2    0    0  0.40093541332E+02 -0.41087880441E+02 -0.10752379866E+03  0.12188959452E+03  0.00000000000E+00 0.  1.
         11    1    1    2    0    0  0.13037085375E+02  0.19114991775E+02  0.83742557916E+01  0.24606435453E+02  0.00000000000E+00 0. -1.
<mgrwt>
<rscale>  0 0.12946223E+03</rscale>
<asrwt>0</asrwt>
<pdfrwt beam="1">  1        2 0.19745841E-01 0.13759141E+03</pdfrwt>
<pdfrwt beam="2">  1       -2 0.25851940E-01 0.13759141E+03</pdfrwt>
<totfact> 0.36253930E+03</totfact>
</mgrwt>
</event>
<event>
 6    1  0.9240440E-006  0.1397842E+03  0.7546771E-02  0.1225159E+00
         -1   -1    0    0    0  501 -0.00000000000E+00  0.00000000000E+00  0.28543671877E+03  0.28543671877E+03  0.00000000000E+00 0.  1.
          1   -1    0    0  501    0  0.00000000000E+00 -0.00000000000E+00 -0.55358438227E+02  0.55358438227E+02  0.00000000000E+00 0. -1.
          5    1    1    2  502    0  0.75813235293E+01  0.49561168653E+02  0.23589646285E+02  0.55608878037E+02  0.47000000000E+01 0.  1.
         -5    1    1    2    0  502 -0.70134300824E+02 -0.50889788823E+02  0.84124241457E+02  0.12086177543E+03  0.47000000000E+01 0.  1.
        -11    1    1    2    0    0 -0.16047893998E+02 -0.12847655552E+02  0.31040290750E+01  0.20790193637E+02  0.00000000000E+00 0. -1.
         11    1    1    2    0    0  0.78600871292E+02  0.14176275722E+02  0.11926036373E+03  0.14353430990E+03  0.00000000000E+00 0.  1.
<mgrwt>
<rscale>  0 0.13156016E+03</rscale>
<asrwt>0</asrwt>
<pdfrwt beam="2">  1        1 0.85166830E-02 0.13978415E+03</pdfrwt>
<pdfrwt beam="1">  1       -1 0.43913340E-01 0.13978415E+03</pdfrwt>
<totfact> 0.39978830E+03</totfact>
</mgrwt>
</event>
<event>
 6    1  0.1121403E-005  0.1707101E+03  0.7546771E-02  0.1184269E+00
         -1   -1    0    0    0  501 -0.00000000000E+00  0.00000000000E+00  0.23586705148E+03  0.23586705148E+03  0.00000000000E+00 0.  1.
          1   -1    0    0  501    0  0.00000000000E+00 -0.00000000000E+00 -0.11782874059E+03  0.11782874059E+03  0.00000000000E+00 0. -1.
          5    1    1    2  502    0  0.35624020015E+02 -0.95406182310E+01 -0.57089243625E+02  0.68127571041E+02  0.47000000000E+01 0. -1.
         -5    1    1    2    0  502  0.70607584042E+02 -0.37702943880E+02  0.64224140104E+02  0.10273155831E+03  0.47000000000E+01 0. -1.
        -11    1    1    2    0    0 -0.73909380818E+02  0.41165745771E+02  0.12170419942E+03  0.14821986154E+03  0.00000000000E+00 0.  1.
         11    1    1    2    0    0 -0.32322223239E+02  0.60778163408E+01 -0.10800785009E+02  0.34616801172E+02  0.00000000000E+00 0. -1.
<mgrwt>
<rscale>  0 0.16398571E+03</rscale>
<asrwt>0</asrwt>
<pdfrwt beam="2">  1        1 0.18127499E-01 0.17071009E+03</pdfrwt>
<pdfrwt beam="1">  1       -1 0.36287239E-01 0.17071009E+03</pdfrwt>
<totfact> 0.20924647E+03</totfact>
</mgrwt>
</event>
<event>
 6    1  0.9240440E-006  0.1316864E+03  0.7546771E-02  0.1234862E+00
         -2   -1    0    0    0  501 -0.00000000000E+00  0.00000000000E+00  0.25982754112E+02  0.25982754112E+02  0.00000000000E+00 0.  1.
          2   -1    0    0  501    0  0.00000000000E+00 -0.00000000000E+00 -0.55020797861E+03  0.55020797861E+03  0.00000000000E+00 0. -1.
          5    1    1    2  502    0  0.27555661287E+02  0.61535600739E+02 -0.69318975334E+02  0.96815055485E+02  0.47000000000E+01 0.  1.
         -5    1    1    2    0  502 -0.16675775628E+02 -0.21562995231E+02 -0.21203495240E+03  0.21383160499E+03  0.47000000000E+01 0.  1.
        -11    1    1    2    0    0  0.43279906122E+01  0.32459890495E+02 -0.88028941725E+02  0.93922684028E+02  0.00000000000E+00 0. -1.
         11    1    1    2    0    0 -0.15207876271E+02 -0.72432496003E+02 -0.15484235504E+03  0.17162138821E+03  0.00000000000E+00 0.  1.
<mgrwt>
<rscale>  0 0.12513281E+03</rscale>
<asrwt>0</asrwt>
<pdfrwt beam="2">  1        2 0.84647377E-01 0.13168643E+03</pdfrwt>
<pdfrwt beam="1">  1       -2 0.39973470E-02 0.13168643E+03</pdfrwt>
<totfact> 0.14512973E+04</totfact>
</mgrwt>
</event>
<event>
 6    1  0.9240440E-006  0.1732724E+03  0.7546771E-02  0.1180687E+00
          3   -1    0    0  501    0  0.00000000000E+00  0.00000000000E+00  0.65504918935E+02  0.65504918935E+02  0.00000000000E+00 0. -1.
         -3   -1    0    0    0  501 -0.00000000000E+00 -0.00000000000E+00 -0.40643942626E+03  0.40643942626E+03  0.00000000000E+00 0.  1.
          5    1    1    2  502    0 -0.93626300028E+01 -0.10087376877E+03 -0.21432593057E+03  0.23710940635E+03  0.47000000000E+01 0.  1.
         -5    1    1    2    0  502 -0.33695198916E+02 -0.11125829526E+02  0.32913085285E+01  0.35945420076E+02  0.47000000000E+01 0.  1.
        -11    1    1    2    0    0  0.16088912318E+02  0.42247905937E+02 -0.11371864802E+03  0.12237511823E+03  0.00000000000E+00 0.  1.
         11    1    1    2    0    0  0.26968916600E+02  0.69751692360E+02 -0.16181237267E+02  0.76514400534E+02  0.00000000000E+00 0. -1.
<mgrwt>
<rscale>  0 0.16730532E+03</rscale>
<asrwt>0</asrwt>
<pdfrwt beam="1">  1        3 0.10077680E-01 0.17327241E+03</pdfrwt>
<pdfrwt beam="2">  1       -3 0.62529142E-01 0.17327241E+03</pdfrwt>
<totfact> 0.44128893E+02</totfact>
</mgrwt>
</event>
<event>
 6    1  0.9240440E-006  0.1812128E+03  0.7546771E-02  0.1172098E+00
          2   -1    0    0  501    0  0.00000000000E+00  0.00000000000E+00  0.18120479878E+04  0.18120479878E+04  0.00000000000E+00 0. -1.
         -2   -1    0    0    0  501 -0.00000000000E+00 -0.00000000000E+00 -0.16074366706E+02  0.16074366706E+02  0.00000000000E+00 0.  1.
          5    1    1    2  502    0 -0.85770247141E+02  0.10169345043E+03  0.55415190912E+03  0.56991624081E+03  0.47000000000E+01 0.  1.
         -5    1    1    2    0  502  0.32273095650E+02  0.18104904473E+02  0.36700989177E+03  0.36890065183E+03  0.47000000000E+01 0.  1.
        -11    1    1    2    0    0  0.74995379685E+02 -0.11171580113E+03  0.79285111507E+03  0.80418755142E+03  0.00000000000E+00 0.  1.
         11    1    1    2    0    0 -0.21498228194E+02 -0.80825537745E+01  0.81960705109E+02  0.85117910413E+02  0.00000000000E+00 0. -1.
<mgrwt>
<rscale>  0 0.17563249E+03</rscale>
<asrwt>0</asrwt>
<pdfrwt beam="1">  1        2 0.27877645E+00 0.18121284E+03</pdfrwt>
<pdfrwt beam="2">  1       -2 0.24729809E-02 0.18121284E+03</pdfrwt>
<totfact> 0.52401864E+03</totfact>
</mgrwt>
</event>
<event>
 6    1  0.9240440E-006  0.1546293E+03  0.7546771E-02  0.1203453E+00
          2   -1    0    0  501    0  0.00000000000E+00  0.00000000000E+00  0.15434257022E+04  0.15434257022E+04  0.00000000000E+00 0. -1.
         -2   -1    0    0    0  501 -0.00000000000E+00 -0.00000000000E+00 -0.25177563395E+02  0.25177563395E+02  0.00000000000E+00 0.  1.
          5    1    1    2  502    0  0.63553421538E+02 -0.19666399610E+02  0.11299645594E+04  0.11319310051E+04  0.47000000000E+01 0. -1.
         -5    1    1    2    0  502  0.22518014364E+02  0.49305162760E+02  0.21029651826E+03  0.21722056909E+03  0.47000000000E+01 0. -1.
        -11    1    1    2    0    0 -0.61955713111E+02  0.22336811579E+02  0.12557880803E+03  0.14180084825E+03  0.00000000000E+00 0.  1.
         11    1    1    2    0    0 -0.24115722791E+02 -0.51975574729E+02  0.52408253059E+02  0.77650843156E+02  0.00000000000E+00 0. -1.
<mgrwt>
<rscale>  0 0.14760032E+03</rscale>
<asrwt>0</asrwt>
<pdfrwt beam="1">  1        2 0.23745003E+00 0.15462928E+03</pdfrwt>
<pdfrwt beam="2">  1       -2 0.38734725E-02 0.15462928E+03</pdfrwt>
<totfact> 0.37090543E+03</totfact>
</mgrwt>
</event>
<event>
 6    1  0.9240440E-006  0.1259931E+03  0.7546771E-02  0.1248488E+00
          4   -1    0    0  501    0  0.00000000000E+00  0.00000000000E+00  0.22880859804E+02  0.22880859804E+02  0.00000000000E+00 0. -1.
         -4   -1    0    0    0  501 -0.00000000000E+00 -0.00000000000E+00 -0.54825685805E+03  0.54825685805E+03  0.00000000000E+00 0.  1.
          5    1    1    2  502    0 -0.12604489718E+02  0.39183312371E+02 -0.24613656748E+02  0.48188455338E+02  0.47000000000E+01 0. -1.
         -5    1    1    2    0  502  0.19445409564E+02 -0.53265390723E+02 -0.21659351159E+03  0.22394232531E+03  0.47000000000E+01 0. -1.
        -11    1    1    2    0    0  0.84832105076E+01  0.50986290661E+02 -0.18514913419E+03  0.19222842815E+03  0.00000000000E+00 0. -1.
         11    1    1    2    0    0 -0.15324130354E+02 -0.36904212308E+02 -0.99019695716E+02  0.10677850906E+03  0.00000000000E+00 0.  1.
<mgrwt>
<rscale>  0 0.11679045E+03</rscale>
<asrwt>0</asrwt>
<pdfrwt beam="1">  1        4 0.35201323E-02 0.12599311E+03</pdfrwt>
<pdfrwt beam="2">  1       -4 0.84347207E-01 0.12599311E+03</pdfrwt>
<totfact> 0.86238801E+02</totfact>
</mgrwt>
</event>
<event>
 6    1  0.9240440E-006  0.1472728E+03  0.7546771E-02  0.1214149E+00
         -2   -1    0    0    0  501 -0.00000000000E+00  0.00000000000E+00  0.65697793252E+02  0.65697793252E+02  0.00000000000E+00 0.  1.
          2   -1    0    0  501    0  0.00000000000E+00 -0.00000000000E+00 -0.37494856330E+03  0.37494856330E+03  0.00000000000E+00 0. -1.
          5    1    1    2  502    0  0.72101597049E+02 -0.25303260248E+02 -0.82376913407E+02  0.11245861967E+03  0.47000000000E+01 0. -1.
         -5    1    1    2    0  502  0.21903198461E+01  0.48638297450E+02 -0.20143670588E+03  0.20729041935E+03  0.47000000000E+01 0. -1.
        -11    1    1    2    0    0 -0.94168049146E+02 -0.16213471902E+02 -0.13110320255E+02  0.96448839539E+02  0.00000000000E+00 0. -1.
         11    1    1    2    0    0  0.19876132251E+02 -0.71215652992E+01 -0.12326830507E+02  0.24448477988E+02  0.00000000000E+00 0.  1.
<mgrwt>
<rscale>  0 0.13939205E+03</rscale>
<asrwt>0</asrwt>
<pdfrwt beam="2">  1        2 0.57684396E-01 0.14727280E+03</pdfrwt>
<pdfrwt beam="1">  1       -2 0.10107352E-01 0.14727280E+03</pdfrwt>
<totfact> 0.53895817E+03</totfact>
</mgrwt>
</event>
<event>
 6    1  0.9240440E-006  0.1342356E+03  0.7546771E-02  0.1233147E+00
         -2   -1    0    0    0  501 -0.00000000000E+00  0.00000000000E+00  0.20071823177E+02  0.20071823177E+02  0.00000000000E+00 0.  1.
          2   -1    0    0  501    0  0.00000000000E+00 -0.00000000000E+00 -0.74799991861E+03  0.74799991861E+03  0.00000000000E+00 0. -1.
          5    1    1    2  502    0  0.85592739805E+02 -0.10056088060E+02 -0.23683964129E+03  0.25207607522E+03  0.47000000000E+01 0. -1.
         -5    1    1    2    0  502 -0.37740953904E+02 -0.14068395522E+00 -0.25221846506E+03  0.25506987966E+03  0.47000000000E+01 0. -1.
        -11    1    1    2    0    0 -0.47642874924E+02  0.36450179390E+02 -0.80491405089E+02  0.10038588248E+03  0.00000000000E+00 0.  1.
         11    1    1    2    0    0 -0.20891097754E+00 -0.26253407374E+02 -0.15837858400E+03  0.16053990442E+03  0.00000000000E+00 0. -1.
<mgrwt>
<rscale>  0 0.12623801E+03</rscale>
<asrwt>0</asrwt>
<pdfrwt beam="2">  1        2 0.11507692E+00 0.13423557E+03</pdfrwt>
<pdfrwt beam="1">  1       -2 0.30879726E-02 0.13423557E+03</pdfrwt>
<totfact> 0.14908661E+04</totfact>
</mgrwt>
</event>
<event>
 6    1  0.9240440E-006  0.4909403E+03  0.7546771E-02  0.1016652E+00
          2   -1    0    0  501    0  0.00000000000E+00  0.00000000000E+00  0.16433533789E+04  0.16433533789E+04  0.00000000000E+00 0.  1.
         -2   -1    0    0    0  501 -0.00000000000E+00 -0.00000000000E+00 -0.22520718933E+03  0.22520718933E+03  0.00000000000E+00 0. -1.
          5    1    1    2  502    0  0.39723611938E+03  0.24909556770E+03  0.11717569927E+04  0.12620941630E+04  0.47000000000E+01 0.  1.
         -5    1    1    2    0  502  0.12066161500E+02 -0.78930056639E+01  0.99813342127E+02  0.10095882853E+03  0.47000000000E+01 0.  1.
        -11    1    1    2    0    0 -0.92678770840E+02 -0.40554851074E+02 -0.47340261596E+01  0.10127418977E+03  0.00000000000E+00 0.  1.
         11    1    1    2    0    0 -0.31662351004E+03 -0.20064771096E+03  0.15130988091E+03  0.40423338690E+03  0.00000000000E+00 0. -1.
<mgrwt>
<rscale>  0 0.48914302E+03</rscale>
<asrwt>0</asrwt>
<pdfrwt beam="1">  1        2 0.25282359E+00 0.49094026E+03</pdfrwt>
<pdfrwt beam="2">  1       -2 0.34647261E-01 0.49094026E+03</pdfrwt>
<totfact> 0.86788009E+01</totfact>
</mgrwt>
</event>
<event>
 6    1  0.9240440E-006  0.3298246E+03  0.7546771E-02  0.1071214E+00
          2   -1    0    0  501    0  0.00000000000E+00  0.00000000000E+00  0.74468666762E+03  0.74468666762E+03  0.00000000000E+00 0. -1.
         -2   -1    0    0    0  501 -0.00000000000E+00 -0.00000000000E+00 -0.36520158220E+02  0.36520158220E+02  0.00000000000E+00 0.  1.
          5    1    1    2  502    0 -0.56770652979E+02 -0.12792354815E+03  0.40598147611E+03  0.42945359488E+03  0.47000000000E+01 0.  1.
         -5    1    1    2    0  502  0.17946559379E+02  0.21653410698E+02  0.88654436182E+02  0.93127054303E+02  0.47000000000E+01 0.  1.
        -11    1    1    2    0    0  0.41929096114E+02  0.38775610983E+01  0.79137572925E+02  0.89642847063E+02  0.00000000000E+00 0. -1.
         11    1    1    2    0    0 -0.31050025139E+01  0.10239257635E+03  0.13439302418E+03  0.16898332960E+03  0.00000000000E+00 0.  1.
<mgrwt>
<rscale>  0 0.32982465E+03</rscale>
<asrwt>0</asrwt>
<pdfrwt beam="1">  1        2 0.11456717E+00 0.32982465E+03</pdfrwt>
<pdfrwt beam="2">  1       -2 0.56184864E-02 0.32982465E+03</pdfrwt>
<totfact> 0.63806997E+03</totfact>
</mgrwt>
</event>
<event>
 6    1  0.9240440E-006  0.2403913E+03  0.7546771E-02  0.1122228E+00
         -2   -1    0    0    0  501 -0.00000000000E+00  0.00000000000E+00  0.71983872646E+02  0.71983872646E+02  0.00000000000E+00 0.  1.
          2   -1    0    0  501    0  0.00000000000E+00 -0.00000000000E+00 -0.10109465742E+04  0.10109465742E+04  0.00000000000E+00 0. -1.
          5    1    1    2  502    0 -0.63332008167E+01  0.15151059482E+02 -0.29989675040E+02  0.34512818561E+02  0.47000000000E+01 0.  1.
         -5    1    1    2    0  502  0.60485154936E+01 -0.22047797977E+03 -0.72548031054E+03  0.75828154077E+03  0.47000000000E+01 0.  1.
        -11    1    1    2    0    0 -0.35809019915E+02  0.11427858692E+03 -0.64509099329E+02  0.13602685482E+03  0.00000000000E+00 0.  1.
         11    1    1    2    0    0  0.36093705239E+02  0.91048333374E+02 -0.11898361662E+03  0.15410923266E+03  0.00000000000E+00 0. -1.
<mgrwt>
<rscale>  0 0.23637994E+03</rscale>
<asrwt>0</asrwt>
<pdfrwt beam="2">  1        2 0.15553025E+00 0.24039134E+03</pdfrwt>
<pdfrwt beam="1">  1       -2 0.11074442E-01 0.24039134E+03</pdfrwt>
<totfact> 0.14564169E+03</totfact>
</mgrwt>
</event>
<event>
 6    1  0.9240440E-006  0.1475854E+03  0.7546771E-02  0.1212657E+00
          3   -1    0    0  501    0  0.00000000000E+00  0.00000000000E+00  0.19318956152E+03  0.19318956152E+03  0.00000000000E+00 0. -1.
         -3   -1    0    0    0  501 -0.00000000000E+00 -0.00000000000E+00 -0.11655409056E+03  0.11655409056E+03  0.00000000000E+00 0.  1.
          5    1    1    2  502    0 -0.80136789579E+02  0.52001981605E+02  0.33716477229E+02  0.10141499875E+03  0.47000000000E+01 0. -1.
         -5    1    1    2    0  502  0.44652207695E+01 -0.31209125014E+02  0.76218317261E+02  0.82615189685E+02  0.47000000000E+01 0. -1.
        -11    1    1    2    0    0  0.45391533866E+02 -0.28302824026E+02 -0.62994838258E+02  0.82642548615E+02  0.00000000000E+00 0.  1.
         11    1    1    2    0    0  0.30280034943E+02  0.75099674352E+01  0.29695514719E+02  0.43070915030E+02  0.00000000000E+00 0. -1.
<mgrwt>
<rscale>  0 0.14050082E+03</rscale>
<asrwt>0</asrwt>
<pdfrwt beam="1">  1        3 0.29721471E-01 0.14758540E+03</pdfrwt>
<pdfrwt beam="2">  1       -3 0.17931399E-01 0.14758540E+03</pdfrwt>
<totfact> 0.69617640E+02</totfact>
</mgrwt>
</event>
<event>
 6    1  0.9240440E-006  0.1586825E+03  0.7546771E-02  0.1198170E+00
          1   -1    0    0  501    0  0.00000000000E+00  0.00000000000E+00  0.93349442622E+02  0.93349442622E+02  0.00000000000E+00 0. -1.
         -1   -1    0    0    0  501 -0.00000000000E+00 -0.00000000000E+00 -0.23621919496E+03  0.23621919496E+03  0.00000000000E+00 0.  1.
          5    1    1    2  502    0  0.36142810466E+01  0.66068219779E+02 -0.37746558856E+02  0.76321460926E+02  0.47000000000E+01 0.  1.
         -5    1    1    2    0  502 -0.87242158212E+02 -0.15436434955E+02 -0.94087945582E+01  0.89219353890E+02  0.47000000000E+01 0.  1.
        -11    1    1    2    0    0 -0.19533709763E+02 -0.39078018656E+01 -0.12976955702E+02  0.23774736840E+02  0.00000000000E+00 0. -1.
         11    1    1    2    0    0  0.10316158693E+03 -0.46723982959E+02 -0.82737443219E+02  0.14025308592E+03  0.00000000000E+00 0.  1.
<mgrwt>
<rscale>  0 0.15188953E+03</rscale>
<asrwt>0</asrwt>
<pdfrwt beam="1">  1        1 0.14361453E-01 0.15868249E+03</pdfrwt>
<pdfrwt beam="2">  1       -1 0.36341415E-01 0.15868249E+03</pdfrwt>
<totfact> 0.28137596E+03</totfact>
</mgrwt>
</event>
